72
config_type=amorph dft_energy=-6956.993907447844 dft_virial="-20.098645888413113 -1.8073688449092389 5.9692223646062965 -1.807368844909239 15.438728302895555 7.337640808072723 5.969222364606297 7.337640808072723 -2.779599963291175" pbc="T T T" Lattice="11.105996452100001 0.0 0.0 0.0 11.105996452100001 0.0 0.0 0.0 11.105996452100001" Properties=species:S:1:pos:R:3:Z:I:1:dft_force:R:3
Si	10.743452303917648	8.004047219042663	6.512778439440483	14	1.4577557813278734	0.09432716932240064	-0.7599243730705227
Si	10.69919490805603	4.827221357905265	1.737166647048126	14	0.0692892314937346	-0.1562972353012697	-0.5098715251595213
Si	10.173736897917824	6.070626508689477	7.625776979884137	14	0.36290560239666503	-0.2950536187768932	0.6484170779988927
Si	6.765439858725758	4.209983393086904	1.4805625990223554	14	0.1528833216571771	-0.22559083767404858	-0.9801601125837667
Si	0.7957235443997062	2.9327604831060476	0.9208714654201949	14	-0.12668015889741996	-0.22775570835361322	0.5061562779719073
Si	3.7236629144458973	8.034488755317868	0.4654934034943838	14	0.2728361834844296	-0.26772996831861556	-0.4055563829999414
Si	1.594776666535752	0.03788033269882268	3.604206816607109	14	0.0069525258962124204	-0.5753100122152701	-0.659622469205162
Si	3.123605926138934	3.05483759610753	3.0762166392778227	14	0.6664094159187569	-0.6689689512649644	-0.3826185239967724
Si	0.8154722272908304	2.041326571881789	8.441312511354743	14	0.2841829854833071	0.4669826602035992	1.7193138113254731
Si	2.3575365028659796	10.46834566580268	7.315664240952148	14	0.24484893074302172	0.34903140386808196	-0.8787456914463779
Si	3.34729180068068	5.998992831573433	1.6496291830126737	14	0.8086717586089344	0.12897358484299204	0.29961141717791967
Si	2.1190463350535844	8.230609546665502	6.841382662465217	14	-2.0724067902677934	0.9424898200961493	-1.6254774660086893
Si	9.30602539511525	9.551401280727946	10.153379606421122	14	-0.7671327239460899	2.32897996127069	-0.42289283195263594
Si	4.699780048617418	10.612668089697719	6.849678841814937	14	-1.091787478273848	-1.0560961655511483	0.7033310025371473
Si	5.821774446187273	9.404368993698595	8.503972543337492	14	-0.741420642302481	0.17891602013420838	1.3186134749436955
Si	9.577922400255563	9.482499678739119	7.799619142348858	14	0.21087820170056523	0.28267117555506005	0.3217571186319511
Si	0.8696850383721112	5.719943564717968	9.188712754591718	14	0.525493818195273	0.2895853919820023	-0.2085387529697625
Si	1.7094905038894928	3.7285384468883684	10.035067426216903	14	0.23830058260313658	-1.022354521992717	-0.6221504089377278
Si	6.649715375694876	6.281484957329049	10.01828626557778	14	-0.3355845230437075	-0.3494404667245175	0.6007217887574857
Si	9.584963602006194	0.4203675187102111	6.823668598124118	14	0.25581983714409356	0.5639845503905498	-0.946376560008617
Si	10.37415570989242	7.782504801816172	4.004800108634356	14	-0.007148958342671734	0.5549944235281201	1.2766193546391849
Si	10.733845616986581	4.619994570105532	5.975170469183677	14	-0.1552448818937331	-2.498799153671683	-0.7389351547894938
Si	8.262283848546891	8.333206741890002	3.3082209051621922	14	-1.1341767774660652	0.622032909424597	1.3688999241267479
Si	5.888210516963735	1.3541763593974574	6.5881437313644335	14	0.22546382507123325	1.3309560660330664	1.226785934213543
Si	5.406210270942595	10.535970078199517	2.985247422338672	14	-0.7180554655951034	1.6267506773632265	2.519879903302109
Si	2.1182689153019374	6.189516200709208	3.715910928922331	14	1.245122800246307	-0.7770592473661176	0.13078312876731224
Si	7.6109837926099395	8.458926621727775	7.4051674663596225	14	-0.9705310660492804	0.5127447353547868	-1.1047751596880437
Si	3.596743586991298	0.9190123216141134	2.405192333641941	14	-0.513719955602719	-1.391394267462191	-0.2625373640140444
Si	2.0323973507343003	0.05513905118538609	9.433444492410192	14	-2.1853927280090404	0.4415618847927631	1.1348581203759045
Si	7.922295979158755	6.32951839198438	8.144127152292999	14	-0.21763095271340213	-1.6215930400910092	-0.5687048426478097
Si	6.591042396438431	7.898107118886081	5.2080904002335835	14	1.635854704191339	-0.02623453024466294	-0.2027725350682664
Si	4.074545766353544	4.806208812617892	6.628547346457173	14	3.0347128903979197	0.34681408263998625	1.74954178235339
Si	5.437240425029762	3.2429953879990085	8.050125998322425	14	-0.5488235136492328	0.18009590036562437	0.4481032909482839
Si	9.236179783427993	1.8470382699487513	8.637055698823007	14	-0.05653294955835193	-0.5278486935579967	0.6027797014557322
Si	0.8081911360168335	0.6201755008799422	5.790244522259761	14	0.3174520598838952	0.5259316774312942	0.6641000491201998
Si	8.85877581199273	3.4115733081454347	2.0533099420536045	14	-0.04461484795733753	-1.210537577032335	0.507365211693441
Si	4.607433688118206	7.475990405734664	9.334290156085844	14	-0.5554117139215801	-0.04805781509154782	0.22038923450085698
Si	7.212067506046959	7.54784620277975	1.375788628493244	14	-0.2541756152918589	0.07882160446818362	-0.23703251345923954
Si	1.3947465644369788	8.374765380613761	0.8589677517958347	14	0.2015769710943975	0.49335885835140225	-1.063123253501645
Si	4.457536054004213	3.8677965364012508	1.4298970432078753	14	0.2437405272395059	0.7673330130505295	-1.4752117866779546
Si	4.854275565262581	9.346129148303783	4.951019900356824	14	-0.7505205553620812	-0.2524452614113992	-1.3641780892062958
Si	8.811542009081949	0.9117945345198937	1.953100536066306	14	1.1634583246256356	0.8093710992560146	-0.4339257019919234
Si	7.81692228482123	1.1556122488303615	5.403833587701845	14	1.9207002635156483	0.15650009551102942	-0.7500775539154196
Si	5.810046513933854	5.914753848484254	2.680221229781745	14	0.013119579117119601	0.7617290318947346	-0.0116836167958169
Si	5.613325998777808	9.388076496903365	1.2215041257806707	14	-0.04860108964569511	-2.807832386295285	-2.2114243980439436
Si	1.5254419306852915	2.9546948260989447	6.369477767219037	14	-1.9679718346002946	-0.5957438717471469	-0.11730256646324386
Si	1.070242675302359	8.858309360141742	3.01390089318509	14	0.4566912969386424	0.9872118831453368	1.7407802267539219
Si	0.07907580533859722	6.609878166421193	0.13899709859625758	14	-0.974814013291583	-0.45800667442043025	-0.1550294232679047
Si	2.833528404806534	4.2119158364695695	4.967978756939181	14	-0.562319502585222	0.22441507121114485	-1.1449412241099293
Si	2.7758438592343264	8.20605418850991	4.601436450034073	14	0.07101238627929786	0.08309323884707763	0.1558385501121553
Si	0.2646736650478664	0.6894313841555926	1.8485042614804286	14	-1.6625240083456387	0.7672314543903836	-1.1387309763196434
Si	9.078219195889774	3.3273010070669	4.450650336203911	14	-0.5261054841509363	-0.48363108137262195	0.9846878290525477
Si	8.058022361799868	0.8813207908549765	10.81632985263633	14	0.982434255239438	-1.426168724027726	-1.0082982892074674
Si	3.56565790292187	0.9320552038474597	10.927001107281505	14	1.6815044220400357	-0.793265952641139	0.7730542366089229
Si	8.887984582661753	7.408410417323635	10.5313833016648	14	-0.2561175711401667	-1.2599971587444276	1.2601982191804633
Si	6.030522755500944	10.830956449963745	10.612523711743842	14	-1.2658675064113898	0.21105843618350761	-1.3856797287776301
Si	7.8067825100604615	3.4653041189806943	7.70243056739653	14	-0.8876530287174992	0.4377725897719289	-0.16368119267020298
Si	10.999767596035664	5.572000585979544	3.9160854089749813	14	0.24233233285566075	0.5533689707447225	-0.43181713851886994
Si	7.103950630585766	4.573538186946397	4.309593075265789	14	-0.04222911933077212	0.6293747006662799	0.18748834238211412
Si	6.408815206652374	5.758947824257743	6.13278677083188	14	-0.728051665969307	-0.36429245660635284	0.6595918730518523
Si	0.15012308584197134	10.235563980166663	0.00026321211591477005	14	2.311492331325171	0.5786015412461237	-0.34346264685517325
Si	7.638249013899845	10.690854304720503	3.5860151944185694	14	0.583902389084673	0.6683410873457841	-0.39185496274887227
Si	2.8652360246772792	6.414434840857137	7.7925779405982265	14	0.6115317439655162	-0.8082917492426163	2.486951243245908
Si	4.0522893494635355	3.070308249165306	10.214295996960892	14	-0.3051338942950657	0.6819844006166178	-0.17872961499849768
H	5.809402366139633	2.616650506089925	3.57544228579617	1	0.24848858743422333	-0.29808443772828375	-0.04609657595333887
H	9.621113620457779	2.947487034401532	10.321890890588836	1	-0.4793831011626734	1.547014787843198	0.5961351939768735
H	1.7836896661859727	3.4673920463136896	2.2669448898062	1	0.06635534321291363	-0.2076568638449517	0.022444463892232657
H	7.129361150468171	1.4731326873959005	8.364014776048128	1	0.6284455032035785	0.4458183496502683	-0.23188927437681534
H	5.034425933712096	1.988151060869134	5.603308389978014	1	-0.802467938581949	0.5855070159149774	-1.3503185459780376
H	6.507969542976724	2.527946912427002	3.20624564573901	1	-0.4611205400736616	-0.23338205812569326	0.2595050023994618
H	9.28603460150147	3.6596479508959923	10.616899474345969	1	0.6485428050490479	-0.8125932084432241	-0.16078355697439609
H	6.778878114432799	4.591974141056883	10.95352222680912	1	0.12618856356020766	0.5117821135229234	-0.019769485917150595
