72
config_type=amorph dft_energy=-6958.470206362633 dft_virial="-2.0236997017807696 -8.244469574377218 3.5178918992422696 -8.244469574377217 -0.19872253131221976 14.939406499535101 3.5178918992422696 14.939406499535101 3.9065327990870538" pbc="T T T" Lattice="11.105996452100001 0.0 0.0 0.0 11.105996452100001 0.0 0.0 0.0 11.105996452100001" Properties=species:S:1:pos:R:3:Z:I:1:dft_force:R:3
Si	10.67269600052132	8.15105729407911	6.370888228768454	14	0.46059346348303126	-1.2261279883621172	0.14844096588502526
Si	11.00449875052426	4.78551834122763	1.8604654196593402	14	-0.8668041927869503	-1.1426004898264666	-3.144093624259255
Si	10.483394290995275	5.890365080275442	7.311899308154886	14	-1.2910548254591563	1.5359855173513588	-0.38693515271876894
Si	3.359486184785086	4.237959398149743	0.49360379111429414	14	0.40504627570442403	-0.47271236840954917	-1.268231637753266
Si	1.2703371921805544	3.164053965217482	0.6972422314603545	14	-0.6030612374882884	-0.5998620111384282	0.6926130928995781
Si	3.7864340063931663	7.9201747338364035	0.7795210061757373	14	0.14131926125874708	-0.23003216500407234	0.5044434076076246
Si	1.9482361096202863	0.31496939118049166	3.2931833859660484	14	-1.8118584333294152	-0.7041882090508846	-0.6940290005993835
Si	5.013635508353763	2.7758438592343264	4.4550038868131345	14	-1.2784127005999883	0.7680405812346341	-0.10387676870249463
Si	9.856538533249395	2.330560037483829	8.062142686483597	14	1.4818796912152266	0.34165695958883324	-0.32963421400128884
Si	2.3992728375329717	10.55418391238096	7.068111580034839	14	-1.6608155088604004	1.9923703385358396	0.8126109490699331
Si	3.987452542176176	5.824950761172574	1.977855802158037	14	-0.7996831744096966	1.0526578264065143	1.046855098809472
Si	1.8781905899968916	8.426574854062807	6.719027899552431	14	-0.7383761964928937	-1.341210148270881	0.5884200782427051
Si	9.954304620017231	9.645324692723356	9.978415738314741	14	-0.3383327775204138	1.7819284534081035	-2.2818534005261
Si	4.503736999244949	10.379308892246193	6.523007062172867	14	1.957980776436731	0.5196849199454625	0.37442441134146043
Si	5.319705664577188	9.231326462978425	8.628792837462644	14	0.5209223929360497	-0.08810226623179013	-0.47217757850295833
Si	9.326749184494869	9.631197865236285	7.4884291217610155	14	0.626963260986513	-0.8347995879828111	1.8608575300786694
Si	0.5641668501723567	5.688458064776264	9.198374971505045	14	0.667485680605771	-0.6688735632575868	0.4247327149197338
Si	0.01726649268407987	3.3784552267252725	9.867477939754712	14	1.0253547447907978	0.5248744389236494	-1.4076382537643546
Si	7.037225803901549	4.508246033804501	10.005158977771396	14	1.498066084758219	-0.5721251840552027	-0.41133237110165405
Si	9.981880809207796	0.4722358539404537	6.6880643814439775	14	-0.9412592890899263	1.4953432842241818	-1.1736350165933138
Si	10.58231540139413	7.924350588502393	4.038684503809713	14	0.3491057088118342	-0.1497997950467235	0.5017738289537149
Si	10.388004887468188	4.498928102781189	5.483763444167609	14	1.04754775458272	-0.5241802404872093	0.462014770504009
Si	8.475441238452046	8.733533490002399	3.867163494603481	14	-1.7405768523230982	-1.3487941376337218	-1.104219800938892
Si	5.673875891434657	1.3880274365834582	6.0797667437695555	14	1.2178917095795545	-0.9961397892590192	0.6341479576931349
Si	5.715112456261304	11.055997256072647	2.963401927317391	14	-2.0206872069792903	-1.1530476620738241	0.10672066829711041
Si	2.7994329956985866	5.68447101204996	4.259560561249079	14	-0.22122201551405293	1.298705920670853	-1.9730309985387497
Si	7.315586498976984	8.636822472897512	7.545680533471591	14	-0.5701577742642253	-1.0463074533762806	-0.013744871930979617
Si	3.880079768477273	1.6497069249878384	2.8206343429256453	14	1.4809528077473133	-0.6905618650751639	-1.4733911870007579
Si	2.6562655954345655	10.776470431369741	9.50635535911823	14	-0.16580595410677335	-1.0867262574511365	-1.2417849913196908
Si	7.9151326114471505	6.645928230904709	9.06217103101649	14	0.1584695621862628	0.5105523538482966	-0.16404886073098415
Si	6.692218024117063	7.919241830134427	5.419393088731238	14	-0.21609934527418992	1.7957165199084615	-1.0928064073122226
Si	3.989384985558841	4.795391572073547	7.3425074343768735	14	-0.08102427039595447	1.4304732685547181	0.015887116883726998
Si	5.500344696870594	2.3208645025811454	8.202644647599115	14	0.48895429782745664	0.06879866459865036	-0.171633364314889
Si	7.817433160658026	2.3946083190230896	8.915860633756525	14	-1.7469259398006718	0.2916240213903476	1.04914543942866
Si	0.8131344150376633	0.4319766168015912	5.404455523503163	14	1.0952939517094658	-0.24930157093645416	1.0373594926411012
Si	9.069778638586179	3.022652418389345	2.0830629065487805	14	0.892567182315898	2.0777762866183904	0.3622954791041939
Si	4.423029723027538	7.231147607951667	9.776208860911355	14	-0.47816953945156354	0.7788255967210593	-1.1592345128056962
Si	7.552455191307373	7.854027418967696	1.6773497501571153	14	-1.123353966731434	0.6741075623578122	0.6525724984173159
Si	1.5258084285682108	8.301476910026352	0.9467795339436539	14	-0.5072186586901924	0.9153651731896513	-0.4234103954535817
Si	4.963669630315766	2.5851539001517696	0.5424923874964384	14	-0.16724345909126814	-0.9857589515289215	0.8345684456145297
Si	4.774290178814557	9.290998981915559	4.531446460392938	14	1.0594344886988285	-0.5046349549539757	-0.09829824148936935
Si	8.957374848494474	0.8540322469725216	1.5807497930167493	14	1.0910896802899597	-0.6668747859817037	-1.2432165827619495
Si	8.106500036313285	1.4238553811379326	5.336942171070847	14	-0.03750805574191622	-1.0475007033553614	-0.11138439623732702
Si	6.264692690693472	5.791854891745316	2.1400033503586973	14	1.2408848473471068	-0.7928347782789501	0.42132677170213373
Si	5.512050417131108	9.476613500619507	1.2393847800685518	14	0.9507782923167107	-0.9551550849031988	0.4731152606132164
Si	0.9685272961961561	2.725367105359532	5.349292039125582	14	-0.45854377832180915	0.7963620776676612	0.7154452794740891
Si	1.257520872274831	9.074198825174113	3.155069214087733	14	0.9216566679080535	0.09819642571869147	-0.3519038427317514
Si	11.089681743311866	6.706822409451574	0.11387755582089777	14	-1.0660633124352341	-0.1977221128878995	0.8982580668315139
Si	3.027250300920514	3.7734955205264695	5.396237086128609	14	1.1649495657113216	-0.7086645034132625	0.9904843859968214
Si	2.7105294940995264	7.977603841490213	4.6507248622884925	14	1.1416802912323856	0.35529975863860297	-0.6601803990596341
Si	0.2571860022398606	0.9300061475020471	1.4533640137111625	14	1.8131301020207606	-0.44685013421524367	-0.11915890450439079
Si	8.69037558778954	3.4939686958235643	4.332560275928731	14	-1.5435445669925942	-0.42290671592136475	0.40022853855553053
Si	8.45859344183421	0.37494510382076734	10.31762618795123	14	-0.6235647739743413	0.48322844627948686	0.6026825136746305
Si	4.545273425975803	0.8483437555897558	9.75550728352464	14	1.4311972918128717	2.148315846629313	1.3540705599717298
Si	8.872913745476254	7.921707361346793	10.786710160098577	14	0.4920085138372606	-2.418971732802257	1.2951197429703105
Si	6.257507110988964	10.526663253172657	10.440014268853373	14	-0.11858889045491396	-0.2535366956198021	-0.6998864927397449
Si	7.159380658878197	3.786100826499603	1.1382313643828248	14	-1.819630113380627	0.8805986870506087	-0.6719388350202673
Si	0.4267934482573962	5.674086905367247	3.7665098487580986	14	0.24872358646048487	1.233559768290005	1.7692315640056162
Si	6.518431391634602	4.565686247454763	4.254673922810154	14	0.7243924688776723	-0.10487178646139195	-1.178414701383469
Si	5.793731805145721	5.883046228613509	5.930246713534934	14	-1.8550571164764151	-0.47331606393872	-0.12773045542070044
Si	0.865611358873481	10.325022781588329	10.786288132233398	14	-0.19794142817170815	0.11658265697360241	2.2187258229321
Si	7.9700184459134285	10.950601349742218	3.3837749990258286	14	0.18931691248580343	0.8437125816856363	1.5176661348347718
Si	2.517262943840082	6.745471277104882	8.247834947162708	14	0.8355588353838508	-0.9095950986301748	0.33842893685938735
Si	4.8216461476863115	4.966534977400408	9.684051302351829	14	-1.3649849020557583	-0.6482957218277816	-0.4163614531078637
H	0.6647927310266087	2.7646379088141573	3.909810520979545	1	0.04413842214151408	0.13586337576939284	-1.03911144380625
H	2.3725851280585752	2.6298777478643762	8.738864368299406	1	-0.5047874214994605	0.46533998101455654	0.9925325284948515
H	2.73297471292922	2.0080974304971053	8.136419590755242	1	1.7562688223130258	-2.250373558317803	0.7364622656925756
H	6.684132858699933	7.588638527748314	9.58404180430067	1	-0.13095127905524995	-0.7040673671008377	0.1312891222943174
H	2.280349827523885	2.531811799192333	7.79212259474369	1	-1.4327535818631574	1.7764761674661975	-1.6546728811400344
H	6.704690058132771	5.790300052242022	6.985160892534104	1	1.7681545279870061	-0.5783436593825129	1.8384758011562483
H	9.899274407597076	3.691833128614178	10.592766144055556	1	-1.05987620459283	0.3366985829789277	0.39783149706555654
H	3.629461852539184	9.469983220737602	9.810570813934152	1	-0.8078194371953052	0.6710446045899199	-0.3382582154661295
