72
config_type=amorph dft_energy=-6956.459215217344 dft_virial="-4.72909315021485 -9.258206031577528 7.282300356314888 -9.258206031577528 7.9426125647890355 2.7406100995527014 7.282300356314888 2.7406100995527014 1.080396546817701" pbc="T T T" Lattice="11.105996452100001 0.0 0.0 0.0 11.105996452100001 0.0 0.0 0.0 11.105996452100001" Properties=species:S:1:pos:R:3:Z:I:1:dft_force:R:3
Si	10.643842621738763	7.9086467095191235	6.323665531854124	14	0.6817355176216275	2.9344050729903226	-0.2680526420362941
Si	10.548775292108788	5.048141839330439	1.9889395866172328	14	0.7027093092707355	0.14527105013581465	0.5085494628039012
Si	10.02268424017281	6.062474707293636	7.368606526039309	14	-0.35674189161267406	-1.0454898418844734	0.5736416219730259
Si	3.020175781180526	4.19055900529218	0.5407420824555874	14	-0.3755266441922079	-0.6104639639260587	-1.3310260000977745
Si	0.6350664209229179	3.4608950383892108	0.7664014925668716	14	2.4326271302680955	-0.4675634728954206	2.2701808394831597
Si	3.5908351968787806	7.883558263533829	0.5264264530288305	14	-0.43881234476339676	-1.8774421878357526	0.63347484232032
Si	1.7520264703010358	0.44540598771147055	3.3867847240643476	14	-0.24182299689173942	-0.4273022775766898	0.28769331557690525
Si	4.807585956177952	2.5502033293170108	4.6391190959960475	14	-0.9571770021269633	0.3915505438789668	-0.9174716797784483
Si	10.114541936828129	2.4875544033307144	7.991408595080173	14	-0.08367430864943111	1.0379151085007852	0.36445109380460605
Si	2.5188955253185408	10.683146743182744	7.06203659997554	14	1.005805859710116	1.6694166274878917	0.9362278930889286
Si	4.029966296594815	5.706449779028666	1.8496370731185425	14	0.2683524329166234	2.0449383865799913	0.5001285786593522
Si	1.874769943089645	8.64230883514485	6.674959305630499	14	-1.1622221371877084	-2.902807731268895	0.02625767019254427
Si	9.986067769870237	9.887813019258509	9.849919359363943	14	-0.888884845276382	-0.14723768859519593	0.8227657866423901
Si	4.924920808694389	10.494744619369321	6.738618877293937	14	-1.8284297213388339	-1.3626706501570929	-0.34210947412517934
Si	5.612681850983586	9.087703716859869	8.426497112087642	14	-1.7671538537964047	-0.9562089809739275	0.4210992288813006
Si	9.430790159258141	9.733783954464334	7.600177658062046	14	0.4657235899283227	-0.5086322523952099	-0.95937915383367
Si	0.5413684606554858	5.835123853922696	9.006774320713415	14	1.1425562668149598	0.7053608901874042	0.8273991755398289
Si	10.925368525803048	3.8624323401148866	9.958747018598071	14	-1.2173198957563536	0.1757247642108406	-3.164587390545092
Si	7.397071194946042	4.340501063391983	9.707496060862212	14	-0.349379274417898	-0.4835182098490675	-0.6992825401000422
Si	9.838258063089238	0.7747321005055919	6.514744200812505	14	0.7128266087055182	-1.9092552452935407	0.40196660575195065
Si	10.731413403763572	7.8586475134917695	3.9739587564868746	14	-1.7619859321029068	-0.5594918009541231	0.5322414269974697
Si	9.883903708507368	4.068448574301342	6.03113358530581	14	0.9490034583142125	0.48686218942845216	1.975726545356393
Si	8.360494175172812	8.473419947097765	3.3799323242534016	14	1.158114796438772	-0.016214418590981845	1.2960810792495139
Si	5.953846955995647	1.2202269361886793	6.14087193624901	14	-0.07698737793278998	2.122342540685177	0.9613414214140069
Si	5.8498059812323735	10.619853669402229	2.9558720617228675	14	-1.6318671769503208	-0.00018691935677476535	-0.1303912923165217
Si	2.835471954185651	5.914742742487802	3.9501808180829285	14	0.2767589188713795	-0.42384208403683454	-0.33826361478730177
Si	7.441128682871522	8.404662723062813	7.503400004978447	14	2.229028756170998	0.14654657548514013	-1.0896663163847258
Si	4.005821860307949	1.095717609964186	2.74090439439602	14	1.4010863060770213	0.9445747294002574	0.22392399009499658
Si	2.632287749094482	10.713976989333775	9.444406110908416	14	-0.034905325826330325	2.521982039011862	-0.595465678151507
Si	8.361527032842858	6.77475778974907	8.970191168400198	14	-1.3304235901212635	-0.874698257451401	-1.1491832907776414
Si	6.990358498873688	7.728529659058965	5.272871677538682	14	-0.5635451484913366	0.7284347606620091	0.1881845977028102
Si	4.236504512614519	5.323603869331875	7.2419315305066565	14	-2.7376157571125725	-0.5593794436516326	0.11593885220143732
Si	5.985043700029594	2.471461814471622	8.32689853590521	14	-1.1409518970951875	-0.75262089129811	-0.06832069611963483
Si	8.097915101055811	1.8904849280693665	8.956475262781854	14	-0.08917056049231165	2.381259788408453	-1.0960462571261413
Si	1.005647978737655	0.7075819141572596	5.732693248644979	14	-0.46608071645729127	1.3393106156603556	-1.1912866830582585
Si	8.76569645572768	3.5385925895681027	2.00679802891221	14	-0.47637053705905585	-1.535102342673888	0.5566041925690648
Si	4.477215879717334	7.145609223277593	9.586607289481103	14	-0.039756487344385714	0.09584155035596785	-0.45247494132413163
Si	7.315553180987627	7.668468430246008	1.4818842126001552	14	-0.5367177213598474	-0.06032635834769841	-0.598054524098364
Si	1.4626153087557618	8.7020702020536	0.9339243430503481	14	-0.43713135610508397	-1.9089392564496943	-0.029398018230573135
Si	4.584533123433976	2.533111200777229	0.652973729602284	14	0.04301150667969319	-2.1650552849266695	0.5353403802398441
Si	5.115255375890479	9.245697622387443	4.7118633727573025	14	-0.23885774112601263	-0.9191889210217754	0.6345025131167833
Si	9.194687780682946	0.9267754131341314	1.4754649466508414	14	-0.5129799914915804	0.7322770204524384	0.23226774107994114
Si	8.01302086417596	1.3427816070376026	5.229302853457094	14	0.6205336979124187	-1.4932558038147539	0.1174195517553106
Si	6.570996072842391	5.436685125207157	2.1487326635700477	14	-1.5669197710107203	1.1977162461323527	1.2590275949282
Si	5.255335309140817	9.114624652259758	1.2563880606367168	14	2.9119343838238247	0.7376822551669857	-0.23735775828223826
Si	0.7769532997960119	3.2356432183477186	5.209034409932011	14	-0.07767849104284578	-1.3853750527971926	-0.5768071668431923
Si	1.2319104444562883	9.214201016449287	3.142841511993971	14	1.453842301920076	0.2144409823426944	0.6853520343649478
Si	11.03702821413246	6.710143102390752	0.40524004094280563	14	0.481860104028104	0.9950277862080552	-1.1739947142276026
Si	2.9547503560812056	3.9260474877925153	5.324947694902579	14	2.0419049965232805	1.114917913065496	0.7946710616985999
Si	2.87375432395604	8.167383108863698	4.650691544299136	14	0.7677107084220592	0.35524036610570753	-0.872962247139237
Si	0.4853586993482551	1.3313535366883917	1.5958539481916054	14	-0.5726502037615769	-1.7263097889015961	-0.532716567260633
Si	8.413058856380601	3.379099374519494	4.50384805920947	14	-0.8285448600704869	1.314066989406078	-2.1099539268105754
Si	8.048815490741077	0.2339378198666796	10.277167042876231	14	1.814806976910561	-1.9493567749718907	2.868111436305093
Si	4.758464133870314	0.8401086592205238	9.91759930174304	14	-0.9732744354258782	1.9619377075244386	0.1726777472959331
Si	9.057850798396624	7.74838718071532	10.833699631087413	14	0.4789650394376173	1.153986886847274	1.2658837043749067
Si	6.072036970238893	10.153124168502725	10.305431803846824	14	0.2689604993248384	0.1956037792146295	2.0907104890419275
Si	6.6845659925615655	3.740266379141786	0.7005473760044996	14	0.18575258918048215	-0.7292251184374227	0.2827963883841512
Si	0.5310954139372933	5.456820296774815	4.139049393747341	14	-0.9969304041449647	1.6217678752527793	-1.5231829555202132
Si	6.313048199245917	4.485323257127367	4.600614606296618	14	0.28342965162450373	-1.389219112361346	-2.3686050651332162
Si	6.298921371758845	5.713813054676409	6.4351586302367565	14	0.7998626375610429	1.1294773111618985	0.2060753769625286
Si	0.8833565200046464	10.620597771164519	10.992848560246006	14	-0.8630745474095434	1.276201807135193	-0.3062335560404931
Si	8.10372353720026	10.970358917430504	3.444580329601076	14	0.3708590595940111	-0.6448540402462314	-1.3001421401026876
Si	2.625468667272892	6.9431024839700015	8.174957398444029	14	-0.06392076358526542	-0.673181707332027	-0.16906637276325312
Si	4.615130143659512	4.41320091616743	9.447104868046276	14	0.33382794388898235	0.7137982294060021	-0.08073913481595005
H	0.4367444210784778	3.2321781474546634	3.5929897601904877	1	0.4042276357704889	-0.32132157339071804	1.1853289178104112
H	1.6569147166852511	2.0710017944017998	8.815251411896952	1	-7.385804193884731	-4.064686883006895	2.7638952817003384
H	2.373684621707333	2.1803625414656285	9.093334457061083	1	4.338450721290835	-0.6191573852345436	3.6218093636218125
H	6.794448721458643	6.173068219963648	9.281392294984492	1	0.547616636811955	0.4967776570956032	0.15910591075299946
H	2.072045758068297	2.430225249644974	8.429673427072943	1	3.1723940376286572	4.778848666705167	-6.48015779880524
H	7.347183058883208	5.42321355151076	7.5859064526210975	1	-0.47311731749747243	-0.32411533643159096	-1.0499537949413145
H	9.517083751690958	4.437834016298187	10.31339480330298	1	-0.054588165494191924	-0.2260708630373202	-0.2001494934206513
H	2.9819489413923983	9.382112576808586	9.75138695884091	1	0.8527155640746669	-1.841739305139112	0.10362994259176041
