72
config_type=amorph dft_energy=-6955.421499242952 dft_virial="-7.408074110309964 -1.652667127495296 3.299045567290838 -1.6526671274952958 10.640459587983411 6.533946520044188 3.2990455672908383 6.533946520044188 -2.983353444763198" pbc="T T T" Lattice="11.105996452100001 0.0 0.0 0.0 11.105996452100001 0.0 0.0 0.0 11.105996452100001" Properties=species:S:1:pos:R:3:Z:I:1:dft_force:R:3
Si	0.12307998448110784	8.150968446107495	6.384326484475494	14	-0.2405808959115759	-0.5547378272171694	-0.5482331878677267
Si	11.100798845760417	4.748013391208889	1.2973580815485137	14	-0.5133787699267354	0.5951481466444687	0.25910339574845465
Si	10.04129789022653	6.238171571165858	7.262288822003356	14	1.840537827623007	2.7705122783522715	1.4149499630737918
Si	5.077506093949791	4.39945169255973	1.0694008407712898	14	0.3532973818152716	-0.03276873730528727	2.016408116394968
Si	1.431096490824702	2.986269174012265	0.7718656428213049	14	-1.678571562201343	-0.4278928604687279	-1.042638743194961
Si	3.7769383794266207	7.661860362357009	0.5444925774574615	14	2.0794773298982	1.1461609564738073	-0.4786068844665206
Si	1.4185800328231855	11.058429469295657	3.461450338211816	14	1.2664336638028864	-0.3123574146920218	-1.0320172500068976
Si	4.932228554359871	2.256727373070268	4.847367635469375	14	-0.408639138278799	-0.18211833181045284	-1.2426540249179008
Si	6.8931143939391	4.217735378610469	7.242697844261851	14	-0.2525730453458106	-0.34027679025297775	0.06712410370363792
Si	2.476492830864423	10.788709239459957	6.9904251348524	14	0.5976446899103325	0.9626825099489964	-0.5648720959470651
Si	3.36284019571362	5.768332391259768	1.8986478354616598	14	1.6204149596333175	0.41070656406673006	-1.0159779236882178
Si	2.5175405937513844	8.513523700286298	6.752379206898088	14	-1.8005419703733156	0.5602633896606996	-1.0661802977273012
Si	9.96260079936695	10.067719055786077	9.824064599623455	14	0.41793522667432637	-0.9095431623027078	0.49875149464988083
Si	4.873377879160193	10.864529877238443	6.275876429120737	14	-1.3185656523847409	-0.19586500351515657	0.03113402854273712
Si	5.6747310531614685	9.848486685821623	8.263738734082118	14	0.42332606319908084	-1.2967040580685858	-0.18681676967249145
Si	9.794544861053772	9.548824689551061	7.584984654915573	14	0.2327552226486412	0.7106370554148802	-0.5728317237971794
Si	0.8776124986396202	5.827371868399131	8.733211416105288	14	0.49520388352914047	0.30325055964805725	0.3226768030049681
Si	10.169783163180876	2.536909451563847	8.412425814582832	14	-1.4062012630009242	-0.5566509866858915	-1.3889997970775374
Si	6.3577498349656185	5.678196124054524	9.434932695934775	14	0.31554018596783306	-0.6892282327456032	0.4484786723250255
Si	9.881704721209854	0.5522978717639975	6.629191494251395	14	2.2699509826675386	0.3539998077887361	2.1285214209905567
Si	10.77804748286594	7.944530184055859	3.967561702530465	14	-0.9500239300157791	-0.05110791733283949	0.8948775775565831
Si	10.440458508711457	3.7619008602304773	4.649991866522654	14	-0.4485288088787683	1.5314182058606476	0.10174352261836778
Si	8.46842224869432	8.293114094697922	3.5140927613947697	14	-0.2775089102932667	0.6074256887692397	-0.08919550021391708
Si	6.742439340073459	1.9420167516071103	6.3336053986787535	14	0.4787544659118971	-0.2503197286432328	-0.3134969285699114
Si	5.450478772800666	10.695852003123948	2.7912367703169374	14	2.118921942167252	-2.3839131690988458	0.24732721916111244
Si	2.5660960102399657	5.863266448932318	3.9933831442815975	14	-0.23781772902401274	-1.7391576021863762	0.9004422208009796
Si	7.680362952446208	8.699404762905095	7.667568844533388	14	-0.9089687773741867	0.27166761611642226	-0.7468775562339633
Si	3.7243292742330225	0.8669363042502165	3.1947731514039903	14	-1.469698565539961	1.7997726956615272	0.07460447752207675
Si	2.3502731811863065	0.6557035835302102	9.118456221035732	14	-0.07657111598145801	0.013586491843258493	0.8567694258329444
Si	8.291914647081095	6.777778620784041	8.760421107412933	14	0.10239941158553753	-0.17751708172951583	-0.6528005554592131
Si	7.003396938708453	8.17009297199801	5.478199339945107	14	1.5692713039365278	-1.17374428856942	-0.43472582996755343
Si	4.348786136745249	5.034692477626946	7.425069412001786	14	0.16598978813716392	-0.9277589292748929	-0.16793148687493978
Si	3.1594560826863125	3.3222255666882905	8.787097710890878	14	1.4223172082581441	-0.4234245365328425	0.05821162422187661
Si	8.675982216387617	2.4515931868188146	10.261763025797167	14	0.1850275374802004	1.7107209202350064	-0.36835454590165484
Si	0.8567576585018668	0.7271229149147296	5.4593635699623455	14	0.5743977840476816	0.514728343109281	2.2659583132158807
Si	8.786409139110846	4.094425500002803	0.9783494394583934	14	1.8480302856364508	-1.6431658992797118	0.25109157446034125
Si	5.0693098685681415	7.718856336149186	9.460043353912972	14	-1.3509402392444494	-0.43970606097268017	0.12507707473030763
Si	7.8091147693154035	7.703785498963687	1.1799676990498167	14	-0.5718048243323123	1.4364832272405639	0.47752136380035415
Si	1.6544269734799808	8.405206916888966	0.6310926953923566	14	-0.7333486571498762	0.8448407827001174	0.08650432427531808
Si	3.579284960568597	2.445073966901432	1.2361085111151822	14	1.3650142126564082	-0.9563429355611072	0.19444241094151862
Si	5.172184713703944	9.093712060940453	4.645827117853116	14	-0.5274727979601911	1.4040394776477436	-0.9204050538382054
Si	8.922057779776797	0.7790556649243944	1.6860013213933012	14	0.9130956585235565	-0.15977234125198184	0.9779523044453559
Si	8.753379905662301	1.2980133353391876	4.987336508755191	14	-3.061517691802592	-0.15930877096275917	-0.954984363509941
Si	6.434225726534779	2.75137734905035	2.5906069444097506	14	-1.169795842129269	0.5757694687359806	0.8479091397891821
Si	5.6521747743672535	9.341375781822284	0.8372288743404942	14	-0.14527413546219883	-1.8613570958423742	1.5919988465245087
Si	1.3445252484805825	3.1002833335895237	5.606740142881713	14	-0.34231696232451525	-1.7485791605215268	-0.6769103242673057
Si	1.5613142992255746	8.763397514462095	3.0173104340958847	14	0.7500618701729667	0.4406787101152923	-0.0025795899677045673
Si	0.3472667394628437	6.559323670571234	10.968926243888184	14	-0.6817810261857941	0.835336177663126	-0.637659573339393
Si	3.4149717430597772	4.02613472781884	5.51058442559943	14	0.648352543255357	0.5641048781195327	-1.0221043534450667
Si	3.2342882867805622	7.88435789527838	4.6660955613781985	14	-0.7720394213390604	1.0000303858294675	-0.685754926568615
Si	0.4239492025660133	0.9006496670802112	1.6328591283700025	14	-1.3423517190330267	0.9059785818868544	-0.6880462956299311
Si	8.752646909896464	2.8583947308627855	3.2865753180770496	14	-0.06266529285743712	-0.021718640860354854	-1.7027350671106265
Si	8.229454523034484	0.29501857915393925	10.519122281581682	14	-0.40062963098547366	-0.6305221849706619	1.119516592041113
Si	4.449639690526769	1.6237966352650892	10.11194313365834	14	-0.4455792368554945	0.27321413596649136	0.33981579106907517
Si	9.397527699884101	7.793644116257628	10.439381227055602	14	0.6723036748651963	0.3332923826507955	1.738733626919084
Si	5.963098251040245	10.813309021601357	10.294270277412465	14	0.03681231464228415	1.2039838295712777	-0.4919699472574583
Si	7.17319651846461	5.561238875417459	0.6598561156036503	14	-1.5620012465332773	0.6512913166362861	-0.6513198559053398
Si	0.1521299394008658	5.721087482352535	3.461305960257939	14	0.4025741579391016	-0.6539069020784727	0.6571997166619864
Si	9.367041739623087	4.2939780442541355	6.823901824049613	14	-0.9207835205413311	-3.3896128421592397	-1.1190383664515653
Si	6.579158980234684	3.0129902014760175	9.355336019362573	14	-0.49753021962281047	0.8591736664178149	-0.2586243988273111
Si	0.8432272230242734	10.593499139821395	10.977666663095986	14	0.8921753458651075	-0.4401894287728681	-1.2199197974560876
Si	7.8069824179966005	10.684368402792476	3.6027963550576922	14	0.2706967667475344	-0.014679982935917473	-0.713134627122872
Si	3.2267584211860387	6.962626825732793	8.1004916922327	14	-0.15335177704650807	-1.6866905985813065	1.7220067870377964
Si	0.9519582600892681	3.448700654284805	9.238989600530374	14	0.832506419147771	0.1769681507436642	1.7072542989318507
H	6.5966065006609345	0.7309278292992191	7.378246530959732	1	0.11323199252038542	0.7280902325491092	-0.25883368680037117
H	6.166526788053361	1.6567481267384698	1.549819592897651	1	0.2410323820057939	-0.14330826833441362	0.02667624613866438
H	2.1330398905832304	5.56425970645243	1.093194327570269	1	-0.23542171597616676	-0.4289081899596543	-0.4627614194889801
H	4.887915628515992	3.9162853169111194	10.793917951795992	1	-0.08333672252089565	0.2421839800786882	-0.9746636036303543
H	6.179087670040686	5.397858561610615	4.233394833607931	1	-2.7110719228978963	-0.056437304440442426	-0.8967879088094532
H	6.822247030578249	5.635315871752965	4.766915797170363	1	0.30414684696266087	3.7535635988685447	4.345859361270842
H	0.9919876031015721	3.3164837665225546	7.008872194959338	1	-0.38183279421093513	0.16293582923789207	0.9219546590146587
H	6.924622105873707	5.152649265944699	4.199832512329684	1	2.321385944597101	-3.595347547666849	-3.4671519792937335
