72
config_type=amorph dft_energy=-6957.634045198413 dft_virial="8.111149395142439 -2.6475375215963455 7.099928413022029 -2.647537521596345 3.3304890057896066 -20.947618727879874 7.099928413022028 -20.947618727879874 -0.6011985440964622" pbc="T T T" Lattice="11.105996452100001 0.0 0.0 0.0 11.105996452100001 0.0 0.0 0.0 11.105996452100001" Properties=species:S:1:pos:R:3:Z:I:1:dft_force:R:3
Si	10.831422901814733	7.8358024787898	6.331350881398977	14	-1.6408431627334898	0.6034420181862024	-0.7109386460689334
Si	10.989661139264253	4.402661325534386	1.3623836907755593	14	-0.23789640484680924	0.7850253029795324	-0.6196451239137756
Si	10.358440724912699	4.481569430326558	7.281457771879681	14	1.8533262483748916	-0.6136847875606083	-0.14933751031016088
Si	4.6933385706752	4.370142967922638	0.7172230296773278	14	0.8413201681852386	-0.29570307998076256	-1.0654562744691476
Si	1.2046674351592872	2.6472364203190084	0.515619207881292	14	-1.6207813421414385	0.6443066519235718	1.083786455628079
Si	3.959321053163007	8.224656732567176	0.3890685995089029	14	-1.2079263624691927	0.07332149596732283	-1.174651117415836
Si	1.2454153361420421	0.07385376580681981	3.3149733510050687	14	0.7038534511382014	1.1067772794008433	0.12925512087554827
Si	3.972492764955197	2.4239059376637293	4.45947960338333	14	-0.18923592266821876	2.2635543297415417	1.2275600940254394
Si	10.107967186928486	2.329405013852811	8.417045909106905	14	0.010801470560474095	1.0132047294899063	-0.5152777883161966
Si	2.37292941394859	10.957786929446726	6.966824892391688	14	0.8657230429998279	0.45406825529102746	0.22872321528558495
Si	3.9943493659729303	6.36029310815315	1.6567814447278262	14	0.5058492879966816	0.6704722765456548	0.4198026204683499
Si	1.8179627712371536	8.859786457669871	6.599516271731384	14	0.3119090139241879	-3.192661032425257	-0.2806873106900338
Si	9.281147963062546	9.587362497239848	9.527401222394959	14	2.073482797844275	-0.5381269441858206	-0.4022023761098083
Si	4.720270612071543	11.017548296355477	6.7031241126330245	14	-0.6172840778982835	-0.5692182923802432	-0.8374126023196774
Si	5.463794862546734	9.573713227600216	8.299766586572728	14	0.4121080735767428	-0.9088679900456369	0.2440079221928013
Si	9.401781296525256	9.762448531307204	7.17949361845295	14	1.7450179225425897	0.7678698598413763	-0.5089089033276578
Si	0.9424959511120788	5.28925302230553	8.879299693436211	14	-0.24131468936994618	-0.5840707964831428	-0.5186721615598561
Si	1.110144299355464	1.9960030003607685	9.490762540099482	14	-0.3840681131762719	0.5713721073069313	-1.9176679019010654
Si	7.650709941919101	5.9842773862744	10.875813569633776	14	-0.6422045162138189	-0.8134912955315519	-1.1128090924819105
Si	9.854284015969618	1.0961207576353973	6.4308050796275325	14	-0.24796588172263723	-1.5291949710903159	1.5248055800877591
Si	10.541689666372347	7.51251802806562	3.689445339376977	14	0.5302737600959603	0.6799928224356312	1.2329833264772276
Si	0.23178547775426267	4.189681631572465	4.933239200037012	14	-1.5940289912852978	-1.5435281119185453	0.7679837598070588
Si	8.346789375550921	8.427563287747043	3.0944304734592674	14	-0.017537766499262062	0.09867979351887932	0.146145483055197
Si	5.673542711541094	1.811943321160115	5.871840278193339	14	1.6044759064221235	0.46056466710344557	1.7174926974272127
Si	5.823151589747334	10.844017101791415	2.782385291144613	14	-1.2492836199859028	-0.006093262498218933	0.5795387091353177
Si	2.8418912201349653	6.242047563927641	3.732136789738849	14	1.3884436669967894	1.2408753342574224	0.030560414945812082
Si	7.429356326632297	8.803068133788997	7.2430532361483175	14	-1.219719251241116	-1.3636299295520402	-1.4868609506624815
Si	3.6177006022964107	0.873745390674999	2.903507288451216	14	-0.06595656477775866	0.09960333454987651	-1.275941611276794
Si	2.1509205448711115	11.03570660055466	9.210036267779751	14	-0.38001296586533434	0.2535333531828859	1.230398594298883
Si	8.899190533081923	6.133797416509022	7.636116662581042	14	0.6651256630324069	2.4125835645238176	0.6817620000064251
Si	6.766428292409994	8.186152242867745	4.843380582743071	14	0.08072653639988132	-1.0355697462277462	1.3576963326942024
Si	4.372019881323043	3.220650123137384	9.460443169785249	14	0.3180110181804954	0.857856746272835	-0.18571427971121196
Si	6.263615409037619	3.214930534964552	8.04476180203606	14	-0.7630647211085516	-1.4753439414914102	-1.57219387935394
Si	7.944496866066503	2.4039484620393057	9.327360014299733	14	0.5434607021724679	0.33422569388200923	0.9834485562882361
Si	0.8505171990954319	0.7880170934615939	5.583817366204578	14	-0.003311840762882741	0.5512809761142302	-1.0146165234211992
Si	8.893693064838132	3.2863976221338156	2.062050361261407	14	-0.7500441295462577	0.7551439169487714	-1.1643558974928994
Si	5.803405128055499	5.746264776309445	9.293831011010843	14	0.30231596286418344	0.6662538640468879	-0.23625012611031848
Si	6.938615661403353	7.288054733772228	1.4038090575418924	14	-0.8548997180441327	2.68849813240806	1.6586539806177516
Si	1.625329262775479	8.259840529327429	0.9740469764328497	14	-0.42118176136207736	0.12737641421811607	-2.499603395415825
Si	3.3371298139270085	2.630155397775679	1.1278805756894676	14	0.4802346512447064	-2.1634712269389262	1.388022519945349
Si	4.894323788468854	9.72355533173195	4.709742127434952	14	0.9296692605277629	-0.539176212266973	-0.6447712506549227
Si	8.965859829783879	1.0189140914996886	1.5002424247354766	14	-2.144044469360951	-0.12109134726301407	-0.940243959599
Si	8.034133363431401	1.4611493172240844	5.126938884158088	14	-1.3150003006372917	1.2413797851212354	0.0022471460498094207
Si	6.495719628890057	5.585416629693681	5.042588841104389	14	0.7486547042312496	0.9194144069583523	-0.784722940993883
Si	5.76295708897695	9.521326242335661	0.9009162109950617	14	0.2784928722992874	-1.0439636337664333	0.16592216806724405
Si	1.926857066449994	2.8373155495966995	5.688502488762073	14	1.3577433839215611	0.09342496846556067	1.1492478255211773
Si	1.2632404604476626	8.975011170860409	3.0825248452626157	14	-1.4750665192273662	-0.8449847645980457	0.1850779311444753
Si	0.2240168332360187	6.369077951346761	10.863741351490344	14	-0.15770440124298676	-0.36215406831158575	0.9312355778887971
Si	4.571094867726935	4.880141430999522	4.166447886994672	14	0.12982153537757687	-2.7439471039634378	-1.0282333543072355
Si	2.9439220095404077	8.518254854774893	4.480125650787785	14	-0.019296145427711332	-1.0893220453823578	0.9845132510013096
Si	0.0009540050952353901	0.8516888817211284	1.502052702157169	14	2.6179580581760735	0.14110020308547047	-0.3479008888588128
Si	8.104856348838375	3.7626227499998635	4.218779342276967	14	0.8190443688020077	1.3987795103837848	0.639603586071957
Si	8.201189762063889	0.29591261186833323	10.236141491982172	14	-1.362516126727352	1.195134085059328	1.7779964620420012
Si	3.7808254781848554	1.153890819380286	10.453396994578153	14	1.6032554027266492	-0.9237428627648215	-0.5366087064942732
Si	9.2854015597037	7.265009791134119	9.842422811758775	14	0.3236080573519257	-1.0278798273257153	-0.4068038833012772
Si	5.888732498796983	10.877901496966771	10.140318954593454	14	-0.24152114912715408	0.3802939876768265	0.9157292417029841
Si	6.96620295659037	3.803004153099699	0.315050464954592	14	2.2969527307397333	-0.6966630979998752	0.2564507863896579
Si	0.8369279018366423	5.540526192034292	3.2100438965256277	14	-2.5793451984780895	0.03361540228721203	-0.4616162491793861
Si	6.884407292720653	5.2346781557399105	7.211723220156944	14	-0.8117979655677023	0.4760920863528838	1.1724687632200947
Si	4.366700109022487	7.60490881255064	9.156638636838053	14	-0.10977179898053015	-0.042011346710155585	0.5467401470083166
Si	0.4872134007557558	9.906271185361899	10.49557756910323	14	0.12352335578534215	-1.0834126169145293	0.2613801095094458
Si	8.108265889749168	11.062605323961646	3.3681044380319154	14	-0.30811406247164935	-1.0149481960074984	-0.8202856984505751
Si	2.273652911663268	6.993779145780934	8.282774412001016	14	0.6598404989363106	2.3446521337496526	-1.1017093737042993
Si	2.421329346486842	3.5511867895447837	8.243114898670568	14	-0.8578323207722935	-0.5746867762856661	-0.6031167733632036
H	5.385275467630386	4.629434667089817	2.7439363314274434	1	-0.6463576226374541	0.05959976398422455	0.5730096442853336
H	9.390175530232812	4.844635560342159	4.653679057344751	1	-1.0321733160998305	-1.0677324740090746	-0.2868538496898769
H	5.345316092395731	7.046965762790041	2.473149925932341	1	0.5730654372707809	-0.5100949542118421	-0.5689835504645138
H	2.344198201127008	5.302813443973544	5.888210516963735	1	-0.039251265148976616	0.8126178910542975	1.4810636223866116
H	0.4947155013591493	0.32351434485073743	10.93876235752428	1	-0.33936739030124136	0.08031490243812561	0.938995430855536
H	10.502341120942557	2.834561262476579	4.211471596611485	1	0.8405539787998344	1.2100732354115165	0.6300586146814393
H	2.216645831874639	8.050770146116648	9.380157921433018	1	-0.9037859432698322	0.34448440410940007	0.2689622990985625
H	2.3097362941361412	5.686592257372311	6.677458154832221	1	0.15286532391993604	-0.5923916646307379	-1.732276038797
