229
config_type=amorph dft_energy=-23309.588071739418 dft_virial="47.17154058634454 -1.4445605280642917 -9.30313075455332 -1.4445605280642917 37.989125196253426 1.605514347347221 -9.30313075455332 1.605514347347221 47.54575821617736" pbc="T T T" Lattice="16.338498628099998 0.0 0.0 -0.032595304763059496 16.487783490064945 0.0 0.0088881432536864 0.33172053764631426 16.268602530968987" Properties=species:S:1:pos:R:3:Z:I:1:dft_force:R:3
Si	0.7970377108748766	16.54481301952633	8.3603689017522	14	-0.10033995622409893	-0.14727651228553015	0.09676174895004885
Si	15.647739583101187	11.082575173675824	7.27917365658727	14	0.13014755153217167	-0.08435128068022608	-0.11183253989462884
Si	4.356543021992742	14.960960596368182	4.6915884441098745	14	0.10286323898529226	-0.06720277952643444	0.03576330367166374
Si	5.0094653718686	16.368845755451833	12.206477620404744	14	-0.11268588975038597	-0.07866322438046248	0.03721237863009919
Si	10.19676386435503	8.860712548339682	3.08320866681122	14	0.13126109724632778	0.05048391007163954	0.18271020025515095
Si	10.38938986163074	10.068406985282811	8.6252862200578	14	-0.0909178836678843	0.10589328660508678	-0.08720366492239837
Si	16.09414984571731	12.030913917246357	13.47606392400098	14	0.021202105801537106	0.07476542871511802	0.057263400579806
Si	10.95871955097565	2.147280646798591	14.710671135884315	14	-0.22068259761788586	0.7098502971869147	0.20313660358159932
Si	7.957716406161851	11.789796889892308	6.071701423225481	14	0.22407311420356515	0.19910716732386327	0.14722534728965922
Si	14.431937983138791	8.667777753439902	12.421255354120433	14	-0.0629532566532937	-0.03697866515649773	0.03379923631760262
Si	9.312645223492105	0.5733113814605777	1.2841569766727756	14	0.24121235937820426	0.24972400354055443	-0.7325960946226688
Si	9.455040140585584	5.178327022889739	8.4908922657425	14	-0.06347004882264347	-0.10227805541442654	-0.23376875236584357
Si	2.1737539161257016	15.329362697284441	3.7915593732829067	14	0.11229611018385154	0.05151389486289087	-0.023269531589468172
Si	6.899069922953562	9.416094061405783	13.963340039385708	14	0.04368127961559176	-0.023695563741016713	-0.10211993243723745
Si	6.721209026888066	3.2223228133801776	12.305374552600632	14	-0.0477431118003617	0.06903700606182808	-0.0904059765986428
Si	14.486261857227364	9.63337158541157	8.680763592149514	14	-0.1256463174481884	0.006605683788524445	-0.03853804053316754
Si	10.042319304523325	7.239180279645407	13.310822884275828	14	0.07669144371044094	-0.08687687743620753	-0.027401812060010165
Si	8.418102620504454	4.421044146876755	13.242299221029576	14	0.05594005267152578	-0.08998328688401046	0.14385077155696488
Si	13.646211414864151	14.455801994234996	12.977024089604019	14	0.0022546022552378505	-0.11968829508980927	0.329759169719848
Si	4.166830179022422	2.6588766173912464	15.027486061232214	14	-0.11445275332639172	-0.07397661360289658	-0.017091936836748384
Si	5.646671719914089	5.874851924054407	14.555337761727245	14	0.20152066388788628	0.12394296017359033	-0.07512152680195851
Si	3.320004161278136	2.7363292701377544	6.422810857193762	14	0.14596653412491473	-0.18317634164969376	0.054208413238406056
Si	1.4721575449868711	13.916561283963595	7.081933667298984	14	0.05078318673090478	0.012575790341908285	0.16437153444866273
Si	1.2551038584122882	16.335243999173283	0.22136378251267563	14	0.11907071559190971	0.2260739483637044	-0.0913765688569987
Si	7.310051785144516	10.725722757439767	10.360447845160923	14	0.07865268284864989	-0.01898092791546118	0.030135154125859594
Si	4.369461872857981	12.667326214258521	5.141040935170552	14	-0.10539834883095826	-0.12188941835438805	-0.06407528701500631
Si	2.2246973548481175	11.66717155613883	4.845603301427659	14	0.18586854603042083	0.13936522121543454	0.3163166597745177
Si	5.953662306036911	15.528159745491985	3.091489017915941	14	-0.04575821849320738	0.018704019872481232	0.09948737769993783
Si	7.574101529172966	4.188838136674472	1.3036537070856873	14	0.03874321473771535	0.01224771730305739	0.33064594394476704
Si	1.2498379603044514	10.189651715902215	6.428749901445077	14	0.07804564488256292	0.15521300018776327	0.02665130641705894
Si	4.801825928203528	4.106372832548863	13.276918865772657	14	0.056620881360301	-0.05780436113916516	-0.013289272068249376
Si	2.49225497453202	15.644917924388114	9.703032408162338	14	0.027953057040649914	-0.1686889345022554	0.1376127558292216
Si	2.287205182899502	2.7855522649546316	10.807410349030677	14	0.032744568915277876	-0.0446716693849128	0.020811812013938624
Si	9.714276562918196	3.850423716140226	4.418258432860664	14	0.18042705873085943	0.0462117614716815	-0.07731287986632072
Si	1.53343508409156	7.361735357854784	1.571580576838585	14	-0.22342493855235587	0.17538872074549725	0.10681271386757173
Si	12.463400511331615	2.076806166816145	6.338963316084216	14	0.15056906975851178	-0.017478116855834627	-0.08647449945360437
Si	4.652173450019447	14.59997290612935	1.3865895599717857	14	0.1176974882404186	-0.16146798521061953	0.011177623268811759
Si	5.482291719066637	12.309516362002856	10.677945719751476	14	-0.07602218499560638	-0.14153934787415176	0.04638325419653537
Si	10.945513142534557	13.781834024276282	6.839872274724231	14	-0.24266503388408792	0.015759332949315634	-0.021376426742243142
Si	15.807959802197924	8.92957115080781	10.50566115326775	14	-0.09695715295438011	-0.07932168445295242	-0.06506413412113528
Si	1.0477552400227967	13.469616752442331	14.75186375862548	14	-0.11959213575083573	0.1085170995842979	0.021930757049267068
Si	5.928144838879544	4.70001094015266	3.1400519373882427	14	-0.32423000772886956	-0.0637325586758306	-0.0596959233231981
Si	1.9223289299871846	6.671311252077849	4.924944684615576	14	-0.02598641858126865	-0.1270545118320335	-0.009085257759275251
Si	10.307899965873228	12.414891508904788	15.018553804032234	14	0.003703677213673308	0.01750665612488827	-0.004277033700066329
Si	14.992477560221785	13.545000951262521	4.314513868121818	14	-0.025907999869004134	0.16441010102846493	0.15054592981063045
Si	6.177633712930631	14.528514848529491	11.207097407120026	14	0.020524105328614053	0.05881583397211141	-0.15980499428954772
Si	11.967742746150671	7.481795547323652	6.291978695579388	14	-0.08301173480842894	-0.2583256363891099	-0.4175397906760876
Si	13.026928399813688	11.096459629809985	2.333877738080533	14	-0.037374615375800536	0.10648284105499672	0.1601621208185163
Si	12.693523362958816	5.815487623139069	4.866230655945635	14	-0.29694209563454194	-0.03813874787694854	-0.002508370350336466
Si	0.17453274389495263	1.3682969769077649	1.603708600540881	14	0.06711973282459367	0.19237164271667137	-0.04980333849339635
Si	3.562844900237449	14.329384494949934	8.097663816160843	14	0.06976257198317387	0.09499359982138302	-0.036270325640796935
Si	9.822019158271338	1.8355976438697788	9.339884768404874	14	0.04993832152270412	-0.02070871069060069	-0.024936379168520175
Si	10.587788250471759	16.39468345718231	14.077611498790638	14	-0.03830149884371392	-0.14522322757685993	0.05317302912598242
Si	7.42471373466666	15.317842421901767	7.338310852371678	14	-0.07594093806748971	0.06813634786818022	0.050425545980872184
Si	3.6108523107563952	3.602977154417651	0.6340562855099907	14	-0.08147524226910843	-0.4122438279376466	0.03894350384215489
Si	15.230472300488005	5.024544172252474	11.235990408093958	14	-0.10730893719436031	-0.062478887721726384	0.03645004590267529
Si	16.066080305074237	15.319360268424319	15.455984427802353	14	0.09148995460161723	0.09443849818276305	0.07657163020252203
Si	11.77010409749586	5.648468954763179	13.332476296507647	14	-0.01010598657137404	-0.09124389982247905	-0.08978351200063496
Si	1.1964192390398787	6.827108639595959	14.138374375188542	14	0.032504427678376045	-0.006031555970535378	-0.12827347286431573
Si	9.038303859177814	16.49542010432372	10.504228266938066	14	0.021168938542907193	0.009855046692127587	-0.10077293036001186
Si	8.068795322934852	2.0486729060284192	4.69879535585473	14	-0.015062049186491478	-0.027397955402029946	-0.10512478322489449
Si	10.873426052737516	0.7868326846317653	3.0291315040519344	14	-0.11633274553648401	-0.13169921359288103	0.1605842963120846
Si	1.2003127032629548	0.9779751462320445	3.7197336994639167	14	-0.035194832285378994	0.023328409901299564	0.15924115089283927
Si	5.664856468887163	11.668823378350131	6.812281452090959	14	-0.06057678400588083	0.06389222431621178	0.07465898495486387
Si	12.458894353409985	6.844961717046885	9.885762176819009	14	-0.018552324658592495	0.045486452660867725	-0.000802956191482245
Si	11.832901116972963	15.445745090712123	8.23620774912768	14	-0.08662233800951288	-0.09781230258386135	-0.13305135788074687
Si	1.238930378620332	10.519820096178861	10.425716879480456	14	-0.09882737496425581	-0.005261252816619014	-0.057471403000205985
Si	7.108609534009083	14.39252625674809	15.249470706692758	14	-0.06617433739837521	0.035997274255797206	-0.014599250228864822
Si	6.644532452826394	12.222461573612614	15.932248395111742	14	-0.08475931509453359	0.0037571562043323885	0.20663510659072484
Si	4.227947600840555	4.820842306756774	7.177886402042089	14	-0.16370896060766055	0.16164564858824174	0.0025487367038627908
Si	13.619957081418656	7.626077561008677	8.004509866232729	14	-0.0927433684451894	-0.1616052822347154	0.1666919570000964
Si	3.3554930141482324	10.915620225444584	1.1265019018606504	14	0.2799226639678217	-0.5814366990826509	0.025012998107060588
Si	7.939149336320878	12.156409925208795	3.7570377595315945	14	-0.06170087125184956	-0.0035735792844738146	0.18797788083507028
Si	10.552614730625184	14.684036115420788	15.753521558618957	14	0.04753742337474985	-0.02962401838821415	0.05212941747653432
Si	6.028046588741061	4.939188587719554	5.577494516722712	14	0.2763899652579383	-0.11201174593544315	-0.12195318176632772
Si	8.103620832760647	6.467872436410063	12.149212816563116	14	-0.01871790384121003	0.041907474055221605	0.12809195282871325
Si	12.361111706820534	5.1666498979202355	15.574046418889004	14	0.21676654710476836	0.013670052766163305	-0.2215858269168539
Si	8.766385494210073	13.349651326265507	7.534265001817932	14	0.0025078561292724362	0.06334586443568031	-0.04313311996133618
Si	12.838431141141298	9.481258529334097	0.39839304899800193	14	0.04044682912284548	-0.042051713063681904	-0.0007371358952864543
Si	5.220916587263607	10.957303003144593	14.463762110766606	14	0.1126966883927306	0.10067985634742252	-0.1373127078383603
Si	14.324121864541823	6.289026328877291	15.993970341379116	14	0.04994937727558076	-0.02358809153863452	-0.20408816966058616
Si	2.247471588085826	6.5757555428514065	12.028889577266337	14	-0.06486538767988782	0.03647061474523647	-0.020707682248472626
Si	5.158766572332178	1.4673442232910328	7.040757383056446	14	0.020290134744480583	-0.011521637160647571	0.08746308944920131
Si	14.816572382442072	8.602369841882028	16.09058968686625	14	0.10517877643661762	-0.1639385603127498	0.09732276413090515
Si	5.198313908261493	12.311859302706125	1.4331934934585782	14	0.07499194309382305	-0.16315591585329672	0.060547730515763155
Si	2.6295800555012003	7.67431534435828	15.790271743583142	14	-0.10383743079109635	0.10238398495361664	-0.030946080743834294
Si	4.816022449661484	9.435061424463145	4.212672738473144	14	1.2627883506799806	0.3052411093869159	-0.44052212980129524
Si	9.114099788163433	11.893284940202696	9.391537297967748	14	-0.008311355057910681	0.059757115629817614	0.07862774312704444
Si	14.349234136933214	13.554879207533071	10.874795218922552	14	0.11758564515899217	0.07373364415014258	0.38753396314783145
Si	3.2511112479628896	7.588337263027629	3.2070773603102976	14	-0.4184959847446506	0.031551833157261185	-0.15113214182362422
Si	14.990097040971671	3.351650199270903	9.547146792751636	14	-0.06243672159447595	0.1575786741928315	-0.06689887487759294
Si	14.122272784790551	11.870128386097088	5.71689948856725	14	0.05570325387154014	0.10716392685430395	-0.040454542438805925
Si	10.845912021047795	15.053434864753363	10.345919652180816	14	-0.06994589179250042	-0.10190138848502486	0.013733559067570962
Si	12.61412969657529	11.898310662380698	11.104052130122462	14	-0.23354146665554248	0.13210159157548418	-0.12257616058539961
Si	14.173010358430254	0.48698529010914854	6.102368785150426	14	-0.33749562562817353	-0.033882540129975415	0.07897381390313638
Si	5.606106495520241	1.4437334589235653	9.314279073354916	14	-0.13082015268392239	-0.039932865169347874	0.06412722334247332
Si	14.366461449886682	13.713844629935169	0.2177644112649052	14	0.051450902782547235	0.051690786908917055	-0.04656785955852201
Si	9.542915121606958	11.09256779943677	2.3920705686442365	14	-0.20908459862922993	0.19587965881548142	-0.006538320829136564
Si	8.044321885839821	14.393923198380794	2.975413788262468	14	0.04696638088314496	0.00819256999211984	0.05025508169814636
Si	8.407659052181371	10.39489593566841	12.426397079638695	14	0.06211687609264952	0.03088283155295865	0.07064446110798467
Si	14.387686793454447	4.951445729390354	6.1462441893663255	14	0.12418875784219648	-0.13041160404855084	-0.18329255561016447
Si	11.163705622463517	9.315452177556413	5.140666783551969	14	-0.2652179984208308	-0.18762769629046613	-0.094177273882236
Si	9.334726704387982	7.12940680891279	15.496590498442771	14	-0.08239749774744556	0.1339437885373703	0.03477342812340672
Si	2.739136224202062	9.988831961564514	3.2057441388222445	14	0.08294771428595726	-0.27351418395735266	-0.692924967974912
Si	6.995391907765663	7.983962570358031	1.6747876049725672	14	-0.04205968349017437	0.5935489191353365	-0.05763981039867569
Si	2.72274380852849	2.75208938591442	4.150542329740069	14	0.061565116890945744	0.13231576464865252	0.02147027208642855
Si	10.551510248117925	8.238557225230398	10.051506442301905	14	0.0651947462713988	0.014371707408031717	0.1852208846002755
Si	10.474967649745	9.200566390603063	12.185198359791505	14	0.04098084769784024	0.08864451234380935	-0.08742092332195088
Si	5.698541551508717	11.610813538971062	3.5719013300270053	14	-0.21039123435292917	-0.2578656656473354	-0.3490967099432137
Si	16.285529215547697	16.569124705484942	11.84912197841094	14	0.14779896088658426	-0.12971869116477094	-0.03424223776426413
Si	3.746734702296715	0.9371060257637152	10.558045647569164	14	-0.024824021866029704	0.14136476982291368	-0.14483833311043373
Si	8.10783779925656	9.028603692542312	15.939813119976552	14	-0.11589257230567467	-0.36644241487506074	0.20528579051871113
Si	8.17475048653808	3.2636739195580358	8.518662811860683	14	-0.13426234848653665	0.09681342816698382	0.008890882197072056
Si	3.4608126101548273	4.673156983807515	11.428497134329684	14	-0.07700614700162706	-0.04295005726254165	0.0032192809713574096
Si	0.21368795585719425	11.217255051717114	1.7956467470243485	14	0.12226865638910989	0.007234319039300651	-0.02564034780517672
Si	12.550030498757529	10.850071802798508	9.039061965514158	14	0.18606832091379633	-0.043114350892499105	0.05079809914176164
Si	14.758025006458139	1.1302744611938786	10.302676547861823	14	0.04629326551033019	-0.06416707547493561	0.03152715054618776
Si	9.327372746155474	9.910779685918355	6.535633091770381	14	0.16510815612288515	0.2725808727261389	0.033854257971453784
Si	6.04779166433312	7.506782013275606	12.971475535469917	14	-0.0361116884425438	0.09343602421843732	0.054027664534399646
Si	7.445479966422974	8.524013670161386	6.943373395833519	14	0.024792140160059865	-0.16760444227821694	-0.2130587561225828
Si	1.2081502810548543	4.569706512043974	4.122413970501932	14	0.0002277999313651198	-0.05914082168457813	-0.08878412336269338
Si	9.243758845576311	12.518100170888632	12.943477884220803	14	-0.02904371991745673	0.05084900702710058	-0.07423835212448765
Si	6.787914215237011	1.1367494082001945	13.20546734357225	14	0.10987644296706017	-0.15869093435432757	0.07508913087492464
Si	10.862572388098869	5.947249445325381	0.7791094763302624	14	0.06996826040878572	-0.03847170601590773	-0.040421632290708026
Si	4.241642530390629	5.808158172654503	0.08780635932713501	14	-0.1277517955948577	-0.2468749617352984	0.06314840354709293
Si	0.1939085694180164	12.628223285491888	11.047355906033092	14	0.0375268248107533	0.12172846716134679	0.12189198945970817
Si	2.768999731994503	6.592376697505772	7.073831405829309	14	-0.1489978672973693	0.0951337250613311	-0.03409054255037539
Si	14.732509173150634	16.374930212340935	8.329263668064023	14	-0.07371898884981773	0.04113819934343329	-0.024805252797192624
Si	14.051015690723817	12.721315149125214	14.570516226952748	14	-0.08684293884598158	-0.1399275219489509	0.09833243719012731
Si	0.8981272695866569	3.5368944628664383	8.929558080008906	14	-0.19340754105015903	-0.09408137165379449	0.17932174055372777
Si	14.630530800113487	5.305829398483706	1.9146351309832124	14	-0.10272568485066433	-0.14252613809602457	-0.06937176397451136
Si	7.007549384594833	16.02359857479131	9.535157602458336	14	-0.012040486214253455	-0.05761178535068607	0.04656991644277812
Si	10.586198514555244	3.6554400735124806	12.851202945518883	14	0.21814208845104757	-0.16435816470099796	0.06388965321089163
Si	16.079010592888515	8.910422430415675	1.7077309197564052	14	0.32962624357479636	-0.05312263546170753	-0.1353866928430374
Si	12.563785880752524	10.180395956429399	12.715425120369785	14	0.07157340146015417	-0.16972149039882686	-0.07004205113147396
Si	13.778484632057522	3.3448141714449062	2.920132478154291	14	0.11987752844137217	-0.0875011418079395	0.054362165336550916
Si	9.35562854568291	5.455875634484725	6.179546951119981	14	0.06185513757105846	0.002120133446994106	0.13575590356701067
Si	10.755288904557176	0.8915412207896698	7.40755014185784	14	0.019297688090903424	0.08699283428614622	0.07553547475850236
Si	15.443920080415364	3.5983484577563107	4.61665518785182	14	0.04143310512365428	-0.0031074378899309685	-0.0626825192630821
Si	11.954853304582963	15.877408224466526	12.232182980296333	14	-0.11199889040884242	0.039434327847771164	0.006715469985694768
Si	6.125994254166658	1.4376195927369304	15.44876117755887	14	-0.0004160048407999592	0.08800482134015651	0.03355960930176482
Si	1.2412798547230528	2.0317135444524514	7.210699008836903	14	0.05678440365866241	-0.08439267547588046	0.0026652077748654988
Si	8.673504397209049	6.900432553739146	9.923244326521733	14	0.012786620978160426	0.02123064507059075	-0.001552690502837425
Si	11.764227139539333	2.759425371798437	4.15529356514112	14	0.08895253076116309	0.25757898740413887	0.15660705349234755
Si	9.733172036581593	15.535799627450483	4.214950325181902	14	0.0872304044177279	0.1305419590882824	-0.18475782853211686
Si	16.104946325610758	1.5782564873780267	5.446678693606968	14	0.17508610164931582	0.04428394670263447	0.06551741998907737
Si	15.566824802495384	6.681762989650244	7.112112508114947	14	-0.09427420455280558	-0.07733216315622184	-0.06872461676543008
Si	4.539501529630206	2.8973876542141133	2.714871919889471	14	-0.04933693998832149	0.07891133604385679	-0.060040965657161965
Si	12.895787440575242	1.4808153154099013	11.63917553873958	14	-0.007865525395397003	0.0076351543587117356	0.23967483839675569
Si	1.1284576201464338	1.9863415337622174	12.66971000120836	14	-0.007336649031042544	-0.01983890576079459	0.13336143318235677
Si	0.9398394565841962	13.666106804643588	4.813537364020151	14	0.02717992567088139	-0.17866610869709001	0.040554558435759676
Si	12.317061480669311	11.19084877023438	14.8177177111959	14	-0.06182505563881273	0.20070793749618748	-0.002284684187483583
Si	5.34286387332402	9.395664402721208	6.458618310787106	14	-0.3530934931633839	0.12285049752305939	0.09305421507839533
Si	14.105310155514857	1.6060401042951107	1.3587716322075825	14	0.03815828827738167	-0.02292217526071617	0.058353806346080804
Si	14.079436509087397	2.0432223828860847	13.631054189686862	14	-0.30035292395225044	0.23413307798970853	0.145311673599873
Si	1.7407837024810515	12.546648429541511	0.6473917680902459	14	-0.2891868706573793	0.15774785292289725	0.056250642194199674
Si	8.523373201015163	7.208841321542888	3.305861556865653	14	-0.3485562636049186	-0.05979028288844753	-0.4018887012607502
Si	9.388259795142952	5.131100592605216	2.443901187842158	14	-0.09128015240749314	0.17871984479828112	0.18571273704801985
Si	7.089810457487591	8.49994379398247	9.294122267597428	14	0.0033455222425766806	0.03810095262874237	0.033225108499613555
Si	5.31868126150457	15.744259263746688	15.635134431409607	14	-0.18270582937610666	0.16042874444021565	-0.03707688137972739
Si	13.278015179030602	10.151855867025834	4.438562285105804	14	-0.010769845965036273	0.06855749491962046	0.036149997911814
Si	1.004628139044064	5.855678695914332	8.426273503668364	14	0.06985230355884703	0.0026238129792111146	-0.0405028792188247
Si	2.7665505910501516	13.848589861970973	13.240673540416081	14	0.12942275694242192	0.14919764218074483	-0.07014258134949176
Si	7.788323753935298	5.357347952357831	15.35092134622422	14	-0.19082100909809008	0.09866153867110627	-0.06042380323933202
Si	8.760712767486396	10.912528981504147	0.14527212670188833	14	-0.03593196818066545	0.1008878587678225	0.10761361317479785
Si	11.509985396237331	14.086094447278349	4.59579909435305	14	0.11276482268371453	-0.1099204088680347	-0.09027767844316742
Si	13.520949047432095	6.487548890307883	11.94655498112975	14	-0.037570790711727836	-0.012937287749921103	0.07124867085821945
Si	7.561674467116433	6.723927753059782	5.463678901429506	14	0.26485701523388205	-0.0325435084792423	0.1987358997156339
Si	14.165025734150701	14.112157620289894	8.391962656549355	14	0.44754278998849156	-0.0807815580537325	-0.03419672920009751
Si	7.747872899031849	14.292849978167641	12.995504565402262	14	0.06452394489337215	0.11418227304671215	-0.14318305550532243
Si	4.833984995053218	5.160130836967625	9.508427818702765	14	0.21839379966189007	-0.010693998358091907	0.08189253266256848
Si	8.612347762994208	14.84229408083229	0.7000964969647708	14	0.0017018146114060136	-0.14507641746307948	0.0801758056403056
Si	14.770909546476258	12.594515328972255	2.191218137309278	14	0.22878852136071676	-0.3356490577872432	-0.15995334706652029
Si	3.7060436714634317	15.793712631394222	13.998025038123302	14	-0.0439443036898429	-0.013178200318418978	0.024397732603949153
Si	11.309659064558197	2.9897982024546463	10.731990205513505	14	-0.09701680259780754	0.14454882665138508	-0.10425600673721647
Si	6.941826140013438	2.927849151056343	6.487380603772014	14	0.12282864312783813	0.07535472605449595	0.07102035670579031
Si	4.986937849960175	7.557911710882382	9.694247197450007	14	0.030374266920633358	-0.03669558646074943	0.04430297288200356
Si	12.705354069815423	12.47734051836111	7.437614613183407	14	0.012114276936941703	0.006089148729706695	0.17033675590193828
Si	14.919150378378871	16.29658874526906	13.707694819051554	14	0.06335563463589687	0.016930471422643086	-0.01350215958875764
Si	3.784664526861849	8.498440652108682	7.95329684228295	14	0.008399801080923775	-0.140796555547161	0.050165350122473196
Si	16.286132106147075	12.900512534378489	8.585673530133972	14	-0.14272025654769574	0.1839839258307523	-0.06571770909351692
Si	4.0246215208133025	8.10866942883673	11.782810547878933	14	0.15373975683931843	-0.09289120700109793	-0.09479305360641146
Si	11.672007751732748	4.75046259006637	9.188392575275268	14	0.11384314425498462	-0.06959056503725597	0.10041554672051128
Si	6.448517850935215	3.5144617042500568	10.025557638780757	14	0.020099101619193576	-0.12699151975168987	0.05092305486032084
Si	1.4102591429343143	14.623139263334133	11.477221804938402	14	-0.17361620073778716	0.04132768980552821	-0.04805704375995177
Si	8.676780266183984	16.41153008311774	12.78204534852586	14	-0.053549181834320086	0.03433762577164162	0.10763546757001911
Si	12.269849755033555	14.402327722075087	1.0240693185616403	14	-0.09971312074704683	-0.10205591191476576	-0.059811365952072745
Si	2.5478450822642675	10.43132425220962	8.432259929565703	14	-0.04173083911972742	0.0012770680125175507	-0.05353349809186718
Si	5.098702983675556	15.61138315595394	6.77273248231178	14	0.21888308100431425	-0.051578429606426585	-0.14632623175920342
Si	12.844505794931225	16.294383047954266	2.300852730803554	14	-0.046880248854919995	0.09673938033376356	0.06324481999659849
Si	15.009948316804813	8.668158440457935	3.8145313023540157	14	-0.0010950337558510667	-0.08944284054571533	0.45454108155940265
Si	16.070726974084067	8.679807789979769	14.115727582240135	14	-0.040578212604705045	-0.10797845301972686	-0.02792297510840418
Si	3.255125617075814	9.9515295353467	15.433907848456064	14	-0.24672609473726181	0.2136627087622856	0.06978262660467104
Si	10.491500576506777	12.869627870421791	11.013762319003854	14	-0.09292488848079188	0.06878683751417768	0.09531370243374146
Si	2.791762528283172	10.153283851805929	12.122401340314402	14	0.11514592332070366	-0.006845825025426275	0.08952383036329999
Si	13.32334797732413	3.7398823359720894	7.8285491375576814	14	0.04117985124961969	-0.018277473499868663	0.0009927037641091732
Si	11.844753063877786	7.835476660975996	1.7550079993866754	14	-0.09359311875349836	0.09078161508591644	-0.020856035025445172
Si	6.35768233396243	1.3722198504283718	3.034467657703872	14	0.06212844606659019	-0.06922983896083917	-0.16424863561435965
Si	15.954849440263994	5.214137744182809	14.707369125311576	14	0.15604706675361932	-0.04108420613171019	0.2588429427795237
Si	13.585995878170287	6.981371842092892	3.1108338002916116	14	0.05234847564981093	-0.12491046710556203	-0.09239729766909749
Si	1.3396768288609222	10.344527612097702	13.977379711256834	14	0.15925143531411984	-0.16906868675804126	0.07560849414959456
Si	4.270015967108187	12.16085072913591	8.656669208222654	14	0.13455082650345726	0.048987783885845376	0.05336920446190972
Si	7.4287722177258795	1.8852585104498887	1.0081833963455384	14	0.016478213996829038	-0.14217981020940063	0.13165576191297054
Si	11.341225043907686	12.734263409287983	2.572733517224452	14	-0.11679554449411066	0.023811777701487406	-0.019697237857654433
Si	15.752322312819654	3.5832467834743578	13.062564299171436	14	0.20355286553293134	-0.040349127120679854	-0.20762318236525779
Si	5.114172274176641	6.594657551914255	2.0542361648112872	14	0.10327333028385588	0.4197085180136325	0.309530998613583
Si	1.2425967377124776	3.2866131716318883	0.7239654096105621	14	0.3785973152760608	-0.2124805145360815	-0.06562283530720345
Si	8.92003600300845	0.24747923871983069	6.019562006403489	14	-0.0035303847150953273	-0.33376212359278656	0.12369510562072805
Si	0.22984836485024795	8.164596109640717	5.539621876902777	14	0.15974483042505627	-0.08818685559682299	-0.20343922267778078
Si	13.018701965754438	2.8337933160039595	15.61852471370428	14	0.009238752746888092	-0.2392560053401036	-0.12620064775521234
Si	2.3394230245149097	14.686532638011162	1.5337242755172775	14	-0.1134381951670613	0.07495671895093703	-0.028431796851261487
Si	0.6167293077148907	5.239120942435036	1.993896455527851	14	0.019095342102207768	-0.184551882995973	-0.16479345283169902
Si	2.39353776582104	1.1607800719824042	14.557014091686487	14	-0.005776759433308704	0.042747968384378006	0.14303984493899016
Si	13.524273931902915	15.379734288554873	4.408628521769262	14	-0.04853861178641551	-0.10971317777923076	0.07269260360601464
Si	4.170988326923274	11.983664613063755	12.600552404215339	14	-0.07885965682692181	0.003658425760038701	0.07872441668708201
Si	0.4613518196115225	6.733941618868945	10.507206775237968	14	0.0006504896459974639	0.02219558089724232	0.09735695983166312
H	14.914624614258887	15.064888152291662	10.973041878873042	1	-0.1362878652577493	-0.15550687752585618	-0.41832372068820073
H	0.7359889107509809	11.250665647561716	3.2335963774335665	1	0.09175580689172054	-0.1656591439929929	0.06287535216209322
H	14.69575408663686	14.301045369079496	6.918906494137939	1	-0.04657454443235439	-0.04680928634808391	-0.1420751662228706
H	5.979117686899491	8.671846039598297	3.5724552051304976	1	-0.4723845524812303	-0.10187130655277912	0.4248178185058308
H	4.348653161005233	9.453239638036766	2.142250023070999	1	-0.3752175973327261	0.42788926092127966	0.011292551676622378
H	0.9659434758423115	15.482498543376035	7.1496109963163	1	-0.10001959650120848	0.05935628031040654	-0.4237729213037226
H	10.446559902180324	6.634319257333968	6.213336600132755	1	0.31399957966000036	0.45211601502143894	0.18657225755654536
H	6.714453057705348	9.409455729413185	2.108671140690528	1	-0.02747945944067864	0.010130412071915446	-0.10595242202745019
H	1.315160911669458	2.9359269047780754	15.56635098603517	1	0.19526953552301027	0.0026960610387072753	0.14914287763742567
H	0.13287774164261168	4.288156602134967	15.872851417199149	1	-0.4626948278611882	0.4315672270817515	-0.2246274445105891
H	10.239474333618746	0.8632854212622337	0.10711846470554921	1	-0.057853726361311995	-0.36096878875899746	0.2627528226398729
H	9.941036951527733	2.897743833484206	15.585841181048629	1	-0.03713627391262281	-0.10853869686898712	-0.43533003971778816
H	14.006617454551819	9.85978396400033	1.6460400166364253	1	-0.20992406451625828	0.19650340896614935	-0.2552665352791977
