238
config_type=amorph dft_energy=-23439.95783378426 dft_virial="28.930746936320578 -13.818695693668632 8.325976346580106 -13.81869569366863 35.1388535714405 -12.626383546949636 8.325976346580104 -12.626383546949636 48.674627738769026" pbc="T T T" Lattice="16.5000563662 0.0 0.0 0.2553218722105788 16.376404943791695 0.0 0.2869854803773166 0.0717257450238714 16.290951151871145" Properties=species:S:1:pos:R:3:Z:I:1:dft_force:R:3
Si	8.354839841149376	4.082224495375534	14.647365687183235	14	0.05182885526460901	0.04839797232540341	-0.020469597895826915
Si	7.7349244734430584	15.181048460308517	14.069444612934534	14	0.08331281124141827	0.5586713612464638	0.22131251842132216
Si	12.336791843981874	3.2820146617613855	12.777802050526395	14	0.01390659445561693	-0.22490795210101724	-0.045386950884977996
Si	10.965038207904561	3.6809596246059155	2.961464766723945	14	0.06514820926510413	-0.03423632422202779	-0.22753073663810028
Si	2.0049317490907814	13.136727776660344	10.121530576379868	14	0.16613839802466848	-0.04661413945428467	-0.07047399682525884
Si	1.524882409183832	13.5018492739598	15.684643380650035	14	-0.014234924604999841	-0.000143210566332248	0.14102898346810236
Si	7.252401775086815	15.021893866617063	5.244168364717156	14	-0.14944292562828693	-0.13405254629241256	0.08321022413914438
Si	1.776026467122489	5.573100288388628	6.114316987250716	14	0.12130140656767016	-0.06928280373043424	0.0005988104290624875
Si	15.742860529526899	15.648397706830403	10.736170876065911	14	-0.11270671570347918	0.06558298317474115	0.10629309348236979
Si	5.554554225033018	12.454894297434224	2.75608526512258	14	0.8719690291540638	-0.2765097787658572	0.407111387497567
Si	0.585587000436438	5.618675094077708	8.12673646192048	14	-0.029322427734160786	0.0982835861890445	-0.1204264594272238
Si	0.5450480119503213	9.26178028936829	13.061362119202089	14	-0.1468095995593913	-0.09271431495507175	0.014436499262099448
Si	10.266041370046322	3.084494137007242	11.664478897279052	14	0.0711849074462798	0.04136728482745848	-0.15011732655376178
Si	14.8196774258211	12.702667393857267	5.020950652178294	14	0.08371364656082937	0.044384219810120244	0.1546789816127685
Si	13.534755336370914	6.231551537738205	2.8645021854879706	14	0.3806966227699617	-0.2675399636354566	-0.3036028010769175
Si	4.7839586925849265	12.047306605065078	15.839390809286078	14	-0.05451540321363173	-0.08166807516811955	-0.3900857851780784
Si	1.8437360984268274	10.217821605321738	4.0155708676786315	14	0.23422409511804176	-0.06059375330099381	0.011186879247964292
Si	0.23518190340999506	6.965327194405122	4.936107362343293	14	-0.021743580581960287	-0.02122755974420657	0.048765126165120555
Si	5.306155776473696	1.6898730728120124	3.323401753144725	14	0.04234944705975505	-0.10780670318434096	-0.008463564492863446
Si	11.656862471260414	6.29698251125837	5.905353673406614	14	-0.1377533952902337	0.06701328906433954	0.23260275610315642
Si	13.772044296978871	9.109196018121853	5.709927005805341	14	0.08592222603083656	-0.06751234060698028	-0.07062054982850728
Si	11.018183239454455	6.5317304631859345	12.758968886190013	14	-0.14773596880624065	-0.08586694726645339	-0.029430157047074988
Si	9.220134147099998	0.4212827391530916	13.585816410801755	14	-0.0689223347645495	-0.3499163783192769	-0.0659239117401928
Si	8.01843174193838	4.378329556906449	5.214877464655879	14	-0.046580200864058716	-0.1970155731459228	-0.047523796516553064
Si	14.816068863493811	14.172974216604254	1.4205113026394338	14	-0.05899066913388148	0.18463492969781378	-0.038641141856505475
Si	13.070852951623927	16.421468247733426	12.20328493790604	14	0.12736304447045127	0.04499254332886728	-0.1698017088848155
Si	10.831625352150015	15.810520660662137	11.925882690266212	14	0.2101171545258014	0.03581883954657893	-0.14579092763154863
Si	13.952508713467273	3.3030901837579325	11.073849479617104	14	0.08084197902875596	0.5138536530793666	0.2732115648611712
Si	16.40272418370142	7.8144200950097735	8.55352691988861	14	0.04636448512769829	-0.13182005554292797	-0.029922009494819313
Si	10.586969116374549	13.565532891510786	12.291386988873365	14	-0.12415250525718236	0.28751976596779527	0.03321919495737721
Si	12.457641556819196	7.745880510870215	4.286016691554469	14	-0.011126201162408797	-0.11552053336584923	-0.04140173763874847
Si	10.046366219609281	3.152347318801966	15.984576455257908	14	-0.07924403707228395	0.06558452583793324	0.03303073293741036
Si	9.808875958313655	6.543569253628683	0.11880535585354984	14	-0.04647324288274055	0.07288466517342969	-0.13763409600337884
Si	16.367085711956065	8.988377655391627	15.278542343359483	14	-0.4311149696559374	-0.04932125624586859	0.07372541661311811
Si	9.611406583734246	11.433494608208619	9.16453555716845	14	-0.1209306531805048	0.022525710820349334	-0.06818905552724325
Si	3.1420083834829056	5.77186161738151	13.476112486039803	14	0.028215824004369047	-0.02965718564684406	-0.3480883224366516
Si	10.857299439855822	1.950522813223237	9.658867345865984	14	-0.05086237677476535	0.16259464356190842	0.04438524825224831
Si	13.024215542304862	15.580343224348011	2.007647658368658	14	0.046304835484270855	0.12284149865443886	0.0737359581449307
Si	2.082881315375984	0.6589627510969294	13.944200935086892	14	-0.0441646474157796	0.010439973152461274	0.04515323741137653
Si	6.548327869884695	12.312823862104333	0.575282715235746	14	-0.033259047089839504	-0.04406283164510174	0.07092034070883656
Si	10.227893239727667	0.12404082373854511	4.371609083948496	14	-0.21422860904325017	0.1281145785555306	0.13562143475876692
Si	12.50180890770024	10.316912693828952	11.465793468545456	14	-0.03136208558463425	0.1623550165460706	0.24664999001978544
Si	9.882736810631311	10.852851024659495	15.539832285957717	14	-0.18999594140085455	-0.6202984417756252	0.24438973133284325
Si	1.6056732851752937	15.938148596654695	5.864233882936407	14	0.11117382271160689	-0.06502222510441685	-0.035255767481466506
Si	5.866109939345244	1.77186680291257	13.291861306615354	14	0.005262024148215059	-0.1313153475685829	0.3183838284519169
Si	13.535296538219724	1.2535059821289407	2.7511649483141793	14	-0.06699863376401469	-0.09857463531128526	-0.07079641343240542
Si	1.7603662636253288	6.32444685507991	11.55588212629927	14	0.08418210195016033	0.02480936656570486	0.21084709132619145
Si	4.715876160006712	15.720133351888094	8.82206698725415	14	-0.005529419101510459	-0.047636153819043535	-0.004064917511154113
Si	1.4025922414257408	9.385555462199337	9.442507056752913	14	-0.02941781574153827	-0.028218137999157178	-0.07964332972850294
Si	7.119313970442683	4.375174746129231	9.00644851712389	14	-0.05947120871821715	0.00890810860271705	-0.22190027309750804
Si	10.850882567935006	1.0749885722917496	15.206258896430436	14	-0.14550553494101218	0.07865165440652183	0.16619599078383981
Si	0.3790095947428872	5.3897153619234075	0.4565004594611089	14	0.032154243133771875	0.09685970806274649	-0.14159334108587487
Si	1.805822268908573	3.4499984356143942	5.0397013162328435	14	-0.023656740050682475	-0.0845217449629519	-0.002054313150798315
Si	14.953402132640965	2.054519368488122	14.960950908428503	14	0.006189678947724485	0.05514455268547198	0.029768000286142442
Si	11.13738624666643	7.28521873719355	7.966532464644134	14	-0.1561216288079036	0.005980133864132417	-0.09257341838352762
Si	4.129317306250305	8.96704803252704	4.188189507364907	14	-0.2169213276450413	0.6487256106373104	0.352730195981647
Si	7.51459922078519	1.2689368348426109	7.535489942150435	14	0.20314328845543173	-0.11190658772784909	0.006689244711429257
Si	6.642957343150489	8.527960082549182	0.7505199138673366	14	-0.12276462260536646	0.24164713328784132	0.2911758777330459
Si	9.120148755537736	9.999222258559774	5.9778483210571505	14	-0.06818545597979503	0.18910171097050704	0.20022842635397986
Si	16.437290151782975	3.446985525321926	1.651233240813645	14	0.008703191508701247	0.09670492752247357	0.0881747714018183
Si	16.15968660345548	7.24433489752938	12.119387101300823	14	-0.18334886281667573	-0.0030457313622474142	0.261609194993471
Si	1.474735437875677	4.596235901301032	10.062084173303722	14	-0.03313357715021628	0.040785700804040995	0.007720000834276622
Si	8.255856003008542	5.990312463636177	10.155578442691521	14	-0.08357249287875325	0.033785095238341806	0.032927888724604434
Si	14.003310737013166	13.604309673976992	14.21402635684336	14	-0.056231101793766544	0.7681778782587301	0.6105768354496133
Si	3.210592517774652	10.323580366606535	0.5896955144716217	14	-0.1862896930818611	0.004661156834896452	-0.21788292103477666
Si	2.885077755776622	2.3376817858053904	15.481266985891526	14	0.03626569765122067	0.045936653202425654	-0.11747380207756573
Si	7.354794524872906	13.98976749074779	3.156516883045705	14	-0.39669661117724314	0.6183050638209143	0.3163986780342305
Si	14.336623425649863	1.3119871319076635	6.485979106893735	14	-0.03362980047700486	-0.1687431848245105	0.22384917093018025
Si	14.475440049864341	15.4832618427062	7.12530019089234	14	-0.1078126167265773	-0.1492200107970301	-0.09501648265873235
Si	11.063987395927025	8.850306833724902	12.67829681060439	14	0.1336697087102425	-0.21716558265045532	0.19999317021718632
Si	4.165435929635916	11.423855275279486	12.346074775693499	14	0.054861216879191654	-0.09727597001407846	0.1367046414301453
Si	10.004017174939792	14.762656531030785	7.956008728693772	14	-0.09097419087439552	0.038135405440032355	0.03226608621519832
Si	2.528679838277975	0.35841917440350624	9.787957186852585	14	0.09582483817138689	-0.11677908942006172	-0.16184928012959746
Si	1.4367391080755916	1.8186890128629356	6.726790829535878	14	0.014939150352188398	0.08573299267927366	0.034530715781184745
Si	15.36292858163314	6.684319684449279	15.848693541065343	14	0.060552615615871434	-0.308750411038386	-0.09400963781536234
Si	15.09609132008459	9.454104946372716	2.34465800963702	14	-0.09904489047434034	-0.07633226029721624	0.0483545206454929
Si	3.957825620413842	8.778424338165552	6.643218044041074	14	-0.020279593212667972	-0.16599184502142006	-0.01221892092347173
Si	16.3153613352593	0.1437088909270555	14.552112511786799	14	-0.06930722923097565	-0.03278802059518837	0.02798005364651147
Si	4.501997479371118	13.880042115912559	7.359270990165056	14	0.039425328979150645	-0.22525402287710916	-0.00503910931695822
Si	13.120278870468878	14.096996407054814	5.703622334267815	14	-0.038163687598553986	0.03742295215581932	-0.08313874741124425
Si	6.027411190369942	9.416403967581585	7.395648664435617	14	0.23248037148991735	0.1283009836912413	-0.08911451039633242
Si	7.827783490660758	6.603111357031753	1.4164225886718897	14	0.04985887436831155	-0.10366516673464646	0.07219560894763001
Si	12.63622661688749	5.312867999403467	13.897297874860334	14	0.17337657372194937	0.08664702062058631	-0.09945241066758381
Si	6.7324486988638474	13.394666557810602	6.865605803744718	14	0.06106066602713269	0.10615682490040194	0.009175246445480435
Si	13.01816332162974	1.2429129459418402	10.175746461587927	14	-0.30556095488874235	-0.8284366165365085	0.039650557805195615
Si	10.911974026630862	10.967678216923153	7.2736290976019315	14	-0.23882225987259462	0.09008715953894443	-0.08765206569023219
Si	15.745645739041512	14.885733751477543	13.013124204415503	14	-0.324116621984251	0.3056293462902583	-0.022918061492203934
Si	16.582323997236237	15.281221952513354	0.2688106682899473	14	-0.05229036866957558	-0.2245009461288378	-0.06845362226468649
Si	5.220906585252089	0.5061623291120977	1.219865667209532	14	0.1501664346653766	0.1500412218362854	0.0714106504933888
Si	11.353647535441304	12.132463395971037	10.605648830186723	14	-0.032711144546115956	0.23591613952923124	0.05305424406019158
Si	5.952748435312887	8.283373147010453	14.906571672662418	14	-0.3125998699237117	-0.49157219726443135	0.01104932511333637
Si	5.800429814973948	15.929504217124443	12.727673229280242	14	0.21785181066040282	-0.18400732288916563	0.15317617055314198
Si	1.8913123609531284	2.191882337736738	1.43915636633324	14	-0.1880470435681823	0.01656383180398997	-0.08305004427769914
Si	3.689701354468728	15.301088020378259	1.4337228977718504	14	0.04046765507593867	-0.22120478910840796	0.17418904300311616
Si	5.123485302449134	4.8016335529644	12.458530909857334	14	0.24285632411990699	0.09073970606919803	0.12387688276686251
Si	11.650417549243777	4.902636998004457	16.04670906751047	14	-0.11815437365580894	-0.2823266474421602	-0.051928357040498745
Si	5.184406810564417	1.0041224802045572	7.276788858396059	14	-0.06077373067340418	0.15763678117306684	-0.04770994454173179
Si	1.0835933516867229	15.131480640978817	9.401796467680589	14	-0.06317977103199873	0.12305412906441512	-0.08093736703613347
Si	15.54214394385462	1.6413810571573872	10.24110648486572	14	0.21742680695098238	-0.2678482391633423	-0.16908437050049416
Si	16.07141130189631	13.814696942685499	3.4117793550533655	14	0.005236313095013578	0.03838763087193888	0.2181811692519138
Si	5.925231291310975	11.50496130234754	13.910950021497726	14	-0.09005476361191057	0.3629865922142497	-0.09743897809137586
Si	2.823428595175589	13.371414678379352	12.322761846053695	14	-0.01037235308254138	0.003175572180914892	0.05926423473994524
Si	0.8769350957169778	10.516312575003207	6.150400960517959	14	-0.06736295938787967	-0.06901258056128669	-0.07546065559368603
Si	13.065094431952122	13.080762885477466	9.260668185569205	14	-0.18048259460577462	0.09317248592312213	0.27325887319906195
Si	14.93814948053605	11.601229231210498	8.942880399967468	14	0.19746423102428867	0.07016263597098892	0.030377866468081566
Si	10.29886658218124	5.2821844945848815	10.956245327867013	14	-0.1351699486645489	-0.028267760331836037	0.08019431759861068
Si	1.3616820016713844	11.715617521974815	0.9528865051762331	14	-0.06982170740553728	-0.01854461134263205	-0.02919284402602532
Si	1.505867744227423	12.451787336820468	3.110511425885466	14	0.2803317268242573	-0.07675495001184858	-0.1360968321324623
Si	13.834749461187341	15.334840535680957	9.393927590799548	14	-0.019446040867875967	0.28559606496726053	-0.01994894906849693
Si	4.992179503892551	6.10417605260805	15.55633564233519	14	0.18590171328905072	-0.027896492723606656	-0.2547942232318865
Si	12.762527948348204	4.41797754234879	1.5547805113193864	14	-0.11557735479342451	0.026800430525627528	-0.035595410494258066
Si	16.08088068424487	12.319552585090468	6.931942630359389	14	0.04016117932177703	0.0024626046756378297	-0.28753339282599205
Si	13.783793987117242	7.793575573802352	1.1966170877895563	14	0.294460207669003	0.2412470693000263	0.08489944033448166
Si	11.221345133480202	9.148517302448145	2.8236760960210816	14	-0.16886582654828158	0.14914236341636164	-0.1435460955765273
Si	10.088794464549327	16.271867186677998	9.773620287875996	14	0.3060008710090197	-0.12415250525718236	0.0332397637999384
Si	3.765510863443234	14.14063575613214	15.712581276089283	14	0.014947634999744887	-0.16572007918908038	-0.1936584809294055
Si	3.795628416328459	6.664402466409639	1.318479904087763	14	-0.2790749705437689	0.19852018397927348	0.09857566375341333
Si	0.8051994506592867	13.15325423311673	13.458615826269082	14	0.2313385436172396	-0.1880383018100938	0.20751391038915146
Si	14.042625421316913	10.754964440267013	4.0819720445131304	14	-0.038210995936444704	0.08861443041156362	-0.17772071327087155
Si	14.155381856506612	12.31856093170286	0.052077477903000435	14	0.5340419720531693	-0.2591656164972023	-0.9504270793299784
Si	8.825399998640124	9.419334377592222	12.361177277285481	14	0.142967339768962	-0.0856309197980638	-0.06095010849836634
Si	0.4825886985817077	15.9609434245246	3.8365172060095394	14	-0.0357244799813295	-0.024001525274114335	0.09118682128437176
Si	15.057265037449286	5.387162803203556	4.396111667652303	14	0.015811269276782627	-0.03304564534826722	0.00957659598595555
Si	2.5857650832881176	10.315241238119057	7.682271143572877	14	0.02085217836746495	-0.0527056021787795	0.09398392676216087
Si	12.534493869356048	9.178060653371825	7.744941657662978	14	0.09926420575814898	0.015469826490266965	-0.02588126037367459
Si	7.450418951537582	15.595084374705575	1.412713376000768	14	-0.16286589517318403	-0.3443409364325358	0.009719292331223768
Si	11.521933260325815	9.316126525021641	14.952951681102169	14	-0.1330043066533882	0.18415516144507416	0.07925946370420484
Si	6.34671203114046	4.172060702266946	15.910989503875928	14	-0.08507427549625173	0.02412211011362928	0.004843448202094952
Si	5.139175206047754	0.11212943304778533	5.123044750944156	14	0.07359017647327831	-0.04431197175062408	0.04491361039553873
Si	9.001889551549908	9.633876360493737	3.551897833715136	14	0.15864902533760913	0.2546142458594761	-0.7390238579230389
Si	6.197200070389412	9.584656692353361	9.672356141945352	14	-0.007469060955030169	-0.17088671532991795	-0.04960587760480897
Si	14.332910912967469	2.6626982461011615	0.9951810996597135	14	-0.11882697480755966	0.03725043098883738	0.00028436424840837753
Si	4.558181821303665	8.815773865756082	1.843564497840619	14	0.041680702565984544	0.09122230253778982	-0.010097501923817552
Si	8.289761968835446	13.284101330106333	8.622909656908481	14	0.009117396575777103	0.03923069630641544	0.11314508916056443
Si	3.5578857041704297	13.67213645568153	3.3588999744109675	14	-0.5581270582501885	0.6692810834508303	-0.4694174969417794
Si	2.9165714133627882	8.152973201548374	10.72312263149152	14	0.03632406174198803	-0.12474257392815638	0.08642333445773343
Si	2.8815615937649848	9.462110773721594	12.618068304856486	14	0.04731142321710883	-0.027076567237011434	-0.21165853216523015
Si	1.6591120177285057	4.38970799577658	14.837236785806008	14	0.008817862805979852	0.06153734895348815	0.2364936097841365
Si	7.5638947891848485	7.711002691723341	13.344432136203705	14	-0.12127929506191691	-0.18664116317912532	0.08140505109386839
Si	6.47097065562304	4.729993608233633	1.8330737620029889	14	-0.0751454380814359	-0.004556255737834411	0.06552204797865364
Si	13.560473974228907	4.84969326714223	6.104331153137893	14	0.1306550877223689	-0.00601021579637815	-0.06552950418408207
Si	9.182137817299914	6.258468079688387	14.22687990075263	14	0.18582560857157435	0.3129613673317245	0.09365688216543804
Si	15.837724303593092	10.70038390381326	0.5003477092486488	14	-0.06783012922455058	0.16098436029989965	0.18952902867471563
Si	5.0944749033460806	7.524406854289259	10.092808928263224	14	-0.013552039031968511	0.08494572023024433	0.10750408408815955
Si	0.5190257730551872	2.985901350202287	11.503050595820335	14	-0.18165861817921036	0.15451648775653515	0.05148021338319693
Si	6.52165222875746	6.525925743356305	11.645010480772575	14	-0.20557401142509973	0.02611343118408397	0.029630960372578546
Si	8.327370547310926	11.229963112920268	13.738445232200378	14	-0.35317114054405235	0.04571913769234113	-0.02236784495369224
Si	11.633970293057947	5.294151985467287	9.065959270419862	14	0.11063980413661213	-0.04954468529818945	0.08104689612277177
Si	3.33040932708345	3.047595060955509	3.21278537526572	14	-0.020658317026325784	0.09298068146623908	0.07095325085693445
Si	8.36647073088191	7.437438357194292	3.4844538533182936	14	0.202401781681101	-0.4968090245805091	0.13056767014148385
Si	8.223798043494652	2.502180747753858	12.891837240084477	14	0.070945537540974	0.06941804387027403	-0.0030282478460704073
Si	3.6613031074568614	14.932204510227308	5.401375951757401	14	0.034043748433548696	0.12275716639993801	-0.20921649633215353
Si	13.959291886639418	11.407177018304528	12.99559454453205	14	0.16224574456996432	-0.15407605741519378	0.10367210871901084
Si	5.0097900140521965	5.57110213156268	8.636480953269679	14	0.047296767916783986	0.12495057634855633	0.013528384863023145
Si	7.119401420741424	6.544867808064703	5.19361714202803	14	0.004193729887693532	0.0025171121084249693	0.11150858062429017
Si	8.419435911817411	3.410494000662438	7.307774314246146	14	0.10685873665280238	0.01187182170525174	0.1497548007036209
Si	0.38257690692925966	11.422414820358716	10.267268974239967	14	0.03034855586743188	0.05640593695553661	0.04568519910211517
Si	14.975371957692563	5.784995662249004	13.646939219604707	14	0.07685162357188616	0.4383068654574556	0.2169118145553567
Si	0.5976386416063104	8.3958342311912	3.0900662060421076	14	0.011915787606226273	0.03261627075980248	-0.05495814754976123
Si	12.499858601037756	2.7448652267935643	6.219361296094855	14	-0.020873775652154196	-0.022289169130895712	0.017535966725537956
Si	6.290090437714209	15.46745478870738	10.505572688314446	14	-0.07552159078977357	-0.01084775045623676	0.022811103510885774
Si	8.422701272972281	10.059422714211856	1.1574921541340228	14	-0.3132277338428919	0.08965084296611531	0.3002539363974247
Si	9.099343834465595	0.34243721980720493	2.296225394185313	14	0.4026425493406176	0.4626524046234058	-0.08840951331754782
Si	15.966809194562783	8.614045826628558	6.39966896204778	14	-0.019487178552998335	0.029909411078750586	0.13829718406544503
Si	16.709821582783498	14.638168555764715	7.261704506866079	14	-0.07497857334615828	-0.028667310098587053	0.04438113448373607
Si	2.407877975604115	1.6271910086824553	11.812383752540033	14	0.1251302966104347	-0.20773091167817195	0.07727868416556274
Si	7.820036714196827	8.08724357700798	6.788664390903491	14	-0.07787518059983711	-0.022715972614040292	0.10109174741971022
Si	16.217492900928825	11.327984997774953	12.486845006581733	14	-0.1346138185838009	0.03445049729519612	0.01830601276892231
Si	5.234197380655062	2.119739141286801	15.584128337278418	14	-0.008558438279176909	-0.14818231268981835	-0.015567271381900573
Si	15.238224455628673	1.3375407692019974	4.308400668020857	14	-0.014443441246463849	0.00036021185535274586	-0.06903803450395614
Si	11.473881796176167	8.164889542256045	0.7010345948194661	14	-0.472847094328325	-0.4865978798015409	-0.05032064488381014
Si	15.884863314625688	2.2546073020128468	7.934797906235022	14	-0.010766760638652097	0.12162382317481675	-0.008394401759751464
Si	7.067309092787693	2.701427178403906	10.770268242546663	14	0.002355389583787655	0.2624718008283807	-0.08482642094338945
Si	11.750077889695625	1.9032815018411697	4.1882868576974674	14	-0.04050725009786896	0.07541180459260323	-0.06740615395725816
Si	1.5704506148503665	7.165873829496826	1.3282033873043646	14	-0.09157428685611808	-0.01026488088015919	0.16183976703991293
Si	13.796500680524852	9.7311177926823	14.64733433707614	14	0.6581484545251212	0.14995688958178455	-0.49445877720736164
Si	12.260246432493435	11.23800359038752	2.6536479651843004	14	0.1932720437997872	0.025686370590407372	0.28656665722561636
Si	3.759158341742247	15.156260425629576	13.598082552704387	14	0.23078858418925993	0.03657757272655463	0.09163445072060955
Si	7.277712861552566	3.139863376155299	3.317634983444738	14	-0.003286901041277304	-0.13646758551962765	-0.13230702289056404
Si	11.642433171968174	13.232249902975548	14.332104060211162	14	0.19185947853689786	-0.37361245628135764	-0.07494900563497658
Si	8.408691075111742	14.016505832089218	16.115195851469657	14	-0.30270857064657003	0.19407911375978168	-0.06764218142564775
Si	10.692112425556884	12.993571637621555	2.6687818168833792	14	0.315503676272287	-0.1780166474932206	0.05999134332448311
Si	2.1935851435537295	8.696744109135953	15.85446031076533	14	0.14041140397020277	0.08409905524831957	-0.022825758811210614
Si	14.80096471189619	7.419855897130469	10.19984149389949	14	0.14307404063974813	0.09914799179767828	-0.1357705588673355
Si	9.143943486823433	2.65356051488556	1.936260164500294	14	-0.0021743837692492305	-0.145745676177914	-0.06932574118928073
Si	16.243764290675088	3.4303270684146105	3.9417397154624334	14	-0.03216864132356471	0.0866346793150496	0.027071425026371138
Si	3.218959696357952	2.0040374460357335	8.203630024598246	14	0.2142859446918895	0.12375501237468751	-0.1362117605402729
Si	10.460032532743735	13.693296127965544	0.2309545889689746	14	-0.3960445788680536	0.1822787687824301	0.2263426288696599
Si	12.862904391246344	1.4451574368336269	14.052942906562697	14	0.14679314448534236	-0.1282048243522678	0.17035141120226313
Si	3.62116672034608	3.880791807256964	9.53587097569542	14	-0.16521691387792745	0.1216125103114081	-0.08451737408390765
Si	7.009281694559041	13.256204684807997	10.588917773031397	14	0.12405943124459302	-0.07552081945817751	0.058104152019494426
Si	7.0942850349407935	11.174354622954901	6.356301863900496	14	-0.35876458016803453	0.1348331338676095	-0.4935545194662655
Si	11.717416028118732	13.222165068524527	7.328432384816628	14	0.2807065939799349	-0.20969523614276506	-0.14080863974216568
Si	1.5990963627077266	16.322779760601545	1.7983741434648703	14	-0.12364882572496537	0.017002976592671262	0.017602558353329793
Si	9.479845034303988	11.944529403965655	4.48338211577877	14	-0.17067665602526186	-0.1139747848473762	-0.2583932564590298
Si	3.6664049248852906	7.9794817088803285	14.223215238233697	14	0.16106972099652858	0.3158178653424091	0.20724985787277225
Si	3.5914616688700103	12.199275424209054	8.66668430644801	14	-0.0318662793379153	0.12475285834943696	-0.04696895198846511
Si	13.87349654355209	5.219487580404595	9.71570674003627	14	0.0010945195347870373	-0.11815205966102077	0.08035989678122821
Si	4.864040066152641	6.648098760714197	4.653246896057526	14	-0.06441493002779788	-0.03441424471018204	0.009917524551407184
Si	5.242204858009579	11.62613936630655	10.27864081308755	14	-0.013462821677359372	-0.0032627326512679124	-0.080199974030315
Si	9.065353718351224	16.10187205595395	6.230584634435145	14	-0.05328332954421677	0.013573122095593726	0.057803075586505076
Si	11.054582363798293	15.896624554803516	0.7248590262066223	14	0.08864116990689316	-0.08349510260861678	0.04594025274987386
Si	15.085471883807305	4.493943801858776	7.873884648147921	14	-0.02125429923953611	0.12076533110841928	0.035022568228929074
Si	7.645829119082488	0.6392996339253288	9.801870034380567	14	0.08600167318522914	-0.02728868342592365	-0.1475500778915939
Si	4.429091980317064	5.13914715595193	2.901856663095411	14	0.06389865207951215	0.09193012783242657	-0.0011814228946080423
Si	13.838346473475173	9.551537779215126	9.693533964291369	14	0.04105181020467632	-0.23868753395381886	-0.17596876210572265
Si	8.971842948907057	7.707479929689158	8.746427428860216	14	0.006221303543162306	-0.036898960891573136	0.032211578782411175
Si	16.1636977671581	3.7291711393023155	13.647965523110683	14	-0.1306363186535318	0.049514860476475735	0.02287486692282544
Si	8.314140802116507	13.244940096326792	12.59436597388644	14	0.035751990808255085	-0.03498348742806282	-0.11692692797597024
Si	3.8458760379804477	6.439208047118104	6.726366778087266	14	0.19024251040105672	-0.09474291705266859	-0.007063083424978788
Si	10.814171592525849	3.390528932459336	7.835226666087552	14	-0.03903452097048813	0.05658231478049877	-0.09315474529641311
Si	8.496268424286622	9.588928556946572	10.055063399319904	14	-0.08644673151614676	0.048959244616791735	-0.07469163799242975
Si	10.15340208525682	5.09188769450786	4.602306272038158	14	-0.054954548002313024	-0.15812272007857486	-0.06037392379612115
Si	4.574686827686776	2.7023280814815007	11.414037741741597	14	-0.10800262140973627	-0.08610348895590701	-0.26160379567229863
Si	11.852391439211159	14.711217605309157	3.8269867734524223	14	0.11534569820407917	-0.129406816089437	0.023956016709947712
Si	5.705589140986667	10.762323465406338	4.462709195157559	14	0.066413707303681	0.11019191758984236	-0.3592816294479163
H	4.460471787514302	11.488967797711783	5.356999050160506	1	0.25924943453063914	0.13952565818741178	-0.5596157282305543
H	13.93585025655996	8.563666204525639	13.614439058580203	1	0.00604286883394403	-0.0395410287185573	0.16099875848969247
H	10.826276033876093	11.849797630350391	16.216852698741818	1	-0.42347287331286126	0.007915404838607877	0.5553258390038871
H	13.74843271631884	14.950220921773562	15.10273094276635	1	0.08424843646742017	-0.42211918636180334	-0.28718140850766377
H	5.922645732478391	4.254985035546557	13.629589410335646	1	0.040435259148904806	-0.09173472382809533	0.04946086726475263
H	9.697269577052678	6.352942452424338	3.707183164188717	1	-0.03757850402768828	0.5183559156054779	-0.21546531070224142
H	7.007785139446627	10.103299664100854	3.6694046351326657	1	0.1717914872920781	-0.253430766080612	0.16180942799713519
H	4.974684494127469	1.477631197767945	10.491009738565637	1	-0.06316485862114189	-0.03223934671986878	-0.04104666799403602
H	1.5009474274190222	5.974284308882051	14.237192435981505	1	0.12230799430050814	0.08076330320595944	0.2691949841300359
H	13.374297238226529	11.282385442001322	15.900074716589687	1	0.16208839292437124	0.2932386755314006	-0.054814679872896975
H	11.438936326798192	11.682729609625707	14.454367827879066	1	0.4743601898092321	0.4465822250408842	-0.5313520816672305
H	13.14448610316373	11.554024219952437	1.3715077852374566	1	-0.36776190612536064	-0.2544440386872823	0.6385082952055738
H	12.186319579950313	10.652682240858576	8.498415081619864	1	-0.21210719004359602	-0.14367182262668257	-0.059707493297138765
H	4.040759853727272	12.507925478595192	4.263518864699156	1	0.22029513204613957	-0.6288910757555601	0.8134946379684681
H	7.063718680522409	10.94782699910898	0.130880097102335	1	-0.47568302349644825	-0.28258735752162323	-0.9116008178904222
H	7.946181295122063	11.45850704365414	1.610908753060289	1	0.45672523552886846	0.23878600728758054	0.8546770603234078
H	8.924703937874462	13.828284739103065	3.1539923744216765	1	0.19704925462561676	0.14415956130591465	-0.6390150600641751
H	8.096437408415227	12.398089553382308	3.9180043843796546	1	-0.4021725512880946	-0.6053209819541666	0.41028156035730956
H	6.188202589652924	13.006182630702243	13.63840374044647	1	-0.26330715294689677	-0.009875615534688773	-0.05116782408679893
H	7.005397581290437	16.192826966666992	15.09847887824078	1	0.06929745903075908	-0.37165558802219295	-0.21337011697685276
H	7.6324805734822325	0.41196350731746184	3.040737637529716	1	0.11526933637607077	-0.10092642534762471	0.01859860455435516
H	13.951319059403271	5.580759614553817	0.15080721517579476	1	0.022742197888305806	0.026920758254610464	-0.09347279102451542
