72
config_type=liquid dft_energy=-6956.16397714908 dft_virial="4.213522381290028 1.6519872452423225 5.828507022050766 1.6519872452423223 2.1163102498660677 -0.6314315409921883 5.828507022050767 -0.6314315409921883 -11.286987999285694" pbc="T T T" Lattice="10.914011036500002 0.0 0.0 0.0 10.914011036500002 0.0 0.0 0.0 10.914011036500002" Properties=species:S:1:pos:R:3:Z:I:1:dft_force:R:3
Si	10.836128653743538	0.06631898806329227	5.840360155907063	14	0.1623709573990555	0.06538397962296169	0.0942919451795146
Si	3.560979864945075	0.5117405150838267	10.728636559045048	14	0.3393877020332705	-0.08416693242877148	-0.010390093709250403
Si	4.199875157010748	4.221288446664361	3.272206046930321	14	0.15169804210458881	-0.3606749114209045	0.08759215893627273
Si	9.884437805371775	3.404571172780993	1.3223634052044133	14	0.0832575324770351	-0.15252850912299665	0.07276408033391474
Si	2.951792510920754	9.434846034734193	3.1440209873066283	14	-0.8013212256091629	0.09194324046955935	0.2673970101796564
Si	4.1758206766863015	6.865447728499289	5.5340693501787275	14	0.005816868676303014	-0.2891323632245922	0.3831381443819743
Si	6.52162363881643	2.0623333534791133	10.702890407009946	14	-0.3762784353878192	-0.1254617120862018	0.06900975234543451
Si	4.066647824288193	7.915506558343028	0.09567112934485536	14	0.11647647032388028	0.1735835477002213	0.08900241020437397
Si	4.748380609672129	0.0196037466237613	6.179414822766972	14	-0.21013052427346615	0.48415430130527215	0.5988592800635705
Si	7.599600508891536	5.269611948753296	9.331424866152318	14	-0.07510789994376173	0.02539969234721086	0.007898949764558927
Si	4.968287018046567	3.5186771581676006	7.375503120279081	14	-0.005844379503228598	-0.10720763564474647	-0.02119130715919248
Si	3.4301645286615856	9.070787368589663	5.42061820545431	14	0.12286900948136448	-0.06126275490529634	0.006050839260436489
Si	9.500395585019412	8.808283575139765	8.289169554199677	14	0.13418290133214408	-0.20568431184333408	-0.13016709193260478
Si	4.590433041951901	9.87621955506129	1.3078477705258682	14	-0.005044508638130531	-0.17243889161169135	-0.09606137986084051
Si	1.4641473225795847	1.8077203900086047	2.2977813135695278	14	0.04741221054565864	-0.20628749315144085	-0.020028396222889506
Si	8.067309537849706	2.353944814363357	6.871919737043934	14	-0.1803396411499744	0.19394824449898615	-0.2436597945324532
Si	1.207591665144579	8.990209225107183	6.33084672589841	14	0.1933152383691657	0.13311769239800672	0.07997037432522577
Si	9.975384259338929	7.994185663905156	5.899044793250324	14	0.0623629308717877	-0.08040823356124699	0.11357163553317699
Si	6.102099968584406	5.247543818437493	1.6872842782208275	14	0.2420222575540509	-0.1264762702455322	-0.1957981547768327
Si	3.6536398186449595	4.122309280574343	9.173968428928733	14	-0.07353849725634334	0.04972029179155557	-0.07024439712016962
Si	8.797860694599906	10.01591889632849	5.137650641310975	14	-0.12134691513183678	-0.035546302382643245	-0.023816405691063667
Si	4.03516090244789	10.798890048087	8.507438860918642	14	-0.2224088377298333	-0.16861900043754735	-0.11444735400521944
Si	2.7852556165148004	1.6328997612259477	5.496732518422861	14	0.44910345091782145	-0.2833049530164765	0.18571530815334
Si	7.027924610799665	4.5421276291043515	7.1378396159482564	14	0.13983624771008565	0.06989266991237338	0.19081278156106557
Si	2.252771932055002	5.626336399481298	6.154923782001066	14	-0.045264309161206925	0.09319254054461928	0.24805638462990645
Si	7.378100654905768	2.1481065662149668	3.6649685621008463	14	0.13034346975756694	-0.05118350782925184	0.5012488092473407
Si	3.371458063296252	0.8170436028133594	3.298268705285483	14	-0.18110557342484648	0.5824062628988788	-0.27084769062982705
Si	6.423353883443784	6.731947545500821	6.32386175883505	14	-0.13187173475986297	-0.17297368151828219	-0.22213424368164153
Si	6.958456930552343	9.486480220947875	1.3801967496868266	14	-0.24429100088854958	-0.1710039577325167	-0.1048661300296876
Si	7.97954997510521	5.964856279800419	2.8969496054623414	14	-0.14353683959737482	-0.22238981155046422	-0.21939164563663954
Si	1.5122344552064035	7.957088940392093	8.525959937647583	14	0.05318048533141084	-0.05447529397063742	-0.20508293030895142
Si	7.375655916433591	9.806850100913296	8.541697941562216	14	0.018863171291798396	0.0953008469071407	-0.11321373767261238
Si	7.787397896796591	0.027501125009772705	10.635321764682974	14	0.11522717024882034	0.02622064627593414	-0.003030304730326526
Si	9.800017930004447	0.9849447485988755	0.9241471587189485	14	0.20289697656576156	0.15136302708137353	-0.09819822549241558
Si	2.8462867662309086	7.376430811217183	1.9943172366996453	14	0.45587265700470736	-0.11248045843530614	-0.15974688730931239
Si	5.9045345408016825	6.479299104016882	10.52105206913082	14	-0.26385634104328043	-0.23638408069749817	-0.3816705574652337
Si	0.3892798542487784	9.487320599797686	10.048759155537319	14	-0.1206419180530522	-0.18779970323638404	-0.2701439791037025
Si	5.943432076135769	7.908346967103085	8.310790210062985	14	0.2475159382916113	-0.1943832755191552	0.41747217060616765
Si	4.165888926643087	2.7375177322411495	0.060830331913036405	14	0.09273051291858868	-0.006966924086005249	-0.11145484452309908
Si	7.132688202739028	0.16470115774961422	6.53733981470899	14	-0.2587385559035257	0.015723851695897594	-0.18837743060182133
Si	3.732460806350563	8.518014537613011	8.811535950428642	14	-0.07644410337864269	-0.1048920981934211	-0.14789589155715382
Si	0.5679498547240089	5.850761208424848	9.32502925568493	14	-0.041822370469124695	-0.09111868699338785	-0.046335174527048606
Si	10.78943851452939	0.28264450941665514	8.250053738644862	14	-0.11132783192028375	0.2784221669029834	-0.17413119313341283
Si	9.615636627553815	2.376722355396532	8.655541990683947	14	-0.12249054277823866	-0.013802464690150932	-0.0051157282554986335
Si	8.410631583024886	3.3871851531998485	10.427649962680452	14	0.010799927897282005	0.23125678246805886	0.04885820017770992
Si	1.1472699261458437	0.752352985196713	0.021973178419785452	14	-0.08720392203293038	0.6174938800924077	0.10569119772692312
Si	0.17858923679356048	4.074702364433129	7.752232953236987	14	-0.0577444543852057	0.19083283618256272	-0.1360466955787194
Si	10.506940252860623	4.085780085635177	5.2497375346558295	14	0.1907713867654112	-0.20293322915077563	-0.0880932673631696
Si	0.7495480843603326	4.894541045472937	0.6755991111814231	14	0.17836811759048485	-0.14717083985687207	-0.2277299973004118
Si	0.44980241105058555	6.26224125252297	4.691016567664285	14	-0.18584309208775135	-0.10332783771664303	-0.07064240422372854
Si	0.6642790989343652	6.655833232532271	2.242185341349597	14	-0.2892256943477135	0.03413065179336971	0.40039514618027616
Si	5.887443199518525	2.820791636449645	1.9832286014865612	14	-0.08793874393342871	0.7896612629822913	0.3151884587600368
Si	0.5799541754630553	1.9928111031766083	4.57558998694226	14	0.18308763851614865	-0.04190078918138922	-0.34356909061542734
Si	2.6093326726174566	3.7252793870885457	1.597418311346286	14	-0.12147058529773591	0.008331923900471864	-0.07881569092594727
Si	9.342699039553024	6.770386692371374	9.490529319042416	14	0.43835700201119854	0.2833077812323287	-0.04776779441143511
Si	2.1260602639212367	0.9381334638622233	7.694170414522807	14	-0.11035338300394765	-0.1547381170351319	0.022891064886342377
Si	4.675464101937273	6.52234396354484	3.200784758707465	14	-0.13662545138628474	0.31993471918103017	-0.1950862157136837
Si	8.776240038736601	0.36353697641698585	2.9933203229146366	14	-0.0011811657840760275	0.3141947265537996	0.026162282185166783
Si	8.939895634228918	3.932481886616498	3.444156290810379	14	0.10744083489728389	-0.30836140280344765	0.10779410476827224
Si	6.732886150449961	7.5576797925003385	4.093212527151033	14	0.1049059821621499	0.23996203086101628	0.13811849224569472
Si	10.293593165119123	8.40497812530798	1.1974962049358167	14	-0.35971434647329725	0.2557699577008827	0.07556607091181211
Si	3.5924777007964135	3.8040785467720757	5.529769229830346	14	-0.0860237846909824	-0.116506295145594	-0.1707417049898616
Si	8.539482397321807	8.82625895131688	2.998460822112828	14	-0.012759110151234841	0.0870637967929823	-0.03626672609334873
Si	1.6011072470766232	2.731853360513206	9.123076395465533	14	0.15034152693767872	-0.15055390023712292	0.22997431513436903
H	9.460504874681003	7.260425787910225	0.18123042746439347	1	-0.15659471218681084	0.16155925944948477	-0.12706788157969828
H	4.6645064348566265	1.6065205965507272	2.6644266003297092	1	-0.2646173882180442	-0.5959377330882862	0.27757575903159054
H	4.781930279598329	5.3631995933912835	9.900361347474028	1	-0.1523523884085665	0.13715407064010718	-0.060324558573974306
H	9.11919100753654	2.5026482147356695	5.771329036101202	1	0.12196578018239643	0.008562037826625119	-0.10809132454328135
H	8.39010232826523	9.42528536106622	0.4079166194947058	1	0.6459524164389987	0.2318993016875639	-0.13981310776220432
H	6.936126863971664	8.117262966363768	0.5641725155042764	1	-0.2744449240832462	-0.13511312723697363	0.11509527254589674
H	8.68568648916676	6.808029116436263	1.80845162874805	1	0.02927049140669379	-0.47250513732074517	0.20806207004340704
H	1.3905541461604651	9.663527307981978	3.016840016698294	1	0.46884156935006627	0.0672140923898431	-0.006727811291231478
