219
config_type=vacancy dft_energy=-23090.704008928886 dft_virial="-43.09034341232949 58.54091365398007 -56.223957725321796 58.54091365398007 -20.730879223991366 -91.7422205302246 -56.223957725321796 -91.7422205302246 -211.6488872222192" pbc="T T T" Lattice="16.3103993294 0.0 0.0 -0.5342145092358381 16.1391401364413 0.0 0.5094390126544796 0.8106757778691681 17.36666078997194" Properties=species:S:1:pos:R:3:Z:I:1:dft_force:R:3
Si	12.162555500258073	15.521786628703712	15.901111061747834	14	0.1351226403266582	-0.07988347096540477	0.05178437514257044
Si	1.4239402684948763	1.4625257801884382	1.6444258776696385	14	-0.2997880521134138	-0.11254499317884185	-0.33078426941099104
Si	2.627404714054588	2.673819217426262	0.00205674135543734	14	0.006791060482107121	0.022864325391012838	0.14727651228553015
Si	3.967742768706759	4.07185204762632	1.4678919015678107	14	0.02007878988716441	0.012709744929087998	-0.07905377527859299
Si	2.8698881588049123	0.14218101303424566	2.9548000977137687	14	0.1154662830435941	0.03819891174144001	0.13953774238241648
Si	4.177124258018066	1.5503132424990675	4.394687043632999	14	0.03487910055206481	-0.11764220947603544	0.028199368930320105
Si	0.0125916282822968	2.8748660926802447	2.9391176487585504	14	0.14427551815585332	0.02416607601460381	0.09556824186043612
Si	1.3593037869923972	4.234611891494469	4.3837639692021	14	-0.10144296040644246	0.07915610527033487	0.06113497097088497
Si	0.19891510606163063	0.2844403159852724	5.797011139896622	14	-0.00402737937347995	-0.02331375460097472	0.008257876067251601
Si	1.523251027931727	1.6685701617969493	7.264459398602673	14	0.018472620393667902	0.014574310507259387	0.01952368824854444
Si	2.8316370102976034	2.9739468754865515	5.800501565353113	14	-0.0006119230661952428	0.0007633611695519645	-0.03691053086551381
Si	4.1551411018019	4.3615377880359265	7.264598036996972	14	0.01560712351436287	0.015886602662662962	0.023136862554948533
Si	3.0024917053529343	0.4067666799158395	8.673625707384979	14	-0.01688110620049624	-0.021617853531805047	-0.011577430146094785
Si	4.326095290293141	1.7920561951198366	10.145311407836807	14	0.030962021596819215	0.028103723812410594	0.02589822966878757
Si	0.18934742581500458	3.1032247316113084	8.674684252301457	14	-0.014330826833441362	-0.0045058620735595085	-0.02494409248448062
Si	1.515288290979114	4.488853503121358	10.144477946431074	14	0.02528373549727218	0.012449549070689014	0.033734958684598915
Si	0.3619685371177095	0.5440937181096557	11.546400806871194	14	-0.051679474045508406	-0.010685513710535416	-0.01658902863612742
Si	1.663502520725305	1.9448357056383265	13.019859447730129	14	0.1199333214268194	-0.000637119898332694	0.0899493482937845
Si	2.9941978672939342	3.2316365055316747	11.55935778809847	14	-0.04337326119823802	-0.0005378752329749781	-0.00892739189261816
Si	4.309936577677504	4.612938128099634	13.047766540982733	14	0.030709539054380668	0.02625175665030793	0.00046331317869068386
Si	3.1982589043439904	0.7308820422698774	14.403756054831396	14	0.06056084315289591	0.2518788469093706	-0.09233276292556176
Si	4.484268649869863	2.0788288982092133	15.95008466677429	14	-0.05556441418425215	-0.04527382225089148	-0.0865009818384019
Si	0.3468047588611663	3.3529369453444224	14.466953959113022	14	-0.11868016469377919	0.06251951118578472	-0.1002437968851254
Si	1.661809501274913	4.739991245755861	15.949650810152129	14	0.07826933104541581	-0.007726171487044978	-0.03815905960897772
Si	0.3564572531843052	6.187811569908912	17.35770474970017	14	-0.0378322721227869	0.03658502893198306	-0.011613168510044843
Si	1.1709855473750777	6.765289413365983	1.4621816307625874	14	0.024020808564015443	0.024342453839565965	0.038277330453704524
Si	2.985904029234934	8.87666897551688	17.35450954247154	14	-0.01139642433155636	0.008078927136969295	-0.015116813729810628
Si	3.8022509329509346	9.453215495172243	1.4649756021677138	14	0.04042317495390011	0.0232265941306217	0.021977551166093765
Si	2.65088353388926	5.5150385873298875	2.8842217377355888	14	0.01983787731866653	0.034879357662596824	0.012831872431795035
Si	3.977202800317811	6.905580051117952	4.359675140432509	14	0.012983310535151754	0.013412170902552456	0.012191410096546148
Si	-0.1555800060833478	8.204618543628149	2.8798799094341025	14	-0.012209664944319198	-0.009410502582273984	-0.012804104494337432
Si	1.1667481056292996	9.591300966934877	4.360492291438912	14	0.028134062855188338	0.013048102389219485	0.0254125478738116
Si	0.0153807065676242	5.658924037094056	5.784714729842187	14	0.0440605176503136	0.003060900883636288	-0.01630929237729531
Si	1.3419332117065863	7.0397705995207245	7.251624745370368	14	-0.015995103307173214	0.026716869602722716	0.033455479536298814
Si	2.648156435121384	8.340531470200107	5.778653785451382	14	-0.013374375654346276	-0.024356080697762753	-0.03380926362835119
Si	3.9738705857348147	9.728802526401518	7.25110444363176	14	0.014057518337909624	0.016992949281922683	0.018794008558686414
Si	2.8212847998432333	5.793871388025712	8.676630082941454	14	-0.01876932594761299	-0.011681302801028767	-0.02629495121968642
Si	4.1453059310062725	7.176667043172245	10.152796250089068	14	0.01459487934982057	0.0069442983591879465	0.022085537589539985
Si	0.01037504501343134	8.464448098065288	8.667633266671357	14	0.009059289595541758	-0.01763186895397948	-0.024497491490370896
Si	1.3442313469720986	9.841125722423364	10.131348074970909	14	-0.042291854300583735	0.0005666716125606366	0.021436590606734605
Si	0.18381330732253917	5.912485505068908	11.571305155607254	14	-0.048453765310850626	0.0005288763643544599	-0.031100347063043182
Si	1.5092110361889797	7.298574229840045	13.044362560642686	14	0.008747414520207795	0.019355537960606753	0.02219249557085814
Si	2.8156789155937183	8.60468980461927	11.574084447652984	14	-0.01640159505828863	0.0005828695760775695	-0.02611857339472426
Si	4.128334960504032	10.00429495731468	13.051501622429166	14	0.005263309700875133	0.040432945154116676	0.036491183587797654
Si	2.9761977105940085	6.04022365949697	14.471938417148086	14	0.00475783039493402	-0.03211387678024555	-0.0001236701658991226
Si	4.308395244940876	7.434092444748231	15.938466769331958	14	0.00513861109284795	0.012532595772529798	0.00636374277789851
Si	0.18490121095781015	8.739120115892185	14.459433233982235	14	-0.03935642335657068	0.0033270102842716145	-0.032410582334190634
Si	1.5074511441013372	10.1302781127749	15.930807405806874	14	0.026066637067257273	0.06634351612844096	0.03395607374213165
Si	0.17572661133502265	11.566418559968167	17.353154148287267	14	0.009382220423752355	0.00021597284689243862	-0.05980108153079216
Si	0.9921371256084078	12.141032297302997	1.4740702808337873	14	0.0556885985712153	0.0396850106164856	0.06546316966682225
Si	2.329262031592687	13.440786816343753	0.05076448687282456	14	0.06315405997879726	-0.11111957238935177	0.1619678080848563
Si	3.634604493443697	14.869321724329723	1.4892764661285869	14	-0.01732745008407395	-0.07783995645695108	0.07194338351572348
Si	2.475934928602249	10.891065272215231	2.887294616969248	14	-0.019528059127588687	-0.01860194699127135	-0.022631640359539438
Si	3.7996494242578955	12.285695753115178	4.359415805083172	14	0.01677723354556226	0.0013148632607237276	0.01946121038926484
Si	-0.27075752198783876	13.601985754996079	2.9048348204080847	14	0.1700382505742691	-0.12612145771135178	0.11201200304597515
Si	1.0095615252120058	14.984639509668446	4.407017705526026	14	0.08522571359960844	-0.020382437425473895	-0.07635051514498929
Si	-0.15734968441058766	11.025402614211968	5.78513227606502	14	-0.03229848214223219	-0.007258230318778027	-0.0013955959677763774
Si	1.1650974932171643	12.410457259665623	7.259579327123316	14	0.017110191684521436	-0.01732976407886208	0.03304615956933124
Si	2.481540812851764	13.71019546830705	5.8013513371581755	14	-0.016799087940783518	0.024005381932094557	-0.04821490962660886
Si	3.802929445563038	15.109728855245415	7.261993266224067	14	0.004988201431619288	-0.0002812789220241998	0.01681939967281269
Si	2.646996765729064	11.159868808363408	8.674007370729285	14	-0.012392470532581726	-0.010698112126604141	-0.016243472081099518
Si	3.967080566493985	12.551088784763575	10.148454421787582	14	0.001859166256999076	0.030875375347530223	0.03300630743686895
Si	-0.1653466732017925	13.851632727131877	8.668432476238499	14	-0.016661019585091565	0.0019699808962974578	-0.008017220609285738
Si	1.1565263783695647	15.242851072492112	10.140049673013143	14	0.042754653258210394	-0.018156117328757673	0.011547091103317038
Si	0.00538080073876906	11.26613105999445	11.526741882559469	14	0.024849732919231184	0.009213813025282656	-0.028317382664514897
Si	1.3024457349301086	12.654393960996197	12.994521242371906	14	-0.01173015380211158	-0.010517363422597731	-0.020749591265191044
Si	2.6333221269312945	13.992362114625806	11.563177683621415	14	-0.02432059944434471	-7.739027013645718e-05	0.010684999489471386
Si	3.9783053833124784	15.403834713873287	13.016855072173653	14	0.054868415974088064	0.06891153612220487	0.00709316535722452
Si	2.7988955146837657	11.461485605882473	14.465269094862295	14	0.01292417511278835	-0.11955768293954576	-0.008990126862429773
Si	4.148108057611063	12.816726472401916	15.975561510526815	14	0.06260847142986184	0.054788454598631464	-0.01216389926962056
Si	16.236048374056928	14.059350555711584	14.364229433096527	14	-0.18606574980847618	-0.020305818486933483	-0.0547666002034102
Si	1.6474367773858458	15.141028511558533	15.56742801914717	14	-0.01516849294674561	-0.10019983098415086	-0.15005099203650196
Si	5.966976918188501	0.8181638822012958	17.354734625982285	14	0.03904120584432052	-0.007323022172845758	-0.011058581092488902
Si	6.780552685058436	1.3940563548435496	1.4640377542062732	14	0.023356434949289177	0.011317491398227814	0.023757013158168253
Si	8.598915923256662	3.5045943003890496	17.357634614983052	14	-0.008502131072665668	-0.007683234028198503	-0.01833609470116804
Si	9.408564145968077	4.085301602913342	1.4690646192795944	14	0.016781347314074498	0.016288466424202112	0.019002782310682437
Si	8.26435701221201	0.1401519993576683	2.8823460418127076	14	-0.01721046479200721	-0.009806195691044774	-0.014419787077518485
Si	9.584352736820552	1.5253045072072986	4.36486837157899	14	0.0018306269879454322	0.028653169019326238	0.02407685865999467
Si	5.4574367810581785	2.83042025450763	2.885904970946383	14	0.02265555163901681	0.025294791250148812	0.004641616434463328
Si	6.783216173268927	4.221739724343706	4.36005843481675	14	0.013742300825659467	0.00900169683637044	0.009693067056958257
Si	5.112776839708828	16.41114051085804	5.792286017210895	14	-0.01963604555103491	0.029030093059259944	-0.03301067831591321
Si	6.959291827149599	1.6652558886532152	7.258936697389737	14	0.02969189556866606	-0.010777816391528732	0.03363597112977322
Si	8.260688803402827	2.9653757606389513	5.780407153379293	14	-0.02884754458152943	-0.005690884515615759	-0.03154463406236477
Si	9.583760669324894	4.355317001731694	7.253032332832495	14	0.015867319372761854	0.01132160516674005	0.015066677176067743
Si	8.437635432607689	0.4093747127686106	8.669960760655663	14	-0.01185793773652294	-0.03284072825425142	-0.02630472141990298
Si	9.74868164110419	1.8007007067644187	10.145554432786815	14	0.010568785529000695	-0.02167441784884831	0.017021745661508342
Si	5.630300917310891	3.0998925170283123	8.677272712675034	14	-0.02114734125821795	-0.010424546520540387	-0.025960450417535155
Si	6.949826902418748	4.4865260091370525	10.153039275039077	14	0.010873204398906225	0.01512375571417503	0.02277150848895549
Si	5.292765358388624	16.677027747606118	11.536937513180277	14	-0.032295396815848004	-0.06471857756610738	-0.00871681836689803
Si	7.123643565992298	1.9234201513188243	13.040872135186195	14	0.013668510102971218	0.016670018453712084	0.017609243227162178
Si	8.427524616063392	3.233941164956919	11.573094406413691	14	-0.00696640986494122	-0.013003108046116894	-0.02271160173499604
Si	9.75111678372407	4.624450007946324	13.044745855026928	14	0.014402817782405508	0.012986138751003917	0.028692506930724504
Si	8.070207804834428	16.814827787380487	14.464349188340117	14	-0.021013900892102266	-0.015686570668755447	-0.022643724554544133
Si	9.929024095449433	2.068042831132681	15.938014971270535	14	0.006704414232818132	0.022487658461611142	0.01714361605368336
Si	5.7955741937157015	3.360046648412108	14.46160414813298	14	-0.025064934434527578	0.01775785311466674	0.017693575481663035
Si	7.119543131600887	4.754869592024139	15.93474962932479	14	0.001290437760182321	0.0037458433409237363	0.01273442754016142
Si	5.7869133716717895	6.182544941965448	17.35931947923378	14	0.0018542811568907944	0.0017637782496215822	0.026763663719549413
Si	6.603201557950205	6.76816656780769	1.4633184655958469	14	0.012333077999686306	0.009206356819854227	-0.0035249853939230166
Si	8.424789362095852	8.878384829526333	17.359110706122365	14	-0.006740923928364233	-0.023884539982047596	-0.025909799642728236
Si	9.24164515027093	9.462838630776588	1.461247044881013	14	0.00041266240388376666	-0.0041281667020297555	0.00011081463929838222
Si	8.087350034529628	5.52540873922352	2.886826508508494	14	-0.016523465450463643	-0.014434442377843332	-0.023820262349043893
Si	9.416329527088804	6.914767699060203	4.357349277488137	14	0.012416638922591117	0.007550822104210879	0.008466392708715608
Si	5.283028049988972	8.206101158927192	2.8860794922192077	14	-0.019547599528021813	-0.018274388173484483	-0.01851684340517445
Si	6.611371436974301	9.597319504287425	4.3559596314652715	14	0.008269960262256295	0.016553033161645348	0.011554804419277481
Si	5.4570861074725965	5.655924554657379	5.781310749502141	14	-0.022304338652284587	-0.01730122480980844	-0.03211439100130958
Si	6.780446667462795	7.043603543363133	7.254542675810398	14	0.013993497815437935	0.0179152047602598	0.021627366621489594
Si	8.087043399022237	8.34468246682944	5.779071331674215	14	-0.014467352525941226	-0.01383228951186465	-0.022319765284205477
Si	9.412400351890351	9.735817629153093	7.247214413391697	14	0.017432608291668004	0.023624344123648607	0.012060283725218593
Si	8.255188936748953	5.786906847512059	8.67539701675215	14	-0.01104778245014428	-0.01109637634069508	-0.02003765220204204
Si	9.579343813186494	7.177500504577977	10.145763205898232	14	0.012886122754050157	0.011760235734357314	0.02134145970988913
Si	5.450108518639479	8.47576588415996	8.674666310862195	14	-0.012680691438970325	-0.009689724620042065	-0.023291900205753464
Si	6.77161784830579	9.866302454828224	10.147568767103996	14	0.009180388656120732	0.01516283651504128	0.0217350959344038
Si	5.618117049011829	5.917447128544912	11.572833440024421	14	-0.015572156482008858	-0.0153124748446739	-0.017559106673419294
Si	6.941009500541274	7.310144827124322	13.041566958197627	14	0.010990703912036994	0.005757476143407593	0.022777422031191832
Si	8.247973216085628	8.608904411805987	11.565487236166458	14	-0.008607032169727708	-0.011780033245322452	-0.025712081643608848
Si	9.571888329653024	9.995529748715061	13.03866696919686	14	0.01653503542440431	0.017850670016724083	0.02788209453381383
Si	8.422182960283015	6.060298498991596	14.462559937533682	14	-0.005905057588784093	-0.015877603794042447	-0.017759395777858827
Si	9.747944411054501	7.443850956667011	15.9394046172934	14	0.0221639563018045	0.006876164068204022	0.043411570667508226
Si	5.609921073348806	8.739110329652586	14.46198744251722	14	-0.008916079029209508	-3.779524820617676e-05	-0.011348601772601606
Si	6.947114483010269	10.119191934350706	15.931883892162613	14	0.009695638162278407	0.01835640643319721	0.0635870341147102
Si	5.635039088316082	11.552748814290197	17.360761318534497	14	0.016561517809201835	-0.014227725510103425	-0.026687301891541018
Si	6.436701739515824	12.146106462534373	1.467986501883921	14	0.006670218532060161	-0.022320279505269502	0.004768371926746628
Si	8.245120527242916	14.25988854650649	17.356801153577322	14	-0.016372027347106924	0.0110845492562224	-0.031152283390510172
Si	9.056624873398016	14.845267147398724	1.4614476627927646	14	0.05923852368674375	-0.002416839000939194	0.009798225264552313
Si	7.920936661211693	10.901450103468262	2.8853667277685124	14	-0.00748885846599531	-0.011311320745459458	-0.0182885292527453
Si	9.250090675043694	12.300476236987478	4.344462430977978	14	0.044082372045534855	0.010927711831693367	0.005028053564081584
Si	5.111189837854077	13.585063715691827	2.8863404586084775	14	-0.036396052690952176	0.013614516891248108	-0.009196586619637665
Si	6.432940561430464	14.975213729895987	4.362420180639647	14	0.0001671218458096251	0.012935230865664987	0.010571870855384871
Si	5.280216137144583	11.028250409934882	5.775284056949928	14	-0.016720926339051017	-0.012951685939713934	-0.027111277158833432
Si	6.604168764630439	12.416154482151383	7.246780556769536	14	0.012044342872233675	0.01642962010627824	0.01707985264174369
Si	7.912513970997991	13.719585365200986	5.775006780161329	14	-0.006151369478454278	-0.005501908274584874	-0.026048382219484217
Si	9.222744659528022	15.109187349987677	7.2555849103275465	14	0.009427214766854946	0.032294625484251965	0.018657482866186553
Si	8.079237241903185	11.163610413969574	8.669456769316385	14	-0.011177880379343773	-0.022250345440561477	-0.018624572718088653
Si	9.40203019999672	12.549275068358147	10.143817375258234	14	0.016288723534734123	0.019260664174293292	0.020495308949028398
Si	5.278356751621031	13.846876614687424	8.670932860455695	14	-0.020323302003110492	-8.536069662891622e-05	-0.006153169252178383
Si	6.606811049321801	15.234178833168668	10.133362409288088	14	0.025668115742634317	0.056657905276911134	0.013112894243287218
Si	5.44009556449116	11.296476557946798	11.571062130657248	14	-0.015213230179316183	-0.004079058590414928	-0.019315428717612444
Si	6.755268304018	12.692252028879667	13.046621550949808	14	0.01359369093815491	0.011369170615162792	0.03152252255661149
Si	8.069879965807909	13.981140559887177	11.564115531582857	14	-0.030396121315854625	-0.005459742147334446	-0.021833055047101445
Si	9.384623741832383	15.3769780103375	13.032710411361762	14	0.035662516343113924	0.0071312177159627115	0.03373367313193885
Si	8.239610874349443	11.430229987647543	14.45573566645426	14	-0.025071876418891977	-0.005364097029424938	-0.01999548607479161
Si	9.560567281478487	12.81547546477335	15.931467976979715	14	0.012371644579488526	-0.008794465747566503	0.005558472591628132
Si	5.427458267090742	14.135953977202044	14.471209342298062	14	-0.015463655837498607	-0.035807526683170283	-0.003659454202166761
Si	6.763805167027008	15.515892050386064	15.940463162209879	14	0.004998228742367866	-0.009787683732739708	0.011989064107850493
Si	11.41337971410034	0.8192371064771702	17.35489120581585	14	-0.11820708131487195	-0.03415250618859097	-0.009039234974044602
Si	12.205688351284671	1.4124805819260398	1.4669638398459677	14	0.06177851863251804	0.02573470737042615	0.07831741071490259
Si	14.022469480747946	3.5151846426736286	17.36701309459746	14	-0.08430371523180336	0.023760355595084444	-0.12821665143674044
Si	14.861313318258986	4.083023040127025	1.4693533133477248	14	-0.05129123714216604	0.020240512411801723	0.019357594844862873
Si	13.686418168164654	0.21913347707035485	2.9230176535804997	14	-0.06033664276897901	0.15472860394544735	0.005843865282164569
Si	15.033145006234149	1.5583281727295348	4.401651584146653	14	-0.04651669456265106	0.05149435446245774	-0.05267654868866183
Si	10.883838134272374	2.834063997717818	2.894484240993647	14	-0.030993389081725022	-0.00424283799930836	-0.05200266198425101
Si	12.217358442004857	4.219653624269476	4.360648871272474	14	0.016198220627464913	0.017861982880132733	0.03252679629466133
Si	11.057775494800962	0.27744152363302693	5.79312110965656	14	0.0016691615738401327	-0.03645930188182782	-0.018929505809058216
Si	12.382393586579457	1.6651678124968365	7.260690065317648	14	-0.007288055140491746	0.020664230568562123	0.027171955244388927
Si	13.687757251949597	2.974847209529534	5.799372885719519	14	0.0012320736694149596	0.008219823708513409	-0.015147409883120393
Si	15.019971096695791	4.361999372336949	7.261366946889819	14	0.004192958556097487	0.00552093445395397	0.013030361762510463
Si	13.864917547385673	0.4088772455890639	8.670932860455695	14	-0.0089055374973969	-0.013753613689068118	-0.01042531785213643
Si	15.189659598199071	1.7998884488778146	10.139128135451031	14	0.004808995390804967	0.011511095628834964	0.02178857492506288
Si	11.05833494149796	3.101221814573658	8.676021705046468	14	-0.00869959196125304	-0.006649906800030991	-0.01889016789765995
Si	12.382512652494563	4.493586781006749	10.14215045244677	14	0.017544451373094447	0.01244132153366454	0.025019940091424983
Si	10.686898217569533	16.677324596873916	11.553296843707665	14	-0.009920866988323378	0.029190530031237186	-0.02133503194658876
Si	12.535969044585222	1.9429942615540372	13.012581747549351	14	-0.04121713227676184	-0.07812432070535946	-0.03638628249073561
Si	13.862482404765794	3.236989578591584	11.554407581901998	14	-0.02338420288674678	-0.007362102973712009	0.0009752202479321664
Si	15.186110455304995	4.610486675080425	13.044362560642686	14	0.07357037896231317	0.04486784472084009	-0.013160202581177942
Si	13.443177920885443	16.79236021230424	14.396913842312713	14	-0.05458328039408365	0.18118424924764304	-0.026410393848561066
Si	15.220223655502434	2.0977505924712503	15.838642232316232	14	0.35735638578418943	-0.2541936130290999	0.21035960975749135
Si	11.232089625554059	3.367112313401604	14.461188232950079	14	-0.04992829421195555	0.019351424192094516	-0.04347944784796013
Si	12.553974094404946	4.757154678970188	15.934593049491227	14	-0.01012629830340321	0.06398838365518532	0.10259275870561269
Si	11.227512927502229	6.189083781056605	17.356975674850148	14	-0.025336957377399244	0.0027125161127562235	-0.062493543022051234
Si	12.043848413938699	6.7675957038311605	1.4628389398555626	14	0.011553518866617409	0.025009912780676408	0.009636245629382985
Si	13.857938327512622	8.87643573680647	17.349872495942193	14	-0.004534401342613152	0.003997811662298248	-0.01062689250923604
Si	14.6732739864702	9.455556037476011	1.4594414836752483	14	-0.016423449453509882	0.034905582936862335	0.0349328366532559
Si	13.524410233705588	5.516517940549064	2.8827097637177537	14	-0.020153609051980718	-0.01853227003709534	-0.018749271326115837
Si	14.848282940234728	6.906219418771664	4.356775151431742	14	0.023133263007500328	0.008812206374275525	0.013633285960085189
Si	10.725128162557716	8.213088533999906	2.8805225391676808	14	-0.026029613150647137	-0.013927163298178113	-0.018463878635579398
Si	12.055908323202859	9.610062819283485	4.341996298599373	14	0.017232062076696454	0.046235415640626866	0.001935013863943444
Si	10.890329673205475	5.656506835913438	5.777854575884241	14	-0.018310126537434548	-0.013723017535758358	-0.019139565113714316
Si	12.214877630266855	7.0472065105749975	7.24737099322526	14	0.0212645836608167	0.0099386076150324	0.017948629129421724
Si	13.521197085037695	8.345574645672757	5.769502020387655	14	-0.024112339913412714	-0.004279861915918492	-0.01985304684005541
Si	14.842938022374485	9.723204797351668	7.251867770320376	14	0.04188433410734027	0.008469992256163817	0.018718675172806076
Si	13.691128611490983	5.795548097076774	8.672792245979245	14	-0.02165487744841518	-0.017318708325985446	-0.02021043047955599
Si	15.017796920465182	7.170242376876393	10.149982706204748	14	0.031340231189412995	0.01901563783728318	0.02849041805256087
Si	10.885562143481494	8.477377351613704	8.668380282960644	14	-0.02045314282177797	-0.01637948355253535	-0.017621327422166874
Si	12.209527819286812	9.861926374688148	10.141993872613208	14	0.020579126982465223	0.012343876642030929	0.021828427057525177
Si	11.056659863486832	5.922651776970922	11.567467318645047	14	-0.00943492808281539	-0.013801693358554887	-0.025796928119173734
Si	12.382908995198267	7.304468808157691	13.042384109204031	14	0.013447909266502514	0.015103186871613845	0.026238644013175178
Si	13.686052815219673	8.603642676982322	11.56340276713216	14	-0.014096084917711844	-0.01023171362152928	-0.012553678836155012
Si	15.016762841147699	9.988614139399395	13.029844674199587	14	0.006231845074974914	0.004491720994298694	0.022579189811008416
Si	13.866620353075662	6.049509169835197	14.46240335770012	14	-0.05410351214134401	0.030446514980129517	-0.05232944947044183
Si	15.18889953359032	7.439487924846397	15.9358098052812	14	0.0007944715439257565	0.01722100632381982	0.013898366918592456
Si	11.051513932498406	8.739620845151595	14.458408940904349	14	-0.00504502285919456	-0.019934293768172087	-0.028912850656661198
Si	12.376552832579598	10.127107371145264	15.92719465235541	14	-0.01801804897306572	0.006077835866298045	0.007523568387817308
Si	11.049303873389272	11.566490325725217	17.34051195776705	14	0.012697146513019272	0.016064008929753182	0.007243832128985198
Si	11.881661065087012	12.169384664457292	1.4214088945189536	14	-0.018001593899016774	-0.029778284707423032	0.010196232368111237
Si	13.681554407084626	14.276474591584556	17.28789134745054	14	-0.10777533569943516	-0.04019794612785514	-0.3248933529014677
Si	14.261384210124996	14.62864220974523	1.7171784138784272	14	-0.006929900169395116	0.06453628619890887	0.2415283482220505
Si	13.363627210236162	10.92346914256295	2.8664548197460737	14	-0.02735887460116369	-0.0535041874912175	0.00046845538933097994
Si	14.702681636461108	12.297088567046762	4.358008217621045	14	0.04328738628054508	-0.01571793815366125	0.00483753465985861
Si	10.56411190037788	13.609162330701015	2.868782313730379	14	-0.06085369204886077	-0.03858226354467409	0.010820239629311177
Si	11.860912606100083	15.01272438627374	4.368358797035482	14	-0.016261469818340556	0.015882231783618715	0.008996554625730143
Si	10.719036228408184	11.0359114044999	5.767208778241942	14	-0.017299682146616348	-0.010770617296632317	-0.019555312843982257
Si	12.040470530237581	12.42540247857115	7.239191327961566	14	0.031358228926654026	0.02839014494507509	-0.011702385864653981
Si	13.354406941495252	13.738179220436503	5.768825138815486	14	-0.0336254295979606	-0.034568768139922934	-0.03686296541709107
Si	14.66734841839383	15.11639002233154	7.259492882006871	14	-0.010446400915761645	-0.014015866431723223	0.010324787634118641
Si	13.509902133502086	11.161026846715796	8.65941934956907	14	-0.00913333742876202	-0.0018000308346356702	-0.0218549094423227
Si	14.834856219506769	12.541734770748164	10.130271588615168	14	0.014768943179994595	-0.004380649244468297	0.011148312668162071
Si	10.703371720892228	13.85051383373788	8.663134858536308	14	-0.02069868337985211	-0.0010994046348953186	-0.028283701184820955
Si	12.017467974063328	15.241107490803797	10.133119384338082	14	0.010664687757442217	0.012513312482628686	0.018691164345880487
Si	10.878879772876237	11.292418530593643	11.560902382914964	14	-0.01681939967281269	-0.01257399056818418	-0.014333912159825542
Si	12.20094039403988	12.68386032842469	13.030400858816721	14	0.007526396603669472	0.008698563519124982	0.025370124636029154
Si	13.49409409447203	13.975624382833974	11.535843085385274	14	-0.01067497217872281	0.036777861830994164	0.004463438835777065
Si	14.798378011406564	15.3889906194436	12.98927581794757	14	0.002102392820285084	-0.12697943555668517	0.04271402979415205
Si	13.680649179921843	11.42180729743384	14.443664339910573	14	-0.03904994760240903	-0.0351827480903743	0.0027662522139473185
Si	14.997480687060483	12.802035695725927	15.916689124147345	14	0.021438647490990725	0.07348836070260045	-0.023488846873276806
Si	10.857315793922837	14.112042931785144	14.446495825234155	14	-0.024396961272353107	-0.010654403336161624	-0.013773925421097288
H	0.4640357540412288	0.5514366598877517	0.8603213713479959	1	0.2823297327685444	0.09125958356493197	0.3467390063646379
H	2.518730154362729	14.209812358485365	14.74275302553358	1	0.1733616613110925	-0.2268604494811377	-0.12724554495732052
H	13.403209287328748	13.730870530496999	2.58497647227902	1	-0.21663773472822895	-0.20968186639510034	0.20641836241223635
H	16.114946921116	1.2324659666073179	16.74820469923969	1	-0.2967950284102295	0.10468666687834129	-0.3837773211645631
