220
config_type=vacancy dft_energy=-23113.015711441134 dft_virial="-2.3346745432028784 12.316018321983128 61.45400291507366 12.316018321983128 -15.679739310186577 -37.57443106290625 61.454002915073666 -37.57443106290625 -27.54021137983743" pbc="T T T" Lattice="16.3386044635 0.0 0.0 -0.1059885271547245 16.416899056089093 0.0 -0.524599912114058 0.3217561376997055 16.515486195421854" Properties=species:S:1:pos:R:3:Z:I:1:dft_force:R:3
Si	11.644959641875626	15.363490407351179	15.11196085935649	14	0.051763292078945235	-0.061326518317236005	-0.009467066899317242
Si	1.4292847798625166	1.4792139212425264	1.4518304201617003	14	-0.09046819734739038	-0.4324362606799615	-0.2954655098491809
Si	2.2371944595132183	3.078536191617134	16.50981506581257	14	0.0409229978281369	0.021970094960665335	0.1326489798981437
Si	4.035540538578612	4.154160440844068	1.3883680127045737	14	0.03673595281427575	0.06137176977087061	-0.07039763499725045
Si	2.583669271905753	16.451308157089226	2.7938409104219852	14	0.05070836756608848	0.17558232497610438	0.044189072916321
Si	3.9611361677122794	1.465754178885495	4.1533288058768765	14	0.04535532628954017	-0.08026476588438274	0.05597116304589957
Si	-0.08571068515507466	2.7718442472327753	2.740215976712332	14	0.004121738938729385	0.06292831693168827	0.10553153208654194
Si	1.2062072776805657	4.1840600870122735	4.1264093211628134	14	-0.04592096945997275	0.03238847082843737	0.008346836311328725
Si	16.047600847121494	16.4847353079611	5.5166154268695315	14	-0.014823707723313751	-0.023674994898455527	-0.10441207283014944
Si	1.1197107056507967	1.4961880974196564	6.884346148276258	14	-0.004614619828601772	-0.004506633405155553	0.09698106423385748
Si	2.535101136277553	2.817487772662009	5.509447681091394	14	0.027762023915362914	0.005089502981233122	-0.03526373790795896
Si	3.8298685517316278	4.2395623263747835	6.886855757921851	14	-0.011727839807323446	0.0015658031399701801	0.02068197119527115
Si	2.365424728924105	16.553125438524415	8.252619311351172	14	0.0071687558536368745	-0.007961684734370542	0.004901040961266268
Si	3.7678913234202334	1.5545904390744372	9.632769006010605	14	-0.0021656420111607266	0.006885162936824541	0.016266354918448835
Si	-0.2696882729954237	2.874347750055435	8.257012762091408	14	-0.008748957183399882	0.004414073613630222	-0.0052573961586387915
Si	1.026418908024658	4.294074446306804	9.635229599842809	14	0.008207739513508712	-0.0030009941296768377	0.005566185907588576
Si	-0.4407011781939855	16.607634290735547	10.993230682291522	14	-0.01807924127968525	-0.009533658527109077	0.008460993387543298
Si	0.9389224134017228	1.6271060672647892	12.37202590664093	14	0.08591194160955598	0.003023105635430111	0.0428747238766613
Si	2.369827982827019	2.929866328022408	11.004742862996503	14	-0.02337314713387014	0.014633960150686822	-0.004029950478800099
Si	3.6607443892090465	4.345286168137199	12.391101227352065	14	0.01114934111029013	0.009888471061289513	-0.01589662997341154
Si	2.3641862627057724	0.3251790753348088	13.705321385280383	14	0.01012526986127515	0.2146628687318232	-0.045023396592709056
Si	3.622654200623289	1.6945910391408296	15.154802314120234	14	-0.05198080758902975	0.0005093359639213344	-0.08392396297601748
Si	-0.439176786397541	2.959123867035198	13.79491739057688	14	-0.07105352396442023	0.06692432882026242	-0.09855689468457624
Si	0.852254286025087	4.400641360059537	15.149846815386454	14	0.0407980421095777	0.015741592322606614	-0.03615076924341005
Si	-0.019072052990243553	5.444191294864175	5.7185115622250003e-05	14	-0.005085903433784915	0.04317194365167042	0.002000062828543191
Si	1.275148019214304	6.862006374393314	1.3787478423964648	14	0.010991989464697068	0.010923340952649114	0.01736935910079236
Si	2.6855257659916587	8.180454963156786	0.00044114232051450003	14	0.0024813737444749112	0.003694421234520775	-0.003430368718141567
Si	3.9878988018234924	9.592935488328592	1.3800729032184547	14	-0.0019473551694801554	0.01676309246630145	0.007186239369813881
Si	2.618259731415429	5.5037504097149705	2.7537917231610543	14	0.04124567154581549	0.02533464338261111	0.020409176920803438
Si	3.9128000402674608	6.920897240321554	4.135277915665601	14	-0.003969272393244604	0.00905569004809355	-0.006732439280807745
Si	-0.1228859118908762	8.231464086291833	2.747646774022332	14	-0.007682205586070445	0.002348961820487285	-0.009694352609618331
Si	1.1754318823131171	9.64094484368414	4.133328720153106	14	0.01977051435927865	0.018174115065998715	-0.01712381854271822
Si	-0.19359449042756519	5.553117503101436	5.500149381291216	14	0.016105403725407568	-0.0041731610451323465	0.002272599992478887
Si	1.097828412692831	6.970434255194439	6.880993466640348	14	-0.014808023980860847	0.001588428866787483	-0.009516432121464084
Si	2.516195737052837	8.284690358052575	5.508390573382605	14	0.0032146529817811426	-0.011247043112455756	0.01213278889524677
Si	3.805832830705373	9.711726945940915	6.884279159997957	14	-0.003409028543984338	0.012974568777063253	0.0002982482171371772
Si	2.4368064579646904	5.611478998245058	8.258961957603903	14	-0.0017339534279078646	-0.0014544742796077682	0.0006376341193967236
Si	3.733145647168154	7.027851379000071	9.639490707886889	14	-0.00337971794333465	0.005610408919095124	0.003697249450372938
Si	-0.30263833661696415	8.329572504513811	8.256236678379391	14	0.012712316034408148	-0.0261453128900538	0.0022718286608828424
Si	1.0015205086827303	9.745106714859846	9.621521510697931	14	-0.03806958514383656	0.007040200587629469	0.0040919141170156674
Si	-0.3743958535602098	5.648039893453032	11.021241585783747	14	-0.020840608393524286	0.005965221453275558	-0.008025191035778199
Si	0.9220838476416396	7.07764654382348	12.387518171393221	14	0.005493680737560401	0.003719360956126211	0.011283295697469845
Si	2.336913864135298	8.395372966269663	11.013511792012064	14	-0.007764223845783168	0.0063341750667168075	-0.001571716682206521
Si	3.621358549289333	9.824986152081898	12.396997829702944	14	-0.015579612687437284	0.025752962218199206	0.015722309032705502
Si	2.262801954288862	5.715417030539614	13.76342146275259	14	-0.012633897322143631	-0.018195198129623925	0.003345265132044666
Si	3.5592408089795526	7.134673174982434	15.142778735095543	14	-0.008460736277011284	-0.0010456685337042236	0.0017164699117308577
Si	-0.47474919603547316	8.446890220003526	13.760663506319151	14	-0.0019021037158455491	-0.00018614802517872092	-0.0010636662709452604
Si	0.8214543827509432	9.86630158118875	15.13866630835208	14	0.007209122207163199	0.03951891721280403	-0.001046696975832283
Si	-0.576453741099868	11.23994851127171	16.50697378249637	14	-0.0045053478524954785	-0.08134874388735716	0.005436087978389083
Si	1.254397991545659	12.314123526282733	1.3785779209100444	14	0.05251431194296049	0.1354615120078537	0.02564034780517672
Si	2.6892003181354998	13.640290471794762	0.057694880081511205	14	0.11158134290485038	-0.1126221263384463	0.21406302986063266
Si	3.9644185933489964	15.098875271041672	1.4030841937448482	14	-0.04687690641800381	-0.09491775221443864	0.010889402362423159
Si	2.5912863293066364	10.960292055693106	2.7573911177243633	14	-0.015574727587329001	-0.01117556638455564	0.0032408782560466535
Si	3.873737704716125	12.39502085856286	4.1321229311437	14	0.015034024138501863	-0.007379843600421032	0.007620499058386892
Si	-0.07056806653830286	13.713913857367737	2.7648889033126633	14	0.19800004937300753	-0.08772637063398447	0.12516603497438475
Si	1.158737096272313	15.155441153554756	4.163254508088452	14	0.02113654261587333	-0.08531338829102551	-0.08535041220763562
Si	-0.20781397789214923	10.995572004311141	5.528920029890992	14	-0.05271100149995181	-0.0050619921543075385	0.03515163771600051
Si	1.0675431754592875	12.441063045941004	6.893214742779045	14	0.009110197480880688	-0.00695458278046854	-0.029803224429028472
Si	2.481698407588603	13.759344980938947	5.517293478954766	14	-0.005945681052842433	0.009780484637843291	-0.008189484665735661
Si	3.7741212333021656	15.183489635837246	6.891430567171631	14	-0.006661733884503673	0.004053347537213446	-0.0063439452669333705
Si	2.412350834803724	11.079903711249496	8.261587571341188	14	-0.007998194429916642	-0.009873558650432651	0.019902669172734266
Si	3.6947842377483022	12.505636478501648	9.646493433759945	14	-0.008000251314172764	0.01957562457601143	0.01391944998221767
Si	15.985840922249466	13.812613733071295	8.240613704791393	14	-0.0409196553912207	-0.10802216181016938	-0.021396481363740297
Si	0.9500490030413663	15.231088892220761	9.62033206029299	14	-0.003436025149845893	0.09582895193989911	0.012751653945806414
Si	-0.4025407336090349	11.100075352320133	10.984858781364423	14	0.06513663929116345	0.021298008029978627	0.0260897770151386
Si	0.8620345746569381	12.534147343290455	12.36718641199884	14	-0.04709313637542826	-0.04816837262031418	-0.04384094525597295
Si	2.288453563296557	13.88055455201187	11.01593970863534	14	5.733564863930216e-05	-0.047591930807536986	-0.008785466878945986
Si	3.6173261817077416	15.321171787930268	12.36251357112228	14	0.046804658358507646	0.0696990656817662	-0.04834269356102023
Si	2.225218262441473	11.204604842096266	13.773430491846929	14	-0.009375792660451984	-0.0021576715846682677	0.0035802641583062
Si	3.544289352035004	12.595582129933662	15.180136954201336	14	0.020832637967031827	-0.012690975860250918	0.0363531152321057
Si	15.761549461755877	13.887315466538865	13.70135763983754	14	-0.20661299508497155	-0.08499662811558326	-0.09331004005775005
Si	1.1145166632918502	15.038082591553882	14.803947121871035	14	0.13319174023122698	-0.14056181363143144	-0.12076764510320742
Si	5.360555612475964	16.399235390803604	0.000490158133905	14	0.0499205808959951	-0.009296859727123439	-0.0003807806979139305
Si	6.753673257498078	1.4032132687201095	1.3812786922278608	14	-0.0021088205835854542	0.006616996651933096	0.015334329239895158
Si	8.164866300638161	2.719871146434382	0.0025128773664863002	14	0.004047176884445091	-0.0035555815472327786	0.00039286489291862645
Si	9.447959783203066	4.144827829974517	1.3862913760772626	14	0.010158694230437075	0.0024523202543572376	0.0019640673540611176
Si	7.983450605977688	16.449844218129293	2.7532623523764364	14	0.014611591534401532	-0.00390756586556105	-0.004934465330428193
Si	9.36718662431686	1.4591419456591164	4.141834597636804	14	0.024857960456255657	0.016946926496692032	-0.0028989212484669593
Si	5.359537717417888	2.7723719841569463	2.7563846596894113	14	0.03433968265589774	0.024605477913817113	0.022214607076611416
Si	6.6473448873705125	4.196681658960327	4.136433055001171	14	0.0020782244302756923	0.003710362087505693	-0.004633903118502883
Si	5.187255302652512	16.500555978663108	5.514716881030872	14	0.003706248318993456	0.04839617255167931	0.004000382767618396
Si	6.576383060464639	1.5095726821961557	6.89200895376964	14	0.003816805847759823	-0.02575656176564741	0.0023854715160333876
Si	7.980199223689452	2.8313036965963443	5.51242130710375	14	-0.00535355549761233	-0.010841322692936391	-0.00035121298673222755
Si	9.283198028072237	4.244040737858229	6.889234658731737	14	0.0016820171004408731	0.009613362792033666	0.0005065077480691716
Si	7.813998037505391	16.562995589480817	8.259605698619763	14	0.004990258315875407	-0.04283024375462274	-0.0018285701036893137
Si	9.210739584997508	1.5631338953484013	9.638714624174874	14	-0.00778993489898465	-0.022021259956536282	-0.003555324436700764
Si	5.173735107458967	2.877079564721732	8.258118885613586	14	-0.00017277827751395092	-0.003430368718141567	-0.0050619921543075385
Si	6.4701347494989445	4.292948716459269	9.638912321288881	14	-0.004851161518055395	0.006142370609833761	0.0023751870947527954
Si	5.034205059201122	16.611557189667234	10.979754601330026	14	-0.025110185888162186	-0.06755579228689078	0.024302601707103674
Si	6.412001994817811	1.6104880726649635	12.382629660937742	14	-0.013329895532307717	0.011773605482022083	-0.006224645980078499
Si	7.81787028676324	2.933849679790609	11.011150863667089	14	0.009856332244787661	-0.007379843600421032	0.004920067140635364
Si	9.108373326452341	4.351949051037414	12.393480128161952	14	-0.001220760806006308	0.007422266838203475	-0.0006124372872592724
Si	7.641263043396377	16.66467072505718	13.764148530651216	14	-0.011246528891391726	-0.005178206114778231	-0.0032719886304204454
Si	9.035976970074573	1.6706370111368924	15.144711592003576	14	0.0013855686570278	0.007560078083363411	-0.012734684650693434
Si	5.02121586865264	2.989356820734458	13.754157474021786	14	0.015120156166726822	0.004556769958898441	0.0219400130284196
Si	6.307542761040871	4.408732236989862	15.139640089178105	14	-0.014253179452772892	0.00458299523316395	-0.0023091096880249896
Si	4.913662103190312	5.781006724297888	16.513249440470798	14	0.010322473639330509	0.007189581806730074	0.05275651006411843
Si	6.724190245743691	6.876660468736627	1.381763948780427	14	-0.0029637131025346906	0.010397549914678832	-0.026339688452257
Si	8.139446699813847	8.186951192291472	0.00694880847832655	14	0.00633108974033263	-0.021022642650190767	-0.0020921083990044923
Si	9.426659144564	9.603346447092735	1.3945260327268667	14	-0.0062534423596641575	0.003805235873819157	-0.041200934313244904
Si	8.059479034127692	5.515050188561927	2.7590592892400867	14	0.00012109906057897452	-0.006055981471076785	-0.0051512095089166765
Si	9.360548249323339	6.929780539568358	4.137062091273015	14	0.0021090776941174692	0.012668864354497643	0.003793408789346475
Si	5.3265549765874205	8.237447283246366	2.758118185622989	14	9.513089684547894e-05	-0.01247988811346676	0.0018211138982608844
Si	6.619229416809721	9.662325541485076	4.1345018319535844	14	0.0020918512884724773	0.015397835541302814	-0.0032169669765692763
Si	5.245263883939723	5.554819985686533	5.510818490005881	14	-0.004338483117217868	-0.00886491403333856	-0.006723183301655213
Si	6.5390852941953606	6.973620283064822	6.890389798067306	14	-0.006656077452799347	0.004156448860551385	-0.013133977306912433
Si	7.9488291031195315	8.286209848267681	5.507119429955345	14	-0.0038245191637202676	-0.011701614533057937	0.017915976091855846
Si	9.234103789380313	9.70183228707782	6.890438813880697	14	0.02981659417669324	0.046597684380235725	-0.034555141281726154
Si	7.882922440434665	5.609908858356116	8.26181957952457	14	0.0005831266866095844	-0.008064271836644451	-0.0034601935398552845
Si	9.176072334046854	7.027903662534354	9.642132660228638	14	0.009933208293860088	0.008521928583630808	0.005164065035517417
Si	5.142698294420102	8.34606795958016	8.261076173021479	14	0.004298116763691543	-0.01022528585822891	-0.0026194421001668627
Si	6.431591981569548	9.765768514064387	9.64386782002266	14	-0.006526236634131868	0.026253042202968	0.0066025984621402665
Si	5.073288634938261	5.66167119115693	11.011448226268325	14	0.0028878654955903226	-0.004852704181247484	0.0032303367242340463
Si	6.3660137248343975	7.083103637714289	12.389516382719107	14	-0.0063172057716038305	0.004609220507429461	0.0004314314727208476
Si	7.7776037960629445	8.3998334052882	11.011580568964478	14	0.0023811006369891356	-0.009898755482570104	-0.005245054853102082
Si	9.073405445179558	9.815372517215573	12.392225323339156	14	-0.0034848761509287058	0.009477608431129849	0.006040297728623882
Si	7.714236152511706	5.7257462962814385	13.763588116518116	14	0.006826541735525164	-0.006968980970261368	0.0014300487790663615
Si	9.004853562432052	7.1403769818006415	15.148162305266267	14	-0.0018409114092260248	0.010450771794805896	0.02467952574703738
Si	4.967340954294695	8.451084339769308	13.761076873012078	14	0.0051941469677631484	0.010878346609546521	0.006948155017168168
Si	6.276950358043413	9.858450881744037	15.137641877852218	14	-0.0005576727439401184	0.0028834946165460706	0.04202111691037215
Si	5.4201261643498855	10.892882241397595	0.008572865761998451	14	-0.02459365082934443	0.01690013237986534	-0.05738732785623714
Si	6.6951777857978545	12.332011030449372	1.3849679491157192	14	-0.002520197434809147	0.00483753465985861	0.013783952731845867
Si	7.566698554206301	13.975908281521301	16.512043651461394	14	-0.010344842255615796	0.0027914490460847693	-0.006303578913407046
Si	9.373890353728234	15.079362075730915	1.3738593319409855	14	0.03658425760038701	-0.009596650607452704	0.008822490795556118
Si	8.044115844350664	10.983880098957059	2.76908465693889	14	0.006778204955506381	-0.002258458913218073	0.005718395342541343
Si	9.342765312225266	12.414668030430219	4.145417653595649	14	0.023302698848098085	0.0034288260549494784	-0.029232181937423586
Si	5.295513261967217	13.704667841101845	2.7554092450029404	14	-0.0004959662162565644	0.020744449054550744	0.003277130841060742
Si	6.580560841625956	15.131168522763781	4.137540812383796	14	-0.008987555757109624	-0.0029374878282691806	-0.0008165830496790298
Si	5.216039022135861	11.027973090822707	5.504180115012361	14	0.0044158733873543255	-0.005413205141039766	-0.001461673374504183
Si	6.506996275029047	12.445753859282474	6.886195678301526	14	-0.0018365405301817728	0.013236821519718354	-0.006676132074296502
Si	7.919241524296579	13.766958770618938	5.510390418568938	14	0.01933394067591751	-0.0160642660402852	-0.0024854875129871478
Si	9.199706125403306	15.183633415556526	6.900464181579501	14	-0.011695443880289582	0.05755162148619461	0.005953137258270862
Si	7.841406046492912	11.076990538073654	8.261208515717636	14	0.008052701862703784	-0.017528767630641547	0.004032778694652262
Si	9.127638174975253	12.491634294476428	9.65326415144962	14	0.0005720709337329476	0.001859166256999076	0.01093645358978187
Si	5.110723645485032	13.813460072782505	8.260430798145173	14	0.006861508767879179	-0.0001522094349527663	0.011669989937620116
Si	6.416584973369823	15.23120162859156	9.625303897631232	14	-0.0010569813971128754	0.05712584644517808	0.0007494772008231651
Si	5.034384783850221	11.13724404361415	11.016947800530739	14	0.003544011573292112	-0.013548696595052319	-0.0014842991013214858
Si	6.319574509367793	12.559254876769517	12.40117561086426	14	-0.013229108203757911	0.016625024110609492	0.01662785232646166
Si	7.7341757853989614	13.866516423056828	11.018318609445224	14	-0.017592016821517186	0.00499308653172757	-0.007734656134601466
Si	9.029252000477397	15.288007688590255	12.390209139548361	14	0.011059352424084947	0.0025947594890934414	0.002688861943810861
Si	7.673428854003668	11.187565311501283	13.759194665777883	14	-0.016383340210515573	-0.007591445568269218	0.006750437018048782
Si	8.963616558626624	12.598505106272182	15.147270217462559	14	0.010361554440196758	0.00024348367381802312	-0.007601729989549811
Si	4.918133979231972	13.936254488488386	13.772108698745834	14	0.021457673670359823	-0.01942470069371874	-0.015075418934156247
Si	6.230772560248223	15.347584775905963	15.141523930272747	14	-0.0358391512786081	-0.0062367301750831956	-0.007086480483392136
Si	10.2664634139879	16.71907501019974	16.514520583898058	14	-0.04773154182642103	-0.01242692334387171	0.012608443379474166
Si	12.160494896233335	1.429814150647134	1.372186258843923	14	0.054703093902002536	0.020537475076278826	0.05532118762096615
Si	13.576161449275524	2.7469948637042383	0.011987634094869951	14	-0.07539174997110608	0.02456716844454691	-0.0854105760721271
Si	14.906163065255138	4.137472190245049	1.3769996117188703	14	-0.02808804006995769	0.011316720066631768	0.033205568099180426
Si	13.494460257655792	0.13083791068326167	2.7971609148489684	14	0.0019077601475498745	0.16893550350245756	0.03865296894097816
Si	14.856789436426885	1.482970166408685	4.154666937582436	14	-0.09354761018933173	0.01922801113672741	-0.06046519803498641
Si	10.77889596735799	2.780611542387889	2.7663593777143785	14	-0.004806938506548848	-0.013458193687783105	-0.017405868796338465
Si	12.094506540526151	4.188817888632045	4.136433055001171	14	-0.012488629871555265	0.017902349233659062	0.009489692626134544
Si	10.695100166646037	0.11460714100922076	5.543717903953585	14	0.02405011916466513	-0.03172898231381938	0.010733593380022187
Si	12.020709965745858	1.5197973808694138	6.902513042579224	14	-0.020743420612422687	-0.008497503083089402	-0.04735513200755135
Si	13.436373251067156	2.833257793690179	5.518399602476945	14	0.016174823569051564	-0.006970523633453457	0.0010158437119905058
Si	14.730320468577164	4.2520989375796265	6.892404347997656	14	-0.004867873702636359	-0.005296734070037057	-0.00844608097668644
Si	13.252608065084834	16.54469471862125	8.252173267449319	14	-0.09827278754669987	-0.03239309881801363	-0.027748397057166127
Si	14.655273990555417	1.553796382897511	9.629614021488702	14	0.07272782774890066	0.0004933951109364164	-0.014238009931384016
Si	10.624337670714619	2.885302784348212	8.269003663907169	14	0.014077572959406776	-0.008560238052901015	0.011545034219060918
Si	11.921603258791162	4.3028564462059355	9.64272738543111	14	0.00026430962691122254	0.01126812617608097	6.273496981161314e-05
Si	10.436087537807063	16.609224036949843	11.010804485252462	14	0.00017354960910999533	0.05844816591133024	-0.012436950654620287
Si	11.828097425446552	1.6280978205557235	12.371960552223076	14	-0.048207453421180435	-0.08180022998157516	-0.053939218511386555
Si	13.262618728039621	2.9268093751272874	11.006213337398218	14	-0.055397035227910514	0.011030556044499288	-0.006483556285817411
Si	14.5589726219871	4.324299230703833	12.407650599813147	14	0.06713104568800232	0.0224017835439182	-0.018783467026873807
Si	13.040796030680466	16.65952079693028	13.717178310539547	14	-0.06600053067873321	0.18133028802982745	-0.024310315023064116
Si	14.356916368307887	1.7158442958269504	15.089681538310062	14	0.19119999002227986	-0.40227976637994467	0.17206890955612208
Si	10.448256530411479	2.986085832120865	13.767419519264807	14	-0.03520743070144772	0.024337054518393658	-0.028941389925714836
Si	11.729513553834686	4.417983154837096	15.141721627386755	14	-0.03090468594817991	0.05146555808287208	0.07142427735158556
Si	10.864765136976361	5.458273538051265	0.00993877309514705	14	-0.0022296625336324137	0.0032503913457312015	-0.04453077281336868
Si	12.16549287533872	6.874590367551102	1.3876017321552354	14	0.007988167119168067	0.002075139103891515	-0.005472083452871156
Si	13.052728113520159	8.495585796746543	16.507089786588057	14	0.01912233870806932	-0.0017033572745981022	0.0038299184848925786
Si	14.877127731263052	9.58931485357948	1.3635513063849634	14	-0.018956759525451786	0.03579827070401775	0.015971706248759866
Si	13.507745176945063	5.503665448971761	2.755327551980623	14	0.00508616054431693	-0.01084620779304467	-0.0023155374513253602
Si	14.801808398546761	6.923320255363491	4.133263365735252	14	0.0014961261857941671	-0.0031640022069742263	-0.008585691995570481
Si	10.78043506389845	8.253369253296048	2.768127214717329	14	-0.008716047035301988	0.006571745198298489	-0.0003807806979139305
Si	12.075972027622756	9.691664773520184	4.1421809760514305	14	0.008973671788380827	0.016372284457638938	-0.03543883018026105
Si	10.696147471192148	5.55839814006404	5.509117641281231	14	0.003046245583311444	-0.008399029749327729	-0.0031740295177228035
Si	11.988058898586	6.9803142093135175	6.885914654304754	14	-0.0016534778313872297	0.005365125471552996	-0.002544365824818539
Si	13.399606489442943	8.291199658070834	5.501240800069377	14	0.005771874333200423	0.021739209702916037	0.009345196507142224
Si	14.690416694895957	9.698084211213892	6.892669033389965	14	0.03381517717058753	0.0003224166071465691	0.010609923214123063
Si	13.330363483726629	5.618200700121342	8.261059834417015	14	0.004277290810598344	-0.012868125016809121	-0.0026096718999503
Si	14.627888855614144	7.021105169217092	9.64710449756688	14	0.00786321140060887	2.571105320148079e-06	0.009175503556012451
Si	10.583917597132366	8.341832993303221	8.25863191779374	14	-0.006018957554466653	-0.004914153598399023	0.004259035962825293
Si	11.87767692069104	9.752929638676969	9.646393768272718	14	-0.017889236596526303	0.0071466443478836	0.01307175655816485
Si	10.520438851070775	5.665110467396497	11.015179963527787	14	0.006519808870831499	-0.008710390603597662	0.004620019149774084
Si	11.816408787813364	7.075145103480118	12.39734420811757	14	-0.01005199335965093	0.007628983705943379	-0.0028523842421722787
Si	13.222406154734053	8.386071398748594	11.012984055087891	14	0.016392596189668106	-0.01215310062727594	0.006598227583096015
Si	14.520702708752244	9.805093901147588	12.38122454095388	14	-0.007322250841249714	0.017857869111620496	0.0004681982787989652
Si	13.161835680266966	5.707180740029563	13.765337981056158	14	-0.03953485806578895	0.033580435254858015	-0.029474637169113548
Si	14.454769904300237	7.127954740827042	15.140004440057641	14	-0.020698940490384125	0.005094388081341403	-0.0099038976932104
Si	10.41484898586496	8.447442464834392	13.763718825353825	14	0.010762132649075828	-0.012403526285458363	-0.003128006732492153
Si	11.704865135141048	9.863403112756925	15.143322810624179	14	-0.013012364025269427	0.02030658981852953	-0.007787878014728531
Si	10.828111111722944	10.907235705418781	0.0029393149429836505	14	0.04383168927682042	0.03002382526549718	0.05632494713795195
Si	12.143850759866366	12.354095922102685	1.3455477981266326	14	-0.009014809473503195	-0.023531784332123277	-0.020746505938806864
Si	13.010857171861549	13.98700056009157	16.43166261908231	14	-0.1696533561078429	-0.16620936053150456	-0.1253750658369128
Si	14.551453596212998	14.843414654813065	1.6619367042600786	14	-0.030764303597699827	0.032310823447768894	0.021263555218688644
Si	13.505825390920602	10.983870295794382	2.7306039757064546	14	-0.011533721355652267	0.05156171742184562	-0.02657108793107032
Si	14.860161724388153	12.363961171477746	4.109397566195417	14	0.11350298702112901	-0.048359662856133204	-0.08857123584218514
Si	10.74614686857135	13.741199326821784	2.742990271750234	14	0.014756344763925868	-0.015157180083336955	0.01948743566353035
Si	11.973899863957934	15.217581767910787	4.143156390737901	14	-0.008882654660047585	0.029448154784316023	-0.07338577360032655
Si	10.660253191046284	11.03589404626661	5.538350672387325	14	-0.05931822795166834	-0.050275650540707546	0.005512449806397482
Si	11.919062605797087	12.429307420029515	6.973166069860737	14	-0.08619682007902839	-0.052994337306232125	0.0010011884116656621
Si	13.240532202525861	13.626299724792666	5.381486998654155	14	0.22813777460418724	0.31842162370012306	0.07604866738040392
Si	14.617468093687323	15.152276365870176	6.866739668106391	14	0.07570028260952386	0.03779704797990087	0.04003725204534588
Si	13.302537206464843	11.063068413210306	8.283107147280063	14	0.04749217192111524	-0.0006445761037611234	-0.0103605259980687
Si	14.59707097987509	12.492715910091912	9.640547815595678	14	-0.01968463944158571	-0.011535264018844357	0.013700906030005082
Si	10.529410378781682	13.83072344225864	8.295509781928306	14	0.007926460591484514	0.010611722987847166	-0.00114439897799791
Si	11.842120849657574	15.244837827876795	9.64857333810815	14	-0.014566854301830958	-0.009436984967071509	0.004527716468780767
Si	10.484077286837255	11.130476593645367	11.014206182701763	14	0.0035260138360510757	-0.002722543423504801	-0.005421175567532225
Si	11.778557142852774	12.553193254513557	12.38921902011787	14	-0.011870279042059652	-0.007663950738297394	-0.0021275896524225353
Si	13.187704592714027	13.864642385124867	11.002249591955374	14	-0.014552713222570143	0.014979516705714723	-0.009642673392683355
Si	14.461690937150975	15.312721461701745	12.361918845919808	14	0.002636154284747825	-0.09536589587174046	0.03830844082807832
Si	13.113876974585255	11.170762690671019	13.751151170800503	14	0.003998325883362278	-0.011844310878326155	0.015339214340003439
Si	14.409698230027224	12.58088718907919	15.126098653798756	14	-0.019672298136049	0.13203242884237223	-0.05960310642114075
Si	10.366035771169807	13.913063473312894	13.758088542255704	14	0.006582800951175127	0.021901446448617384	0.005465398579038772
H	2.012461856699115	14.14929028436707	13.940319533278904	1	0.10803270334198199	-0.10914162106656185	-0.0933560628429807
H	13.668440253424924	13.949588423591047	2.499964967378796	1	-0.3040013224015405	-0.221743178562447	0.34680559799242977
H	0.7573416988361692	0.5143425362318728	0.48210973734627993	1	-0.04867179504199918	0.1861889057533113	0.3213886792395739
H	15.059159391311796	0.7385196264942172	16.016910412497257	1	-0.01385362968602188	0.15306149925586335	-0.1743888178864917
H	12.370699211958494	12.609478113029867	4.519906637201301	1	-0.05020391670227542	-0.10700297566126267	-0.0912102183427851
