219
config_type=vacancy dft_energy=-23094.371492989332 dft_virial="19.15811819862933 53.5934496231753 -102.93227749848779 53.5934496231753 -26.11910648301877 -19.108836865642505 -102.9322774984878 -19.108836865642505 -120.35733548708035" pbc="T T T" Lattice="16.022738712200002 0.0 0.0 -0.4721580643711097 16.416449447836182 0.0 0.9115015598596338 0.1646977312227038 17.00462816322233" Properties=species:S:1:pos:R:3:Z:I:1:dft_force:R:3
Si	12.398398420048105	15.178724927796155	15.57768311036058	14	0.06694284077856748	-0.04824422022725856	-0.035179148542926086
Si	1.4483754658893193	1.4043401730865799	1.615556721612414	14	-0.2995674512769452	-0.17974005938931586	-0.3018187110952668
Si	2.5548256876602906	2.7168476215180566	0.004106627931936861	14	0.12408231408194233	0.034627646451754326	0.1283423784868957
Si	3.9406644043558927	4.068463370598271	1.431215112728553	14	0.019659442609448255	0.019955633942329316	-0.04642002100261349
Si	2.8862800720302157	0.028919441101649783	2.905988040646222	14	0.04359797580321896	0.10229451048847552	0.023241249430946544
Si	4.225335596233937	1.3954699849355061	4.3060645629614855	14	0.059187358690872806	-0.08224554542302481	0.04171361271408243
Si	0.07655344101914917	2.8256436196477663	2.8843413206460395	14	0.16607129217581262	-0.008641742091549708	0.07510944260695382
Si	1.4621630325511674	4.138727886672882	4.296066374005073	14	-0.07922886755089507	0.051117430422524035	0.038866370682550444
Si	0.3200445921329677	0.07339856376671698	5.672488527159515	14	0.021829455499653233	-0.018871655939354887	0.06228965437016348
Si	1.6841612819564409	1.4109127005063242	7.1098884170309775	14	0.0014236210157659913	0.0065396063817966385	0.005004142284604206
Si	2.913666137037108	2.8122982805743746	5.681144010611845	14	0.009100170170132111	0.004863245713060091	-0.02479856792336024
Si	4.279873794262523	4.150829861222206	7.111641304646092	14	0.007989452671828141	0.0038270902690404154	0.011682331243156827
Si	3.1412803563610074	0.0940294421325457	8.496752589004162	14	-0.002443578496268734	-0.014720349289443798	-0.005531218875234562
Si	4.5067141153066235	1.4344212627448643	9.930803726484772	14	0.019893670304113743	0.020066705692159712	0.013828432853884428
Si	0.38758364035263315	2.834281478087513	8.495102246916803	14	-0.002851612910576234	-0.0025325387403458575	-0.008173543812750742
Si	1.7533394563463645	4.1738641503948655	9.930770078733477	14	0.007905634638391314	-0.0052581674902348365	0.03376195529046047
Si	0.6097805717179379	0.12584899894110368	11.309521938096674	14	-0.01560172419319056	-0.017350075810891253	-0.03368970723096431
Si	1.9602699222666848	1.4728005287821968	12.74330068901918	14	0.07343256771715324	0.05719989427839834	0.10082383824535081
Si	3.212714532361609	2.8587465978271713	11.319367911035322	14	-0.01926272105854941	-0.015589125777121834	0.000718623936981388
Si	4.569007318871915	4.191221583241792	12.773739085750746	14	0.006735010386127893	0.006635765720770177	0.004761687052914242
Si	3.422094875031025	0.1924234782902947	14.150178863917771	14	0.14336149021454067	0.2464782401843995	-0.1036263430443122
Si	4.789619601378583	1.4908853939666569	15.620313208978258	14	-0.0894839782308377	0.011375084157399133	-0.0671549569674797
Si	0.6889761623507289	2.9117257833790604	14.128327052862074	14	-0.16431934101066373	0.019409531172329863	-0.07763992446304356
Si	2.0341908273154194	4.216072850984414	15.612609476205431	14	0.0457916428623693	0.01354201172121993	-0.04390316600472054
Si	0.7635507951389213	5.6558505152807665	16.996310759556827	14	-0.0017511798335528564	0.005579041434189316	-0.005560272365352235
Si	1.2196909276194445	6.822549439157353	1.434280262644197	14	0.012614871142774535	0.006473528975068833	0.02262161304879086
Si	3.3628443895471802	8.378400629506494	16.999286182135684	14	-0.00020928797306005363	0.006804687340303906	-0.005077161675696411
Si	3.8235846503119766	9.54574366747931	1.4376786855250545	14	0.017137959621979035	0.005407548709335439	0.02204619967814172
Si	2.6774445024770146	5.5122355036555755	2.828957122013449	14	0.02237632960124873	0.011022842728538844	0.011725525812535316
Si	4.047377446453016	6.849073480821528	4.2693853095015175	14	0.004208385188018376	0.0027402840502138226	0.0024026979216783795
Si	-0.07161843749579158	8.243189544335854	2.8284812466736966	14	0.0018838488680724974	0.003173515296658774	-0.006269126102117061
Si	1.2946020379205934	9.574881017827447	4.276629189673303	14	0.019525488022268542	0.009539572069345418	0.011269411728741047
Si	0.15566250886289426	5.548214563433821	5.674342358028516	14	0.05040292025405488	0.01040063524106301	-0.009494577726242825
Si	1.5258165666331243	6.8791802068617525	7.106776801173068	14	-0.03037221003637724	0.0038674566225667412	0.014662499419740465
Si	2.755258933032814	8.2684013236995	5.665515431271966	14	-0.0010731793606298082	-0.008921221239849803	-0.02004099463895823
Si	4.119141690871089	9.612678658449527	7.102883275666003	14	-0.002453348696485297	0.006206134021773432	0.014150592350498982
Si	2.9839066190036503	5.570832261399962	8.499421977273615	14	-0.003368919300990028	0.0	-0.014291746032575114
Si	4.347335933336369	6.906164101126968	9.942061302703964	14	-0.00039620732983481895	0.001414622147145473	0.015674743584282762
Si	0.23003685741718422	8.293092364055	8.494626371577052	14	0.006888248263208718	-0.010065877328379729	-0.015237912790389602
Si	1.6022754734938713	9.620986448471802	9.926774007698654	14	-0.04299428027404819	-0.0009268834679133825	0.01346744966693564
Si	0.46039577188248365	5.597322655312842	11.321067923612686	14	-0.043773582296585074	0.006938899038015636	-0.014256521889689084
Si	1.8241471432633185	6.925989035735573	12.772039073173381	14	0.0009700780372918703	-0.009238238525824062	0.020292705849800727
Si	3.054884146950954	8.323700601816915	11.337885390165011	14	-0.005086931875912975	0.008915307697613463	-0.018826147375188267
Si	4.407839396987508	9.672318496484078	12.7826493307486	14	-0.0011354001093773916	0.03790503440334708	0.02634585910502535
Si	3.275917827485753	5.608365526833291	14.171485901857254	14	0.0014264492316181543	-0.019002525200150423	0.00912639544439762
Si	4.64689545402579	6.949254052345688	15.606386244489615	14	-0.007198323564818577	0.0011235730249047103	0.005413462251571781
Si	0.5365037807654336	8.354835987682463	14.161146428566273	14	-0.012257487503273953	-0.003697763671436967	-0.019550941964938007
Si	1.9053824285341727	9.68793746218073	15.602101764157972	14	-0.0001915473463510319	0.05440176035848119	0.014486121594778308
Si	0.6084330593922419	11.106491406778902	16.997959499370314	14	0.011040069134183837	-0.004123538712453489	-0.02082903841958362
Si	1.0746899490956483	12.259644707348196	1.4476816813030808	14	0.057690461173482595	0.04122767380857445	0.08817297162809419
Si	2.333625370642885	13.662116629100932	0.06252873782436051	14	-0.00730065355656047	-0.05591408450779228	0.23452337177730703
Si	3.6753903399628385	15.048931130584108	1.466296899138915	14	-0.03012255570979086	-0.08206325405582632	0.04591274192294828
Si	2.5332142176852748	10.962216258318769	2.838836742703392	14	-0.009886671287565409	-0.017363188448024005	-0.018729988036214725
Si	3.8913624373384534	12.318169362768376	4.273245187257286	14	0.0008407514396884219	-0.002585760620472923	0.011680788579964737
Si	-0.14240369257854876	13.689618057826552	2.881808125655641	14	0.2089264756520408	-0.06712204681938179	-0.0033259818421435545
Si	1.1679647202348495	15.059877865672284	4.321997574336898	14	0.04355400990224443	-0.06752108236506876	-0.0417321246723875
Si	0.006457163701016601	10.990273676077702	5.67990224836165	14	-0.038054158511915674	0.019082229465075012	-0.0214242493011979
Si	1.3671145442365256	12.335988250490214	7.114717670478835	14	0.016038812097615734	-0.007117847968297941	0.01775322512509047
Si	2.6122736150390122	13.728843324467888	5.692774916643032	14	-0.01059475369273419	0.02458053819221168	-0.028266474779175967
Si	3.9708127895167684	15.0832262005237	7.117558502052508	14	0.00025556786882271907	-0.0004437727782575585	0.004616933823389905
Si	2.8286542922517883	11.030439477481446	8.503180911775496	14	-0.0035707510686216522	0.006172452542079493	-0.002675492196146091
Si	4.182433111058151	12.378512599032394	9.94773976130357	14	-0.011333689361744746	0.024902183467762205	0.03090725705350006
Si	0.07317424542474618	13.770444763260244	8.493181120545211	14	-0.003067328646936658	0.0026970894808353353	-0.00879318019490643
Si	1.4345045809861678	15.114959234543214	9.929494668731987	14	0.020427688879108504	-0.01489698422493797	0.014293031585235186
Si	0.30039430537632567	11.038470074124	11.298604043938182	14	0.052777336017211636	0.03394527509978703	-0.004051547763489343
Si	1.6382128741514648	12.38460444429077	12.742943381945896	14	-0.04340694267793196	-0.055646432443964874	-0.056713698262358336
Si	2.8835914564743086	13.811996531562594	11.337561730843024	14	0.008839974311733124	-0.020324073334706535	-0.00024656900020220075
Si	4.257164766685722	15.175711050644392	12.762957384871305	14	-0.01635685782571805	0.04494883453842476	0.05657665834879445
Si	3.116959441269759	11.111993615252672	14.172759709584875	14	-0.0005784986970333178	-0.05064614681734089	-0.013792951600466384
Si	4.510316026969126	12.421906982286645	15.635073355879937	14	0.06263958180423562	-0.016375369784023115	0.02738947075447346
Si	16.311481281984815	13.776156869611146	14.094980529054244	14	-0.1862920070766492	-0.05956222584655039	-0.026888362327576593
Si	2.006328886968775	14.826807903816878	15.306696939616625	14	0.030967935139055557	-0.12630657729440245	-0.17073399167390116
Si	6.256384364487894	0.17869359348781053	17.000170637312596	14	0.06095679337219871	-0.015699169084824167	-0.01288895096990232
Si	6.711334007482101	1.3537932392712027	1.4327565001926668	14	-0.0007497343113551798	0.009321285227664846	0.02104732526126419
Si	8.853445991393542	2.9116873288061513	16.99743235126668	14	0.003186885044323544	-0.00044325855719352887	-0.0076891475704348455
Si	9.30770024752764	4.086976042906348	1.4341616943777267	14	0.008926620561022116	-0.005370267682193293	0.01361246000699199
Si	8.174040210875612	0.041164018025513026	2.82423041409335	14	0.0021342745262549205	-0.007088794478180268	-0.009932694072796058
Si	9.540167754407465	1.3772585401152195	4.267361637602166	14	-0.015595810650954217	0.022091708242308338	0.020244369069781942
Si	5.418616243634062	2.7752553109456395	2.8260489949371848	14	0.02941421619409007	0.022199180444690526	0.006105603803755643
Si	6.789707631618955	4.115746472537974	4.264046532962612	14	-0.002118847894334032	0.0017524653862129305	0.007022974181984477
Si	5.674166107902683	0.06226756718335165	5.679392725270602	14	-0.005430688657216773	0.03513389708929149	-0.02136485676830248
Si	7.030071144136152	1.4097494496758187	7.108121108951021	14	0.00520648827329986	-0.02627155416127307	0.013670309876695323
Si	8.247840945384006	2.8024779440176673	5.657132334377743	14	-0.007164384974592623	-0.0011330861145892586	-0.018403971881619952
Si	9.60922896280479	4.144784481906094	7.097696715144864	14	0.005183862546482557	0.000291820453836807	0.009999285700587895
Si	8.480393372779004	0.09169012228056451	8.494320337267649	14	0.001263441154320766	-0.006831941056697476	-0.016076607345821906
Si	9.83137782595396	1.436829480373308	9.933626933045863	14	-0.00024451211594608233	-0.027570733679543897	0.013970614978088618
Si	5.735028480900974	2.8325462154849816	8.497295759846503	14	-0.004573996364543432	0.000271765832339652	-0.015406577299391318
Si	7.094351167301757	4.170730102702759	9.94105667698671	14	-0.0016395938626584297	0.00048773867923209064	0.013608346238479754
Si	5.9724390026735135	0.12466011172865846	11.309640506363143	14	-0.017534424062345868	-0.04745000579386482	-0.01124987132830792
Si	7.319496282590106	1.4562330169537823	12.772021448160796	14	-0.00258293240462076	0.015691455768863726	0.018489075467716852
Si	8.547390852430198	2.8569616647346323	11.336864741709045	14	0.0025842179572808342	-0.002402440811146365	-0.018031161610198475
Si	9.912972020571965	4.198553588476495	12.77312701713194	14	0.006259870122964527	0.003402857891215982	0.020886888289286948
Si	8.779702938744514	0.14813021939428903	14.167659671852782	14	0.0028798950690978632	-0.008027505030566331	-0.020679400089951
Si	10.148767450282316	1.4911033032131429	15.60417510654733	14	-0.002259230244814117	0.010521991412174	0.004869930586892476
Si	6.0215230604444665	2.8742389838879974	14.168202842695125	14	0.0029860817188199786	0.002036058303025264	0.012756539045914695
Si	7.391446390777241	4.218897659819375	15.602526366733846	14	-0.00862477279643673	-0.007921575491376232	0.0077603671878029475
Si	6.093197577525751	5.628597439005185	17.00284002558205	14	0.019735033105860608	0.018618402065320297	0.026668018601639903
Si	6.554654054710983	6.809232941013643	1.4321844884206412	14	-0.0019928637336467762	-0.0034409102499541747	-0.009227954104543471
Si	8.698842585559525	8.368790190826918	17.000273182840356	14	-0.0012652409280448696	-0.003882883254487629	-0.019711893157979277
Si	9.1508600673694	9.550481591316508	1.4319185109580186	14	-0.010723823179805624	-0.005645375951449137	-0.005600381608346546
Si	8.020276396550114	5.511285355249942	2.8275807687580707	14	-0.0054651414685067574	-0.0046485584188277265	-0.012348504631607193
Si	9.385569155395062	6.854324132297516	4.265813841042568	14	0.004960690604693703	0.000499051542640742	0.003293585915109689
Si	5.280027565142888	8.239751064608214	2.831185884968316	14	-0.013489046951624882	-0.004490692552170635	-0.006844539472766201
Si	6.6439776184837545	9.587266594851979	4.267106876056642	14	-0.001793345960803285	0.00399575477804213	-0.004034578468376366
Si	5.503887656786519	5.538330135922264	5.662233974383708	14	-0.0045133182789879375	0.0009204557046130124	-0.01745703379220941
Si	6.866134493002279	6.880780878459101	7.102492320841426	14	-0.0009698209267598553	0.0033401229214043695	0.012028659129780774
Si	8.09669524656408	8.27515330579282	5.6625736564444065	14	-0.005502422495648904	-0.0055543588231158954	-0.010987618585652816
Si	9.460557174842029	9.620025084149072	7.096914805495708	14	0.006597970472564	0.013765440773540798	0.008113637058791293
Si	8.319390485103334	5.5649535185664565	8.495834486075951	14	-0.00127809645464561	-0.0017612071443014342	-0.012832900873923093
Si	9.681839207826867	6.908537068730245	9.932708830117654	14	0.004681982787989652	0.002470832212662304	0.01595268006939077
Si	5.572908808337064	8.300352266965499	8.498385306078934	14	0.004261092847081411	-0.0034992743407215353	-0.015606866403830855
Si	6.9320039718481326	9.645190397570452	9.937623004080685	14	-0.0042626355102735	0.012519740245929055	0.019344225097198103
Si	5.79895600381491	5.5885902627146935	11.3347737743071	14	0.002894550369422707	-0.0033738044010983097	-0.014386105597824548
Si	7.162209068021795	6.932316415253021	12.769385707642641	14	-0.0032154243133771876	0.0009302259048295751	0.02074316350189067
Si	8.387463090522116	8.327896957085642	11.32708766654686	14	0.001876135552112053	-0.004650101082019816	-0.01667927443286462
Si	9.75034602946475	9.667739197760131	12.76586551194757	14	0.003169915749210566	0.006735267496659907	0.02872875951573859
Si	8.616967993014054	5.617948726857057	14.16436058995194	14	0.002182611306273704	-0.0016830455425689325	-0.010782701491637015
Si	9.987114039414928	6.951213633290189	15.60358066294111	14	0.007873238711357448	-0.0032478202404110533	0.03892833432076602
Si	5.8691388039220875	8.349727938581013	14.165857113747661	14	0.007776050930255851	0.003663310860146983	-0.004028922036672039
Si	7.2488696526206	9.677982534618842	15.601556991041758	14	0.006858680552027016	0.0023507615942113887	0.041550861747317064
Si	5.0630540465977605	10.931803497969144	0.00044382986232794003	14	-0.025612322757187105	0.03290963387683138	-0.04558415466303335
Si	6.414081761167237	12.288862171389892	1.4371435260520669	14	0.0027510826925584444	-0.015162065183445237	0.014512861090107847
Si	8.540973745575961	13.856360290508933	16.997722362837372	14	0.002221692107139955	0.010656203109885728	-0.01185356685747869
Si	8.99402148948503	15.037844997669136	1.4284704175871532	14	0.026317319835971707	-0.02164099347968638	0.02137308430532695
Si	7.874978997360142	10.98420105810578	2.829008394777328	14	-0.005878832314518583	-0.0002704802796795779	-0.004709236504383222
Si	9.24199420061665	12.336047534623448	4.25630915243849	14	0.03442530046305867	0.010549245128567569	-0.01390659445561693
Si	5.128045479362187	13.711700596319705	2.8379875375516446	14	-0.015367239387993052	0.011413136516137323	-0.02319548375624791
Si	6.48769823418044	15.05856079655014	4.27407836967032	14	-0.012740598192929775	0.009441612956647777	0.005971649216575928
Si	5.349313091882183	11.00487519786613	5.662030485602062	14	-0.003270960188292386	-0.0044598392883288575	-0.013718903767246118
Si	6.710911007180099	12.347893145353378	7.099754034795511	14	-0.0009574796212231447	0.01250277095081608	0.014028721958323963
Si	7.9422937272378356	13.742757470765564	5.659904268174953	14	0.0003162459543782137	-0.0013773411200033259	-0.005680085873271136
Si	9.297388012892469	15.085150531443036	7.100893251517949	14	-0.006565574545530134	0.016021328581438725	0.01387394141805105
Si	8.163995555976934	11.035113310363794	8.494253041765058	14	-0.0009538800737749373	-0.014838105913106579	-0.013204168482152475
Si	9.526562846966938	12.375396176352869	9.932742477868949	14	0.003247048908815009	0.011895218763665089	0.014096342028243856
Si	5.420226528874639	13.76360946292562	8.502721059174455	14	-0.0003044188699055326	0.007123761510534282	0.0004396590097453215
Si	6.785669901463482	15.107111297121978	9.931177056296768	14	0.00903974919510863	0.021701157344177845	0.01311417979594729
Si	5.63813737763443	11.063366205535017	11.338463811032522	14	0.009488407073474472	-0.0013272045662604383	-0.025088074382408912
Si	6.995977960704334	12.411588338555987	12.777904997815916	14	-0.02828575806907708	0.01596913514343972	0.03830869793861033
Si	8.232260434260262	13.79376425718198	11.329739429803727	14	-0.011565088840558074	0.0017619784758974783	-0.0194205869252065
Si	9.58981741485496	15.140134161607822	12.764437885928315	14	0.016312891924743517	0.008682108445076032	0.02343948165112996
Si	8.457067469761784	11.089233314911993	14.160040859595131	14	-0.00850393084638977	0.0017817759868626187	-0.015212201737188126
Si	9.821224216432038	12.425766860042414	15.599566966893702	14	-0.01007667597072435	-0.016945898054563972	0.003521900067538839
Si	5.698088056799998	13.842840303583579	14.172895902863928	14	0.06287252394624106	-0.017443149823480615	-0.023045074095019245
Si	7.08087924859254	15.170213648992235	15.609021985007772	14	-0.02972917659580821	-0.016451988722563527	-0.0032102821027368915
Si	11.610491459792769	0.18222820964772185	16.994575496954297	14	-0.07703262938642458	-0.018181314160895124	-0.0003154746227821693
Si	12.057730960918665	1.3666899416606524	1.4240593576196845	14	0.06955431245224188	0.029417044409942233	0.059326712599224826
Si	14.201760866653958	2.920674482949824	16.998146965413245	14	-0.10195461036515192	0.030941966975322054	-0.13418084444788794
Si	14.663960798915435	4.089699908487422	1.4306110554791032	14	-0.06104935316372404	0.031975551314021584	0.05018257652811819
Si	13.536814005549914	0.10612340531251428	2.8299601454568326	14	-0.11486053063016723	0.1770923351306274	0.1050569060444426
Si	14.891788120664206	1.4045997414537177	4.303565015722382	14	-0.07377426761420092	0.060300647294496926	-0.07577895843232038
Si	10.76659624365539	2.7758161068005665	2.8297390316626045	14	-0.007006004886871501	-0.00907445911693063	-0.036460073213423864
Si	12.133149992036989	4.115677574761511	4.267039580554051	14	-0.008120064822091664	0.007997165987788584	0.022963055835306525
Si	10.991624392951142	0.07063143679112005	5.668237694579169	14	0.026568516825750173	-0.046978722188681675	-0.022923975034440273
Si	12.350810886072871	1.407712959585498	7.108290949981371	14	-0.021518094645383304	0.02337083313908201	0.015554672965831849
Si	13.578620535397786	2.8121717009385483	5.681602260939014	14	0.023359520275673357	-0.022293540009939963	-0.02711359115362157
Si	14.951059435708377	4.151119872792898	7.111078906517293	14	-0.006753779454964974	-0.0037792677100856615	-0.007328421494018069
Si	13.812525281940097	0.0947728972087918	8.492466506398648	14	-0.0006000959817225617	-0.01285526949020838	-0.01395210301978355
Si	15.174833004562961	1.43978727793958	9.92570208647881	14	-0.0013727131304270594	0.00844556675562241	0.020131240435695426
Si	11.060578248999095	2.8325734541407925	8.496582747973813	14	0.005836409076736139	-0.0003077613068217251	-0.011813714725016394
Si	12.425066666360689	4.177305834670245	9.928491645288602	14	-0.001935270974475459	-0.00022754282083310498	0.015333043687235082
Si	11.282876123618285	0.11732329967234208	11.314418487047122	14	0.002918975869964114	0.03395427396840754	-0.0074829449237589695
Si	12.639583899061236	1.4743483253417955	12.737859366952515	14	-0.04980385271446038	-0.07961350490678921	-0.016106432167535628
Si	13.884899992703104	2.8661651258509195	11.314096429999008	14	-0.012224834465708071	0.0033897452540832275	-0.002058169808778537
Si	15.245997998553198	4.210259801379627	12.75294157090231	14	0.0633108974033263	0.03580187025146595	-0.012866325243085017
Si	13.5946480809316	16.551118964438352	14.099164066132	14	-0.060136353664539455	0.132428379061675	-0.0366395363647702
Si	15.371414383549073	1.5517685965252745	15.46773027049585	14	0.38762240917084456	-0.2458290360910622	0.27905800124865593
Si	11.375404235133498	2.886281674304087	14.164139476157711	14	-0.03472329156966384	0.02078584385020513	-0.037492114888931304
Si	12.744965451571376	4.22606302857147	15.601608263805636	14	-0.02460033570317682	0.03752013993692092	0.0708378082280598
Si	11.448514389603396	5.641771334774356	16.99510264505793	14	-0.013583406516874317	0.012318936920425492	-0.04616059647581055
Si	11.89981084817122	6.81858060677834	1.431272794587917	14	0.0014285061158742728	0.003013849656277578	0.010517106312065717
Si	14.03413097424692	8.380892165376244	16.99374231454126	14	0.0013768268989392963	0.002505799245016318	-0.007333820815190382
Si	14.489615776714116	9.54968205665477	1.4340799784102942	14	-0.01513121191960346	0.04934850996226216	0.011669218606024072
Si	13.361025334590627	5.507340556978998	2.823720891002302	14	-0.0003877226822783303	-0.01240815427503463	-0.023080298237905274
Si	14.722817125026959	6.848594400934034	4.2673792626147495	14	0.0061469985994100276	-0.003694421234520775	0.008734044772543026
Si	10.616161954434288	8.247653479341071	2.8250459714938008	14	-0.010116528103186645	-0.0023363634044185596	-0.015396035767578713
Si	11.98593787557091	9.59719588603193	4.253264832083173	14	0.0041207104966013266	0.03761835616015057	-0.006109460461735865
Si	10.839658329909152	5.539161716061428	5.658322823864059	14	-0.006059066797460964	-0.006422878200261916	-0.010231199400465251
Si	12.201727313725206	6.882729243486504	7.0952820884209356	14	0.007526653714201487	0.001087834660954652	0.009934750957052178
Si	13.430761100287734	8.275475362840936	5.653511195428786	14	-0.002587046173132997	0.004162362402787725	-0.007717429728956475
Si	14.792890970510895	9.600669615784732	7.107082835482472	14	0.031226845444794458	-0.0024605477913817115	0.013962387441064143
Si	13.655805272322198	5.573362251842619	8.494559076074461	14	-0.002083880861980018	-0.0007901006648815047	-0.009137451197274259
Si	15.022381452537992	6.906104816993732	9.93413645613691	14	0.027596701843277394	0.004493006546958768	0.012981767871959666
Si	10.911425778874966	8.302667552709412	8.491532380731726	14	-0.0077238574922568436	-0.004336683343493765	-0.009885128624373319
Si	12.274874320494142	9.642248622742892	9.93054896493925	14	0.006305635797663164	0.005359211929316657	0.011975180139121692
Si	11.135526211599279	5.593565323084832	11.328005769475068	14	0.00200109127067125	0.00013858257675598146	-0.01355692413207679
Si	12.50065073168775	6.932295585692695	12.765543454899456	14	-0.0004856817949759721	0.003568694184365534	0.022470689166498165
Si	13.729295165699574	8.325791569218858	11.324979074132333	14	-0.0019298716533031484	-0.007979682471611578	-0.008533498557571474
Si	15.100471474199642	9.659559589647552	12.758604006763202	14	-0.016752293823956824	0.012841128410947566	0.02206779696283096
Si	13.96364374210421	5.625223050232396	14.159326245448566	14	-0.024286146633054725	0.006055467250012755	-0.03453560088129303
Si	15.328423773310368	6.962647459635215	15.601081115702005	14	-0.011589257230567467	0.002505799245016318	0.00011518551834263394
Si	11.20471079508469	8.348997301695738	14.158323222005182	14	0.008573864911097798	-0.007391927795425727	-0.021975494281837645
Si	12.57070214533749	9.684047141221408	15.595434702579825	14	-0.022092736684436395	0.005754905038087445	0.005512192695865467
Si	11.276585596399876	11.106025145082377	16.983829046100023	14	0.02548865259128798	0.023897395508648334	0.020982790517728472
Si	11.73868778995521	12.300959339117602	1.3979775435439652	14	-0.0008914022144953389	0.012815674468278101	-0.03382726136559223
Si	13.868013628374316	13.858584246642186	16.937508910756925	14	0.0014979259595182708	-0.08339662927485511	-0.25495003221428747
Si	14.139501310839961	14.766483894839318	1.694912539632327	14	-0.008599833074831295	-0.050817382431662755	0.18648586841778836
Si	13.213191535862512	11.005275766333934	2.811646155108788	14	-0.00661134022022877	-0.04234944705975505	0.010249197137706289
Si	14.595524477327885	12.312364324532947	4.282275602795482	14	0.03245480534569719	-0.03782095925937825	0.0387126185844056
Si	10.473974568828353	13.738819081590105	2.8124296670318145	14	-0.0598782146903966	-0.0176912614868749	0.015646975646825163
Si	11.830206468931552	15.097311790125596	4.25636042520237	14	-0.014819593954801511	0.06674126612146787	-0.003827604490104446
Si	10.689951473025582	11.013309567524233	5.651418625752972	14	-0.00989052794554563	0.0006422621089729901	-0.00671341310143865
Si	12.054321322120707	12.357944209347542	7.084942615129953	14	0.013327324426987567	0.017295054157040083	-0.011081206819306206
Si	13.288974283149605	13.762119348225387	5.645349212328791	14	-0.028139205065828635	-0.024522688322508347	-0.008244249209054815
Si	14.640700589126935	15.090401182919024	7.105791402742267	14	-0.012285255440731552	-0.010308075449537678	-0.00232247943568976
Si	13.499559535770178	11.034796060137293	8.483522613649496	14	-0.0026693215433777357	0.007111934426061601	-0.020175463447201978
Si	14.865808852116245	12.366359351719188	9.921773310946577	14	-0.0066218817520413776	-0.008901680839416679	0.008318039931743066
Si	10.752021960522773	13.767214579135866	8.485088035221679	14	-0.003913222297265376	0.005148381293064513	-0.021135514173745266
Si	12.106260631930175	15.11076448154836	9.92184220872304	14	0.00450329096823936	0.001972552001617606	0.019575367465479415
Si	10.980285100764517	11.059786725706712	11.324757960338104	14	-3.522414288602868e-05	-0.004895384529561942	-0.011148055557630054
Si	12.343882653853715	12.400465353341978	12.761766895384989	14	0.00352035740434675	0.0005237341537141637	0.016636851195082174
Si	13.56039467011266	13.787017081910273	11.30258409223429	14	0.0040659459532821724	0.02515286623647664	-0.0010618664972211565
Si	14.909842542645112	15.148744781391759	12.722844458505312	14	-0.0502296277554769	-0.09522448507913231	0.05637842612861104
Si	13.797483134837083	11.074787213689072	14.150042670638717	14	0.00101712926465058	-0.020266223465003202	0.0019059603738257708
Si	15.156488571011364	12.400061580326431	15.596488998787088	14	-0.030636005442224435	0.054244151602356114	-0.07299316581793994
Si	11.042637588463043	13.818378388391663	14.152508570126527	14	0.011045468455356148	0.010740535364386586	0.008483876224892616
H	16.3336567523625	0.6866480584158462	16.314306090819777	1	-0.37256318820020523	0.17282815695716178	-0.3851094108309318
H	0.4734174516338886	0.5036715868702646	0.8470324683772258	1	0.2749902555216497	0.05841268465791219	0.269475491720464
H	13.292348671922394	13.864911626159634	2.58337660577156	1	-0.15448846270854552	-0.16956156764791364	0.12789269216640178
H	2.8688793777887667	13.919561983359205	14.431349087387199	1	0.1362683248573162	-0.12676269137819673	-0.07328215805592457
