219
config_type=vacancy dft_energy=-23096.098123413736 dft_virial="20.306655227389513 -74.21613374896215 74.25640076309539 -74.21613374896215 -50.87334565592686 28.670114062862055 74.2564007630954 28.670114062862055 48.79959442806535" pbc="T T T" Lattice="16.2783841209 0.0 0.0 0.6537073495271022 16.747478316111977 0.0 -0.6198320321715093 -0.2580612234686277 16.08686893171761" Properties=species:S:1:pos:R:3:Z:I:1:dft_force:R:3
Si	12.223676300791976	15.129545300759544	14.706673577258863	14	0.0199535770580732	-0.07057118460636044	0.038168572698662265
Si	1.5507407292165933	1.4803253230248161	1.35862975117538	14	-0.11442627094159422	-0.3632426743041364	-0.22035015369999073
Si	2.9106076375851617	2.848915817443775	0.00913868484547326	14	0.08063834748740024	0.02852795619023503	0.1332981839914811
Si	4.243654280276135	4.217875831182278	1.347290228796761	14	0.024541714501877445	0.06496283257152144	-0.078012220513401
Si	3.297596918968142	16.681943169479645	2.730728237372393	14	0.08732013599340108	0.14374381357564672	-0.004990001205343392
Si	4.000059656775751	1.3459277280458417	4.0270410784561435	14	0.016020300139310665	-0.0657418774835263	0.07052901847911001
Si	0.009150079714357889	2.701594813311218	2.6447930197597493	14	0.060368524474948844	0.09881734765350723	0.11417815927819992
Si	1.373916781703317	4.109380401016479	3.979470756539637	14	-0.043021276879909746	0.013263303904515881	0.03197915086146979
Si	16.722687964934256	16.633298474211156	5.3914154713877895	14	0.019272234148233956	-0.004530801795164945	-0.019943806857856634
Si	1.1667222529356778	1.2944424547482591	6.690365410699125	14	-0.0023229936567537896	0.010746448906622925	0.01755422157331101
Si	2.6106588760966343	2.6832360516996667	5.376051932454484	14	0.028215052672773	2.0054621497155018e-05	0.00675197968124087
Si	3.982573416553081	4.086219516089263	6.690542845086043	14	-0.005963164569019439	0.010687570594791536	0.014576881612579534
Si	3.058486990293066	16.592874362923727	8.059550066138497	14	0.006519551760299484	-0.0007739027013645717	-0.004327427364341232
Si	3.777550424227169	1.2503996586707522	9.369455357963199	14	0.0023358491833545296	0.011900360974305383	0.024296431054335314
Si	-0.20025993713213597	2.638232830959027	8.061303248108318	14	0.009025093894783787	-0.00849904574628149	-0.006701328906433953
Si	1.171014862828359	4.0459874897344585	9.370773907076993	14	0.0006209219348157611	0.004302230532203781	0.016304150166655013
Si	0.24037638695968194	16.55141006289097	10.73611523602542	14	0.027343190858710786	-0.026381340358443396	0.006694901143133583
Si	0.9437328080555292	1.2312025602769747	12.040002409240625	14	0.0467655775576414	0.015582183792757434	0.05870939021185728
Si	2.410268711891531	2.600704644206704	10.737948182077433	14	-0.01728579817788755	-0.007968883829266955	-0.023989955300173667
Si	3.78316646674888	4.001739586017028	12.050700563284881	14	0.0014637302587603015	0.01511192862970235	0.010783215712701043
Si	2.2505484625740846	-0.14974322768974702	13.394404664059806	14	-0.016246814518015712	0.1626100701938293	-0.03585406368946496
Si	3.6185268897500973	1.2038092954783244	14.745088935945775	14	-0.06258713125570463	0.036217875092265914	-0.06094753739304618
Si	-0.40246351332830743	2.5323582206366932	13.46899873145542	14	0.005840265734716361	0.07163382243517764	-0.15658134243914607
Si	0.9735482964113695	3.9686440032608266	14.74124398161642	14	0.009221012120179072	0.007271857176974811	-0.002129646536678654
Si	0.22081790843842058	5.562999407052547	0.01930453572897531	14	0.008813234816403585	0.016620653231565242	-0.02391642168801743
Si	1.5922229354718829	6.96393993423497	1.330681393478207	14	-0.0034733061769880403	0.0031346916063245377	0.024739175390464815
Si	3.0392198948475686	8.347205391938921	0.02000287840776192	14	0.003885711470339792	-0.003087640378965828	-0.022527253483541426
Si	4.417333243977254	9.740324155551251	1.333435696071463	14	0.008550724963216468	0.02095219436441871	0.029116739308548936
Si	2.829490821672305	5.521450459422363	2.703284509582967	14	0.040920683833348764	-0.006997777349847027	-0.003729131156342774
Si	4.201138396629169	6.919244374954216	4.0186593384722915	14	-0.009479922425917981	0.01021448721588429	0.020568328340120602
Si	0.22162694412922931	8.300072958555267	2.70434586022765	14	0.004102455648828275	-0.0017421809649323383	-0.016800116382911578
Si	1.5925371082854163	9.696016021812575	4.023388209059413	14	0.0031007530160985833	0.023974528668252778	0.020678628758354956
Si	0.01622140977647685	5.455490446964475	5.365902359955102	14	0.01573130790132602	-0.012833415094987123	-0.007818988389102324
Si	1.3814422786824092	6.862424675180215	6.683720574300973	14	-0.014403332003469537	0.005500879832456815	0.005495994732348534
Si	2.834825248148724	8.25668455351942	5.391254315384992	14	0.010512478322489449	-0.013726102862142537	-0.019294345653987226
Si	4.204219894743255	9.66828416662421	6.696945133560793	14	-0.013629429302104968	0.016005387728453807	0.01232742156798198
Si	2.6206147358249767	5.430628470896625	8.064119408561233	14	-0.0007175954948533289	-0.009878443750540934	-0.01324504905674283
Si	3.9943768728791453	6.835124197171052	9.373074042753275	14	-0.006362714335770452	0.013421426881704989	0.01586243427265357
Si	0.01549539384468471	8.19283259180519	8.066627907554263	14	0.002191610174894223	-0.027256030388357774	-0.012546479741258595
Si	1.3919385807635656	9.607619512520852	9.35840396298352	14	-0.0352243999965607	0.010011112785060575	0.008759241604680475
Si	-0.1976521399959678	5.369459186885519	10.760132363957394	14	-0.002307309914300886	-0.004662442387556526	-0.022789763336728542
Si	1.1771371630962295	6.791960433836074	12.049155744631806	14	-0.005806584255022422	-0.0006114088451312132	0.027022831135820338
Si	2.6287702062695475	8.178771323601556	10.7450260234932	14	-0.004999257184495925	-0.0038299184848925786	-0.015384980014702076
Si	3.9896886982523263	9.594295655117893	12.05977413459387	14	-0.01929717386983939	0.024329598312965228	0.027041343094125408
Si	2.416511472201896	5.348770988506267	13.419435935322515	14	-0.0030053650087210897	-0.019355795071138767	-0.019403103409029496
Si	3.7886392594903264	6.751814682917111	14.732251802228033	14	-0.009514632347739981	-0.0034270262812253743	0.024048319390941028
Si	16.08613640443217	8.130068026150235	13.422974856030397	14	0.011536806682036447	-0.005406777377739395	-0.010300876354641265
Si	1.1767269478163829	9.533769367279563	14.737560183289858	14	0.008127006806456063	0.015020140169773061	0.005335557760371293
Si	16.7056884483968	11.129638660794528	0.02462756733650961	14	0.016991920839794627	-0.054623646747609965	-0.02368965019878037
Si	1.81688579823966	12.508502443432187	1.3383647907832714	14	0.023355149396629107	0.15765503602083988	0.06926969109330149
Si	3.270361554495464	13.925117426684626	0.08468340987374598	14	0.09588371648321828	-0.14909891173645112	0.19749559850919446
Si	4.650114136906124	15.350355070005904	1.349316887619813	14	-0.06330961185066622	-0.04989872650077384	0.037135245470494745
Si	3.0511779958227816	11.0748081795601	2.7138540643926676	14	0.003112837211103279	-0.009158277150367456	-0.031179022885839708
Si	4.416148177613253	12.498276362527438	4.011516383520041	14	0.0027950485935329763	0.004225611593663368	0.014197129356793662
Si	0.503978772383064	13.837946679717206	2.7562429766434913	14	0.21291091756667432	-0.09243406447517559	0.0657141095460687
Si	1.8334978892350384	15.310429077272572	4.0281659147988975	14	-0.03567974274875892	-0.06851892833981825	-0.05415082047923474
Si	0.22484518066993125	11.01279404741312	5.418683392628709	14	-0.05056541411028825	0.01563180612543629	-0.048328295371227396
Si	1.5965936816083446	12.449690269441787	6.696783977557996	14	-0.005239912642461785	0.015701997300676333	0.004016580731135329
Si	3.0508328940794187	13.838127369780947	5.387345875357564	14	0.016044725639852073	0.005593182513450132	-0.003911679634073287
Si	4.4258500945493084	15.246321544927643	6.692328583824106	14	-0.007273656950698915	0.005718138232009328	0.02004356574427838
Si	2.8407798810601492	11.01308217481206	8.06918686953807	14	0.0029611419972145423	-0.02025696748585067	-0.006869222083839623
Si	4.200819340300399	12.427929325548968	9.38325779985931	14	-0.02089768693163157	0.024549684928369904	0.049168275479319776
Si	0.23404897905188812	13.798538339598919	8.067095097178534	14	0.006054953028948726	-0.022201494439478664	-0.023284444000325033
Si	1.6109316823420334	15.206094402088075	9.369069560259533	14	-0.00873327344094698	0.0070684827461510984	0.046095804621742814
Si	16.292510502640116	10.935737060500015	10.723325309621629	14	0.053154774278209374	-0.003229565392638002	0.02503125295483364
Si	1.3610747644703391	12.356501403864872	12.040196122011663	14	-0.04208102366433159	-0.024415730341190187	-0.02045751370082222
Si	2.833666227199316	13.77119228211422	10.767709951765674	14	0.028599175807603124	-0.01673069653926758	-0.05976457183524604
Si	4.2355036933468	15.196599220630354	12.046792123257452	14	0.015026053712009404	0.03742912280858767	-0.005995817606585321
Si	2.617767646442231	10.937154907756947	13.43906115521867	14	0.0007332792373062322	0.03991820986902303	-0.008563066268753177
Si	4.004062511431081	12.327164500002183	14.770973194536419	14	0.007746226108542134	-0.010615065424763358	0.0755205623476455
Si	16.238165117252493	13.68536938535201	13.389690444018393	14	-0.21657885641639754	-0.03359123389720264	-0.05769560338412289
Si	1.6785976694557903	14.867277742834075	14.440613155833224	14	0.1403962344488139	-0.1147245191587314	-0.11020785844282727
Si	6.0888546998556885	16.726571987385505	0.02075656759255959	14	0.05477148530351848	-0.012955028376630127	-0.019674355020305116
Si	6.804268520069886	1.3831873214601698	1.3302581554910633	14	-0.015073619160432141	0.008371776032934162	0.03232290764277359
Si	8.251420124094722	2.7691712693123103	0.019203609747425732	14	0.0006690016043025302	-0.010180805736190348	-0.019264777942805525
Si	9.614624101208074	4.172867726926402	1.3361965100183677	14	0.003982642140909374	0.010282107285804183	0.02224108946140894
Si	8.687194094849627	16.678090075958227	2.702625235026071	14	0.019743517753417098	-0.005869833445898065	-0.010894544573063455
Si	9.398517157134242	1.3337303348240512	4.020685997295344	14	0.005828695760775695	0.01922389736821517	0.025320759413882312
Si	5.439754133034801	2.7257877477916996	2.7036865856707535	14	0.04442458616364657	0.018526356494859	0.010089017276261061
Si	6.806946314257774	4.130867868056067	4.016953363816421	14	-0.00441818738214246	0.007067711414555055	0.019811137823336992
Si	5.880722536162686	16.630872994977143	5.387007284967849	14	0.02000679893820026	0.0420985071805086	0.005851064377060984
Si	6.592367910452896	1.2943333895746492	6.694290129110674	14	-0.0015434345236848919	-0.016653049158599106	0.020319702455662284
Si	8.039757178885894	2.683473716107832	5.3883909476181255	14	-0.0007222234844295954	-0.015549273644659536	-0.019140079334778348
Si	9.4180886583628	4.081744588294427	6.697106289563591	14	-0.0028624115529208563	0.010624835624979921	0.012716172692388368
Si	8.481563918796006	16.59725324825225	8.065358193592834	14	-0.0006970266522921441	-0.054747059802977074	-0.008126749695924047
Si	9.207503342182777	1.2491071549715527	9.368843290720253	14	-0.011608797631000593	-0.015861148719993497	0.005731765090206113
Si	5.221032880471153	2.6379967943892737	8.05935798120587	14	-0.0049820307788509335	-0.008034961235994762	-0.019322884923040875
Si	6.597003994250527	4.041240712924805	9.368055416928803	14	-0.005984247632644654	0.011586943235779332	0.01553024746529044
Si	5.689150372635874	16.556099865356202	10.725674280450274	14	-0.016925586322534804	-0.05170749909349802	0.01346539278267952
Si	6.401912444076777	1.2106120322024483	12.041530949509577	14	-0.014814451744161216	0.017345447821314985	-0.0056083520348390046
Si	7.843723110271545	2.5978233702173044	10.734795059073214	14	0.007650066769568594	-0.015557244071151997	-0.001983350643962228
Si	9.210220204492554	3.999891989419306	12.0499761751915	14	-0.005010055826840546	0.010378780845841751	0.005854921035041206
Si	8.280831908524364	16.508970687649374	13.421350273295133	14	-0.009685096630465798	-0.00921124191996251	-0.010425574962668447
Si	8.995031361283143	1.166530168003051	14.73339454479332	14	-0.007751882540246458	0.01574519187005482	0.005378495219217767
Si	5.047943194275211	2.5674593003165898	13.409525655069709	14	0.006532664397432239	-0.027636553975739685	0.008482333561700528
Si	6.4086582064564785	3.966781756117396	14.730996738812312	14	-0.02128952338242214	0.01058086972400539	0.008618859254200391
Si	5.669801885269773	5.5799012532852785	0.011709041698163369	14	0.002182097085209675	-0.013396230049567536	0.05749582850074739
Si	7.026248705134539	6.9703943135389075	1.3344596064326677	14	-0.002645153153368344	0.018256647546775466	-0.031081063773142063
Si	8.462137295186123	8.345255241521237	0.01620187571553177	14	0.004104255422552379	-0.025528761834282293	0.012924689333852378
Si	9.819596630543211	9.733176317083764	1.34267856257531	14	-0.0056620881360300995	0.013662853671266892	-0.05600330186240143
Si	8.252816809452295	5.517354817977544	2.7058744004966027	14	0.0004337454675089809	-0.010513763875149525	-0.019723463131919944
Si	9.62913953632868	6.914950137223122	4.017067312505268	14	-0.0018751071099839937	0.00974346072123316	0.01873564446791905
Si	5.652457266988954	8.300606889554432	2.707547818384231	14	-0.0005520163122357926	-0.018822290717208045	-0.015291648891580701
Si	7.020334768183417	9.710440297982103	4.015795970705425	14	-0.00685302412032269	0.015631291904372263	0.011589257230567467
Si	5.436345439399885	5.470403074657632	5.386331732026831	14	-0.0007960142071178453	-0.00787015338497327	-0.019441155767767684
Si	6.809523182464114	6.876816394581502	6.693808288940695	14	-0.007218121075783717	0.01158848589897142	0.012894607401606646
Si	8.258914692143984	8.260737871165524	5.3829376889376235	14	0.004052576205617402	-0.01174558043403247	-0.013244534835678801
Si	9.62893768436558	9.666229834548151	6.692392069522178	14	-0.0021371027421070833	0.018165116197378192	0.014858160534603733
Si	8.047344533724646	5.427831844504654	8.061962522665215	14	0.003924278050142013	-0.013312154905598695	-0.014463752978493019
Si	9.417032191233353	6.832529422742181	9.372978000286963	14	-0.0023260789831379674	0.011951268859644315	0.019153963303507143
Si	5.443293053742686	8.221386505391662	8.06555027852546	14	0.0069802938336700196	-0.016842025399629992	-0.015247425880074153
Si	6.809576901131712	9.628542119631444	9.377884305261	14	-0.012522825572313235	0.022630611917411378	0.021014672223698308
Si	5.231374537903161	5.385327355726572	10.739766477583736	14	0.006831169725101431	-0.014017666205447327	-0.013512701120570243
Si	6.600223858629642	6.79118558275192	12.050508478352253	14	-0.008694449750612745	0.012619756242882817	0.012452891507605207
Si	8.048685872576208	8.177151624381528	10.742662402118846	14	0.007056141440614388	-0.015620493262027638	-0.01940824561966979
Si	9.42009089960967	9.578549574157748	12.054770159315105	14	-0.004933179777768119	0.015171835383661802	0.0182450775728348
Si	7.847003204671905	5.34853983545175	13.418197150290915	14	0.009947863594184932	-0.013102352711474611	-0.007479602486842777
Si	9.21055228352862	6.747224178595017	14.735500967698567	14	-0.008471534919355907	0.01572102348004543	0.03693212815020305
Si	5.231037575351857	8.136221255347936	13.418276914373106	14	0.007668064506809631	0.002903292127511211	-0.010133497398299624
Si	6.610570399576885	9.530495784232851	14.727667809259588	14	-0.0009456525367504634	0.007230205270788413	0.050064048572859364
Si	5.87225940425823	11.11780101986181	0.0245152464860754	14	-0.023152032076337408	1.6197963516932897e-05	-0.0705547295323115
Si	7.236329391406814	12.535076905509555	1.327049685980834	14	-0.012911319586187608	0.01646792957554845	0.03033004390912681
Si	8.68080320124376	13.929465383083317	0.02144677107928575	14	0.012819016905194292	-0.023357977612481266	-0.024094856397235707
Si	10.051617322933636	15.332940454673365	1.3324150413870828	14	0.02009498785068134	0.012071082367563216	0.019318256933464607
Si	8.47039043593542	11.096785625961727	2.7083682489439247	14	0.021096433372879017	-0.018925649151077993	-0.02102007154487062
Si	9.851111582201272	12.505168630364226	4.00781630680936	14	0.005772131443732438	0.025364725314856843	0.00740066955351423
Si	5.873879103478259	13.878626361635334	2.701982238853295	14	0.011104603877719553	0.0023870141792254767	-0.009378106655240118
Si	7.24276749232663	15.287842819304823	4.012128450762987	14	-0.013700648919473068	0.005824324881731443	0.01327873053643677
Si	5.65153591044771	11.051665200855417	5.3853029381503905	14	0.007117590857765927	-0.014601564223652956	-0.015459027847922342
Si	7.023373942498789	12.454557506293936	6.694000373873322	14	-0.009391476402904888	0.018683965250984074	0.010631520498812308
Si	8.474220739719067	13.837562509851953	5.38287257540114	14	0.02323019367806991	-0.005531475985766577	-0.006556832787441631
Si	9.833215126698756	15.23810096094659	6.706757743508871	14	-0.00204814249802996	0.06963530226982653	0.0132028829294924
Si	8.260619038961442	11.00791867136891	8.064311493493861	14	0.006063951897569244	-0.017946058024101576	-0.016460216259588
Si	9.632632877561026	12.409453359571748	9.37514953672869	14	-0.0011076321719197923	0.018942361335658957	0.018134520044068427
Si	5.658055403288131	13.80012059853547	8.06551772175722	14	0.018056101331803912	-0.007299625114432411	-0.008766697810108904
Si	7.040852043529399	15.203870774817162	9.362537044711818	14	-0.009188359082613189	0.05284675586085564	0.016433219653726447
Si	5.439988541766143	10.975993504431	10.747568707092885	14	0.017798476578725075	-0.027447063513644773	-0.023916678798549446
Si	6.806557260877286	12.382449148153587	12.060674329235756	14	-0.030345727651579717	0.025814154524818732	0.032850498454467976
Si	8.26283778271712	13.755348530849346	10.742662402118846	14	-0.0012174183690901153	-0.00880603572150717	-0.023375204018126258
Si	9.636508760820211	15.156647182482429	12.049494335021523	14	-0.0069805509442020346	0.008871084686106917	0.012466261255269976
Si	8.048192637537346	10.924944491827858	13.418197150290915	14	-0.005872661661750227	-0.014989544016463298	-0.009446498056756058
Si	9.418046334564085	12.316067525546968	14.739201044409246	14	0.006338288835229045	0.017089879952492268	0.008121607485283752
Si	5.437704684473981	13.727543422932436	13.441634767748186	14	0.030818296809422933	-0.011731696465303669	-0.04182339891125276
Si	6.834215863337106	15.124510396550948	14.734455895438003	14	-0.04010152967834959	-0.0005103644060493937	0.008399543970391759
Si	11.497124810162259	16.721432901518536	0.01749437941473123	14	-0.015092388229269223	-0.02918975869964114	-0.010754933554179414
Si	12.19966731205206	1.4047496690667138	1.3105580550279503	14	0.030480453570355476	0.010128612298191342	0.10117916500059525
Si	13.638230440614706	2.806679922003688	0.02477244495518562	14	-0.042307280932504625	0.010573670629108975	-0.1586446544585649
Si	15.047293881473461	4.17934652380652	1.3165859406679195	14	-0.036859365869642856	0.005447400841797735	0.049102712293655995
Si	13.41743043839882	0.00434307288345612	2.7335443978253084	14	-0.06333300890907959	0.17697637828068868	0.0670130319538075
Si	14.862099588845217	1.3476809100156628	4.011773581989151	14	-0.07849018899241653	0.004394533213197096	-0.06187930596106786
Si	10.845004603086943	2.723427382094169	2.7099277181427066	14	0.0004502005415579286	-0.006859194773091045	-0.03666447608637564
Si	12.233218689563646	4.122510545648398	4.008701850905537	14	-0.01986076015601585	0.018248162899218975	0.026984521666550132
Si	11.266228954114588	16.638338261934987	5.414483569525516	14	0.040217486528288264	-0.07516497848186902	-0.03958319484580774
Si	12.018987015340542	1.2902654213828362	6.6933410993164255	14	-0.00844556675562241	0.0053921220774145505	-0.0024363794013723197
Si	13.473242506195739	2.6761158864851855	5.3772597885562545	14	0.02504565114462647	-0.0019080172580818895	-0.007049713677314018
Si	14.841596964044943	4.083159179874533	6.687196009310786	14	-0.013083583642637531	0.004067488616474261	0.012600987174045735
Si	13.90768327729114	16.59136535671572	8.067979013436299	14	0.006809058219348158	-0.00402249427337167	-0.028860142997598155
Si	14.62806851601586	1.2529293195631401	9.372978000286963	14	-0.021457673670359823	0.013512701120570243	0.004421015597994621
Si	10.660376798226109	2.6365105779190356	8.066354430701033	14	0.012288083656583713	-0.00862528701750076	-0.009334397864797603
Si	12.032203435408302	4.039428928772148	9.37666179861352	14	-0.008357634953673346	0.013002079603988836	0.014909325530474677
Si	11.086929064376523	16.542012551737976	10.740442030524754	14	-0.0006736295938787968	0.047340476707226506	-0.0297464030014532
Si	11.798385609410929	1.2135030732223202	12.040822839800317	14	-0.04856046618163677	-0.06685465186608638	-0.0502609952403827
Si	13.26819184061682	2.5929724117492765	10.753262885858375	14	-0.020930339969197454	0.012131503342586697	-0.042843099281223485
Si	14.639176885339964	3.9807193086017105	12.084305659464066	14	0.026280810140425607	0.01158514346205523	0.004850647296991366
Si	13.667010623740458	16.498156957077857	13.393841431969223	14	-0.0022664293397105318	0.13500128415554719	-0.03922426854311506
Si	14.314091043091942	1.2098192748957606	14.695944494284777	14	0.06753162389688139	-0.340941163867704	0.30411496525669107
Si	10.444014283521577	2.5510995242750854	13.424068763443323	14	-0.03521283002262003	0.019824250460469747	-0.037493914662655406
Si	11.800148558411223	3.974507477221175	14.725431159281376	14	-0.04550033662959653	0.06134143072809287	0.0822576296180295
Si	11.059493475779158	5.560285800419593	0.024557570284789738	14	0.0004345167991050254	-0.00041471928813988513	-0.07049533699941607
Si	12.440074627941572	6.957588108750995	1.3308946403101904	14	0.001069322702649586	0.0032835586043611117	0.015273136933275632
Si	13.888858953893733	8.341617022670215	0.02070122108654853	14	0.005256367716510732	0.0018396258565659507	-0.015751105412291164
Si	15.258076166101345	9.744569558129983	1.3350472560994322	14	-0.012925460665448424	0.02306487160598439	0.0255184774130017
Si	13.681379553403977	5.512757802301802	2.701192737223432	14	0.02023177065371322	-0.025647289789541117	-0.014350110123342473
Si	15.051518122152833	6.915309889512194	4.014412308055149	14	-0.011639650894842368	-0.0010523534075366089	-0.0009163419361007752
Si	11.076857628120921	8.29925090015716	2.7064864677395484	14	-0.0007633611695519645	-0.0009399961050461378	-0.020611780020031105
Si	12.448519853623495	9.712086042616727	4.010326433640803	14	0.007419181511819296	0.023424826350805117	0.010085674839344869
Si	10.865686290112547	5.46371103094553	5.383870440347752	14	0.005854149703445161	-0.011257070423204334	-0.01697829398159784
Si	12.23316659873446	6.870557355887016	6.693518533703344	14	-0.008552781847472584	0.011919130043142465	0.012338991541922646
Si	13.678525952667583	8.255348098183095	5.381698903906024	14	0.018227851167189807	-0.003150118238245427	-0.010131440514043506
Si	15.044498882919902	9.640304879997206	6.713288631218177	14	0.04226999990536248	0.012953999934502067	0.02026982301245141
Si	13.475217074189603	5.423151809069895	8.06037049669819	14	0.011206162537865402	-0.01353326996313143	-0.012943201292157445
Si	14.84682069750934	6.812848856340013	9.380523031326998	14	0.0032704459672283567	0.00830492729461031	0.02075936146540761
Si	10.865210961296215	8.2165176407011	8.061127441559812	14	0.0059490234897586255	-0.012394527416837844	-0.016335774762092834
Si	12.23585415995282	9.62045501840018	9.371498295170372	14	-0.00028436424840837753	0.014639359471859131	0.015744163427926762
Si	10.657529708843361	5.382188883268062	10.73913813195667	14	0.011808572514376099	-0.009819565438709543	-0.007255659213457878
Si	12.026864125416646	6.78465143936579	12.048594140379635	14	-0.004396075876389185	0.010859320430177427	0.006166281889311138
Si	13.472514862425534	8.163331276262882	10.733509066727663	14	0.0016799602161847547	-0.01596296449067136	-0.0021720697744610972
Si	14.843506418502326	9.560853342779916	12.041836983131049	14	-0.015879660678298567	0.020947052153778414	-0.004823393580597797
Si	13.265878682233241	5.3456178655020485	13.425983101415941	14	-0.021246585923575666	-0.003831718258616682	-0.029561540528934553
Si	14.639303856736108	6.746905122266248	14.734535659520194	14	-0.015804584402950243	0.003847402001069586	0.01242203824376343
Si	10.656017446958531	8.1231562242525	13.419499421020586	14	0.012415867590995073	-0.015618950598835552	-0.014236210157659912
Si	12.019841630506889	9.519027662619678	14.735710958853725	14	-0.008536326773423636	0.025382980162629895	0.005358954818784642
Si	11.249963592700986	11.099098784345308	0.017901339017753728	14	0.040376123726541396	0.011373284383675027	0.06429614496200704
Si	12.626973267387273	12.51129255847051	1.298057883861511	14	-0.06435759437915858	-0.04027687906118369	-0.03778393534276811
Si	13.416966504451374	13.605644371281489	16.01984431293822	14	-0.03230979500564084	-0.06312629204133967	-0.16470834924560215
Si	15.126524032666705	14.99731435870706	1.6377063685440898	14	-0.15954839797859693	-0.18293671463385597	0.05158100071174673
Si	13.899814306407096	11.103253027972961	2.6988128374649563	14	0.02520634522713572	0.03323770691568227	-0.04538900776923411
Si	15.29763752303037	12.473302065609152	4.04097211958681	14	0.03956134045058648	-0.011128258046664915	0.058164830105049914
Si	11.307859293665377	13.893801071312838	2.6945495286636922	14	-0.014661213867080393	-0.013092068290194018	-0.01179803098256349
Si	12.642304249552335	15.32954803942257	4.030692320014461	14	-0.0014701580220606715	0.05374844249663156	0.030916255922120578
Si	11.078884286943975	11.052047742882259	5.381296827818238	14	0.009993115047819539	-0.006475585859324952	-0.018729473815150697
Si	12.454765869610684	12.460770965512884	6.682498067653494	14	0.00562840665633616	0.02683514044744953	0.008555610063324748
Si	13.906384262238292	13.853227198891494	5.366786276212867	14	0.00626475522307281	-0.0045588268431545585	0.007027859282092759
Si	15.271583969244869	15.244814166558047	6.698537159527817	14	-0.018279787494656797	0.008977528446361047	-0.007332535262530307
Si	13.681475595870289	11.008166102807548	8.061368361644801	14	0.012600472952981707	-0.01239478452736986	-0.03140296615922461
Si	15.062548355233154	12.403793365412909	9.368875847488495	14	-0.015733364785582137	0.01873333047313092	0.019388448108704652
Si	11.083762918665007	13.792832765964544	8.064650083883574	14	-0.0013796551147914591	-0.0027348847290415115	-0.031928757197194894
Si	12.455096320808337	15.20046696469748	9.370082075751853	14	-0.007233547707704606	0.007593245341993321	0.01112054473070447
Si	10.868448731897862	10.960848095844916	10.74377258791589	14	0.007571133836240048	-0.012307624057016839	-0.01518469091026254
Si	12.241073009901982	12.365342194280933	12.051843305850168	14	-0.009881271966393096	0.005757219032875579	0.015720766369513414
Si	13.691309367717725	13.747580485946854	10.736260113644095	14	0.0014652729219523904	0.0031112945479111905	-0.022305109983880633
Si	15.048798004166231	15.173273924023517	12.033005959745461	14	-0.014825507497037854	-0.04759758723924131	0.0419596674932206
Si	13.464229164907994	10.893463724776451	13.409654254304266	14	0.030201488643119407	-0.014712121752419323	-0.015427917473548547
Si	14.841990900940669	12.28007764609407	14.714106287448466	14	-0.07163613642996579	0.15033972716395458	-0.012026602245524655
Si	10.862417590581071	13.70007527756683	13.420883083670862	14	0.0007970426492459045	0.010851350003684968	-0.03238178595460498
H	0.9401483078721069	0.5611191563242471	0.3220515514478856	1	-0.07187833455112372	0.1464038791398719	0.15923986534017917
H	14.92586853080043	0.23706699146790297	15.685108644583329	1	0.11656465923636138	0.12900289544364174	-0.2255599844102068
H	14.196072758215417	14.13343841963343	2.4911478633962227	1	-0.12722986121486762	-0.09629072245539771	0.14021831396065967
H	2.5596928832525085	13.991028603990149	13.548274462124201	1	0.11810732242845023	-0.07387351227955864	-0.13743097868308715
