226
config_type=amorph dft_energy=-23262.264896904475 dft_virial="33.40995496421069 -2.8723308662789204 -1.6252404341410136 -2.87233086627892 34.065683159173524 4.791240982826602 -1.6252404341410136 4.791240982826602 43.00048267458736" pbc="T T T" Lattice="16.3836903439 0.0 0.0 -0.0220524472028894 16.388998659571424 0.0 -0.27467256861548345 0.07864171365072 16.31756576967202" Properties=species:S:1:pos:R:3:Z:I:1:dft_force:R:3
Si	1.1929603903317	1.390550972617203	7.765072975657887	14	0.05859137647766248	0.03342025539341279	-0.010000314142715953
Si	16.03983436606933	12.49865042818651	6.9467141964562185	14	0.013023933999210096	0.01022040075812063	-0.17727822604527407
Si	4.756042768728178	0.06301822653877695	4.197008317027828	14	0.0032113105448649507	0.005323473565366597	0.0725586490188349
Si	5.306007209454145	1.3741279614164774	11.806772100070715	14	-0.07787055261026085	-0.007079281388495721	-0.00990235503001831
Si	10.689356905914739	10.657269448376208	2.625153788695994	14	-0.015074904713092217	0.03749468599425145	0.08874709944608326
Si	10.863853038291479	11.637351634962513	8.210037621707865	14	0.011698529206673759	0.08315006027465291	-0.10872021690458959
Si	-0.15863508175481175	13.341994335162623	13.05095282152455	14	0.08008941650154863	0.2836852194933264	-0.00929531706393135
Si	11.000896054542066	3.5004655522711263	14.689220277034417	14	0.09479613893279563	-0.0693776775167477	0.12369896227870827
Si	8.520926337828541	12.377486484617231	5.487515561298075	14	0.08345113670764225	0.03940193192073729	-0.032073767537251247
Si	14.660982986726706	10.032302111624903	12.094956298112812	14	-0.027755853262594554	0.03448109344850589	0.04233196354357805
Si	9.938905246450465	2.749494529822954	0.35262452890272533	14	-0.22985141630006595	0.12123712893466648	-0.22368282041596668
Si	9.776949190662947	6.6633975928152935	7.9870572344964215	14	-0.1990881411444942	-0.11755736300047054	-0.1594710077084605
Si	2.565728505449634	0.5222465134021564	3.4268192258062613	14	-0.07622350254217397	0.0514953829045858	0.0748677587068599
Si	7.119994659009444	10.839644497439332	13.65357771975388	14	0.09975554398482928	-0.10092745378975276	-0.04227797033185494
Si	6.975841121149604	4.645028521326945	11.850503446336653	14	-0.03822256591038537	-0.10111565869918762	-0.17337425972716122
Si	14.769857524169025	11.050273220500511	8.310454898194664	14	-0.11394573135725854	0.0827592522659904	-0.16413473564867712
Si	10.296779109739377	8.68256455002339	12.886277073139942	14	-0.016910416801145932	0.09018074777259782	0.03294897178822965
Si	8.647385490116967	5.928692298140546	12.703194248653963	14	-0.018767269063356875	0.02222000639778373	0.1443945603321762
Si	13.885687099224945	15.893924496604624	12.707337683941935	14	0.12120781833401678	-0.0594197866118142	0.07790603386367888
Si	4.274281992534833	4.135538349226549	14.583597902125362	14	0.021792945804107136	-0.1069078447644172	-0.1172146346612948
Si	5.864835226656161	7.284508208859646	14.010083544899075	14	0.06816822957415004	0.05987332959028832	0.08919035800327679
Si	3.8165200459572324	4.178050748930902	5.976096867781585	14	0.009465267125593138	-0.12604766698866351	-0.007587588910288997
Si	1.6352282809510743	15.699341959866262	6.834923362132686	14	0.0627308560431009	-0.020680685642611073	-0.049572710346179064
Si	1.4392842595451334	1.7355112111770519	16.07516907103402	14	-0.02706525437360278	0.03443044267369897	-0.08747131698622578
Si	7.543524522982498	12.041185026404133	10.05170367773015	14	0.029003867784994433	-0.008481819340636498	0.191775146282397
Si	4.83817093168408	14.097670753477564	4.5173389538936926	14	0.07153432065928791	-0.07289520670524229	0.14611462979135525
Si	2.625283219849711	13.172052868701487	4.588858677351919	14	-0.08925900651532474	-0.12504467880327375	0.049329226672361046
Si	6.262331406672759	1.0956625684863812	2.712061074125211	14	-0.0678424705300873	-0.23581663775334152	0.062046427806877476
Si	8.10530324281545	6.120573164341199	0.6404155183765695	14	0.019362222834439138	-0.17671541109069366	0.019468923705225284
Si	1.640087683507075	11.633390058637358	6.146811644426954	14	-0.06826027514461135	0.01897012927311656	-0.20127538044034415
Si	5.032186592736544	5.497920843035486	12.787621043365114	14	-0.020477054101255346	-0.07512589768100277	0.035183005200906316
Si	2.72881012076378	0.7316775886991957	9.399195357510747	14	0.11001939642286042	-0.08844705145522198	0.08398155573518878
Si	2.5152110346432526	4.252547388924615	10.43637306657651	14	0.11618876363855572	-0.02455816957592639	0.02390562304567281
Si	10.137375632907437	5.797190245964266	3.984325079197525	14	0.02814537571859699	0.12796108356791774	0.002599130368137693
Si	2.1970381297956805	8.718359636686742	1.340849409589948	14	0.1430750690818762	0.09026585135869472	-0.016632480316037923
Si	12.712935990932445	3.527983598572741	5.979915906000748	14	0.11982559211390519	-0.08372084565572578	-0.04290994801954733
Si	5.03926107022704	0.057664036534390437	0.9778916871873249	14	-0.02320782506178462	-0.049543399745529376	-0.14294574248427275
Si	5.711618231298076	13.649899581271674	10.348405756382041	14	0.06925683556670074	-0.0847215198463274	-0.17971074878866616
Si	11.121594701305575	14.475958694934976	5.928107400395268	14	0.3258711442547201	0.075216914809336	0.3290703706045804
Si	16.033472579108793	10.293451582230531	10.178621573348206	14	-0.046008901261921815	-0.022481487808842786	0.027292282973371856
Si	1.0775585906563718	14.934695471088038	14.17363537212609	14	-0.43129417569675177	0.17647167030634361	-0.2548834405864956
Si	5.279147787504355	6.992205151065091	3.1091656839425905	14	-0.012672721012477866	0.04285338370250408	-0.03193801317634742
Si	2.100095834030824	8.043798869264451	4.781209755465443	14	-0.1318275117483564	-0.2589570998557383	0.05547828215602718
Si	10.53467193190184	13.75640339872123	14.672250050576206	14	-0.01039317903563458	0.03773791255753746	0.04694761181430788
Si	15.496125218316664	15.124528375995704	3.954023443906482	14	0.12955876841385774	0.055483424366667485	-0.1927591082884177
Si	6.436183660018985	15.850938608249335	10.895140971741226	14	-0.1037425570047829	-0.022712630177124098	0.1883532622118119
Si	12.015657598479303	8.886708608446451	6.017249421187394	14	-0.15833766448333922	0.09105620913410824	-0.090791642396665
Si	13.832556429808712	12.756125037048001	1.7677313766073657	14	0.31476551193487246	-0.21692904096100174	0.07376629718770847
Si	13.259253422187859	7.64418591645542	4.553351943638619	14	0.017868924864497135	0.2423305330819367	-0.4020802486071012
Si	0.5803217805641787	3.2081805165359505	1.071850512940557	14	0.010325816076246701	0.027104592285001047	-0.005979619643068388
Si	3.822138013376156	15.77185125822126	7.845764288970628	14	-0.012415610480463057	-0.008519871699374688	0.13275748054265396
Si	10.092848039290786	3.288103434771563	9.08614399426468	14	0.014756344763925868	-0.024850247140295215	-0.09993577846777164
Si	10.876276790679258	1.3672156824603863	13.721850195785944	14	-0.06995823309803714	0.008093068216230109	0.190611464014498
Si	7.701610751110789	16.31471500755218	6.896145936209772	14	-0.1275407078480735	0.16602089851153773	-0.15178751656973
Si	3.846435026156159	5.316830275295325	0.08407454536875723	14	-0.1410423532157671	0.04268343364084229	0.011189707463816456
Si	15.50918957299689	6.442928825333569	10.982294012525601	14	-0.08005624924291872	-0.020739563954442465	-0.04967709722217708
Si	-0.09483699155566515	0.3604805084226253	15.085689199666453	14	0.014920124172819302	0.11986570135689949	0.0042184124987669535
Si	11.998607091938405	7.045930548440809	13.02652637759083	14	-0.017433893844328082	-0.10760512852724136	-0.05734953260803096
Si	1.4657504729266697	8.18706441110765	13.859961428646953	14	0.044401189105233226	-0.08559055344453746	-0.011213361632761817
Si	9.182981434411333	1.471335672964905	10.176614571281078	14	0.10400583818956606	0.03914687827297861	0.04415616276822311
Si	7.883623720617312	4.826087960055454	4.262180998846828	14	0.012512284040500626	0.020695083832403902	0.11891593505163678
Si	11.217545783804626	2.552416757045215	2.4544717794313122	14	0.15002270987798033	-0.00663859393662234	-0.11058066871424872
Si	1.482278339745596	2.6122811231927914	3.242479772270905	14	0.04177840456815017	0.024692895494702154	0.18838771502310192
Si	5.6479741477881635	13.245147064801762	6.598644333469097	14	-0.10755704885775459	-0.11875858340604373	0.13984216125232202
Si	12.716093128061715	8.262837340579152	9.542154524344516	14	0.03933842561932964	0.1036728800506069	0.12202517271529187
Si	12.090594959743267	0.411104473216242	8.190472218699181	14	0.33828135541401083	0.11498625768032246	0.4347584830051193
Si	1.3805896888881117	11.911742404104082	10.159790159666926	14	-0.14782081528180552	-0.03126181247714848	-0.16990378176602536
Si	7.350708148063208	15.887198991718455	14.892799098140616	14	-0.12619113466552778	0.18237518523193563	-0.10514458073585965
Si	6.853961210312298	13.735214371999463	15.591142430466112	14	-0.07566737246142595	-0.21997605787590918	0.133157287419937
Si	4.7734029270165745	6.2551635421473035	6.749010566707343	14	0.012896150064798733	0.08622767334287015	0.11965821315756354
Si	13.824223684899804	9.04160984717189	7.648255625136845	14	-0.12585174876326824	-0.11085372009924846	0.018767269063356875
Si	4.101558575453302	12.435484748434636	0.674831098312966	14	-0.41706259352866804	-0.22669692718277626	0.22007735942552306
Si	8.55431629874941	13.762935576061343	3.5705943004191556	14	-0.01903235002186414	-0.07749542834405124	0.03793665899878491
Si	10.828131678234673	16.034391704137086	15.342462586581226	14	0.007752910982374518	-0.14521988513994372	0.07581084013829022
Si	6.560278645790787	6.719287275685439	5.035992524003432	14	-0.07598438974740021	-0.14161853791801232	0.03845190850494258
Si	8.38135859489596	7.99104993983323	11.611645624812935	14	0.03012538392564303	0.09514375237207966	0.08179971576051112
Si	12.721332632233695	6.635542042492595	15.232074196151132	14	-0.12528430581911157	0.1546165037534889	-0.007275199613891004
Si	7.910569976125925	13.963137718587664	7.10647975284476	14	0.2927504226311045	0.10704925555702535	-0.05710990559219316
Si	13.296323159959968	11.295204476034712	16.2778992169804	14	-0.11277742109978324	-0.06847599088097178	0.06976899974647424
Si	5.4626942704270665	12.40677888458309	14.119836248143827	14	0.10646844286520389	-0.01777199419392755	-0.131143340622665
Si	14.767757135066937	7.606845847792638	15.703373986059896	14	0.013820976648456	-0.06548939494108777	-0.06394210375942265
Si	2.520946964632652	8.004545185569501	11.711754887921268	14	-0.04775031089525811	0.06827544466600022	0.03929625949207921
Si	5.605555135118771	2.764906667329461	6.529996670928157	14	0.06087760332833816	-0.021717098197162762	0.03860823170840758
Si	15.229457720803211	9.966647749309793	15.839461833163432	14	0.03134794450537344	0.06437662055852768	0.08365785357538215
Si	5.677882574510952	14.21004484717734	0.9895765351405943	14	0.006886962710548644	0.09563534770929197	0.3548549574182173
Si	2.885613505938144	9.054474320829918	15.534340176043811	14	0.09532732929193823	0.07830558363042989	-0.055005455887651954
Si	5.722102154749138	11.250237799516844	2.1180851260284266	14	0.2000674751609386	-0.08747183120728981	0.01849447478888916
Si	9.254809171248025	13.19288964608086	8.960122286508433	14	0.017288883504271726	-0.00528079321705214	0.07460164930622458
Si	14.579395485552151	15.039064493685784	10.620566705267805	14	-0.06574547703097451	0.06223797515322851	0.3208888563653371
Si	3.630437367769285	8.657076442955384	3.2002344267191587	14	-0.19671706781825365	0.09039877750374638	-0.03194058428166757
Si	15.2842251208848	4.814961795942912	9.2176624301313	14	-0.03808809710214162	0.0064419043796310116	0.007043800135077678
Si	14.694132107399518	13.34224336725585	5.250063460405864	14	0.05660391206518802	-0.06615171167155791	0.10785941084340399
Si	10.958319758445372	16.42085838381417	10.155759771842327	14	-0.15810420812026976	0.07419104378659692	0.049653957274295744
Si	12.829686168323077	13.383962796347557	10.741022873414225	14	-0.14523428332973656	0.026418621385585546	-0.21293739995147182
Si	14.496903604670617	1.9902481053820777	5.754438644380893	14	-0.11633248842595201	0.2178520677709349	-0.04653752051574426
Si	5.8912031378956335	2.827967491463132	8.82096741257252	14	-0.2654278006149549	0.004698694972570614	0.10233564817359786
Si	14.600502593822199	15.476905511174234	16.142006335791958	14	0.1516633321827668	0.06115502559238214	-0.16211796063555295
Si	10.081744812344724	12.899039967917838	1.9829114888460795	14	-0.08806472809411596	-0.14921178326000561	-0.09386796991222218
Si	8.419827499823437	0.152532157101709	2.290366183470672	14	-0.136664789297683	-0.03151609479331113	0.24055338508465032
Si	8.64893211048543	11.748578870338216	12.106166019046109	14	-0.07390847931191265	-0.05748194453201858	0.079765971452274
Si	14.647627002358359	6.337488309387332	5.882514866906264	14	0.2750259938855997	0.07515726516590857	-0.31269962881013347
Si	11.895941973136424	10.750024072889165	4.606417078293476	14	0.22825321723306188	-0.04536123983177652	-0.05557341305287267
Si	9.539023601119798	8.669703353103428	15.073727467346373	14	-0.019085571901991207	0.0916141389885804	0.05656663103804587
Si	4.348921170634538	10.73651572020062	3.904842882232163	14	0.01106809418217345	0.12729439595840333	-0.2740188919316977
Si	7.323694719424186	9.73508066998911	1.3129856674220772	14	-0.08152177927540312	0.02432445610232493	-0.11160062619475147
Si	3.0148742692753774	4.3156311502247675	3.7611824934516758	14	-0.05334760717722047	0.04719495214610612	0.10295142789777333
Si	10.873547267867965	9.745967632222632	9.581480296276977	14	0.11326130312103512	-0.1401473514538236	0.10379372200065386
Si	10.742058322643961	10.626910470168962	11.748208598936444	14	0.05022140021845242	0.10040089142018643	-0.11695623857661992
Si	6.393487762982782	13.300384676796222	2.961050569757597	14	0.17735921586285874	0.15034666914831898	-0.025856577762601172
Si	0.20458969480041683	1.5749068098429033	11.500703465649215	14	-0.0766891297156528	-0.12257256103795137	-0.03158602885801915
Si	4.040817681872327	2.4797714740603625	10.14830355436682	14	-0.007018346192408211	-0.08353804006746325	-0.021822513515288838
Si	8.234622987437923	10.494913630544298	15.699784319505547	14	0.010693998358091907	-0.01093979602669806	-0.05869216380621229
Si	8.533494266691347	4.691864576913053	8.098718637666238	14	-0.03135385804760978	-0.005576470328869168	-0.14153626254776758
Si	3.7138713108455956	6.1379595365341455	10.978198089939625	14	-0.10512658299861863	-0.037291825784491764	-0.040371495736965135
Si	1.9888374696434679	12.201250404325966	1.6299183269106163	14	0.4987532944236049	-0.023501188178813515	-0.02477979885452316
Si	12.987197328920297	12.518027418756239	8.61081217816228	14	0.06335846285174904	-0.053953359590647364	0.2611307122933914
Si	15.040031131416074	2.5948505150359162	9.94691195592153	14	-0.05711247669751331	-0.009004267941690586	0.12082189542546255
Si	10.737724836547999	12.16949225896335	5.970303594875983	14	0.06423752376070767	-0.03453482954969698	0.05232584992299363
Si	6.317175810098965	8.979964573883931	12.520060634727917	14	-0.015957050948435025	0.0772257193959677	0.08738569917906486
Si	7.504347842632165	10.379411890357872	6.308551435501936	14	0.11637516877426646	-0.0549175240857029	-0.03198120774572591
Si	1.4073131262080472	6.026997716942015	3.8894061691901403	14	0.002224520322992118	0.04548439577661161	-0.05183656858056945
Si	9.444845233915956	13.870168467731203	12.616596614972245	14	-0.03186525089578723	0.09348050434047588	-0.10481625058647673
Si	7.009352321379017	2.631091238076623	12.902968776862307	14	-0.028156174360941612	-0.1244201573210098	0.11766637786604482
Si	11.397731971837803	7.743988804554321	0.2840309325399192	14	-0.03559052539414979	-0.24253185062850427	-0.007705859755015808
Si	4.520310955322076	7.480093427447056	15.859875911331931	14	-0.09135008647220118	0.0649674605610977	0.002259487355346132
Si	0.359361502372137	14.07252670390678	10.583606738221	14	0.09793185898124823	0.08674420840168791	0.07292066064791175
Si	3.0945022810848	7.878993689726126	6.832328185582212	14	-0.13694915354609138	0.1369913196733418	-0.09592665394206475
Si	15.241394877587776	1.4306123722461073	7.929553758127401	14	-0.1049337500996075	0.14174349363657152	-0.09189001858943226
Si	14.247968175216364	14.108906688315411	14.242119197763593	14	-0.026855195068946687	-0.11175514962449237	-0.04535944005805241
Si	1.1436798881462835	4.893629723498181	8.55123780333379	14	-0.13935210857830177	-0.026365913726522503	-0.025960193307003138
Si	15.003469288044625	6.9443467532015255	1.6225866254817212	14	0.15328441408712018	-0.012467546807930049	0.04102738470413491
Si	7.187102254658058	0.7978988267002052	9.065159763672211	14	-0.2440220632720621	-0.06979573924180378	-0.3168457932494043
Si	10.764726796603782	5.020736031555192	12.702083434448646	14	0.10968540984177318	0.055866004838305526	0.04285518347622818
Si	0.57998263817406	10.343683976824929	1.3603804068489112	14	-0.24088531478148142	0.12884940045602888	0.13958582205190323
Si	12.823185119994617	11.596936347622181	12.294503093025376	14	0.08415819067068296	-0.020496851612220483	0.014284804048210713
Si	14.126109563176506	4.960375239590196	2.601836520598555	14	-0.02755504993709099	0.07871824603431365	0.20176594733542844
Si	10.1211901852167	7.4241758923033245	5.807356325822656	14	0.0162848668767539	0.257390525384172	0.10163707885811363
Si	11.10032375613209	2.282970585649436	7.182486969088181	14	-0.03559695315745015	0.11013329638854297	0.057621812661434645
Si	15.727957713420919	5.042198665905701	4.331416835871115	14	-0.07396684340268	0.08730830890892839	-0.062362673761255684
Si	12.228032822931139	0.8999020444122922	11.911986521090206	14	-0.03327755904814457	-0.05629512231623823	-0.0772187774116033
Si	6.243010120650198	2.999609584981966	15.105857522479795	14	0.1664790694795881	0.147847297666603	-0.05733770552355828
Si	1.6825214414977763	3.4519255928892543	6.7968542192496	14	0.05080067024708179	0.035630634637144096	-0.04944518352229972
Si	8.962086690980668	8.447643729289311	9.366414869870672	14	0.052916947036095674	-0.15502350972566833	-0.018267703299652098
Si	12.038668491567309	4.363168427757594	3.7835871899969593	14	-0.06715290008322357	0.2164600713506067	-0.04740655411395431
Si	10.1030010121969	0.9014961774827537	3.742842590480714	14	0.15083620760127517	-0.011150369552418188	0.004274719705278196
Si	0.09922782056783035	3.0341136368462194	5.0712059896595765	14	0.1267660338151129	0.035113071136198284	0.06454425662540132
Si	15.834461530870474	8.06462745479865	6.848597190093705	14	0.043211024452536675	-0.008086126231865708	0.13573430628232142
Si	4.678112107238383	4.871244687381311	2.260261152463756	14	0.030492794875892192	-0.0789653292555799	-0.02301190683638934
Si	13.17565564220811	2.9640274862930838	11.317130768821954	14	0.055031681161917465	0.022369644727416347	0.006027956423087171
Si	1.3457284725743612	3.467803027201527	12.298566248230665	14	-0.14406648729332533	-0.02507727574006429	0.1074148667335504
Si	1.3741525369519934	15.253361525014961	4.56940796017564	14	-0.15761878343582583	-0.07596227824164693	-0.13644367424015028
Si	12.550491701172676	12.532946407183394	14.427145127924359	14	0.009913410782894948	0.13106055103135622	-0.011238815575431282
Si	5.3016671698820454	10.953899438790588	6.009939018555945	14	-0.0538620853517821	0.15323324909124925	-0.04015886532698889
Si	14.547532484571336	3.294643803956848	1.002676933939577	14	-0.030875632458062234	-0.028347721707292647	-0.1171295310751979
Si	14.291163774808057	3.5647060021095585	13.334747828923517	14	-0.17652232108115054	0.03216118511813627	0.06589562958167117
Si	1.4861579976190313	14.35873666726244	1.0021297186820906	14	0.2740397178847909	0.10787638013851698	-0.4115534861591868
Si	8.949638363057373	9.071256134849175	2.8561294167952616	14	-0.07650246746941004	0.0635124720604259	-0.012006804734559515
Si	9.84436643805906	7.028726035210679	1.9611424794861394	14	0.1408975999862428	0.008014906614497608	0.030701825738420223
Si	7.357338627545384	10.025733890166034	8.715425317746151	14	-0.11513949555740328	0.1310664645735926	0.026922558028334563
Si	5.529895253110641	0.7989342759299396	15.249598191342967	14	-0.2173872119290521	0.191879533158395	0.04599887395117324
Si	13.925404441356626	11.69530893955406	3.844532879707233	14	-0.3900364199559316	0.05972112015533555	0.029182045383680695
Si	1.2625599452816219	7.2212753559773635	8.153056785060816	14	0.07493049367667151	0.049027636018307674	-0.02517266374744178
Si	2.976860830939461	15.200830498665315	12.893700523234763	14	0.191653275890222	0.16479011039478283	-0.018935419351294558
Si	8.042394787001978	6.879726201747115	14.763743130932681	14	0.08727179921338228	-0.03057429891454088	-0.14812729103596717
Si	8.949815306913086	12.702358680446423	16.113646167806667	14	-0.04220289405650662	0.0743468527689979	-0.0668183992810723
Si	11.763270125469592	15.634113573500093	4.0259838886349595	14	0.1647317463040155	0.06192764274108663	0.03609034826838657
Si	13.738032366738615	7.871326122645181	11.610944402866217	14	-0.06101567168403012	-0.04094768043921032	0.007554164541127071
Si	8.175156744965703	8.507585098781504	5.0621818530181555	14	0.054991571918923156	0.011735553123283891	0.08961921837067749
Si	14.281857838692721	15.725955626460895	8.211929937942587	14	0.21103143957764603	0.3363010900964328	0.4515226039135488
Si	7.983854223034189	15.665355632616876	12.668224899983942	14	0.009406388813761747	0.050339671063179235	-0.12881443342367488
Si	5.168874082906667	6.596894555340369	9.11683719975494	14	0.1876233254114219	-0.07882006180499151	0.015929540121509437
Si	9.23065305820498	0.4272538767882242	0.06024774450162347	14	0.04530750373058542	-0.1262829231254571	-0.040649689332605154
Si	15.614403994016381	14.305992652938322	1.7291068266216214	14	-0.1568250832234961	0.030063163176895443	0.005081018333676634
Si	3.958370036954719	0.7631785101234122	13.572919173821825	14	0.0065033537967825504	0.09558109738703685	-0.026156625753462455
Si	11.52983694381874	4.454338749414294	10.520115023031286	14	0.014492549358078676	-0.2538583408953526	0.14565825859702897
Si	7.857935732527111	3.4583856819918535	6.137656438262783	14	-0.03743117969284379	0.0510683223109092	0.007348990336579254
Si	5.3056287462072005	9.000637514359862	9.290750072755438	14	0.14806764139253972	-0.0762777528644291	0.011093033903778887
Si	13.22044045976316	14.111911457124481	6.850229005651958	14	-0.25113116948227154	-0.2591519896390055	-0.8454298229289633
Si	15.193721615425096	1.358068668141387	13.348798481762445	14	-0.008234993229902282	0.08581886759696661	-0.04631100613703921
Si	3.987061155484956	9.885928583723466	7.6188354323863035	14	-0.17212624520476136	0.027684890755758466	0.0481269778246598
Si	0.07858437073451635	14.461016769341338	8.13965984146661	14	-0.1127504244939217	-0.07427794714641793	0.007262086976758249
Si	4.281410536203463	9.55335605343264	11.36866075169159	14	0.08071728042072879	-0.028652140577198178	-0.046276296215217214
Si	11.899163006658036	6.164556819438433	8.900139957790381	14	-0.022032058598880903	0.06775351028601016	0.11679040228347037
Si	6.734671560918362	4.886591290126442	9.552939907697906	14	0.24353535303495802	-0.048375346598586104	0.10796071239301783
Si	1.6154318679085398	16.017967054567325	11.128025299765556	14	-0.1529897654174312	-0.045477710902779224	-0.05643987554576257
Si	8.907895996799185	1.4101032686736132	12.475660833895947	14	0.024005896153158582	-0.05274648275336985	0.08136674162459821
Si	12.782361878764721	16.040080121424488	0.6104186197259229	14	-0.1206156927787867	0.10052481869661757	-0.17999434170547848
Si	2.730581197689956	11.774157087703113	8.235019472744245	14	0.0038677137330987554	0.06841068480584002	0.03582218198349513
Si	5.411783591052431	0.44849205458102176	6.368632066362052	14	0.2558416915393148	0.03569259827535966	-0.13922972396506272
Si	13.286021095471723	1.513533505814654	1.968828068626463	14	0.03707482449547127	-0.0023291643095221448	0.004354681080734802
Si	15.73364940744639	10.173934199540815	3.3920956324914	14	0.7484906677118242	0.2965389463203427	0.17092605324131624
Si	-0.04702446802506178	10.003968157544163	13.782387931606655	14	0.057529509980441325	-0.16492740741887876	-0.0279736258832111
Si	3.483677184775732	11.314348818201559	15.006418352306527	14	-0.2572411441650714	0.171182135331203	0.1784473076343454
Si	10.6151305968117	14.213524743006383	10.645809056980651	14	0.03966649865818054	0.03707225339015112	-0.1308011265045533
Si	3.0017886157977043	11.557803903235776	11.798939057717295	14	0.09002982389030514	-0.0028814377322899523	-0.020851664146400918
Si	13.54619901323996	5.1510404359673325	7.535322847596342	14	-0.021557175446249553	-0.05150900976278259	0.16702285825479943
Si	12.30965636822445	9.67947278659288	1.2076581989392128	14	0.11518500412156991	0.028937533267734617	0.03109237663655072
Si	6.616641817311872	3.5164806095822883	2.589825637207442	14	0.057998736701368354	0.07476491449405398	-0.07424426566672399
Si	0.16912555868201093	6.387048972677629	14.694082956328486	14	0.1513643126340336	-0.025099130135285547	0.007224291728552073
Si	13.978428616785624	8.758635662659152	2.6281077680649987	14	-0.559627298204495	-0.2679536544814684	-0.033819033828567754
Si	1.5062886379445815	11.718329662856274	13.630994440983848	14	0.2452261118934874	-0.05247883068954244	0.10276219454621044
Si	4.295507063375355	13.576220487426122	8.458781361985094	14	0.036245643029723516	-0.06695646763676426	-0.048700848532116855
Si	7.819866589644025	3.798804361588373	0.58837600273724	14	0.0007242803686857138	-0.16363337011124823	-0.006776405181782276
Si	12.039091190778183	14.28231985876042	2.061022370929657	14	-0.06127792442668521	0.007469318065562184	-0.013664653444990996
Si	16.051089961335588	5.04905032520752	12.837014593013903	14	0.09776165180905445	-0.07967983942404903	-0.08975265873679317
Si	6.3863330054096	7.613997328627749	1.1865789429427511	14	0.02358526332278236	0.09755416360971848	-0.08476317175251381
Si	1.4997662908186749	5.218185714103738	0.18955602054085421	14	-0.06850864391853766	0.0012423580906955518	0.04278859184843634
Si	9.23649384381258	1.5157420272730115	5.884915077541645	14	-0.06825718981822718	-0.09352009936240616	0.15512969637539045
Si	0.5105321748062679	9.595522757270736	5.362295015999647	14	0.1726895743804058	0.08905383231077692	-0.2013733395530418
Si	13.152469443633423	4.2416604266910936	15.322195961625823	14	-0.0038039503211590824	-0.07057452704327664	-0.08134848677682514
Si	2.7178183029120575	0.03780208873048047	1.158965871237142	14	0.018810206522203346	-0.14603929640547492	-0.0293018588915996
Si	0.9485124536626434	6.798759642436595	1.7648429319997359	14	-0.015542588770827153	-0.10668313015943626	0.10043097335243217
Si	2.583629325519379	2.567933750169923	14.124959428114364	14	0.1614119351146403	-0.036841368132401825	0.09136345621986595
Si	13.865327087234581	0.4358422072664966	4.069698851210553	14	0.07450034775661074	0.07304690191913102	-0.05435522335218651
Si	4.397261248994215	13.37318232810127	12.26185203653902	14	-0.22571656472420382	-0.06398684099199323	0.06476022947229376
Si	0.7024212328520935	8.1225372466882	10.230430078953686	14	-0.006613911325548919	0.06878298085619745	-0.004659099950640334
H	14.391197672940807	8.671906959454683	4.82888957110426	1	0.17898004065668008	0.07782247294077406	0.10788589322820154
H	15.214917195622998	0.12341178588446114	10.458581158837665	1	-0.1793165983430875	-0.09123824339077473	-0.31673446438904185
H	1.3630296495775198	14.206656700014221	15.586751601453948	1	-0.28312523275459817	-0.1756867118521024	0.3366646443887017
H	11.377562010655428	15.762781247246878	7.263030829187827	1	-0.6227595037880709	-0.45655528546720664	-0.38895989815838555
H	1.9482288547570774	12.45715054054541	3.2390375589296516	1	-0.1472526010060528	-0.06801473458653721	-0.04219749473533431
H	13.846030376747535	15.79994601042298	6.517024064913857	1	0.1410714067058848	-0.5767670576001981	0.20542205910067896
H	5.618578530573138	0.14154689272612403	8.63842197312982	1	0.15518908890828592	0.05058058363167712	0.2357135364300036
H	8.502117861313742	1.700253509556979	1.984787421390456	1	-0.04720549367791873	0.21217660988724	0.0445120037445316
H	3.125495308108356	13.650522161504743	0.04736197204614612	1	0.39536786394779067	-0.06458410875786362	0.07545191383559753
H	15.889862979768372	11.761875873421324	3.6189425706240046	1	-0.10341551240806006	-0.24143604554105713	-0.1428719517615845
