226
config_type=amorph dft_energy=-23263.449513600175 dft_virial="41.921537972809695 7.853492078679881 -2.2311972367121307 7.853492078679882 26.919354386613506 6.375424595153976 -2.2311972367121307 6.375424595153976 22.465014776859682" pbc="T T T" Lattice="16.2784370386 0.0 0.0 -0.0079113204007596 16.516362674356177 0.0 0.0877082187639768 0.12015114378190661 16.314884459129427" Properties=species:S:1:pos:R:3:Z:I:1:dft_force:R:3
Si	1.0724283156340797	0.08174054374562603	7.460178168828136	14	0.061398252155668145	-0.13188227629167557	-0.05640516562394057
Si	15.716145638568975	11.357419942207512	6.579337290076155	14	-0.019694666752334285	-0.05164759233953856	-0.05070656779236437
Si	4.439714176315905	15.294211806215872	3.9799671625658375	14	0.01353326996313143	-0.08960841972833286	-0.052096250217904407
Si	5.156676773712892	16.579505103785205	11.552505615209204	14	-0.16220434977430992	-0.09167404574253983	-0.056042639773799696
Si	10.16139270982675	9.340767397524255	2.4182578648625577	14	0.1410071290728811	-0.18562531946713484	-0.014342653917914044
Si	10.505321899734588	10.269502693731205	7.965335510541082	14	-0.0809309392728331	0.1359495077976178	-0.15821887941754836
Si	15.998029565704188	12.207266676837998	12.665883967057589	14	-0.27642338962710017	-0.05354686783953196	-0.20282241451147723
Si	10.901669284750419	2.139111970837237	14.427466426095613	14	0.16913553549636512	-0.1036266001548442	0.03480068183980029
Si	8.065423480672914	12.113289631970456	5.381433153904843	14	0.07373055882375841	0.010748505790879045	-0.1781413461012478
Si	14.480926441174079	8.820226932809831	11.800818521639714	14	0.04672855364103126	-0.014397161350701184	0.06062126412791938
Si	9.536377236198593	1.3176418076524383	0.0834432682598636	14	-0.11684079594774527	0.1717153825746017	-0.0737549843242998
Si	9.554850006549996	5.369006195069575	7.775610326856199	14	-0.13074944728761834	-0.2282408759275252	0.029658985420568162
Si	2.225646514290731	15.68872786706486	3.079271474157876	14	0.1149939709962829	0.15006924688427503	0.025818782514394997
Si	6.971507628147883	9.646557837294356	13.442603078979571	14	-0.1167976013783668	-0.08959942085971236	0.012849098837440025
Si	6.846891309086288	3.4224648787115686	11.628125466628319	14	-0.048358891524537165	-0.1631538589690406	-0.0814101933045087
Si	14.605183006777121	9.920538583247328	8.080910785671438	14	-0.15871767384965713	0.022223091724167907	-0.22703914130088798
Si	10.069385355840879	7.391268289156334	12.741176621892224	14	0.0591073973154162	-0.08027582163725938	0.06165510557715093
Si	8.460782764560506	4.685901118869173	12.68456347355938	14	0.14237984220330815	-0.30626595196752693	0.22702217200577504
Si	13.758357550061	14.688079319552488	12.384060270139416	14	0.0077863353515364424	-0.1295006614336224	0.12043442985371623
Si	4.205597694826761	2.8615685407347513	14.285756120299785	14	-0.013845145038465389	-0.07492380880283912	-0.1261721084861587
Si	5.659460719305611	6.1058952272455125	13.837291691261171	14	0.0900951299654369	0.1107868713609246	-0.007985081792783889
Si	3.608949025582066	2.8848092652947606	5.637805514513162	14	-0.006598998914692061	-0.1261669662755184	-0.008439653213386068
Si	1.460673922535801	14.531876321261194	6.390165573250584	14	-0.046050553168108216	0.11433988180283723	0.023414284818992513
Si	1.4210131385349563	0.3865673000430419	15.768615924675494	14	0.06572490818841333	0.09419527161947704	-0.1062984928035421
Si	7.4048461334902305	10.890738314279	9.76919144272465	14	0.011253985096820157	-0.03561623644735126	0.007096764904672727
Si	4.491606577907555	12.954961335520158	4.315630162145474	14	-0.08143847546303033	0.108692706077664	0.015743906317394744
Si	2.3475817747720678	11.893576311573065	4.092296517350697	14	0.16253319414475684	0.008629657896545012	0.030637033884352495
Si	5.988355144764597	16.05770468804399	2.397471928607969	14	-0.03636365676391831	0.005473111894999216	0.16272397015951184
Si	7.5232782743208615	4.675215952797036	0.6048969532921529	14	0.06410896849470026	-0.1287051614475686	0.1514100783087322
Si	1.3668629177260534	10.451046334960486	5.719510245697302	14	0.04537101003199308	0.1365069234310259	-0.04273357019458518
Si	4.899931636896389	4.301143981024823	12.548807820032273	14	0.04942975689037883	0.03210924879066928	-0.06464118729597092
Si	2.6289854880146426	15.846537547091865	9.046767429701212	14	0.10884260151782862	-0.12078847105630064	0.03902732187559173
Si	2.4220849254103327	2.965348460386938	10.13758223997039	14	0.0922985672248038	0.003872084612143007	-0.01552973324422641
Si	9.770628828715157	4.339714109744082	3.661126299821891	14	0.015120927498322868	-0.022749139872670205	0.005813783349918836
Si	1.4379589914921387	7.695429257378871	0.7413965313919254	14	-0.028816691317687652	-0.2169583515616514	-0.19176409052952037
Si	12.541873205853829	2.253104981887441	5.684547418625797	14	0.19385259938107666	-0.3789259025359757	0.08648298410116087
Si	4.6997068613216095	15.086036641991438	0.6893266948365556	14	0.11172429636065061	-0.06261207097731004	-0.006095576493007066
Si	5.5929926051896	12.503762129059059	9.955654427626996	14	-0.03125127094533587	-0.10204999837252941	0.022028973272496723
Si	11.01696782645112	14.051190353948373	6.1779419617346525	14	-0.2665745135877409	-0.13665219088161426	-0.11196366626595637
Si	15.887588509615806	9.10701392518107	9.882678194382953	14	-0.03805955783308799	-0.0038710561700149473	-0.04247003189927
Si	1.1693940815419082	13.520602837893726	14.101886290417687	14	0.08159274178223921	0.2754666813374731	0.14496894526069729
Si	5.767832786046387	5.223403714977818	2.2098678252692157	14	-0.2396851228180363	-0.09997845881608611	0.05694535485170369
Si	2.0164506920639784	6.958100707402893	4.210334720004993	14	-0.1541477912536259	-0.16151040844840195	0.0730013933549644
Si	10.38587072874534	12.559966688622232	14.430044930522527	14	-0.017509741451272445	0.06685130942917021	-0.04846816350064345
Si	15.036086257938495	13.85575957808146	3.56832618595224	14	0.07514389541824379	0.201186163085735	0.16419335684997646
Si	6.306157443225481	14.715101525036562	10.574314799435285	14	-0.035094816288425236	0.01439433313484902	-0.12465978433684759
Si	12.282412825739287	7.950839562358209	5.651069185012212	14	0.29790086080842515	0.03235941733831969	0.21510021374678037
Si	13.084470952755556	11.471998976991106	1.571787278073877	14	0.018878855034251296	-0.04631152035810324	-0.0403257300622665
Si	12.593617473668427	6.04259815266462	4.2664253305088975	14	-0.23710450440820366	-0.34176648867547155	-0.29275582195227684
Si	0.2610605504754359	1.8915836850719894	0.7643930793963557	14	-0.004288603674006995	-0.029526316386048523	-0.060079532236964196
Si	3.6044561769594123	14.473163254550371	7.399747727009741	14	0.06844822294351417	-0.013369490554237995	0.19376183936327543
Si	9.974027899512464	2.022885558225337	8.840563584202153	14	0.04229082585845568	0.06455145572029775	-0.02609363367311882
Si	10.75691328338467	16.527705489284674	13.453957288813994	14	-0.06244597757362848	-0.10658877059418682	0.15750076970163104
Si	7.553985917950476	15.342400863381238	6.800567760805545	14	-0.05617042370821105	0.09451537423183548	-0.04217615456117708
Si	3.522502385688581	4.1182085334287395	16.103854057048423	14	-0.03057532735666894	0.022938373224233102	-0.015727708353877816
Si	15.332845420839579	5.200530883094881	10.667896278282788	14	-0.1216783306076039	-0.06424060908709185	-0.04695738201452444
Si	16.18460812750951	15.463562898103241	14.782609831279343	14	-0.06571256688287662	0.06521788621928012	0.06611365931281972
Si	11.80733640782997	5.781571786906966	12.782208050291718	14	0.059344196115401836	-0.00475834461599805	-0.04866202484178262
Si	1.292822074699685	7.007787380775811	13.426809739364723	14	0.13059620941053748	-0.011473300380628788	-0.056205133630033044
Si	9.14521290553585	0.18884777592850246	9.939421570212104	14	0.010347927581999974	0.013521699989190762	-0.11852795525882645
Si	7.580641858601183	3.2926329484228063	3.906486297773597	14	-0.02799702294162445	0.14520343006589476	0.10383280280152009
Si	10.829987187250945	1.2549209897427127	2.1497808584723357	14	0.1445974205419359	0.045995788624789063	-0.10297765317203883
Si	1.285019819827084	1.3685444802721407	2.911408231415833	14	0.014803910212348611	-0.07472891901957189	0.11186827825857888
Si	5.745550861427952	11.919349960936279	6.008659239282843	14	0.006992378028674716	0.009903126361614356	-0.05044200105492114
Si	12.520380785431765	7.008931754899624	9.293874103947159	14	0.06140210881364837	0.104473265136769	-0.006403594910360805
Si	11.8887416157726	15.549114223959604	7.748527891155081	14	0.09106803621858094	-0.1634004279692428	-0.02272728547744894
Si	1.3833985540698632	10.700637098698525	9.713361287213361	14	0.010085931949876885	-0.17411113851191568	0.06098790374657251
Si	7.29233934374165	14.715788475079592	14.650752863422978	14	-0.09755827737823072	0.12743374986675537	-0.0827643944766307
Si	6.76992360308038	12.53463255705906	15.244516993624432	14	-0.037121875722829975	-0.07226502879127399	0.06925863534042485
Si	4.561320612369063	4.95212844526066	6.339541261904243	14	-0.09464907170848318	0.017635982722491717	-0.027231604887816365
Si	13.764785904847542	7.865661012710031	7.5031516147663355	14	-0.1248040233453079	-0.08508096037008411	-0.08084223613928798
Si	3.4078468422509056	11.35284407355596	0.4405596200126704	14	0.1449730590292095	-0.11830709731182572	-0.004512804057923908
Si	8.13009282749616	12.819244750241943	3.1044135201639937	14	-0.08625544128032775	0.01805301600541974	0.12487447163107997
Si	10.717161340136409	14.823527310619568	15.117585880815948	14	0.07745891864850513	-0.05852632751306274	0.011514695176283172
Si	6.257605376914153	5.232111050949765	4.538231277273512	14	0.05223791812104456	-0.07172124001606267	-0.002017289234188183
Si	7.947862236223849	6.6084040672522795	11.354296110139805	14	-0.29287306435487565	0.15742003699457838	-0.15321113758549595
Si	12.538949598561697	5.339903605331966	14.97502746845041	14	-0.096087348024574	0.05822190864315721	0.041718240703658704
Si	8.920775582709856	13.463305995205262	6.987551655693127	14	-0.025250311128110253	0.08336474756888526	0.13876461101264795
Si	12.970072608623092	10.06362441697292	16.032411252573414	14	0.029512689527851736	-0.0378099035065016	0.07879306519912997
Si	5.313626952264259	11.234511231191265	13.795249371921578	14	0.20140136460103142	0.1437106463170168	-0.09975374421110517
Si	14.574937670759404	6.375777062752166	15.31148973928864	14	0.09499257137925496	0.003607260764167755	-0.07866013905407832
Si	2.368370966714064	6.767227893906788	11.318698424023793	14	-0.01725417358244973	0.05979953886760006	0.017822387858202452
Si	5.3613292841621725	1.4839032521898834	6.3251511235621205	14	0.2082037379465472	0.004772742805790878	0.024486178626962243
Si	14.880413936694659	8.759104657417296	15.468503403744457	14	0.054260092455341025	-0.0916321367258214	0.12653951943640784
Si	5.2242876341090145	12.805009257051687	0.6510007426728758	14	0.05787120987748901	-0.07105403818548425	0.09020774437845938
Si	2.7005536364548473	7.91431888886211	15.043631313505886	14	0.012359817495015846	-0.03473974664371278	0.030208687738015827
Si	5.615232205871735	9.950767640828008	3.0687653708931637	14	-0.0012840099968819507	-0.011112317193679997	-0.21668992816622795
Si	9.23183860823676	12.029008024203106	8.826484364007468	14	0.014712378862951337	0.03198146485625793	0.09838823017557453
Si	14.44016360698572	13.752562426475258	10.318741710085561	14	-0.11661788111648844	-0.09970103655204213	0.29298310766257796
Si	3.0579532330121255	7.9766555356577244	2.3811902358819617	14	0.21292865819338333	0.18307735409486806	0.30584737602140677
Si	15.109134116305508	3.549630401013408	8.941994525389669	14	0.048432168026161376	0.06783809965104302	-0.046416935676229315
Si	14.216562995823512	12.130032004464656	4.963494050001011	14	0.094385533413168	-0.025250825349174284	-0.028356463465381152
Si	10.888462588781003	15.206793343631182	9.811577237085755	14	-0.14465398485897912	-0.0062814674076537725	0.0667140124050743
Si	12.695074460355205	12.077888914942614	10.458300006504887	14	-0.2186856201157269	0.08500536987367176	-0.25184208010329245
Si	14.48986330310827	0.5232671029183893	5.405987548333867	14	0.03977448508162676	0.1759813605217914	0.09185633710973834
Si	5.71155497351654	1.5672276878593652	8.615956965630959	14	-0.2062748947353721	-0.04836711906156164	0.11359708947584646
Si	14.507764700319619	14.22309878829451	15.870045238019307	14	0.11605506616190801	-0.0336740234885114	0.005865205456321798
Si	9.591925774749111	11.600100509422665	1.742233908773946	14	-0.14783727035585448	0.1889150487242643	0.002525596755981458
Si	8.131955080693377	15.04799393463223	2.2450585504592615	14	0.0037311880405988926	0.03838660242981082	-0.024891641935949598
Si	8.47114236189187	10.56888431283921	11.86645317977935	14	0.0196185620348579	0.08954491342692521	0.04669641482452941
Si	14.351551934966103	5.144757702113229	5.628587035618203	14	0.2682781279728711	0.14319282570553898	-0.39637110924371244
Si	11.261712499482767	9.676838985873559	4.44745457312776	14	-0.2726186679743451	-0.23692761236217746	-0.08623307266404247
Si	9.295018478070972	7.433808728669308	14.938204016025393	14	-0.13410936771998783	0.0037317022616629226	0.12866659486776638
Si	3.339988549611798	10.312354051391615	2.55213824244282	14	-0.015935196553213765	0.022785649568216305	-0.0449303225801197
Si	6.722999380472912	8.664281133823746	1.3629756269612354	14	0.014339311480997851	-0.10348416092010801	-0.04086617640056162
Si	2.819855045823339	3.0889994681321435	3.40826194239539	14	0.0977349123137249	0.043145204156340884	0.006247271706895803
Si	10.641650554245455	8.442980665815092	9.414962885702488	14	0.14337768817805763	-0.02242492349179953	0.09425774947875665
Si	10.500659755366732	9.342030604238449	11.57012702330349	14	-0.06884237338909287	0.011957696622944686	-0.24268380295292502
Si	5.971319760403702	12.176658331674318	2.7006529349207824	14	0.04288757940326205	0.08709002206724782	0.2225039686266788
Si	0.12687739396625614	0.2728591616410132	11.216451933140643	14	0.0034779341665643064	-0.13791383226221093	0.02428974618050293
Si	3.8637016817050447	1.1048077547475588	9.892875007343932	14	-0.013629429302104968	0.0569769794471415	-0.09686382183125873
Si	7.98897180112113	9.29017564305199	15.57667199002225	14	0.03907540154507849	0.22962130237391273	-0.08562166381891125
Si	8.349420348935737	3.3858335118436074	7.878377727724586	14	-0.04224583151535309	-0.030568385372304538	-0.03606206610986494
Si	3.6010979353983497	4.882098609120604	10.67732637685925	14	-0.13691932872437768	-0.10029136233354813	0.008670024250071339
Si	0.38295511486417655	11.489615501554278	1.1806506207541	14	0.08918161624518829	0.011343716672493325	0.24913650597490067
Si	12.640300775407724	11.130757357038341	8.341019047580117	14	0.2578404688151979	-0.08438419082832399	0.21212724466509314
Si	14.849952097464326	1.3522123243913131	9.721095172650402	14	-0.067056226523186	-0.10291183287584305	0.07968035364511307
Si	9.432034082624869	10.207493243520066	5.853699913581298	14	0.19182759683092804	0.20676057653034807	0.00610920335120385
Si	6.065381453143845	7.822423856091805	12.341331000756798	14	0.16954562679492874	0.10519163196321835	0.02505053624473475
Si	7.551703681077664	8.818019576747398	6.221372831753637	14	-0.017949657571549784	-0.12349070274777625	0.007714344402572296
Si	1.2457057665351612	4.863839086294406	3.4899178382684153	14	-0.017905691670575253	0.2141843860317436	-0.10281721620006161
Si	9.301982393436088	12.696736488776846	12.377697029101029	14	-0.026005444760637743	0.025676086169126776	-0.05570556786632828
Si	6.874403495525226	1.3482794540027874	12.59964537890382	14	0.08074993345829468	-0.03217686886058918	0.04187867767563594
Si	10.860383912733122	6.406024026613588	0.049691556904030355	14	0.02139545292161224	-0.1276422665082194	-0.07544060097218888
Si	4.256728265565003	6.328208214037969	15.647657370416473	14	-0.011430362921782315	0.09275005331902181	0.013547668152924257
Si	0.3565596292060867	12.864808095512982	10.146097490385282	14	0.1790790282115058	0.23943932514943017	0.04055404421469565
Si	2.997871149746357	6.683195346226127	6.290727112756592	14	-0.13554198760437433	0.2934896154106471	-0.03846142159462713
Si	15.007208310632018	0.1657909977070294	7.743356231707917	14	-0.07022588516186455	0.08297008290224255	-0.3644444089307737
Si	14.06396241564886	12.949462479488519	13.955510584566595	14	-0.048401057651787587	0.061074035774797475	0.29694569518199015
Si	1.0651730162459754	3.6648198771859493	8.236277072298948	14	-0.14393510381146574	-0.00015169521388873667	0.021482870502497274
Si	14.490210033817194	5.65538622651485	1.2136453847876383	14	-0.10099867340712086	-0.19547573816968614	0.14693352683582242
Si	7.139030651555819	16.194795173408266	8.9247165923169	14	-0.032794962579552785	0.008722989019666389	0.041165710170358874
Si	10.58074315422183	3.7498893613059687	12.498948595226745	14	0.03122941655011461	0.012050770635534046	0.09794985671848928
Si	16.02517711515346	9.246254792078142	1.0628500832805674	14	-0.19173863658685092	0.060697368845395776	0.0007409925532666763
Si	12.60806621438389	10.325422380646202	12.042050307958432	14	0.09793160187071623	-0.07201743134894374	0.09134571559315692
Si	13.77766377638878	3.667448844767683	2.2908383989429164	14	0.17493440643542707	-0.042243517520564954	0.056660219271699265
Si	9.61168291378286	5.809096996095534	5.500988506891137	14	-0.36474008604259067	0.011085063477286428	-0.05765883657804478
Si	10.961661836612477	1.0273549513179001	6.9374645327690585	14	-0.03805004474340344	0.1894902049843814	0.017812617657985894
Si	15.431212760176432	3.899209836417343	4.0002468394285255	14	0.054980001944982496	-0.1273982686133373	0.06726525738571404
Si	12.084900037775139	16.095957387240997	11.604485920360863	14	-0.07865602528556608	-0.024757944459301896	-0.15724957271185255
Si	6.155614457492509	1.6895096790496245	14.817816834906427	14	0.14616270946084203	0.11180914283621547	-0.07750031344415952
Si	1.5300786666935762	2.173718300137597	6.51096134313922	14	-0.03819788329931195	-0.06233053494475384	-0.07579592772743336
Si	8.7693112374405	7.130547958015005	9.196196970340743	14	0.07515366561846037	0.09979976699633582	0.051045439473559884
Si	11.749845851740746	3.054523366328093	3.501631801561392	14	0.014182731167000832	0.16729102453969086	-0.03621453265534972
Si	9.709773519690055	16.209652502893395	3.525303904702924	14	0.04159251365350346	0.098726330525174	0.00036818228184520494
Si	16.2528798924494	1.9115817449739096	4.751695305691786	14	-0.16129674959629764	-0.06088377398110651	0.059028978603151684
Si	15.634849496154501	6.881227416331807	6.494972662279907	14	-0.0688739979845307	-0.03039817820011074	-0.1263317741265399
Si	4.47447026723702	3.3369477375729875	1.8164017236092154	14	-0.14242663632013486	0.04998331586580671	0.11850610086360519
Si	12.988410267947073	1.6862100398619002	11.078331022711826	14	0.07398612669258112	0.044524859271132346	0.0966568478529868
Si	1.2574001957036913	2.1796973700618745	12.005783578080136	14	-0.09439247539753239	-0.013039874852195012	0.07211179091419316
Si	1.0575107559319066	13.982685807358834	4.1467544006196295	14	-0.18881888938529073	-0.09110711701944718	-0.04592174079156879
Si	12.383583311934185	11.342357504415695	14.153344057740405	14	-0.04319842603646795	0.013970357867556602	-0.09613259947820861
Si	5.538782154163655	9.672829606830954	5.448389621132012	14	0.017453948465825236	-0.022902120639219013	-0.0721554997046357
Si	14.131325843801994	1.9800195499715918	0.6936290857458576	14	-0.07735633154623123	-0.1268976744075045	-0.05533995668980323
Si	14.15949079556618	2.25114343022429	13.072906751083336	14	-0.18406980074844526	0.03346422129438732	0.03902732187559173
Si	1.787546566114593	12.946045635554116	0.01205906615819488	14	-0.08372084565572578	0.1054148039050072	-0.21086303217917635
Si	8.460411616196023	7.689979236658348	2.598373887163555	14	-0.013656168797434509	-0.02425375070602086	0.04345887900539895
Si	9.358261833809639	5.645728229819848	1.7165221174714773	14	0.19020934314242682	0.026935413554935304	-0.05130306422663873
Si	7.18298731509115	8.744922883069268	8.570291066206574	14	0.08041800376146355	-0.07671818320577048	0.13444978206437547
Si	5.438240015638445	16.00515300975228	14.98023168477165	14	-0.13099987294580076	0.13998999980823051	-0.02800345070492482
Si	13.349049273475032	10.463535151856501	3.6341903700541196	14	0.018769840168677023	0.16718406655837273	0.1736915341236675
Si	1.1962616418741174	6.001871131037747	7.709485687761703	14	0.050250710819102117	-0.0809779905001918	-0.011812172061824304
Si	2.8645833072743003	14.009620109282901	12.57464983883105	14	0.028346179044100556	-0.02536421109379281	-0.184604590655036
Si	7.768179220348078	5.66217596260365	14.731379962075163	14	-0.13104666706262744	-0.009610791686713518	0.017435179396988156
Si	8.819968105660918	11.485567054262779	15.85960424850275	14	-0.032222634535287814	0.003676937718343768	-0.00801027862492134
Si	11.382327578720274	14.586068866006396	3.9121463103319183	14	0.15311215003067025	-0.05001622601390461	-0.025371667299221242
Si	13.564481364931273	6.613380385454979	11.352697567622613	14	-0.052198580209646295	0.06227114241185841	0.042481601873210664
Si	7.778299524654976	7.012146746214748	4.78066929577679	14	0.032354789348743425	-0.1761158293300351	0.094993085600319
Si	14.124368439811697	14.497784390571253	7.805074297896065	14	0.30879360560776453	0.038153660287805403	0.29028730373440265
Si	7.852307810807267	14.512169645382265	12.382624511992612	14	0.04657454443235439	0.04968763875398968	-0.17812000592709057
Si	5.004175492004176	5.355047435308976	8.751028924802446	14	0.21962124534172875	-0.004521031594948382	0.04961770468928166
Si	8.860452578575917	15.626555632483337	16.261929075599156	14	0.0041371655706502735	-0.10085700550398072	-0.03890133771490446
Si	14.886972518977512	12.885880532259451	1.4570063906710045	14	-0.04671029879325821	-0.17329481257276866	-0.032835586043611115
Si	3.843708505334236	15.948720552070565	13.321008037832339	14	-0.07819322632793942	0.07061257940201483	0.06941007344378156
Si	11.351159255322466	3.20640932311675	10.306391259904375	14	-0.04734690447052688	-0.0988949950341757	0.004632617565842809
Si	7.5925837200127	2.1962883530916155	5.929008846852974	14	-0.05123081616714256	0.13948323494962933	0.0622657430906861
Si	5.087213427181779	7.7747719873487116	8.90942951209395	14	0.0976063570477175	-0.002365416894536233	-0.02122550285995045
Si	12.791577918651138	12.720654396317661	6.6856940863115515	14	-0.01807718439542913	0.025859405978453334	-0.1734380231391009
Si	15.044386632984477	16.520800176292898	13.08590996658977	14	0.03835934871341725	0.08796856875514243	-0.032116190775033686
Si	4.00830792145004	8.666770106846949	7.02752335784141	14	-0.12838325906148607	-0.19125115501815082	0.044432556590139026
Si	16.276355026502763	13.282128618809349	7.77125421710467	14	-0.16488806950748047	0.041405080075664666	0.06243826425766804
Si	4.113264772100118	8.332051256615552	11.026775584766877	14	0.08328787151981284	-0.01700606191905544	-0.0979331445339083
Si	11.709245801922775	4.899208874291875	8.64958170517789	14	0.06109229062257051	0.08408645683225083	0.12330635449632164
Si	6.553770376863329	3.644841351408475	9.315866272386307	14	0.16132914552333152	-0.02456074068124654	0.14829209888698866
Si	1.5176077560783046	14.823095932038044	10.81122303287655	14	-0.003664596412807057	0.13034449819969499	-0.20276687863656206
Si	8.795190696644465	0.11922978424552184	12.217077690841164	14	0.05583720845871986	-0.02605121043533638	0.1334334241313209
Si	12.32577532632271	14.784486735069892	0.3739026760270111	14	-0.114978030143298	-0.03428980321268687	-0.10340831331316364
Si	2.706882692775455	10.531543206116364	7.690495263112472	14	-0.007432551259484066	0.07563780475024424	-0.025425146289880324
Si	5.225816179346938	15.675252576884308	6.13201560731765	14	0.16047245323065817	-0.07167084635178778	0.005913542236340582
Si	12.86425462865367	0.19158255335098726	1.6100562557079219	14	-0.04324547726382666	0.04105566686265654	-0.008637114101973441
Si	15.00562767439557	8.86323293562211	3.165529284181714	14	-0.06852252788726645	-0.010359240445408625	0.17241112367423378
Si	16.14510198866053	8.89054001375436	13.492346726882126	14	-0.2236170001197709	-0.13887953942045855	-0.08658171454545455
Si	3.3497507283038463	10.21223515222941	14.785040201929206	14	-0.23944986668124274	0.2007840422136639	-0.04113768512236927
Si	10.563728931829083	13.024416542832752	10.468366591969557	14	-0.023288300658305252	0.12239515477086116	0.009565797343610929
Si	2.8947879471994225	10.372935882674469	11.447128780883533	14	0.0380616147173441	0.021946440791719975	0.04617139511815518
Si	13.356742462819476	3.8583314253260106	7.292656773263903	14	-0.0704662835092984	-0.037493914662655406	0.02126998298198901
Si	11.771214556041317	8.328305588252968	1.0175602157517745	14	-0.14996074623976477	0.01675486492927697	-0.08037146675516887
Si	6.333313131893274	1.9103397002278644	2.259530080986577	14	-0.04459145089892418	-0.05037438098500124	-0.1375693041493111
Si	0.11823354389875952	5.166951723171657	14.350445001247477	14	0.056030555578794994	-0.04378335249680164	0.02300830728894113
Si	13.426858574675837	7.301510615169198	2.4141459316666074	14	0.22983496122601701	-0.05373018764885851	-0.2881861964667777
Si	1.440141929899015	10.637999300817697	13.321056873143457	14	0.4549246904731687	-0.5173418716672116	0.14511395560075363
Si	4.373052348799135	12.306254224626022	7.907337067216255	14	0.09558443982395304	0.10608946194101407	0.011838397336089816
Si	7.465035654440454	2.3548582361283223	0.26533526804177227	14	-0.07304098837689468	0.03761835616015057	0.11736118766454325
Si	11.458745073554278	13.121784386135435	1.9460236620601794	14	-0.05483627715758621	0.062325649844645545	-0.09639150978394752
Si	15.876833346264402	3.7873720904310493	12.529001845687409	14	0.13474365940246838	-0.12055012959312289	-0.12406843011321353
Si	4.959776054981394	7.159572411254829	1.2908735457861644	14	0.028023762436953984	-0.07952171644685994	-0.024498262821966942
Si	1.1803283077007358	4.055163774621946	16.17532941839751	14	-0.10124807062317524	0.08130297821265853	0.010926169168501277
Si	9.019787548153436	0.3625614889422185	5.70329366671945	14	0.024969032206086053	-0.17075893139550663	0.025252882233430404
Si	0.30801895780068533	8.390337828275962	4.899343985319296	14	0.03890879392033289	-0.02922626839518724	-0.10350138732575301
Si	13.033996403029969	2.947243582712607	15.046698171043959	14	-0.02958442336628387	0.008703705729765277	0.013255847699087452
Si	2.388442279582658	15.134383599996081	0.8018709249903243	14	-0.11126535406100414	0.03882626143955614	0.021909159764577826
Si	0.5677007246589518	5.585929391358551	1.392281697161827	14	-0.08710776269395684	-0.3196981774915766	-0.1008588052777048
Si	2.5209015496094502	1.28355476049361	13.822722490111625	14	0.06503430929942157	-0.05424672270767626	0.1429624546688537
Si	13.497101658341101	15.677629228691945	3.6600323888528967	14	0.09012418345555458	-0.04449580578101467	0.11403957670144393
Si	4.293917982823388	12.190070135950421	11.887255394470976	14	-0.1377287126791603	-0.010604523892950753	0.06952808717797637
Si	0.5915616576701318	6.8892673363851715	9.807090899837917	14	0.006882591831504393	0.13795265595254516	0.007252830997605716
H	13.542443616868416	7.795624665195159	4.750176527516085	1	0.4811882742079493	0.25663333486738843	-0.014926551936119671
H	15.020218037513267	15.20453715225763	10.113027845541367	1	-0.14388471014719081	-0.09097753331131173	-0.32817665439529686
H	0.9251979918384619	11.490304079441012	2.631117963266699	1	-0.10920255626264935	-0.0794517823821519	-0.24727579705470945
H	10.66443873825579	6.902498450010146	5.501151291261523	1	0.11236295892217539	0.3115904539750216	0.025798985003429857
H	14.143843961884677	5.896919163918781	3.6780119225620305	1	-0.16216552608397566	0.5188894199594086	0.4298800677706703
H	14.057591035391953	14.40131837268051	6.2315208094035	1	-0.007915919059671907	-0.0860980896347347	-0.03723706124117261
H	15.115627584840205	11.09678263109508	11.97437596165786	1	0.21635285625875653	0.17546405413137758	0.10211067645808493
H	6.823733604555176	5.767992314729366	10.612834464999725	1	0.13822493600594887	0.00806632872090057	-0.048551210202484235
H	15.575088098098394	15.863988031597243	5.445990179512523	1	-0.12858149128166946	0.047625355176698914	-0.02438693396160453
H	2.3231576078393528	6.3124360363912695	1.369970471356722	1	-0.2026334382704464	0.31121224438242784	0.07089642942935917
