228
config_type=amorph dft_energy=-23293.39453963911 dft_virial="28.947896697393713 -1.9623643780109605 0.48756897277069033 -1.96236437801096 43.57899537615715 7.261151148204826 0.4875689727706904 7.261151148204826 18.9023640600604" pbc="T T T" Lattice="16.3688733879 0.0 0.0 0.005352621597843299 16.47785734691664 0.0 0.0879499567131867 0.364862187816291 16.271003893913747" Properties=species:S:1:pos:R:3:Z:I:1:dft_force:R:3
Si	0.9018676326164323	16.619322061396886	7.603423533046489	14	-0.023060757837472152	-0.07083729400699577	-0.05942492882245449
Si	15.830183586028243	11.377092145681582	6.767288385293847	14	0.17704708367699276	-0.0776494375527281	0.0026119858947384333
Si	4.449270945297924	15.254331530903936	4.124113096771323	14	-0.037081252258771645	0.0268503099688384	0.013441995724266171
Si	5.110378640575767	16.699419869545896	11.630138559385129	14	-0.26896152776696647	-0.15434370947902118	0.09692887079585848
Si	10.117098116647982	9.235265985058339	2.6014886786655587	14	0.11535546840429574	-0.03419287254211729	0.07959704983274027
Si	10.451756459288918	10.449985347188347	8.09812689835028	14	0.05253899455403391	-0.1911537101265172	-0.06288537947284178
Si	16.298357918232263	12.325796035722814	12.985577852256238	14	0.0374504629827449	0.13030670295148883	0.03637985472743525
Si	10.892701170612169	2.2348046352411948	14.481566839585211	14	0.11628826541444545	-0.09793160187071623	0.028293728495569537
Si	8.001178971935765	12.223593700950783	5.542343387958416	14	0.059653757195947676	0.01897038638364857	-0.12938701857847185
Si	14.4703541613145	8.897342052176514	11.949978160948001	14	0.010609151882527017	-0.044796367992939984	0.02614736977430992
Si	9.511744441016663	1.1642197508409997	0.15511308111107916	14	-0.10022168537937212	0.15841068387443144	-0.10240455379617784
Si	9.666474490490465	5.554564388829822	7.774106686524139	14	-0.05224126055796076	-0.11324536226805021	-0.10027593570162724
Si	2.231106906742868	15.690774802045514	3.2634426446975575	14	0.07522591367795652	0.18338100163317755	0.05301207793294115
Si	6.93705979252379	9.711261364967099	13.539182971559049	14	0.026460530402303954	-0.018652340655546256	-0.08806935608369222
Si	6.80908466660251	3.5755790544440837	11.721792792146	14	-0.07461270505910121	-0.12342488245158048	0.0460086441513898
Si	14.641430167753459	10.028067814291193	8.258965811372446	14	-0.015463655837498607	-0.050268965666875165	-0.057017602911199845
Si	10.040991039830939	7.537862921353272	12.896835642071077	14	-0.08478245504241493	0.1928791789068686	-0.07951040358345128
Si	8.438835176595386	4.768683319265371	12.7839804444982	14	-0.05548162459294338	-0.06402849289817962	0.23908502683631377
Si	13.815779283405767	14.792811145732097	12.419786106716137	14	-0.016776976435030243	0.06842199766924867	0.0594493543229959
Si	4.191657615919153	3.0907543042298897	14.435585037351261	14	0.1322471161366046	0.41903694530400976	-0.013224994435245675
Si	5.649865606581515	6.201188904934052	14.003199609922543	14	0.12221594873004686	0.08891036463391266	-0.015757790286123546
Si	3.3620585593102996	3.023501151028364	5.868804198806693	14	0.0036216589539605844	-0.19130720511413007	0.03213753094919091
Si	1.477742604163481	14.588354095793193	6.5861275159606025	14	0.095323215523426	0.17565431592506855	0.17301481920340453
Si	1.3495006656059785	0.5448690515756885	15.971875827848583	14	-0.0800747612012238	0.13430117217687088	0.0860600372759965
Si	7.39484807456319	11.00294062221766	9.834893828778567	14	0.05083229484251961	-0.06264832356232412	0.04588857353293888
Si	4.478535217140811	12.92762221913904	4.460532730188799	14	-0.1159486224016539	0.027089422763612175	-0.10047185392702253
Si	2.3055885544324908	12.008228433786181	4.338060819500531	14	0.051627537718041405	0.08569828275745167	-4.4480122038561766e-05
Si	6.001506655362399	15.866245850989126	2.502805651671926	14	-0.035412347795463525	0.029061203433633737	0.09694943963841966
Si	7.490430836937154	4.536433559201152	0.8126065291448747	14	0.01718886750731797	-0.10483630520797388	0.2235252116598416
Si	1.347110810091345	10.444688379760024	5.8661851790646296	14	-0.12463253062045401	0.06277687882833154	-0.06987210106981218
Si	4.8699149798455	4.46035594635621	12.648328316957995	14	-0.026712241613146448	-0.06596324965159106	-0.04485267519945123
Si	2.5714501591114236	15.954596845100316	9.154943923343913	14	-0.050859805669445195	-0.031909216796761765	0.009089628638319504
Si	2.3330882617241624	3.081019735226106	10.224567954876239	14	0.14005119211485004	-0.01244286419685663	0.028011164020885264
Si	9.723973432040141	4.062350063704098	3.7269551217607053	14	-0.14074950431980227	-0.10647229952318411	0.1565224641273147
Si	1.3254466061624595	7.46913002199748	0.9684627571077646	14	0.1623894693573606	0.3955149311721031	0.08109651845545063
Si	12.444300131501855	2.3292219338299405	5.81434495704515	14	0.1237622114695839	-0.10638848148974729	0.021129343520976913
Si	4.677289351591371	14.954240975083568	0.8125525118626947	14	0.1317382943937473	-0.047685004820126345	-0.08403966271542414
Si	5.548841830693412	12.569032583604992	10.057675832475226	14	-0.01541531905747982	-0.02366393914557889	0.06038060866995353
Si	11.08376684523243	13.984534183598322	6.270681320015043	14	-0.08103609748042716	0.08113508503525285	-0.10775039597782972
Si	15.89267339707389	9.178436530430227	10.048938127860765	14	-0.025282192834080088	0.09864971158663359	-0.06432751244691284
Si	1.1508905772412326	13.81617868391643	14.281531022348378	14	-0.09125212735950353	0.06106657956936905	0.04127446792540114
Si	5.8732074257480384	5.0074036949798275	2.637935612151057	14	-0.2370772506918101	-0.20292525872428316	-0.10459050753936774
Si	1.8945988814090975	6.9785810767595375	4.3616696455879	14	-0.07323279283377773	0.01553179012848253	0.21919341341645612
Si	10.374639422983844	12.657989226031535	14.499302513901002	14	-0.005903257815059989	0.0037363302512391883	-0.0014508747321595608
Si	15.129631816547576	13.862738307380974	3.87995007065539	14	0.35900472140493633	0.06741232461002651	0.08308166887313696
Si	6.2434877106557245	14.815850335025566	10.635068198585333	14	-0.0029251465227324697	0.015845207867008583	-0.2073545018593023
Si	12.07101452144015	8.1617887207305	6.043651593674225	14	-0.19035358215088713	0.01480288177022055	0.34763503656870953
Si	13.107028345245102	11.437082429760899	1.7761586242362695	14	0.18161542360983188	-0.029449183226444083	-0.01512272727204697
Si	12.238250390182309	6.312669117142345	4.70446822896464	14	0.06912262386898901	-0.16879255004665736	-0.21255970457994205
Si	0.17490959658640545	1.7840533318712537	0.9911156409892795	14	0.09293800111792463	0.004860160386675914	-0.06115605403451019
Si	3.635518595015896	14.617168223617915	7.527144583058875	14	0.04184113953796178	-0.09449300561555019	0.03720106576669054
Si	9.796854203912428	2.2325964742211672	8.899131170037812	14	0.05044405793917725	-0.1211126874371713	-0.057848584150671706
Si	10.742344884107615	16.607469360176708	13.472145887486244	14	-0.09847204820901134	-0.16264555144724732	0.12186499285384662
Si	7.537640304675197	15.66199341196757	6.7598847438605	14	-0.17336294686375256	-0.013755927683856252	0.05398138463863698
Si	3.4224515176749564	3.8716543256224023	0.10003018527345689	14	-0.1662199020633172	-0.1213993656803678	0.07948340697758974
Si	15.29565311488435	5.302311865485589	10.81950120570882	14	-0.1788869666440907	0.01499211512178345	-0.11908691355542662
Si	16.18997797064364	15.674486136137215	14.909151276449258	14	0.18059495190826508	0.043859971435342045	-0.07353695459315125
Si	11.77229076654767	5.909236952962146	12.948870653683873	14	0.19456916643380193	0.03184545338482209	-0.08784541281030732
Si	1.242304187563299	7.023061853303816	13.61918747712975	14	0.11092262572182843	0.02734627618509497	-0.05141979240817345
Si	9.100694203161735	0.32663923156820573	9.982911003275992	14	-0.04910296940418801	0.09039389240363811	0.08014263838167571
Si	8.014378831435767	2.3935663382304364	4.076438753029064	14	-0.016865165347511323	-0.0681744002269184	-0.1592645479512526
Si	10.866831803109932	1.0511190201673044	2.1735293946009295	14	0.1299608892859289	0.01989598429890188	0.04880266430279472
Si	1.1285045059959407	1.3407367707940967	3.1685179110337867	14	0.101122600683552	-0.012570648131267988	0.1540835136206222
Si	5.706790000675276	11.899637327730854	6.147754354646591	14	0.14450743185573067	0.04189204742330071	0.12618522112329145
Si	12.524669662949105	7.156865935038528	9.395658027837015	14	-0.06558735405378541	0.17049616443178747	-0.04551782014577353
Si	11.6230099150247	15.791336975704077	7.657507927607449	14	0.36506327398133326	-0.06913985027463401	-0.07089488676616708
Si	1.3283962771469588	10.726381958779733	9.853506874707948	14	0.0022682291134346355	-0.10837363190743361	0.05231427994905296
Si	7.21332872690275	14.827326552157823	14.679877377566958	14	-0.16644178845244595	0.12288417900275335	-0.13260295711291306
Si	6.732581463049482	12.632134590515346	15.286249197123004	14	-0.053509843922921824	-0.12314488908221635	0.06990064033886582
Si	4.319626194291078	5.111930409772941	6.574672578363749	14	-0.11970012217428196	0.19903209104851496	-0.07450060486714276
Si	13.81087516893875	8.013380330159105	7.610614379125793	14	0.014755573432329826	-0.026771634146041876	-0.14323062095374514
Si	3.331136120593218	11.367100585365609	0.5203566636773083	14	0.13028202034041542	-0.37420946693669604	-0.11211818969569728
Si	8.033523865750256	12.659516441918626	3.2056801642863357	14	-0.07695806733214029	-0.02965692853631205	0.13638119638087068
Si	10.695993145335098	14.923102467237765	15.151183075250085	14	0.08715455681078353	0.01434239680738203	0.13837097478813326
Si	6.228223736221508	5.2785458982136975	5.058345265850312	14	0.12143047605474162	-0.0960420965709394	-0.10578272907632039
Si	8.173124165551622	6.7874319208849965	11.605210402102696	14	0.08359717548982666	-0.06019651752903093	0.040608037426418754
Si	12.485832873948974	5.405786061719859	15.151654498803657	14	-0.3170648514226809	-0.014012781105339043	0.30721057606214935
Si	8.892033626536819	13.707527013029567	7.0320025319482875	14	-0.07378558047760957	-0.04233479175943021	-0.025839608467488197
Si	12.960693890931951	10.251671535431923	16.224321503898793	14	-0.014424415067094751	-0.15975511484633687	0.10669418591231289
Si	5.248363332573748	11.26099918495258	13.903473885694101	14	0.17697689250175272	0.12562214905817903	-0.041943469529703674
Si	14.634943183229835	6.354453940239637	15.41130738980656	14	-0.15857292062013278	-0.0754891948627397	-0.6241419871187146
Si	2.2813151520855737	6.840655312705754	11.47517279813454	14	-0.13053116044593774	0.024945892258204722	0.005237341537141636
Si	5.1984546376140415	1.7536988930607318	6.479780582446755	14	0.1536194291103355	0.009887442619161453	0.026538949114568472
Si	14.958742415265238	9.01410449982708	15.704202188885608	14	0.317708913305378	0.2136369977090841	-0.03509224518310508
Si	5.218445942682683	12.684722870048653	0.758540140344641	14	0.0637137896069935	-0.12134100158960046	0.09533632816055874
Si	2.6342100565679707	7.9712304811852635	15.251917122079222	14	-0.1596656403811957	0.11283372830629448	-0.020152580609852658
Si	5.400949059633735	9.786851185385082	3.2175574188165963	14	0.12879515013377377	-0.0003406714549196205	0.0926508086536641
Si	9.18196402264532	12.241299911294474	8.895030767254143	14	-0.03046991203854287	0.07275328169157011	0.15412336575308452
Si	14.437786650821932	13.633071555537365	10.498505961684762	14	-0.06792885966884427	0.07844905130729417	-0.18342419620255607
Si	3.1056156043787646	7.7902251161492035	2.4780739208701483	14	-0.09403534886856382	-0.29334486218112277	-0.3783903412977888
Si	15.07804531206561	3.6732423006256503	9.058766970865967	14	-0.0339082511831769	0.04962130423672987	0.0498979551691778
Si	14.259501792542943	12.1694323726849	5.2536783057628	14	-0.010089017276261061	0.10776479416762254	-0.03397972791107701
Si	10.911173444230414	15.33574048581132	9.858307865272621	14	-0.14847079070673896	0.14848853133344797	-0.07888819609597546
Si	12.659185790676188	12.085862726490314	10.611459372497965	14	-0.01989521296730584	-0.0036805372657919755	0.04236153125475975
Si	14.15965493865143	0.7279483528699947	5.621745518988441	14	-0.21632663098449098	-0.07752936693427719	-0.00936370846544729
Si	5.664497742502959	1.7820972515013995	8.749976358839929	14	-0.13230882266428812	-0.023506330389453812	0.12375089860617525
Si	14.495390353161293	14.330681838470227	15.863510612246007	14	0.3338189450203618	-0.12799990725825197	0.11325436113667071
Si	9.533826051216941	11.46504046550743	1.8758352418445476	14	-0.12711827524397318	0.18055612821793088	-0.00392787759759022
Si	8.1276710779281	14.851881499127012	2.293202227939867	14	-0.0024595193492536523	0.0029824821713717716	0.01933394067591751
Si	8.432554439876448	10.6891149447375	11.955347151419232	14	0.0659187695295525	-0.04088083170088647	0.08095253655752234
Si	14.152056507624767	5.265902580408883	5.648186160171916	14	-0.16567611328810586	0.03959964991985668	-0.17620838912156048
Si	11.196978884245164	9.777327774848	4.6144230564578015	14	0.09033732808659485	-0.1510133567578334	-0.1340273494602751
Si	9.259829116464221	7.540532684602838	15.091061840183668	14	-0.09492160887241886	-0.06339163011037895	0.13927394697656928
Si	3.1119258050697995	10.374406984981736	2.663726409061032	14	-0.15431131355198732	0.13760349985006906	0.03718203958732144
Si	6.6467921976234985	8.518615428600672	1.5516808052566253	14	0.047724856952588636	-0.10278302049930364	-0.026238644013175178
Si	2.6821986826792776	3.069897085759028	3.6258953343511493	14	0.01181191495129229	0.053284872207408865	-0.03808218355990529
Si	10.612256536631957	8.593768200099198	9.547791973991497	14	0.05563126292257601	0.013914050661045358	0.09510698556600156
Si	10.479730863908841	9.466556529142025	11.71430894323305	14	0.20717298182369984	-0.04587983177485038	-0.03154797649928096
Si	5.865867622920904	12.003473276066996	2.8341967671846393	14	-0.06645664476252747	0.24632088853880646	0.1119952908613942
Si	16.29481078336911	0.4080269069401833	11.217392506247215	14	0.07322610795994534	-0.15509807177995263	0.14645478702521084
Si	3.7995641703347522	1.2589251416013725	9.989271947474531	14	0.0624356931523479	0.07388456803243527	-0.12884168714006844
Si	7.934601853205159	9.393125763123907	15.700378420062195	14	0.0065673743192542385	0.1593424524424531	-0.03552753331380616
Si	8.265801452899234	3.710393095666828	7.938638417382616	14	-0.19369756173027175	-0.03269288969834289	-0.09373838620408673
Si	3.496997003970792	4.974197798425134	10.819907153768838	14	-0.12605897985207218	0.0009420529893022563	0.01428094739023049
Si	0.30526311981094706	11.500539641223769	1.4492067471863548	14	-0.22825424567518998	0.09525996633255035	-0.4187037300545186
Si	12.634365667958116	11.18682854585733	8.478200680205946	14	0.17830718239439736	0.00823165079298609	0.006811629324668306
Si	14.751283313946994	1.4552173974943916	9.700299130459221	14	-0.03504622239787444	0.0375893026700329	-0.06605375255886027
Si	9.366398666656144	10.352264809949924	6.002161410297915	14	0.20641399153319215	0.124180530305172	0.038958416253011746
Si	6.11614114947254	7.832743264774274	12.435829239523615	14	-0.06490061182277386	0.06600027356820119	-0.03560209536809045
Si	7.586054521494589	8.823002813685367	6.354769859496024	14	0.0692126125551942	-0.025126383851679115	-0.030308703734969585
Si	1.1191120464459636	4.847582925882388	3.6849264024499333	14	0.15260178562462087	0.18067876994170196	-0.17082937968127868
Si	9.279237689640253	12.810147725496098	12.447073018653764	14	-0.01986230281920794	0.14706388187555394	-0.040810126304582396
Si	6.828023453112311	1.4941245726500911	12.672035356285692	14	0.07470346507690244	-0.0665319781484078	0.045748962514054844
Si	10.837366194124373	6.304016530669501	0.25287454053297315	14	-0.06786561047796862	-0.24724134424341954	-0.007942401444469432
Si	4.250392407409616	6.423887427376432	15.815219161977025	14	-0.037921489477396035	-0.004145393107674748	-0.014001468241930394
Si	0.3052762149096574	12.830651376301782	10.518405601062431	14	0.018613259854680004	-0.11185850805836231	0.08907131582695393
Si	2.810455353222829	6.848189905126203	6.492553214351333	14	-0.20457333723449808	0.17029510399575187	-0.07581186858041827
Si	14.892607256116106	16.555814106426514	7.798789310705753	14	-0.07641762099384516	0.013581863853682227	0.00024528344754212673
Si	14.158049152172078	12.997026242303734	13.967564572557086	14	0.13331823861297826	-0.15568994022465074	-0.030653488958401445
Si	0.9312301176996473	3.7740336385116446	8.37450550418094	14	-0.1618567363350259	0.0013056072815711944	0.04650023948860211
Si	14.399108639893665	5.569967498687836	1.6963178073994485	14	-0.15996851658790914	-0.13910811068341972	0.4187577232662418
Si	7.089465461976511	16.340511040980783	8.972840206903525	14	0.018849801544133626	-0.038862771135102246	0.049258521276056975
Si	10.56726996189999	3.868552424115395	12.596831841279661	14	0.035690027170039516	-0.02478339840197136	0.09775393849309401
Si	16.133554464075548	9.188184194532722	1.3359439646661198	14	-0.06233439160273406	0.056167595492358884	-0.15983636177445354
Si	12.592390965929525	10.387006106828402	12.221897885667795	14	-0.06813840475243632	0.004866588149976284	-0.11296588311975009
Si	13.696643349113954	3.4482685047823525	2.4071475924803774	14	0.1799768581893015	0.11255219227373826	0.10575804646524697
Si	9.976699015825284	5.709697112588967	5.399662466185447	14	0.009528002095404753	-0.10154503328765234	0.08939038999718431
Si	10.598416654182486	1.3251012229339747	6.878940470672712	14	0.08929037400023056	-0.0016660762474559553	0.02807852698027314
Si	15.318525341669265	3.931988356042863	4.125707425039304	14	-0.05648307011514105	-0.16782992821479392	-0.008555095842260718
Si	12.11523994355958	16.192389105693678	11.645237208198129	14	-0.11904114788072799	-0.14426394818191268	0.032015403446483875
Si	6.154652197892252	1.8758581582672906	14.910177604810679	14	0.1416550476135584	0.054219726101814705	-0.19109714580947396
Si	1.2919738969715426	2.2473415553689873	6.67698458458748	14	0.05598299013037225	-0.04262892620805515	-0.01612802945222487
Si	8.770540574477147	7.202337028422775	9.339489875693774	14	0.10974377393254052	0.011415193400393441	-0.047241489152400805
Si	11.707147561125844	2.8470021368359935	3.5429133307111904	14	0.03207788130576348	0.2362195299570087	0.017857354890556468
Si	9.804793107505558	15.937705804651342	3.525487028102432	14	0.08005316391653455	0.021313691772431535	-0.036735438593211725
Si	16.084087728697316	1.887018456143161	4.962574261432385	14	0.10792111737108756	0.12545117055438917	0.0037134474138898702
Si	15.562817681884962	6.881343421286056	6.583686916938467	14	-0.007907691522647432	0.014025636631939788	-0.018814577401247597
Si	4.479239078696491	3.201011761596107	2.1503919920671333	14	0.009534944079769151	0.08532315849124206	0.047492686142179275
Si	12.944074573781219	1.8338147069704696	11.114412649989257	14	0.05448172173393779	-0.08436465042789085	0.09429683027962289
Si	1.1339602514961276	2.2972273339059512	12.042868243649655	14	0.048860257061966034	0.12274045421535705	-0.10110563138843903
Si	1.0586716183484814	14.042889217226186	4.370032503001777	14	-0.18075590310130638	-0.34470500494586875	-0.026440990001870827
Si	12.405694143616492	11.467410678374	14.283791563763248	14	0.03240826833940251	0.020625921099291917	-0.08202931546560037
Si	5.517323564985011	9.629908064229236	5.611950385153122	14	0.07625024203750352	-0.09807532665811251	-0.11690147403330076
Si	14.158232483554022	1.8335675369823123	0.7918688034497443	14	-0.1048483894029786	-0.14080992529482572	-0.0327103732145199
Si	14.11521672117796	2.370540244035678	13.119553807161523	14	-0.20461627469334456	0.03076636048195594	0.014863559855776046
Si	1.6923778195749808	12.9356298720004	0.20667994294498054	14	-0.26728002488758956	-0.16460807613811637	0.014192244256685381
Si	8.423103052382276	7.570852748779246	2.7903134545190182	14	-0.11751545398375213	0.13992649350682285	-0.03485158972513923
Si	9.30991132148184	5.511222885873341	1.8968577859366276	14	0.23861785699964286	0.08964415809228292	-0.14065745874934096
Si	7.179489354947944	8.796678391502946	8.701357531103188	14	0.04807118483921259	0.06882051899387162	0.10110383161471491
Si	5.388965407426454	16.179500254788046	15.067908068776482	14	-0.17056841249128363	-0.18606652114007222	0.046306635257994964
Si	13.349238564765857	10.517886707776036	3.8874519253290645	14	-0.2207239924135403	0.2767334649287101	0.010689627479047654
Si	1.0229121775452752	6.0889802778599975	7.858178857131732	14	0.1067047274441255	0.08140427976227237	-0.0905239903328376
Si	2.8416396939141175	13.95657451096445	12.675420439302309	14	-0.23298430813266638	0.0029557426760422317	-0.19600975674468088
Si	7.759035864795899	5.738611090541354	14.87566547215963	14	-0.11165924739605083	-0.015689913105671638	-0.13074841884549024
Si	8.792091833179656	11.591221562905398	15.93329766704798	14	-0.07447515092447328	0.08784078482073106	-0.01924678020556449
Si	11.50229929511297	14.409136211731091	4.009679939803853	14	0.10235441724243494	-0.12129292192011369	-0.09956271108581817
Si	13.523824057659182	6.730296368324531	11.479957419825825	14	-0.0038903394599160584	0.04462256127329797	0.06499420005642724
Si	7.987884172970112	6.931954340914105	5.035761131237026	14	-0.02626564061903673	0.00951720345306013	1.5426631920888471e-06
Si	14.407289802812938	14.331390610687924	8.269996795148552	14	0.00027742226404397775	0.15516106386029627	-0.05467686862773703
Si	7.805392514230432	14.61583252354946	12.42761206508289	14	0.1208447782628119	0.10729428189403546	-0.15459696335305578
Si	4.865623061243193	5.469883296132199	8.90860220018005	14	0.25645232905285	0.02541383342647167	0.07064960331862497
Si	8.726524673937083	15.331987103143474	0.00161724469072452	14	0.03505650681915503	-0.08698332119646168	-0.08233836232508215
Si	14.854338467022535	12.966172552854882	1.6715844397103314	14	-0.3311866473935942	-0.1564047075036519	-0.26062317610319424
Si	3.7677889133141607	16.096424948569776	13.407501932702747	14	-0.008914793476549434	0.28835460386524736	-0.04602561344650277
Si	11.277135620338372	3.327949100944594	10.363765580392263	14	0.004339768669877942	0.10435499429204216	-0.00036021185535274586
Si	6.997243229309082	3.221931181785843	5.960052483507543	14	0.0782014538649639	0.012359303273951815	0.0036656248549351163
Si	5.056349900184326	7.858781231672407	9.052144124693223	14	0.09033527120233872	-0.008121093264219724	0.007961684734370542
Si	12.972119364556708	12.942904199333983	7.029039765865078	14	-0.02726605769910635	0.058227822185393546	-0.00925366515774495
Si	15.058937926159913	16.6398649974987	13.162037581152477	14	-0.03877535355421721	0.01803219005232654	-0.08746977432303368
Si	3.9431224637213127	8.759467031630233	7.206556923982176	14	-0.0877790782930475	-0.15841685452719978	0.03393524778903845
Si	0.11316129550523028	13.25764980749854	7.9711322679449355	14	-0.2235725199977323	0.043191741162635564	0.037633011460475416
Si	4.099397734842933	8.332414583151294	11.177706172718251	14	0.17400880852017378	6.427763300370197e-06	-0.14370601832744054
Si	11.738196040168013	5.0316198062698865	8.747632336170781	14	-0.0022391756233169618	0.0549766595080663	0.30860385803513757
Si	6.517227654096254	3.8804411368570273	9.438222009307573	14	0.04564637541178094	-0.14271074345801124	-0.03121913212883402
Si	1.493713713928055	14.864146695956565	10.891499695305496	14	0.19904211835926353	0.14393458959040167	0.048628086251556665
Si	8.749098987226336	16.738615136873225	12.26182811541024	14	0.1149019254258216	0.003457108213471107	0.08176654850188123
Si	12.326283828149773	14.622142724240495	0.4596199589715053	14	-0.20822919188921665	-0.057947828816029424	-0.23429377207221783
Si	2.6703950880792626	10.642285234862058	7.842607147877823	14	-0.07240206870483788	0.07179734473353906	-0.04822056605831319
Si	5.192347410953015	15.878506137156663	6.217312245221133	14	0.288400626650478	0.015402720641411096	-0.056586171438478994
Si	12.956225188497056	16.500575706291702	1.7326337898978432	14	-0.0676828048897061	0.1564466165203703	0.02517420641063387
Si	14.938967179325317	8.850617103090753	3.3720353876402247	14	-0.15209784898187184	-0.08620530472658487	0.24820807984379517
Si	16.12262169353977	8.869104108695048	13.642519669256862	14	-0.0240843148654231	-0.006457073901019886	-0.08994472030420823
Si	3.256561170325284	10.286921904272765	14.922429706541521	14	-0.07949523406206241	0.1942822310800734	0.008464592934991506
Si	10.565474296489338	13.15282190543509	10.546879256320683	14	-3.702391661013234e-05	0.031095461962934893	-0.02715652861246804
Si	2.8434910134942886	10.317595536114352	11.54852335667306	14	0.02902443662755562	-0.03481842246650931	0.08404814736298064
Si	13.34932859356949	3.9639354862340275	7.397660247011231	14	-0.13570062480262748	0.0038818548123595695	-0.0511673098657349
Si	11.728615338574075	8.252146538719048	1.202387052919566	14	0.06797591089620299	-0.007228405497064309	-0.03826421781657177
Si	6.354357363886648	1.7012595702752555	2.4163092509155852	14	-0.11670864113428966	-0.13879700693968178	-0.02044311551102939
Si	0.11923578441947996	5.119648333575336	14.505794409086642	14	0.27401015017360925	-0.03333643735997596	0.07845779306538266
Si	13.241609948465737	7.301021692303747	2.7643131360296778	14	-0.0370475707790777	0.0837437284930751	-0.13713890111871832
Si	1.3868609822265212	10.526894498801397	13.403823846852488	14	0.09375509838866769	-0.14517386235471308	0.22324007607983717
Si	4.343347965604823	12.416083467555792	8.018464502233387	14	0.0936162587013797	0.058686507374507965	-0.035598238710110225
Si	7.458365850857597	2.2314866646054674	0.4272357798608839	14	0.0037535566568841806	0.07248845784359487	0.20259178636425998
Si	11.397134194257728	12.991529574620078	2.030751896474972	14	0.12458187984564711	-0.030538303440058808	-0.022189667355005983
Si	15.860500376429973	3.8679958824202068	12.632252446403738	14	0.0027978768093851396	-0.06059478174312186	-0.12365088260922148
Si	5.0304412473859585	6.842721064527306	1.5333460301748383	14	-0.028915164651449325	0.014717006852527605	0.2674769715551129
Si	1.0597077680339355	3.780162144708074	0.11660366957870563	14	-0.010831809603251842	0.11621421758122519	0.017271657098626735
Si	8.894867078520264	0.6088926260577817	5.349596630041216	14	-0.01411305421282482	-0.06575627567331913	0.0869630094644325
Si	0.19168932869634173	8.406293856300241	5.055562557374368	14	0.18990518138305332	0.051651448997518785	-0.2222540571895604
Si	13.025946767805477	3.0313925848886707	15.1229696850787	14	-0.13922458175442246	-0.09737958555848043	0.06849861660778907
Si	2.37455552867773	15.05035245206796	1.0202964315778889	14	-0.013447909266502514	0.061757949789956856	0.06156820221732994
Si	0.38859541734140723	5.4445475539024075	1.5740030378957046	14	0.17770708641267477	-0.1019924056133581	-0.19363071299194787
Si	2.256925530737603	1.500994588810993	13.967728261290963	14	0.08927597581043771	-0.44057020947078196	0.07080078431144966
Si	13.573876798704703	15.626819976831651	3.902534205268676	14	-0.11267869065548956	0.10201297445591931	0.05589788654427536
Si	4.2346684676332	12.116127136497203	11.950058368427602	14	0.04853706912322343	-9.898755482570104e-05	0.10968566695230518
Si	0.4808176500088358	6.966554865481448	9.968429460989718	14	-0.006714184433034693	0.13996634563928517	0.044834163241146155
H	10.07681268235302	16.196759594888245	7.482691633599355	1	-0.25197397780621605	0.013102609822006625	0.05775730991180645
H	10.92321929815657	7.87701288285185	6.989811760790976	1	-0.18557158336594373	-0.15081666720084208	0.028480133631280272
H	16.030856152439863	15.40914178785734	10.516372586987654	1	-0.0365510903417571	0.04077773037754853	-0.08979636752723569
H	1.6291186714801025	9.890937577484062	2.4428137307052724	1	0.32424157770281026	-0.3086303404199351	0.2345871351892467
H	3.422700324550453	9.10910125653376	1.5230516457011882	1	-0.2675206803455555	-0.35453485480585895	-0.0888484009956971
H	14.777319643957789	5.619889288746253	3.335392027674072	1	0.08592094047817649	0.28569068164304195	-0.27031624316015246
H	0.7822864649684677	11.595184467152608	2.869391481855963	1	0.12123224383455819	0.12878717970728132	0.4127181968692139
H	15.79500032956829	7.446676838371297	15.75394228444942	1	-0.11613374198470455	0.1241615041258029	0.35269085807024875
H	14.497608335505353	6.909848177403745	13.967711892417578	1	0.03789680686632261	0.2172221469674986	0.07770034543806703
H	3.8675310064159905	1.6656343542338299	13.601224275473868	1	-0.012049485082873972	-0.13262326884494224	-0.12605306630983584
H	4.291867858799877	14.471411590535357	13.14073840310014	1	0.09473186129979194	-0.11230125239449182	0.25578872676971975
H	13.87433892795098	14.262988362574566	2.0158627692413384	1	-0.012040229103721439	-0.17660588200405536	-0.00325296245105135
