72
config_type=liquid dft_energy=-6961.795520996192 dft_virial="11.23685543837516 -4.003443078426843 7.306223936508856 -4.003443078426842 8.951049387335388 -8.78871538057747 7.306223936508856 -8.78871538057747 14.713906627241409" pbc="T T T" Lattice="10.914011036500002 0.0 0.0 0.0 10.914011036500002 0.0 0.0 0.0 10.914011036500002" Properties=species:S:1:pos:R:3:Z:I:1:dft_force:R:3
Si	9.438676852608005	5.07679411577145	1.5401197534046611	14	0.29154483134648707	-0.09985041777114274	0.08256359115112713
Si	5.989882107107113	2.245088468285306	9.991788017926789	14	0.17403117713645905	-0.12730159505329974	-0.023630514776416964
Si	7.968690534123891	7.436556098017261	6.227392815283426	14	-0.19465272735670672	0.07073393557312582	-0.06413108000045355
Si	3.01797507384609	8.315330438654168	6.092964941346857	14	-0.19008001654482337	-0.058772639402732925	-0.29190452898077585
Si	8.011779049695994	10.270389977655523	1.783578597595867	14	0.06907300153631016	0.045106700405081857	0.07352769861399872
Si	2.0512447182660294	9.64324907547616	7.845820597874975	14	-0.21828735590163592	0.07247148854848189	0.16684390932451712
Si	10.704254658389509	3.062242302610134	7.540501139128888	14	0.2946144739882119	-0.10076701681777553	0.13087980232734983
Si	5.570631287151001	4.2367208582699725	2.517840518098477	14	0.04784287068678344	0.12851181432749345	0.33607740393357993
Si	0.3141063290315737	6.610005300190006	1.7880533421208318	14	-0.16668295813147585	-0.38251670822609446	0.19575393176532616
Si	3.259414825995543	10.380566919068992	4.957209296844519	14	-0.18471411974167432	0.02727197124134269	0.12433299685065678
Si	1.1132727817671462	2.4393906067681153	5.717883124055461	14	-0.17881420436353052	-0.01578041601294085	0.07711207654081717
Si	2.716639229128325	10.12200308360327	2.6464948801967396	14	0.06149981081581399	0.20341094051925918	-0.2515052653063531
Si	4.626809440736555	3.218880189005982	6.158558147676221	14	0.03842079813056879	0.09855663757404422	-0.6949425143196323
Si	10.646694164183007	5.0961119153060555	8.632797191683881	14	-0.22261838281342536	0.013335294853480026	0.0568761921185917
Si	3.124386681451965	1.4651077555507968	6.386650064328035	14	0.14285241136115134	-0.1543023146833668	-0.05107886384272181
Si	1.9250569226620164	5.871039440930664	9.09452534259405	14	0.06967618284441689	0.12965621330549137	-0.31065765696487185
Si	5.900354474574704	7.790530217964066	9.161995758821693	14	-0.1291252800568808	-0.009111225923008748	0.11505130664492222
Si	8.49269403200833	3.5973562637297287	4.5617946769921245	14	0.3464572132215497	-0.4120170564484095	-0.1961275133683437
Si	5.645294036651699	1.8869561101335948	2.955787038960113	14	0.07099156032620466	-0.03031127484028973	0.21913170688877256
Si	5.443701338796507	10.457488868854243	3.778594331001848	14	0.11460573409294054	0.21029816034033982	0.3800175938549106
Si	9.593404787072465	2.742832855615925	1.5646871922478227	14	0.05571353829282075	0.0027559677926667255	-0.21044291356986417
Si	0.213350361944813	8.28769616270975	0.13303306332610582	14	0.040905000090895864	-0.1184821895841278	-0.04466575584267646
Si	7.979888309447341	1.6011290750986962	3.01052080430816	14	0.2628356122311816	-1.825484777305136e-05	-0.21698740505176906
Si	8.838930118130255	4.853646246119171	10.185697252012284	14	-0.13124592772493893	-0.21219589317714108	-0.045528618788118154
Si	0.6025014308633607	0.22429820641552614	2.7024837568139843	14	-0.15482553461601695	0.42290465903710855	0.00825941873044369
Si	9.953763603475622	6.861005726007434	7.351863372374022	14	0.25625486816426263	0.054689981264869784	0.05725003083214123
Si	2.080046793391353	8.188684254586622	9.61515641106821	14	-0.08981410815394471	-0.01589971529979572	0.003622944506620658
Si	7.650645338509245	6.95148287750002	10.526607300748397	14	0.20784301187013043	-0.009738832731656894	-0.4498899520352548
Si	5.011244565486231	4.0847432545867095	0.21756862721042022	14	-0.24655768733879216	-0.15583649322789916	-0.06298668102245562
Si	4.506395156970851	6.893605876973459	4.79935995522362	14	0.06930260124139938	0.19699320452963753	0.44271965351842585
Si	7.369969716683575	7.94721176040406	1.791414857520074	14	-0.1050728468974275	0.1606105215863501	0.20493869130049114
Si	0.6686970906019405	1.8001569803603104	9.319528594122534	14	0.10982193553427302	-0.29955922373992067	-0.24980885001611938
Si	7.7392998501587345	9.920945172288866	4.138134596577268	14	0.05028156408294389	0.5244764318200904	0.2578378977098778
Si	4.3982373075991354	0.45970687606620925	10.310106063817347	14	-0.1666701026048751	0.05683428310187328	-0.1215898845845908
Si	8.49225747156687	2.8891351735602075	6.7983811306799975	14	-0.2879208583977384	-0.4017233791886647	-0.1637976637412057
Si	3.4514031941386145	4.720910043893259	7.657248315186329	14	0.05926320629781717	-0.05233613434427423	0.4775349906585509
Si	0.9493989060540986	3.074684275191744	0.32416249880060477	14	-0.10428223201148198	0.04291868977763584	0.015975820017272102
Si	9.689982870734454	0.6406273456171662	9.973550705484797	14	-0.18834323490106336	0.14617736476116686	-0.4609493044593396
Si	5.4998211835461905	5.609965382926548	8.333687805217561	14	0.03937364976221567	0.060533846547034365	-0.18624469873875849
Si	7.712287672843397	5.308946044528842	3.1376908609054586	14	-0.21474025900195964	0.06831375413527044	-0.14707082385991832
Si	1.7079772431460312	3.76492998918415	3.9110358549297755	14	0.08215684228947971	-0.09128683728132553	-0.2713721961151373
Si	9.489688940192606	7.972390383865266	9.422917020671298	14	0.29040146081061724	0.14047439605054643	0.04437856337841592
Si	6.17823610957503	5.9858330090125715	6.149499518515926	14	0.33919075536574717	-0.3383122086778526	0.045506250171832865
Si	6.332527483598031	2.514533572754418	7.648004147838413	14	0.1321363014973062	0.271610794688847	0.4268561908036442
Si	7.087493283036882	9.15105991976312	7.593554146777314	14	0.3369811474536119	-0.051590256690899255	0.05940847374840555
Si	3.6269441476496804	5.0545950173232095	3.6377708465978884	14	0.0929981649824161	0.11324433382592215	0.15432776862603625
Si	8.28386534483594	2.487510481428044	10.500402760249761	14	0.03062186436296362	-0.04678023285796624	0.05791826110484772
Si	3.888236485874527	1.0083836787008629	1.637036171408781	14	0.18529801775987997	-0.14131848992715101	-0.18496660228411285
Si	0.6975395475680991	7.696506012884619	5.8807092547090045	14	0.018124492733319852	0.20896041424226677	0.08704477061361321
Si	10.810960944293369	0.5708911806983458	4.9537277273238765	14	0.29397478298455904	-0.013793465821530414	-0.04075587598232728
Si	3.5685323605823323	8.219167087411567	1.5689873125962037	14	-0.027654808823512737	0.00554870239141157	-0.061829169407324955
Si	10.200049176525281	10.28982783131153	0.9715074182107367	14	-0.009462438909740975	0.1569029877146966	0.13400035285441356
Si	10.757296752026898	7.727785568515229	3.7375467354935714	14	-0.008006936188005147	0.4062652367367062	-0.0660177570843782
Si	2.58228775326901	6.112861183466395	1.80605054632002	14	-0.17059232377076103	0.05718909563605371	0.024261978243045334
Si	6.175049218352373	0.25389373014320316	7.013834622551544	14	-0.6534456457840382	0.25442398406578515	-0.047865753524132755
Si	9.17251686546088	9.997747067952716	8.28794718496359	14	0.0402267425074408	-0.07526833691573898	0.4232520153658606
Si	5.365415137631692	8.21017394231749	3.0048782606022897	14	-0.17501719602673585	-0.16385448516878096	-0.0825057412814238
Si	1.8930897843361079	2.1629168791914974	2.205263242013117	14	-0.20536806588895584	-0.18747317286072523	0.3081037780503688
Si	2.707875278266015	0.8293982633066775	8.647814870870105	14	0.0788074633889228	-0.1125316234311771	-0.060230199008724866
Si	8.441463664202999	7.585455950588231	3.9224082544298087	14	0.09940793054554525	-0.14267114843608095	-0.11441984317829386
Si	8.523580683241626	0.9643827518061094	5.302779628293219	14	0.13949377648144193	-0.1928740366962283	-0.17217432487424814
Si	4.213877833170578	8.941008863354641	10.359655673923058	14	0.20828575620625991	0.08401009500424243	-0.07701283187545944
Si	2.697648849924815	4.654967589210725	0.024343701616913252	14	-0.03679971622621543	-0.02584783600451267	-0.1517810888064296
Si	10.907451715867065	9.858004070641371	6.681164652147987	14	0.13731682160687256	-0.13617062285515055	-0.18941255760371292
H	5.689626749481962	0.27894684247748897	5.574047372605427	1	0.22890499243171944	0.060947280282514164	-0.5155765507543978
H	9.958936844706923	3.3328988623042974	4.233370256881766	1	0.114613704519433	0.32792314341073026	0.04413610814672596
H	4.69608066878522	0.08279041351957805	7.355497738049176	1	-0.1990086939901016	-0.23808846641422432	0.4238881068220652
H	0.3391976404044872	9.140342360925276	3.2816794085100027	1	-0.3406565425087636	-0.3153509526162702	0.23674634943710707
H	5.6666636702611655	5.310212069809076	10.491464185210868	1	0.033406628535216	0.0488214333716318	-0.020173149452413844
H	1.6763375251512178	10.575392930081552	5.0797408987513055	1	-0.3488866506385576	-0.034253036406608754	-0.027361702817015856
H	6.792716758952053	4.759250964664483	5.448241567387691	1	-0.31014626411669444	0.20466666835761946	0.1475531632179781
H	3.226858331073663	3.45519035596828	8.47872409788161	1	-0.0960595800871164	-0.11356469354881259	0.28370604544641964
