72
config_type=liquid dft_energy=-6966.98031875622 dft_virial="-34.42108116741974 -8.192593562440296 2.3886232524385265 -8.192593562440294 -25.344842730117282 2.069345269167487 2.3886232524385265 2.069345269167487 -29.045022843295765" pbc="T T T" Lattice="11.2999927403 0.0 0.0 0.0 11.2999927403 0.0 0.0 0.0 11.2999927403" Properties=species:S:1:pos:R:3:Z:I:1:dft_force:R:3
Si	10.8268507442709	8.252203898357246	6.4522845547185605	14	0.15866779440644624	-0.05718189654115731	0.09321593760303264
Si	11.184981414189227	4.638579219936709	1.5151934265613467	14	-0.08279447640887642	0.1886545957553333	-0.14019671667597042
Si	10.486980862620896	6.1047984779615945	7.287806017936343	14	-0.161337115949824	0.07744400623764827	-0.029072002075978362
Si	5.009117281883886	4.378136987258274	0.4838295291628771	14	-0.2014198765593365	-0.06739226998852936	-0.20198680528242913
Si	1.0182412158291592	2.8717349550488804	0.25426452664731236	14	0.2753062443654959	-0.12165056267014629	0.02981633706616123
Si	3.6506886546087216	7.923543609505621	0.794427909618407	14	0.18191675715335323	0.2137596394328552	-0.23680419930681038
Si	1.5055206327756496	0.31738289609680614	3.595239590232069	14	-0.025746534454898835	0.031171823790943295	-0.09886465599139797
Si	4.8844896619511164	2.775538116850707	4.967657608519725	14	-0.1458354077535872	-0.04996197569164948	-0.05957431004155509
Si	9.5710938510341	2.8257326846031194	8.349666335742333	14	-0.09167378863200781	0.20498754230157396	-0.025152609125944626
Si	2.2804967348909044	10.758169388395356	7.216378763824906	14	0.07500762683627596	0.11975025872802485	-0.3615974240097737
Si	3.9855300394892907	5.9400106838298	2.0495813832428738	14	0.5494817166111906	-0.10099687363339677	-0.047583189049448485
Si	1.8417971167342373	8.491029244923485	6.706590891339012	14	0.03220103725059857	-0.1896755816779641	0.11652814954081527
Si	9.783183414776792	9.776855418842223	10.210526540229457	14	0.08743069352216744	0.07615254003533789	-0.3589741252516266
Si	4.60023834456887	10.638694565152164	6.713800286707322	14	0.09311129361650261	0.27242223552788575	0.3218746181450819
Si	5.642843474745391	9.506717792392612	8.612560666845413	14	-0.013149146828301305	-0.1048537887241509	-0.4519393800859448
Si	9.726208851380198	9.880148652481305	7.805639485253329	14	-0.15882951693108355	0.045210315949483826	0.1026138417692379
Si	0.6753768361029764	5.833169252470262	9.161955013886057	14	-0.1265382338837478	-0.07220820736369873	0.011045982676420178
Si	0.4806519712043047	3.4567355792142123	9.107432548914112	14	0.012374729905872704	0.12755150649041816	-0.039214498342898495
Si	7.858274851437647	5.72004502514712	10.002222474054767	14	-0.22901580707101782	-0.09683862499912128	0.02991506751045491
Si	9.974989491550645	0.8272634285231708	6.908521761608172	14	0.039597850146132575	-0.08447726484091334	0.07202308778064806
Si	10.735490302965573	7.973546077381448	4.090699071923263	14	0.19143370349588135	-0.06320291097988007	0.07366293875383852
Si	10.774350977999465	4.506877804548512	5.504814063422626	14	0.07282784374585441	0.10825998905228307	-0.01892410648788591
Si	8.463536362586337	8.35634463145185	3.5949231904353405	14	-0.06269691745287494	0.11824924744212238	0.15718015286820855
Si	5.959005971626244	1.3442245364006074	6.49445612762536	14	0.019374564139975847	0.33029164563165064	0.1649927134940105
Si	5.46993098583332	10.722280611452163	3.105475304881986	14	0.21647266976667542	-0.047913833193619526	0.17457085214315815
Si	2.7076364604742444	5.783867384144335	4.055589994479151	14	-0.05358080642975791	-0.03538997917917824	0.2181253762664666
Si	7.526360164676816	9.352823191262464	7.197010576268032	14	0.24510321305918434	-0.24131108982249797	0.1518502515395416
Si	3.827431841059753	1.1587577555540636	3.5266712342839286	14	0.251746177874851	-0.3403071292957555	0.016111317267643907
Si	2.5004058936098827	10.948913265851619	9.55300256265688	14	-0.20469263652135294	-0.0006443189932291086	-0.09346790592440715
Si	8.48174065089096	5.0241688722139655	7.8195271763311585	14	0.10655071823544864	-0.049585051651715784	0.1543992453539364
Si	6.961111927821529	7.955477388989708	5.404741327714529	14	0.1068625933107826	-0.15390893556938415	0.2740952537597061
Si	4.480356721587028	5.5790550157263965	7.443847617687145	14	-0.2470325704914235	-0.3410563493860466	0.016607540594432483
Si	5.857080037108737	2.246031757032989	8.668755530742924	14	0.09618993512684793	-0.38288257651315155	-0.20167055932805092
Si	7.886999432983489	2.2570492499547816	9.889177346680805	14	-0.10822399357780102	-0.2000003693120827	0.018647969776502002
Si	0.9002127916567255	0.9680138780977996	5.926473292526921	14	-0.09662239504169683	-0.021330146846480477	0.12373598619531839
Si	9.151898020347192	3.373906632427813	2.0266084980018437	14	-0.11704211349431287	-0.051536006368644145	-0.11215444228071136
Si	4.205145398397021	7.8601732502180175	9.777420418479238	14	0.00036226873960886434	-0.33958721980611406	-0.0400459938034344
Si	7.437033722064744	7.72804243510569	1.5823153834387287	14	0.021931785491395128	-0.16814000351640376	0.08889750910731192
Si	1.3575585278341613	8.47536745498543	0.9836338580627162	14	0.049592507857144204	0.10305324366845121	-0.052332277686294004
Si	3.4121345078682475	2.3924118629908353	0.38170584477241576	14	-0.35617856243702956	-0.6369273225442149	0.09396772879864393
Si	4.982878698740909	9.186238698284964	4.856386580005991	14	0.02541511897913175	-0.08033778527547493	0.03389359588285205
Si	9.267248346240175	0.9933563718164704	1.713643899066495	14	-0.013126521101484	0.1039924684419013	0.15767611908446513
Si	8.165962353763275	1.3085617593122207	5.488519473891113	14	0.07073136446780566	0.27313083215411854	-0.27235924344754214
Si	6.345296223453399	5.6816589498083205	2.308272117046562	14	-0.32169618343586365	0.2808881140155373	0.20305767064827082
Si	5.573212919479662	9.268378345514204	1.2371910051644859	14	-0.15593650922485294	-0.22508150171012722	0.12467752496355662
Si	1.2096303228708942	3.2384084194788754	6.636395336436268	14	0.01872330316238234	-0.26187247617825415	0.07824927642391864
Si	1.3142908556315527	9.192939593979961	3.28227499129672	14	-0.14815531608395677	-0.06729739620221589	-0.09724485963970467
Si	11.240407878580399	6.6217957458158	0.10472381272000429	14	-0.10699551945583424	-0.0715965414080355	0.04934182508842977
Si	3.2762068951951795	4.240830775470888	5.87822232352584	14	0.009201471719745944	-0.09948557792621372	-0.0938422588590207
Si	2.9032619347943176	8.058149123028075	4.643381716851335	14	-0.024424472099278692	0.25477082617347313	-0.02320525395646447
Si	0.3323610364740738	0.8426438486419932	1.4487833692266032	14	0.16232596305595293	-0.09983653380241393	-0.23603646725821417
Si	8.795801349122117	3.434203393690054	4.4592709351336275	14	-0.11055675743477136	-0.04502879591388137	0.09380832026879475
Si	8.303686665282052	0.20411402886658697	11.006113829103018	14	0.1022562010192053	0.19590177032123468	-0.2842079252049125
Si	4.409517067098087	0.9944502111137313	10.078915524783183	14	0.09868699261377574	0.5715873088222277	-0.11678577429389411
Si	9.03664939438887	7.561051142389537	11.065630890866178	14	0.05161802462835686	0.07360277488934704	-0.06559301048548973
Si	6.082797392096231	10.725342909484784	10.74440599723767	14	-0.33575678710015744	0.31947551977085176	0.3954750790396408
Si	7.470289600699447	3.9417199676351475	0.3233142622861896	14	0.3340372318620424	0.3771934917712599	0.11125712652397968
Si	0.3504963948229812	5.717299126911227	3.6610507479515766	14	0.1405088488618364	-0.2381982526113947	0.09277910680913948
Si	6.612721851645339	4.417856461740429	4.383154184034967	14	0.04268677607775848	-0.21437696182022273	-0.07125741261630797
Si	6.640576333750179	5.772194491643605	6.337194128658605	14	0.004387848339364711	0.14960593370558434	-0.17068822599920253
Si	0.70300531835301	10.427780200654464	11.068602788956877	14	-0.29415861701494966	0.007138159700327112	0.44073116066382323
Si	7.635054794845761	0.44609207340737117	3.3763813308379382	14	-0.23785912381966715	0.29633994276856324	-0.035976705413236026
Si	2.664481788199039	6.90990036072249	8.275267183540198	14	0.06289617811518641	0.390390718269048	-0.16699174788042564
Si	5.477230781143554	5.761165698729072	9.754944732918782	14	0.34781398549899184	-0.1618461948032133	0.2254733381609178
H	5.340218369167416	6.265665174612505	0.01095760296026891	1	0.15682739721828423	-0.13720086475693385	0.14189750284524838
H	3.08564381762276	0.9246490259576242	0.8613317766359013	1	-0.13685299420711786	0.18648252598087217	0.0023561609153836993
H	3.760513284051697	2.088351658334843	2.3168714115219298	1	0.10222277665004335	0.40713658432970445	-0.3103936044484927
H	6.472726241585763	10.945014768356216	9.007800512922886	1	-0.06251488319620845	0.02533001539303484	0.08121427507911341
H	7.001475501889881	1.799625543827438	3.0425456453112556	1	-0.15780827389792074	0.3067516337625029	-0.1234287391095607
H	7.282856621116091	10.702765523989665	6.544820195268877	1	-0.14602464110515007	-0.011243700675539564	-0.0834084563593278
H	3.2237523288947063	9.608790626815741	9.832677382979304	1	-0.032670263971525594	-0.15371893088622524	-0.09305010130988309
H	8.40149940244209	9.911980732030731	3.578493000990944	1	0.15306329902958746	-0.3505943787921999	0.07825930373466723
