72
config_type=liquid dft_energy=-6968.520404992828 dft_virial="-35.85054566513532 -6.279575272633732 -10.5494214970427 -6.279575272633732 -29.12848555261558 12.355130589152358 -10.549421497042701 12.355130589152358 -21.96923981984919" pbc="T T T" Lattice="11.2999927403 0.0 0.0 0.0 11.2999927403 0.0 0.0 0.0 11.2999927403" Properties=species:S:1:pos:R:3:Z:I:1:dft_force:R:3
Si	10.906142793329584	8.23726530795457	6.428328570109124	14	-0.02698709277187028	0.2591170226066514	-0.1597851967785826
Si	11.253391570239003	4.723283965517997	1.4917685416107045	14	0.009939121836096429	0.046606426138324226	-0.056156282628950234
Si	10.528982935636591	6.054411810332597	7.200999473705357	14	-0.1960552653088475	0.13587340308014142	0.061833797396901216
Si	5.090714529461592	4.459519534973914	0.4430184753820096	14	-0.3597516275004394	-0.08427260485742956	0.0017894893028230629
Si	1.218659017070394	2.9626433966445944	0.37572136861715294	14	0.026437390454422626	-0.03541594734291173	0.226605138722847
Si	3.8162787482250775	8.058228222977256	0.6898476068062046	14	0.05664479263977838	0.18952748601152355	-0.12555812853570733
Si	1.8627134032965325	0.3064817931002387	3.1240185929688185	14	0.22017146188024045	0.05570248253994411	0.0914529306850071
Si	4.899439552346534	2.7297166462887907	4.569988264003087	14	-0.10948357807414155	0.06875187048182366	-0.22968018068574408
Si	9.519396384247228	2.9489817054215717	8.494487042702017	14	-0.47068993696472067	-0.06151112367922263	0.023328409901299564
Si	2.362037482504909	10.804442858666885	7.070292457678307	14	0.015608923288086975	0.1655305887269855	-0.150242539382853
Si	4.206399697591195	6.107736476074073	1.945327650220866	14	0.38950985758636525	-0.2043645634825021	0.0636232866997243
Si	1.9087043737495537	8.538003314744913	6.643005832189343	14	0.12405223214969661	-0.18106829239770436	-0.020584269193105523
Si	9.797489205586011	9.901855938535421	10.161970471424388	14	0.05994634898138052	0.018257933099435537	-0.2426336663991821
Si	4.683937390796272	10.604738086967563	6.767746452049515	14	0.19213227281136558	-0.22071422221332374	0.23562791862284263
Si	5.689037845067737	9.52217618246134	8.703401308484684	14	-0.07811300784195081	0.021175880527271596	-0.12148909725604098
Si	9.729836149049834	9.868577459915238	7.781853000534999	14	-0.5676938840359275	0.021669018527675995	0.09453105797428839
Si	0.5752532504275483	5.810230267207454	9.16204541382798	14	0.20132371722036296	0.15164610577712184	0.08178737445497443
Si	0.4125367449650503	3.453955781000098	9.399966760974998	14	0.22912456482606006	-0.07911162514829632	0.3903405817153051
Si	8.039820534803308	5.887996817246199	10.06194293568725	14	-0.3592037249567158	0.036684787818404806	0.46085597333621836
Si	9.818880091843399	0.9192205094451842	7.201926073110062	14	-0.25074473235265327	0.06918844416518481	0.34902806143116577
Si	10.820285448488784	8.117530584878349	4.0496800982759735	14	0.10743132180759933	0.12574170545556593	-0.02006593436056367
Si	10.816895450666694	4.558710871248268	5.3511115621690655	14	0.304826647209308	0.07858557699979402	-0.015156665862272925
Si	8.543110911463529	8.7198088979436	3.63217926650011	14	-0.01594033876385406	-0.35501230906381037	0.16297362448609823
Si	5.578490016089382	1.4353702778438673	6.444894359466404	14	0.3890694272450239	-0.0967748615871816	-0.06984613290607869
Si	5.735130515455421	10.813968752546957	3.0704227274015756	14	0.13196943676202857	-0.03186088001674298	-0.1820489119668088
Si	2.8273146835867617	5.899387209928421	3.8953899973999175	14	-0.06857960642537374	-0.13114719728064522	0.22314031719341546
Si	7.639100192246789	8.767381867380262	7.601426016450628	14	0.06384645864151314	-0.01629489418750248	-0.04807427016559677
Si	4.092540970739932	1.2989793654684463	2.7816175129449885	14	-0.02652712203009579	-0.17345987753432215	-0.11943247011045452
Si	2.2628913462015166	0.09938117615239045	9.341850898311634	14	0.01956765414951897	0.2677705917826739	0.08134437300831292
Si	8.49496164239711	5.029400768852724	7.719318840710178	14	0.30245300277774734	0.240182888808017	-0.2769075287588841
Si	7.036426379435629	7.997434262034441	5.444573802124086	14	0.1085227560160022	0.15026130845169008	0.13060032317904974
Si	4.826057399491026	4.905733648302881	7.59319962173569	14	-0.14775576631720577	0.055507849867208886	-0.4611331384897303
Si	5.632051981678404	2.5369839701102337	8.533935317358406	14	-0.23573564793575685	0.20935122225092928	-0.059568910720382784
Si	7.7051373498211015	2.4538160235416258	9.871153858260028	14	0.03983002095654195	-0.09880834878488672	0.035416718674507776
Si	1.3222686505062045	0.8882788693236947	5.370265049863874	14	0.05206822516991479	-0.1302298269024164	-0.29926097552278347
Si	9.263225548824627	3.374245632210022	1.9352593566892586	14	-0.052665750046317204	-0.06440490271704931	-0.06520914446119162
Si	4.404533770299615	7.744800324339555	9.740028742501586	14	-0.025286306602592325	0.15420692667598931	-0.09772385656084827
Si	7.527738763791132	7.867665145404837	1.6596864337315627	14	0.20493200642665874	0.11442010028882586	-0.14141233527133645
Si	1.4889887433965907	8.52475972325328	0.866935443035816	14	0.03762478392345094	0.016838940073245812	0.007330735488806202
Si	3.666994544132974	2.5315260736166687	0.6641344733256519	14	0.08846787740831517	-0.12492100863737465	-0.03850872993251785
Si	5.111404816169081	9.294888128482947	4.836894092528973	14	-0.06273471270108112	0.063583434567262	0.0909286823102289
Si	9.334675402921544	0.9856542967646819	1.5712639905387151	14	-0.10744134911834793	0.0852563097529182	0.08703859996084487
Si	8.702587709007382	1.2460275994874006	5.155858987609421	14	0.2556069496235853	-0.042410382255842566	-0.23595470610903346
Si	6.5454303948768535	5.722892623317676	2.2722590401832257	14	-0.45968277797863477	0.21511126949965703	0.14942184256466173
Si	5.693772542025923	9.401718259849742	1.1986693299128033	14	-0.1527725070178787	0.02948003649028586	-0.008136005675076581
Si	1.2683337851567527	3.1436466803587195	6.102312479558728	14	0.22530827319936428	-0.043436510389113656	-0.511811681234105
Si	1.4679255569286715	9.221991875315272	3.1626984681188657	14	-0.024155534482791202	-0.11152812102472329	-0.072560448792559
Si	11.27358465726592	6.708331090221018	0.08564603497655579	14	0.007257716097713997	-0.24778796123448302	-0.06776816558633501
Si	3.336707056326745	4.194466905257438	5.5452680374328995	14	0.28446863528437555	0.043107408908134706	0.22653006244749865
Si	3.0401387468575716	8.129271277335521	4.619866431958771	14	-0.13187841963369534	0.23739426797778437	-0.2785334957633457
Si	0.4211382994389667	0.8811779538856902	1.2579264918429365	14	0.1474210084045225	-0.01264880973300049	0.14291591766255904
Si	8.923502567080249	3.450283283359501	4.320676524173849	14	-0.036592228026879475	-0.08231059438762456	-0.2275448777173611
Si	8.23166051155538	0.340655231145454	10.849247329882175	14	0.015426631920888471	0.052557249401806956	-0.08311612168442695
Si	4.283488248065521	1.186420137782318	10.092927515781154	14	0.0467344671832676	-0.2498132208951636	0.13082298089977457
Si	9.129795234547164	7.7467552230836265	11.158980130893797	14	-0.09682705502518062	0.07621630344727758	-0.0026616082274172914
Si	6.010793838355038	10.836817337867844	10.65253705625903	14	-0.07510198640152539	-0.11960704816169258	0.006135685736001375
Si	7.57288223478863	4.115231356162454	0.364349055923315	14	0.09351470004123384	0.18384662880665636	0.19480030880208324
Si	0.41969077036893426	5.843949445544509	3.5779506013394102	14	0.07928723164166243	-0.014147507024114804	0.052673977583341684
Si	6.726015578859586	4.344112709117231	4.259204563666617	14	-0.07744169224286014	-0.06398144167082091	0.026025242271602887
Si	6.678250509546339	5.683116648871819	6.205831713052618	14	-0.1379200029149793	-0.09589940022567119	-0.07012998293342303
Si	0.7401438744932799	10.461341179093155	10.931443477075117	14	0.06444706884429972	-0.07758130326174419	0.1367655766262328
Si	8.181228643955421	11.083597879323255	3.3442102515063046	14	-0.1273126508061764	0.10857674922772532	0.10627998084523704
Si	2.379428171332231	7.341831283227716	8.592039880029027	14	-0.021012358228910174	-0.07228071253372689	0.40334343265089
Si	5.591292907864141	5.737401813996221	9.779827316932922	14	0.07712930294646216	0.04948889231274224	-0.22858077605084876
H	7.259194436317902	1.1259357966405883	5.84774624310525	1	-0.639429522241783	0.17843779454466085	0.39984621519442454
H	1.1591532552999742	3.1512176754947205	7.7252739368843155	1	0.10549347972780374	-0.11359580392318638	-0.025570927961532722
H	8.033436038905037	7.432660624874247	8.286408976382134	1	-0.055268479961903115	0.32314320151004294	-0.13815911570975306
H	1.5967906741390527	8.388267110943199	9.429764841831169	1	-0.043601318240135155	0.04998151609208261	-0.056790574311430767
H	3.6481348562494134	6.036004122158648	7.701114552405555	1	0.28528496122352254	-0.44602609496013623	0.0978200158998218
H	9.44412713260409	5.374796346952734	9.506118892777376	1	0.050476453866211114	-0.2298892115482721	0.1800797024021074
H	11.166505926058838	0.4982358899074855	5.370084249980029	1	0.02593782469071785	-0.31079803931535194	-0.5325155068245975
H	11.288884847436286	1.1740579457244298	7.14877090725969	1	0.10109071897758218	0.07433502568452523	0.3872732530683684
