234
config_type=amorph sigma="0.01 0.1 1.8327343504982132 0" dft_energy=-23367.71537557091 dft_virial="54.6010895504522 -3.254824212533428 11.924932877929544 -3.2548242125334275 61.28034419999351 -14.864774102153286 11.924932877929542 -14.864774102153286 61.453988667907815" pbc="T T T" Lattice="16.365857079 0.0 0.0 0.109143900859851 16.44850465724895 0.0 0.012438051380040002 0.077852382124803 16.338444268392678" Properties=species:S:1:pos:R:3:Z:I:1:dft_force:R:3
Si	7.5571423526131545	3.716363735256444	14.661184495894238	14	2.073709826444044	-0.14644295994073817	0.6582299585637698
Si	7.11072432272644	14.62819256460868	14.631922343436985	14	0.033000908115696635	0.041844739085409983	-1.881283676294586
Si	11.851852564841547	2.9068020660580904	13.163031026682667	14	0.1257766724879199	-0.26643901633736916	-0.7224325152921234
Si	10.364122510003593	3.407621841461109	3.3971215075592225	14	0.2470852781504865	1.373834646567708	0.2975195658894472
Si	1.3924103934527359	12.605938888299216	10.508672306068151	14	0.489274657550347	0.12830843989666973	-0.22206610939065757
Si	1.0653665616859551	12.8737972345255	16.33745904379652	14	1.4177231572721036	0.5576922843405515	-0.5677411923738183
Si	6.4714935842491945	14.858700751809273	5.702033174651514	14	1.2372361917872845	-1.3111282160251485	0.05530010455734092
Si	1.473288822551446	5.022692993645056	6.381370082486557	14	-0.4396258424866916	1.304190088318729	-0.0691833019545445
Si	15.361903396002994	14.752960949221853	11.39573449146411	14	-1.717187764336243	-1.1688206218813366	1.3932596043719587
Si	5.474770336909688	12.033428475961637	3.6353674719867652	14	-0.7360966545160504	-0.13210879067038062	-0.18812623361204286
Si	0.1974344266296402	5.194220268518639	8.270174923588149	14	-0.04949789118136275	1.3466531782336346	0.03508761719352882
Si	16.344499635511905	8.832667794807673	13.922148214606418	14	0.3950804143729981	-0.09114414093605731	-1.1903729122274778
Si	9.74570423197371	2.7060404606842896	12.10508474459633	14	1.0433910486116365	0.6890258867569075	-0.906872812317202
Si	14.22478237053987	12.27744995135236	5.193727656220561	14	-0.310885714006769	0.8054293376896954	1.025080407853138
Si	13.262854571936026	5.83852769586179	2.996405133565615	14	-0.5153924596134752	-0.6904443655620331	0.49576772692584903
Si	4.486549152322723	11.574562575180636	16.213089986096076	14	0.641182758959592	-0.31969843460210856	1.0308013743009994
Si	1.0970819561193494	10.345082471877884	4.648923003332022	14	-1.2455331486554024	1.0442204871879164	-0.05524868245093797
Si	16.04215024549163	6.498773831414179	5.399526672403279	14	1.1492323988892565	-0.06124784249443948	-0.3767867429096125
Si	4.5218503060421265	1.0662257691826027	4.025334751050885	14	0.9615388823025944	1.0537860274209954	-0.42702202709679377
Si	10.99942380619617	5.86168865679999	6.1276992977620575	14	0.09597164828516734	0.39683905041197937	1.53229135322737
Si	13.25512988739474	8.545334078657378	6.394963563376374	14	-0.9454177948347338	-0.21412422216725216	-1.1624638210878024
Si	10.581447999327048	6.290588673269344	13.315305507288514	14	0.2559357939940322	0.9716268711367275	-1.7481520999278501
Si	8.83455477812888	16.24725371274849	13.969954519719886	14	-0.4977271662903338	0.47139801936988945	-0.21168501455002767
Si	7.431614592231516	4.109378336908674	6.199587961567272	14	-0.9258434558113826	-0.3821827216450073	-0.8482076451168513
Si	14.30654946567797	13.872649679870984	1.6400519964293323	14	-0.5528904880446429	-0.9066159588957193	-0.12128212327776906
Si	12.473236336174145	15.757960410486211	12.917170028956265	14	0.18021545676301126	-0.666463923351544	-1.177618172955287
Si	10.28068937061485	15.290741376252086	12.347693846521134	14	-0.3724575157715471	-0.10304707301568285	-0.10734570400043843
Si	13.827633753389485	3.7140692420939683	11.828850352717014	14	-0.9381148272833852	-0.5654233409277046	0.4841211340466423
Si	15.885763025001829	7.392616391397967	8.9614048997625	14	0.8362111248035724	0.14650338091576165	0.28536646526217124
Si	9.847300199548727	13.061904759205818	12.803373314928855	14	2.02206403387823	0.08958733666470764	0.43898538015144273
Si	12.029697060547626	7.1457096154042175	4.602113378914667	14	0.6374621124508056	1.4233837027449416	-1.1316367825202909
Si	9.28499880885703	2.7212787102105467	16.30746206435642	14	-0.392093561322582	-0.14204739828541302	-2.090321480806989
Si	9.568277065623148	6.031896843593007	0.31791659327382243	14	-0.3872421426939946	0.7771919164006372	0.5496046154454937
Si	16.229768431045287	8.415549558849492	16.15861786739433	14	0.08092296884634063	0.9000575834450855	0.5220968738462934
Si	8.80539409398552	10.81956958324079	9.456622642287378	14	1.604100782155914	1.2058188274382673	-0.9499977047415137
Si	2.5247509520630826	5.240475090381016	13.783058068463413	14	-0.7618244199021121	0.31639250738146213	0.7879311662123637
Si	10.263136988897621	1.5319064128513002	10.077680733064103	14	-1.0035900811452123	-0.5520458799469743	0.25231053549262344
Si	12.398324898566438	15.193700026702155	2.524876969162591	14	0.5302279944212617	-0.0529503714052576	-1.3262519717393235
Si	1.7526327272757733	16.41824582409559	14.55532685913585	14	-0.5816318459764502	0.47223697103585377	0.38994206039068213
Si	6.2054813067014205	11.931938886457633	1.408627321232317	14	-0.03498348742806282	0.10690861609601324	-0.34114428118799567
Si	9.954733868343823	16.36453471774802	4.633336161049983	14	-0.35434973522280827	-1.2110849653549947	0.7377673587530826
Si	11.92978350308033	10.126573731087616	11.675284605987633	14	0.27844864928778085	-0.927517759595863	1.2523193240374015
Si	8.742419912531235	10.059737207362687	15.805544139943402	14	0.03747077471477408	-0.6102716452481117	0.43346675969227694
Si	0.9821134467250822	15.5102124294386	6.365652313347885	14	0.3639939512786837	0.2436317694844636	-0.25731519199829167
Si	5.304817457487106	1.4073900624371447	13.670714642544619	14	0.348684561760394	-1.5542753321567642	-0.016832255199413428
Si	12.855814430767095	0.9208805924640038	3.051923030534707	14	-0.07527116513159113	0.08160431175617987	0.329742200424735
Si	1.05703961360416	6.044678577971705	12.119871296467206	14	0.4571600094385055	-0.31061394817442933	-0.5182106481548896
Si	3.747282112450091	14.863247186905818	9.58342530293547	14	1.3427687523159546	0.49599835507306633	-1.2850896040058808
Si	1.017268944316482	8.935550118749097	10.048629700163168	14	-0.7856148574294424	0.9127429028736321	-1.4654187036240427
Si	6.701160566395925	3.5627112494845443	9.806216988523312	14	1.970793108468093	0.07743680714275186	-0.969919914314681
Si	10.215111381299296	0.6702358547134107	15.613143850951262	14	-0.4227915304030221	-0.1920718518363421	0.2248447029101416
Si	0.20521311849928892	4.799668912886691	0.6379623845536228	14	-0.2033839439133976	0.07974154595173259	0.735450278638565
Si	1.3435844954432472	3.048497656648072	5.350136152324564	14	-0.7791984069924808	-0.6266182186525491	-1.1835440564971644
Si	14.267258316002707	1.7121223212481247	15.325031120004006	14	-0.3919349241243289	-1.2805837419323214	0.573607169161736
Si	10.687212350700086	6.839735188040941	8.312948727649824	14	-1.1753129199252423	0.6581366274406484	-1.2888035656408348
Si	2.5159968551115255	8.5417548657142	4.494116724636053	14	-0.24937947542765462	-0.15959544920595567	-0.1997777115913579
Si	7.484505769139428	0.7208898189586237	7.916855708281035	14	-1.005804317046924	-0.3743351939868513	-0.5792615439818057
Si	6.099049228359559	8.411566109236462	1.0943423116443245	14	0.5523649541172047	-0.6192717994212901	0.7113651924415461
Si	8.806024179483058	10.511598521313877	5.5411813483505625	14	-0.3117256941148614	-0.2466541037882977	-1.0145651013147965
Si	16.010240097358995	2.916140424107368	2.050718811526971	14	0.059723434150123676	0.08560109497635006	-1.1085796242302668
Si	15.349270590923714	6.972765057307592	12.706012831165884	14	0.13654214757391195	0.042778821648219785	0.6248531548502675
Si	1.1500402330412856	4.673974220762847	10.22117984110419	14	0.07740749654210216	-1.2375411248782544	1.450541259799538
Si	7.649221574296732	5.583984610954979	10.51749513961944	14	1.2418695806847235	-0.5645396520291699	-0.07042437449257999
Si	13.197292948477553	13.674550799443935	13.691612205448791	14	1.31452284637934	-0.3060471509047823	-1.869603401935685
Si	2.985284533680435	10.113888555265682	1.0050927466497062	14	0.2867178382184411	-0.891471634338983	-0.08396998576124812
Si	2.374543479206313	1.7037315463237213	16.043726277528336	14	0.7300069915652797	0.3657955247765115	-0.3527607921349567
Si	7.0723922122760055	13.710174360547795	3.7566155607422442	14	0.5831161450777717	-0.39105971987335053	1.5363662980492727
Si	13.906854321166092	0.8472587843941222	6.827997595343883	14	0.11493355002125942	1.1875318408487143	0.8103766585467246
Si	13.641274102245205	15.167611213932522	7.508949813272623	14	-0.8631743062959654	-0.44431733836436577	-0.462968393467252
Si	10.517243105420423	8.788419427023179	13.096795129912538	14	0.6946314105758943	-1.3704405304345806	-0.05115882521817842
Si	3.6958704090221204	10.723785131514529	12.96589118548045	14	-1.8732469152848668	1.131689747289886	-1.908601156100095
Si	9.205774967909006	14.270104338548746	8.234850857668835	14	0.5443567323765395	1.1252136472094971	0.599494085967115
Si	2.2269316312822722	16.482570188758892	10.073546717565947	14	-1.3031140807422468	-0.5089220159647906	0.9987836568597276
Si	1.1103841247531603	1.4992843499357296	7.013062707193215	14	0.47236424074920114	-0.9086846702363104	1.7374375327271974
Si	15.013657596390368	6.478980963862837	16.164499756428523	14	1.3193837780976119	-1.8080030609018531	-1.1431393935015697
Si	15.430780742105673	9.5069263771911	3.515459746926056	14	1.5373271201074121	-0.40736926936117784	-0.4304498247096152
Si	3.2063103432894535	8.590842617436952	6.718447821228472	14	1.8593230944236048	-0.2832951828162599	0.06619387779880834
Si	15.837382278304888	16.121323352282708	15.350322915533892	14	0.1755720405548238	0.34825313028767313	-1.606482654124499
Si	4.101802581666805	13.14390424951444	7.885469267574928	14	-1.8366518590421352	1.3210436836922996	-0.07788263680526554
Si	12.43731982622857	13.739387415433809	5.917635339224552	14	1.0596088096395346	-0.564803961656081	1.186458661488084
Si	5.58024337602672	9.27552952395112	7.443417648356891	14	-1.1432301535193705	-0.6423960635601699	1.511331959768055
Si	7.457896522114682	6.348167031644682	1.5637527341413264	14	-0.06734984675074691	0.8322027716094615	-0.4168072827703774
Si	12.071218876542755	4.888450414368851	14.340052011704392	14	-0.5298976073876227	-0.34440392851287943	0.4673359300745875
Si	6.1603655484917414	12.945677715402175	7.110930532525635	14	1.321292823797822	-0.33480264991585046	-0.4328517512996975
Si	13.677301900018916	16.282391207897103	10.971097780763836	14	-0.173474018613583	-1.3186875227769157	1.566844951845904
Si	10.17800507354408	10.6733144648686	7.476404669885323	14	-0.415533042973712	0.20524568127571682	0.4870812476017287
Si	15.449756953388773	14.324975784163216	13.764743037806305	14	0.5421728355176055	0.17100678594836888	-0.08504984999571032
Si	16.382674633734382	14.66348880857096	0.7070115721556317	14	-1.1531973004034568	0.573414593373257	0.815126004294102
Si	5.081192749773941	0.2128461542409345	1.7701065528790216	14	-0.5005121875731183	0.2864103340221513	0.4260781743337673
Si	10.480311912335951	11.657064497301581	10.99678235686362	14	-0.778750006224647	0.9636559304232043	-0.17175754870185211
Si	5.298929022110081	8.21630834159833	15.254106405180744	14	1.4009628930216544	0.31029050312515477	-0.25140010709875904
Si	5.217044092801013	15.480541130554373	13.314226997307008	14	0.08932045593247628	0.25340505502741045	0.6643044519931516
Si	1.679158211919603	1.6762614552166197	1.9664297378129976	14	-1.140804829870875	-1.1659093593273329	-0.7377894702588358
Si	3.5493452540081254	14.939895041949608	1.9027256391329903	14	-0.18279221851486363	-0.7541537842899824	0.2905176747710879
Si	4.50815535683842	4.268217162788908	13.195185026085777	14	0.9616209005623072	0.3512970618761964	-0.126663703823371
Si	10.941460850179475	4.1958326135142	0.00016202198508210002	14	0.9629771586186853	0.3216144222866829	1.0134556693691525
Si	5.1084959091388376	1.2307173620979237	7.365417973518377	14	-0.2895542816076284	-1.6108285934471451	1.1159147305981174
Si	0.4844522817383106	14.661880044820094	9.72718790127453	14	1.4143637510607983	0.49334368883001345	0.5477140817035887
Si	14.60515762076999	1.7035711609243471	10.596997200137807	14	1.8141505737223274	0.9388851304373017	-0.4993289649047861
Si	15.425049418956606	13.62368080588528	3.6447303788216607	14	1.1769196036398029	-0.04823882090608624	1.1936297313365092
Si	5.233653801150489	10.440179557606827	14.422496653325561	14	1.1708260840310518	-0.8667509709068233	1.3058281395181952
Si	2.4264805266465195	12.792503112656982	12.629155493151483	14	0.16907151497389342	0.23949923190338962	1.3736952926593562
Si	0.4420107045753399	10.369238476926487	6.9153258087174265	14	-0.13642567650290924	-0.08930194397417121	-0.40949145969242806
Si	12.19979723268392	12.718629270388085	9.853075710511908	14	0.1451082991690493	0.3712969188300323	-1.372860454761904
Si	14.038853141436768	11.26324796865248	9.373199322412884	14	0.8452796703782667	0.9395253356620187	-0.3009669039027017
Si	9.770403583477338	5.0319086077662405	11.459977026842017	14	-0.07426946249886145	-0.11161785260039644	0.09512395486111452
Si	1.192172495505463	11.282270004335402	1.594281603936493	14	-1.174263394733558	-0.3468634478621331	0.31852626768665304
Si	1.3229340569809651	12.418032663660968	3.5468952852033993	14	-0.680928704772165	0.12188324770161968	0.34596716054752946
Si	12.519106560395166	15.037103323241745	9.554850516475536	14	-0.16604583823314317	-0.8379016265515697	-0.9593074199952378
Si	5.598208177342338	4.933395967664908	1.3041902408683865	14	0.34572213421051934	-0.42126069429540586	-0.3840470301126466
Si	12.380566307050014	3.8999166419116764	1.9352724191059976	14	-1.7460224533911717	0.8537452917553862	0.04963673086865075
Si	15.19364929254521	11.977336137409072	7.328149643778079	14	0.21149886652484898	0.6924526559276009	0.22812337641439442
Si	13.441741572738037	7.124823508599998	1.137281410862497	14	-1.0975079305006452	0.437636578300493	1.2157227251314777
Si	11.041281122261418	8.685520737224675	2.824931866020393	14	0.4754986752449936	0.2575756449672227	1.2451796216738822
Si	10.334634508718649	15.537453398546594	10.02136090909814	14	-0.2782473317412132	0.7137864023215295	-0.5926055805933742
Si	3.366774298777633	13.52784725658778	16.31850574471333	14	-0.8638834171432621	1.19454093106197	-0.1313150904580509
Si	3.486472540867731	5.004183209288707	2.4313886471845114	14	0.16273142636494026	-0.8246455217419502	-0.08702882976062828
Si	0.6562905078963948	12.492523498741745	14.14959434994753	14	-0.41548470619369327	0.8252944687247556	-1.6895059589068686
Si	13.578157537834333	10.134558632756459	4.7281975784369905	14	-0.29117407795932176	0.27619584680626713	-0.13424486497035965
Si	13.702490590649205	11.353057245959201	1.0752073515475578	14	-1.8130971918726628	2.2550467993477037	-0.7954570485949691
Si	8.254403147121117	8.891958021833473	12.560778942275423	14	-0.7767771971124974	0.13081115381530187	0.2818103694938745
Si	16.373508117184436	15.8586398900648	4.280344262884448	14	-0.04291046224061136	-1.9092300484614033	-0.08111657307694779
Si	14.482290948749398	4.819253934053131	4.66181438895315	14	0.49262686466675615	1.22954961532217	-0.10200783224527898
Si	2.303563120468982	9.972759223330632	8.225864365546757	14	-1.201351789055042	-0.3041674158052221	1.3302762657864193
Si	11.654280665012443	8.986873446548842	8.068215337476166	14	0.03062417835775175	-0.8903370055612017	-0.5533494303442893
Si	7.059417360783774	15.323839685608656	2.165643133107125	14	0.005987590069560846	0.3257623864996778	-0.9828425467642773
Si	10.969215707199751	9.340663998539831	15.313152780936068	14	0.2700776445864427	0.838861677278113	0.5677638181006355
Si	5.439346439262193	3.817895875988852	15.52664702311733	14	-0.0372871977949155	0.8406969322556347	0.09779867572566457
Si	4.541783919964348	15.96841060325078	5.846008529132601	14	0.8108798238578774	2.7239655018573745	-0.1263091483997226
Si	8.87342859844863	9.052500533435632	3.4385713137832057	14	-0.575897509780924	0.4678234116432876	0.852107754776984
Si	5.793573959637192	9.096886374419588	10.012423514547297	14	-2.523179145648923	-0.17454359842676456	-1.5418964884823791
Si	13.858190445141686	2.257293569335233	1.2633901591704393	14	0.6411915007176805	-0.44338839801219637	0.41669698235214303
Si	4.03481549205675	8.7750616144753	2.554726655888979	14	1.2252111322049524	-0.15170395564682515	-0.25841099708573884
Si	7.658973988530107	12.753583467937414	8.973135946116729	14	-1.2630493178699755	-0.30488526841060737	0.5656166880477798
Si	3.4695371519623817	13.347976667775322	3.808212198355208	14	0.10577681553408406	0.2647770538584255	-0.6585906846401866
Si	2.38814514302467	7.832111663740265	11.479501494337264	14	0.3275081670120583	-0.7943008225324987	-0.8378494331135706
Si	2.42447734574005	8.816948389083292	13.491760541728585	14	-1.5562648534534949	2.156183428908966	-1.2777537263064342
Si	1.2898046524959454	3.715187030132464	15.239008902025368	14	0.5955813778909136	0.2507804707166033	-0.08295825581776986
Si	6.972761784136177	7.2726252004661545	13.852774983034244	14	-0.19307432580066783	-0.05011084268968606	-1.4031172221694064
Si	6.883114528814539	3.3325549282111515	2.5695786711881716	14	-0.49281584090778696	0.3361560797563764	-0.6397897340971357
Si	12.948605567233608	4.527499799905797	6.2927506029894795	14	0.20571310822291972	-0.3312496394739379	1.056889608652946
Si	8.73527621591625	5.91021014986781	14.501329350289398	14	-1.583126990506806	-0.7785756852839409	0.725708103469992
Si	15.50970508786915	10.180239013035363	1.2633394250134946	14	2.0528825877981847	-1.7871997335354712	0.501359366776107
Si	4.461116610421958	7.1130024500318365	10.423908622498887	14	-0.46485198522479254	0.5189444416132598	-0.4923620408187809
Si	16.2071082653337	1.8426907656100946	12.509020282677376	14	0.4054864489352334	0.10061994959346306	-2.3779335494557774
Si	5.834398590120758	6.036590571403264	11.81010980977585	14	0.3437974047678565	0.040413147643151535	3.3274134335858134
Si	7.406902148042226	10.682873761988443	13.955935526546014	14	1.0660085478919152	-0.49097030150898463	-0.36747111411365196
Si	11.247078501858429	5.101651707708399	9.637620838652579	14	-1.1887063217589577	-1.1648274382086143	-0.08428700304722238
Si	2.8864183910661962	2.857661943592685	3.5583153802731253	14	0.7783561128896003	-0.25675263415424326	0.1998643578406469
Si	8.00678609293014	6.8001838212381225	3.772120573738889	14	0.5715965648013803	0.5001823147605432	-0.5828050413340338
Si	7.7429962987736936	1.9422000864075382	13.036228366034576	14	-0.3152010571761055	-0.8120496767785449	0.7519917418262699
Si	3.107488388489328	14.356784463981962	5.887018093801159	14	-1.7442784726525151	-1.3882762880404478	1.4557474909623056
Si	13.485803369751828	11.316126052874731	13.04160291349932	14	-2.0089079450655642	0.9558955632354015	1.3641333519737253
Si	5.007255080662435	4.9076688403367195	9.273943672400165	14	-2.182733690886943	0.36066822654707215	0.25612014224548685
Si	5.735853218305267	5.432512057346003	7.179992812813307	14	0.2649989402475542	0.4439846373359386	-0.5135014116505063
Si	8.20617623948072	2.8908257163775706	7.925825834546035	14	0.6970693326404587	0.5565306589569086	1.3798273788479092
Si	15.97473764359752	11.013061474900098	10.773304941864165	14	1.1899525365076338	-0.6364889490871296	-0.5712810901785982
Si	14.31368006960729	5.2984773244547005	14.170508278708784	14	1.2401716227312978	0.5174794258018395	-0.40493520395459365
Si	0.5581166410365975	7.573591675563257	3.4130012986829765	14	-0.535753813975324	-0.39504827555649624	1.2075766921456523
Si	12.13565780220561	2.388956889535788	6.598556462024842	14	0.45082840547710873	-0.026231187807746748	1.3587659125073839
Si	5.417709139618046	14.716384895235997	11.093113428216322	14	0.9457821204585989	-0.5996655786919688	0.49597007291454465
Si	7.671934110750968	10.150050553067441	1.6280034524477724	14	0.16447797820891685	-0.47556963775182975	-0.42474017112516227
Si	8.86781510947053	0.09780727166122771	2.5740891013991445	14	-0.5840214312609958	-0.9314011570714147	0.471807082226325
Si	15.49077470098587	8.336094959316654	6.889037332491429	14	0.4206747393929441	-0.33790006049503285	-0.07977265632610639
Si	15.809427757828248	14.342999502564318	7.747491999713295	14	-0.053206967716208385	-0.8829967569827109	-0.7136761019032951
Si	1.9993823910415642	0.9860805304810318	12.467847059438027	14	0.9151283743896654	0.017907491444299355	-1.4626203125935935
Si	6.91156657134638	7.461709766814089	7.016771210407316	14	-0.9204361642125792	-0.18905183152729615	-0.6273712954008205
Si	15.670817131297659	10.885345599427	13.0669765383146	14	0.8959075623478344	-0.16975234366266864	-0.21780655920676822
Si	4.831531600033796	1.647586837028504	15.946365793765365	14	-1.0166826636564703	-0.40772253923216617	0.7950086478271353
Si	14.56086670175709	0.8905726617394035	4.59374878936159	14	-0.01764935247015649	0.11363668449777674	0.1073158791787247
Si	11.251040675857254	7.795021721842127	0.7618404665416975	14	-0.851780195959197	-1.0673923167752188	-1.066646439121844
Si	15.391298111902586	2.116979257082719	8.372224225404254	14	0.09369364897151614	-1.378884554527011	-1.0283845353000602
Si	6.409725566461632	1.6965387521375008	11.01877479560638	14	-0.7105432100706948	-0.28803424414235684	1.120194592514036
Si	11.180914614859448	1.765404642140225	4.722952321243171	14	0.09366768080778265	-0.7137591486051359	-1.4888065060582376
Si	1.6477455858421703	6.26966656157955	1.765630490967915	14	-0.24006410374222611	-0.3503953752404205	-0.1167230393240825
Si	12.482664706437355	11.20221968760489	15.319361987111842	14	0.0680684706877283	-0.7932070743293076	-0.05795939878997009
Si	12.32924297925027	10.706589525481622	2.8405350741595115	14	0.03654260569420062	-1.0956737039652518	0.06170267102557366
Si	3.1596234628001905	14.61271537356907	14.2247676412685	14	0.7742158619925658	-0.625001764737772	-0.5701570029326293
Si	6.597135905630385	2.456124003573712	4.63593342256842	14	0.17989921080863303	-0.6563116568844073	0.46663581809591115
Si	10.670677925293171	12.658065779681536	15.234614669399656	14	0.17805212874663864	-0.5548830946677576	-2.0822890906763143
Si	7.4073751213118095	13.79066655541944	0.4346346127898346	14	0.6402790154395599	-0.37303909979496463	0.922917537957054
Si	10.734714250871884	12.269892198553276	2.8416299499980964	14	-2.0817357888114185	1.4079791823298065	-0.20407402858132534
Si	2.1249216075231576	8.010884103542722	0.3324903890026719	14	-0.1098247637501252	-0.010929254494885455	-0.32951542893549796
Si	14.282724050942361	7.418530089496856	10.671744979174722	14	-0.16578307126942404	-0.37704668165747945	-0.991050286277786
Si	8.881199107389739	2.255521147013577	2.1271179055431593	14	-0.844643064700998	1.5687270009402525	-0.2620838210355703
Si	15.578631531543067	2.8963819248558913	4.2592192145668735	14	1.1433008589156746	0.3434135387435584	0.6532702964012042
Si	3.0841375836090106	1.6156014059533061	8.62104253350483	14	-0.9070535610212085	-1.4382122955683638	-1.6760811895882473
Si	9.86691467925791	13.483991669373182	0.7504138251291397	14	-1.0137857992922594	0.0746890668871096	1.3903766239764765
Si	12.145105811497316	0.9388797620794879	14.406795250043968	14	1.2260500838709167	1.2918891491355444	0.6136127966116441
Si	3.086306059671978	3.48134511784488	9.721011426812915	14	0.8810900252772891	2.016345124314624	1.388162645185297
Si	6.565867299095248	12.59294276119278	11.174479559855984	14	-0.6201318341508796	1.3302037606163912	-1.43977629893461
Si	6.445697720321274	10.814244133347284	5.96067099699949	14	0.6170683621619232	1.0885026341168267	0.419994939146297
Si	10.901668905277594	12.93294835176613	7.53947050013925	14	1.620131880937569	-1.2535840507443823	0.3938527115826273
Si	1.315211009025385	15.69534136813054	2.3548913580258497	14	0.5422643668670029	1.3543004167873511	-0.17161948034616017
Si	9.139386868668042	12.787897760474952	4.7903485572802005	14	-0.07802147649255353	-0.10771722871919982	-1.1904361614183532
Si	3.27925787804768	7.361267592163142	14.805909406629542	14	-0.2572794536343416	-2.4121043104921416	1.182737243647702
Si	3.3248335168412795	11.654000808856393	9.435481228112726	14	-1.216493028285394	0.20978522482897025	-0.8572353101169552
Si	13.404091918527797	5.291886793808987	10.119130539288085	14	1.325270580838623	-0.32976765436740446	0.16961838907548893
Si	3.9154609329653107	6.572922620082005	3.987755470026085	14	0.9127395604367158	0.7184223623242886	1.0351619689239706
Si	4.892998486051105	11.005426802572746	10.941966555163216	14	0.051728067936059205	-0.7666069329081197	0.5593038531552202
Si	8.560166454928074	15.605775942094297	6.416937999676348	14	-0.422651148052542	0.5993968981860134	0.29708453486927816
Si	10.495649993590392	15.634111787040876	1.1726300255674291	14	1.0903389175364764	-0.0014159076998055472	-0.6435659164808372
Si	14.497989078859574	4.223494185149125	8.24220403725443	14	-1.000756465971877	0.9599710222783682	-0.48830355107092716
Si	6.982155786099523	16.093958002660912	9.942675504848015	14	0.14763929524620306	-0.0159601362748192	1.1123015562917133
Si	6.067667697410577	7.442691004302583	4.7340958333282614	14	-0.4498709258558857	0.5216474446363315	0.24412285060061192
Si	13.03772093220018	9.279891024862673	9.846426262780708	14	0.2148071077402835	-0.6323242726895538	0.6574691684995381
Si	8.309669009891191	7.109415054160119	8.807938984761304	14	1.2411589271742347	-0.6817285756372631	-0.0320557698000102
Si	15.636340816775038	3.218725482469583	14.114483040170242	14	-0.9126883954408449	1.7243151253942255	1.4390396772603873
Si	7.7112154409119835	12.7553624366019	13.105585231749668	14	-1.0248978593754074	0.782935765685848	1.3676344260881708
Si	3.7494047641132373	5.360461371555704	6.029047547875552	14	0.01935733773433086	-0.24002399449923184	-0.8016079038523595
Si	10.663583326249427	3.0925201756048746	8.368188405048574	14	-0.482798043248894	-0.14071942238755653	0.09219829411731803
Si	7.941713808598328	8.91412557524698	10.157231891153705	14	1.1144440583549928	-0.6824158320893388	1.5438466718677115
Si	9.170321611718768	5.170398126954447	5.0279415240102905	14	-0.3095554241141244	-1.1303283470228676	-1.3430276626216935
Si	4.055235171934218	2.3326534314269045	11.87276813018851	14	-0.47709481742774157	0.32027281953062964	-0.4267003818212432
Si	11.100872481057474	14.26008679743069	4.196217211155555	14	-0.37397318235777444	0.6469345786712952	0.2718211111040351
Si	4.986828854442136	9.711239373551043	4.5072519615276585	14	0.4501244368404523	-0.2828364976271455	-0.042097221627848534
H	5.850062351931069	2.4483698604896817	1.9423130108213833	1	-0.25243909075863086	-0.8602833554739907	-0.34071207838367884
H	9.482140286644956	11.668756265598818	15.303987900971828	1	-0.04573662120851814	0.1625895013512681	0.039438955837347425
H	8.57162582805479	8.534544069085193	15.725061764586004	1	-0.5124557431168021	-0.47403520209676536	-0.06689219000376055
H	15.410541086656073	11.548927096652088	15.72122233451527	1	-0.2679271720966709	-0.3204237434129223	0.01635325827826984
H	14.2156731344897	13.49956541896956	11.312131147161745	1	1.3109135287309162	0.8579896724178866	-0.1615703152023614
H	15.800886417018718	11.075449758670956	15.20861914201537	1	-0.5486129401235126	0.10136068503619773	0.4438977339761176
H	8.716216538762048	1.3318501759176042	9.740650455307716	1	0.48990843501176357	0.19108814694085346	0.2543183116371271
H	12.754468860805387	13.836343662526929	15.028602897074911	1	-0.5871730921624334	0.112043884751945	1.86330136568547
H	4.151294570059409	4.279355765116875	4.928816800854204	1	-0.21365705233058124	-0.03335752042360118	0.6820944439243202
H	4.907984701378345	2.380364814569313	6.5383988445738535	1	-0.1427557378011138	1.4568952323772197	-0.7329591346938736
H	8.197279759572575	15.701764967034048	10.82707496529722	1	-0.1020533408094456	0.28691658465968856	-0.3219049571878596
H	3.2152313719832164	7.092785706782147	7.020137667208466	1	0.06490035471224184	-0.007537195246014094	0.2814218754800001
H	0.3700058431848636	3.458434554519988	10.743324328281146	1	-0.015572670703072885	-0.04913202289430568	-0.025639833584112686
H	15.416020375606124	0.6809440350002005	12.87371049548298	1	-0.5129722781756199	-1.0527095056234492	0.5154351399617897
H	13.367864457297724	2.438538890142327	10.168913839936696	1	-0.7502837565620954	0.8693161626847349	-0.003374832843226368
H	4.694714671439065	16.018113711199703	8.903469765702841	1	-0.43142813028393145	-0.7551503447120718	0.10062534891463537
H	14.105174140663706	8.24183089571303	1.9153551710408545	1	-0.13694966776715542	0.5019908302427354	-0.19597761792817905
H	7.94796229283109	1.5416048197563157	4.526139797182533	1	-0.9668615845363648	0.475922907622818	0.2848463306559053
