233
config_type=amorph sigma="0.01 0.1 1.9891268762670933 0" dft_energy=-23355.70516702612 dft_virial="39.19224554071214 -8.960766994052113 15.675282207809824 -8.960766994052113 49.25593831897355 11.946342651673623 15.675282207809826 11.946342651673623 53.251519273490025" pbc="T T T" Lattice="16.405915777900002 0.0 0.0 0.1676028355870264 16.440581477938707 0.0 0.07751795205057752 0.0672970665209458 16.313550472070425" Properties=species:S:1:pos:R:3:Z:I:1:dft_force:R:3
Si	7.737740257010824	3.359708430859341	14.899905208419272	14	-1.32420974278353	1.4925338374408563	-0.677403205157178
Si	7.232813746522818	14.34042738737817	14.195568072834046	14	0.011566888614282178	0.012398641185350083	0.837525473843232
Si	11.499582292460161	2.7214494022527638	13.424834555504082	14	-0.9195468188823399	-2.326215251719935	0.5776893130785351
Si	10.258202425660112	3.219997292686322	3.2387312079131063	14	-0.26695837961203905	-0.258293497572608	0.2661165997302226
Si	1.460589151058037	12.438223795410622	10.613795728371361	14	-0.9406789906191689	0.6584860406536566	0.4887856333184548
Si	0.8191572183400139	12.996072509014976	16.090681028002386	14	0.6592537727022527	0.8761779285631462	-0.7482505264749224
Si	6.899140387882421	14.66853749997828	5.687786628139085	14	0.2170174869840148	-1.293493518855317	0.3965719125692159
Si	1.52226883201663	4.878714126227747	6.620743481272502	14	1.2440398506854606	-0.8201687131585084	0.08062652040292756
Si	15.225173816406649	15.29082701016665	11.087477172260357	14	-0.61920160824605	-0.041773262357509874	-0.8414548941040143
Si	5.413802912873422	12.033312669279425	3.3530886438429586	14	0.6113563945826822	0.27507664466040666	-0.5322745942560996
Si	0.24298965917805473	4.818612694366988	8.571029531201923	14	0.20250848255188716	-0.24374695500280624	-0.2519428674318423
Si	16.38021098905919	8.60742769594677	13.935383373329175	14	-0.29733316075373645	-0.6656200865854713	-0.4748630980098531
Si	9.696491759481638	2.4320145955074746	12.038296786492753	14	-0.281524719692806	1.4625213250387676	0.1981612576765808
Si	14.425044179185845	11.938547177971543	5.504732701072433	14	0.04122021760314602	0.09006427670159511	0.2417731174485286
Si	13.739744468269295	6.335228047806552	3.47478772708342	14	-1.7771834785397702	-1.739882139665594	-0.2782912976421878
Si	4.475409139251209	11.425471849116652	0.04133962657715243	14	1.4459348675079604	-0.6308083489927945	-1.552518753002039
Si	1.2769889069959803	10.37156074131909	4.783249742907724	14	-0.3668015982882854	-0.10006381951271502	-0.35305081281506945
Si	16.43887362210623	6.149155432236768	5.527815824571937	14	-0.3049112365743409	0.25126358140625915	-0.5314459270114159
Si	4.772467775058489	1.0999739975271725	3.8338656463058958	14	2.1044340207987493	-1.068299916953231	-0.5378952875964752
Si	11.031390267990451	5.607684744353489	6.15719269037636	14	0.38554032808258865	0.7801815976669054	0.3533344057318818
Si	13.341631953636462	8.31290869590191	6.298762618807015	14	0.4226778875478715	0.30057018235180294	0.3335770040097359
Si	10.456769786686348	6.026708239236832	13.240197457564863	14	0.5430611524057168	-0.2744001868506757	0.6204264828205686
Si	8.75372909048777	16.11550317857435	13.924893430780786	14	-0.35333389151081773	0.4363823931253248	-0.6296660068990526
Si	7.450032993196948	3.6853330472191006	5.411158279250024	14	-0.4265651416814034	0.4017354633836694	0.10832863756433102
Si	14.216977792924204	13.45052129783754	1.8617039482782254	14	0.713918042913921	-0.9990765057556923	0.4709280213173664
Si	12.37165843273337	16.00859566899924	12.459610547218691	14	0.04065200332739329	0.2073097646267317	0.6658787397806784
Si	10.168302928971954	15.365437833941384	12.216081133411544	14	0.207297937542259	-0.9605513207491255	-0.18747651529764142
Si	13.04925884737535	3.4069968424975596	11.904198112107354	14	1.1066302121765308	0.06389402408993589	-0.5540220314960401
Si	16.09957795612874	6.979545781109909	8.905441156052323	14	0.16673823689585904	1.8079742645222678	-0.14259118706062435
Si	10.06550510129921	12.98791876887336	12.499855899213458	14	-0.717752075167326	0.33205696654446437	-0.3292020111969719
Si	12.00935511046896	7.231598068163676	4.768925737842039	14	0.17986861465532328	-0.7233542565493966	-0.13575256113009448
Si	8.821908795277569	2.1696446280209862	0.06322183704171545	14	1.0578671428956663	-0.216951409577287	0.23769997240034998
Si	8.727112132729705	5.903742619298317	0.6640868618157253	14	0.9081388245768429	-0.5784223352053094	0.07384420167890894
Si	15.001083772204737	8.289823931810826	15.89132946420197	14	0.8578120090402643	0.19827130098428317	0.23722328947399454
Si	9.155514889663277	10.76523709632558	9.42390090646552	14	-0.8377771850540745	0.46326278502640894	0.46826846997420524
Si	2.606924625981977	4.929393640657258	13.892673852784569	14	-0.12341665491455597	0.5978156684141224	0.514622156459559
Si	10.364996734416351	1.4561956468127155	10.091957999899495	14	0.346270808085839	-1.3005398900957146	-0.48670895155137134
Si	12.485843606547553	14.798037596171135	2.4669198219165343	14	-0.6524817383995147	0.983962520241734	0.26275076575561673
Si	1.7238073043902422	16.26144200237666	14.135240239335554	14	-0.5504337969112414	-0.3137833497025759	0.2118397950903006
Si	6.3839864294984725	11.658434212571256	1.256858848336497	14	0.1879411140289922	0.4803020142040943	-0.06405651794616925
Si	10.086672013835857	16.184916608230647	4.758909926259632	14	-1.2741238398154493	-1.2409748360333122	-0.7084508445611581
Si	12.027189981511114	9.687023905486212	12.172116560309927	14	-0.11280596036883689	0.6529265396199003	-1.0548959735877033
Si	9.371776030855976	9.918718091651183	0.29058486144132045	14	0.6916640979259114	-0.4381140325584445	-1.5291993419693601
Si	1.155227481275562	15.332972167208498	6.318566199742518	14	0.2377783911126145	-0.0993583082128664	-0.8848366399498089
Si	5.446488418877732	0.8990950429678316	13.979902466384084	14	0.08938524778654401	1.3006789868935347	-0.4222333434380179
Si	12.97392616330639	0.5731669171661812	3.0676011004338313	14	-0.2871024755743352	-0.1662425277901345	0.022519797278112992
Si	1.191095734940785	5.470232700783087	12.14558983508864	14	0.7342950810182226	1.1219005208939543	0.02735296105892735
Si	4.27305857404659	15.023453238367903	9.265888969242255	14	-0.06276145219641065	1.4550193539356397	-0.4807527289667162
Si	1.0098973169486127	8.693078060448451	10.100392281200916	14	-0.35538229111937975	-1.5130934240228884	-0.3109872726669149
Si	6.971219778852625	3.831186560259365	9.319267256817229	14	-1.9731269007671912	-0.870030415742672	0.12713447320749013
Si	9.943489383884234	0.31617809005484443	15.699678837267696	14	0.8998850622781035	0.3069182413872485	-0.6982620683984754
Si	0.20543815855401942	4.564455528318917	0.699134819692053	14	-1.3413268764524158	-0.3703355825508289	-0.7941334435761569
Si	1.4070615696494826	2.769735293570279	5.314222285284725	14	0.4345142279997052	-0.3643605908973368	0.4888087732663362
Si	14.183895263758071	1.3529187663992572	15.281464154032202	14	-0.4998097615996538	-1.331710942555062	-0.037847441644175764
Si	10.66346627898053	6.88636510126617	8.129485635730253	14	-1.1829668433527913	-1.495462583511037	0.5870296244855692
Si	3.2814161195840468	9.400015533684474	5.263862686212883	14	1.6485361669619052	0.29749436905730975	1.0421260647941237
Si	7.356189514355782	0.7188251998086886	7.892205235242908	14	0.33759846984097946	0.6360724300252656	0.07168293054679248
Si	6.123573687764287	8.284749582060721	0.9788474807473592	14	-1.300790058643365	-0.08781250266220944	-0.23370935983294813
Si	9.097339512314843	10.75125925608281	5.3858554353457695	14	-0.8602496739942967	-1.0762492603820648	0.9460520865172144
Si	15.818411730935514	2.736354176736986	1.8571184948183022	14	1.1136272181947817	-0.1747989091850553	0.970905933204958
Si	15.63385994375834	6.569281404660385	12.610722156265773	14	-0.7803798298870889	0.6243826425766803	0.4916290186920066
Si	1.0473241326127358	3.9214568306441038	10.557466016547941	14	-0.8359972088409361	0.004764515268766405	-0.378548978496042
Si	7.790250671641148	5.355509412931387	10.722183051549635	14	-0.32533249769014905	1.018209385995574	-0.4427741609512129
Si	13.099638133546126	13.30873973309335	13.360411805427423	14	-1.0181849604950328	-0.24132240268590663	0.3503933183561644
Si	2.6324292626503003	10.30057890611443	0.5802509915990784	14	-1.01744062550485	-1.6491380627173517	-0.9989955159381076
Si	2.261934466637985	1.3564427571083502	15.720771923183342	14	-0.12045345603308533	1.2373326082367904	1.0515627926506632
Si	7.211523789617837	13.515231151440311	3.6275973484135147	14	-0.15573570589934935	0.40258084281293405	0.9642267158042773
Si	13.848166243870702	0.5500329353277644	6.764775937661421	14	-0.416312859217313	0.3934408205103397	0.31131971658481
Si	13.879160299958311	14.83192893698512	7.530354716253968	14	0.29538092048414805	0.34472480245683396	-0.3784057679297097
Si	10.569025624805052	8.29045227838512	13.361440456346699	14	0.7502302775714365	0.41779998653448663	0.624185953019689
Si	3.583330906461585	10.71633762375797	12.822227222474458	14	-0.20592496730129992	-0.03818502777271121	-0.47964998189490465
Si	9.541478823662574	14.299908056589913	8.20309241745938	14	1.1055984276115554	-1.2274526218230575	-0.05884514457276109
Si	2.3860534224556873	16.248781557170854	9.930436837291337	14	-0.5942875976938151	-0.7543715569105989	0.404923633980653
Si	1.1185750248361557	1.124689509646579	7.146789327141399	14	-0.34393624445514454	0.8736060519114021	-0.74824384160109
Si	14.754707932010124	5.902257883920416	16.222642011561923	14	0.262669261716968	0.11026467987040252	-0.13630894832137452
Si	15.977770593844145	9.143102173785715	3.6111044812819917	14	-0.33142138930932374	0.36701165759294146	0.030501279523448676
Si	3.837058237516275	8.379339530069782	7.401445233029119	14	-0.11383645938115224	-0.30813308865101846	-1.1618290151842579
Si	15.691544784225014	15.82039684674464	14.842090761217952	14	0.6833774254790741	-0.0965786862512543	0.6894724877510171
Si	4.169909659776199	13.304739970826699	7.787750410076597	14	-0.2916229929482196	-1.0850288137187747	-0.31990463724878443
Si	12.690968412110214	13.423364585450381	6.087142711187883	14	1.0775646378638528	0.24365285254808886	-1.2504727561964712
Si	6.040761546692181	9.037088786620505	7.770620993412892	14	-0.04720935033589895	-0.28589585584758975	0.4301993990514327
Si	6.723393655703245	6.322505260120791	2.004642130084757	14	-0.033481447700032314	-0.13761301293975364	0.09977636993792248
Si	12.203929271594852	4.704949228674541	14.128633577051794	14	-0.14670495557286126	1.4187752535691083	0.48855731916602574
Si	6.410061992035867	12.735768046324926	7.254622130366381	14	-0.12574607633461016	0.2740967964228982	-1.0565844184514446
Si	12.593804375915603	1.26441377255222	10.865350916177059	14	0.81773156242554	0.21871235961105642	0.23784164030349011
Si	10.31419253502693	10.471969867654574	7.486714980284754	14	1.133561769073486	0.46776736154730836	-0.5640567984500461
Si	15.183578257543362	14.26951937879451	13.087632284379858	14	0.4352588201004201	-0.20002736591794426	2.131612146695907
Si	15.892479518898	14.629698134965679	0.7718245107291946	14	0.8855606632079626	0.693358713442421	-1.4593519235106212
Si	5.099926572802217	16.38201563979476	1.6285594791584883	14	0.5009878420573456	0.3898371592936201	0.8866107026207111
Si	10.823276304573055	11.406954491978137	10.94031282654944	14	0.8798628367079824	0.15151497940579428	0.3635666335744751
Si	5.276060484593752	8.083238999743932	15.104199874643571	14	0.20993666293232702	-0.43093859183097527	0.2802687347439136
Si	5.276301651555686	15.229491853439393	13.408276064709447	14	-0.6918304484401249	-0.5796572370905765	0.17387074016448184
Si	1.393237945015024	1.316888094167833	1.7850292602986317	14	-0.7731645370271573	0.279562966333533	-1.35830979842359
Si	3.4234601789806827	14.78519832648335	1.8811646455739703	14	0.03884837294530941	-0.7599541978922364	-0.15805535711918697
Si	4.712436888635574	4.115883338527997	13.311356476659926	14	0.0555063072040168	0.4976400058199809	-0.02668370234409281
Si	10.629814464536905	3.8617245318883477	15.849208916033787	14	0.35277441899315354	0.05323087899568575	0.6313297691517206
Si	5.032188187146845	0.3879326438926457	7.893069827004404	14	-0.9761903259694581	0.07580826903297005	-0.026831026678937296
Si	0.5792814019766046	14.554403184503009	9.831642053068402	14	0.8752222487156471	-0.19382174611723488	-0.14714281480888247
Si	15.04977160845881	1.0708584187961336	10.462552871998057	14	-0.7505992311848776	0.1874726586396612	-0.5327975570782177
Si	15.667111453856988	13.152491431816209	3.899691102181564	14	-0.884024427779174	0.666758572021233	-0.18424669279447142
Si	5.201308569943328	10.282092720215891	14.352700652971619	14	1.0771105806643144	0.6477493619472502	1.2984302981805331
Si	2.4527926878401844	12.753379796912503	12.783271375459837	14	0.07394678878118285	0.6720239386063642	0.1362084181033567
Si	0.6175547628948674	9.97346135141888	6.957584822249612	14	-0.5915213454798678	-0.32591973814527087	-0.13976399965058953
Si	12.665706582995405	12.383798810409015	9.727464487878736	14	-0.16547453863100625	-0.02434039695530985	-0.3371436413098453
Si	14.413182702078423	10.75580861652802	9.457866073900506	14	0.06446069570249652	0.9508238008808774	-0.11980425193974793
Si	9.797270018922124	4.832303431083645	11.475314661841493	14	1.01525595731432	-1.7166797139249816	-1.552747324265
Si	0.7847704188695355	11.340353036286174	1.2792086274007302	14	-0.5856247725386402	-1.413977056820648	1.1262233202687193
Si	1.3079222611952108	12.183165944586342	3.3844436300776812	14	0.5376708301020264	0.2099155798687018	-0.04927986145021421
Si	13.365607558954286	14.678815806213136	9.781430107238561	14	-0.014817279960013379	-1.0174650510053915	0.38233570241155607
Si	5.792738552553468	4.2564525060962	1.5586998085930348	14	-0.5468874713431613	-0.09474265994213657	0.5025438749970993
Si	11.833145731464846	3.6273004013379344	1.5818272280651404	14	1.6881658988140074	0.5078580925833133	-1.2495543573761143
Si	15.624849814813116	11.700044536758742	7.537694722973001	14	-0.6843079084944358	0.03401803738034722	-0.14285498246647152
Si	12.799642838814602	5.915873153424496	1.301333645418806	14	-0.1385537803763958	-1.8288033029418513	1.0493117899428734
Si	10.98856426544382	8.353490369170123	2.9923471647606044	14	-0.37862636876617844	0.05262101281374662	0.33211198819831556
Si	9.603225768875856	15.686621368900067	9.97639308856839	14	1.5108329082254142	1.134557815274511	1.123996743061471
Si	3.2490652942616056	13.28980238451092	0.0534193023644202	14	-1.3715926427285388	1.5498496885691933	-0.4685332938221805
Si	3.3296839643942064	4.108159433379761	2.3322682681694196	14	0.5692990250872959	-1.1870862682967325	-0.3669638350339867
Si	0.3005153622616833	12.501481725467047	13.848514049285193	14	0.1736269993801318	0.27898061097851945	-0.27762718113799356
Si	13.860892312739619	9.839354474075593	4.673361278435772	14	0.7148333564078937	0.3492172947827286	-0.45743820303414545
Si	13.547508150141752	11.183245065022271	1.2388910893765408	14	-0.3175960417818235	-0.12091214122219975	0.16614174046158467
Si	8.434345284489924	8.963319586325177	12.923909447874307	14	-0.6856227717551594	-0.9509490137099683	0.7106391122991362
Si	16.453832536112515	15.361055813837108	4.202992188942335	14	-0.17303050294585742	0.37419558296796723	0.5996959177347465
Si	14.629760477445638	4.7642254429716715	4.9758141793508255	14	0.06494586327640846	-0.09524813924807768	-0.7988462796279884
Si	2.2897031196836584	9.632497203806784	8.534828237446407	14	0.2726274097324336	0.4390180331890086	-0.6029406526487735
Si	11.980431480952522	8.72672331252577	8.109273547491881	14	-0.7123879781379009	0.8916528972640535	-0.7149035475831338
Si	7.134827773947732	15.099255131628112	1.9270224613563562	14	-0.8247745912290216	-0.02271751527723238	-0.48108491577407936
Si	11.181341978792034	8.671535452440493	15.674669659255866	14	-0.7227497896886297	0.2346359861903295	-0.44264483435360946
Si	5.4824583892207785	3.6359660060518215	15.599186040761749	14	0.6673532686817831	0.1864704417858675	-0.06741078194683443
Si	4.984330490231134	16.024620967531096	5.711327476688794	14	0.7383165468494661	0.7744709156403244	-0.30166187367073777
Si	8.930497911219911	9.08040040427416	3.667255368623432	14	-0.4277529923393118	-0.3032413036689047	0.5040531138200262
Si	5.902316945217217	9.015613442867235	10.172807993444566	14	-0.3537452683620414	0.9272899596644978	-0.7292518579327523
Si	13.824722190224083	1.8784412635548389	1.2249870757547705	14	-1.4756583876720644	0.44925308924745405	0.3687196428571159
Si	3.8949908073111956	8.78174547286169	1.7555839226604568	14	-0.2735216401627811	-1.072951560698443	0.3107301621349
Si	7.944796038860544	12.823106579560156	9.025557068420218	14	-0.7967109766596054	-1.0325726087560494	0.5224228900008883
Si	3.4622568886122607	13.237324781712152	3.656553789761508	14	-0.7294896851748658	0.8294604306749916	0.515490932947237
Si	2.3616906375255056	7.342933534407238	11.393012744750079	14	0.2851150111618608	0.24699014725364102	0.03946261000629279
Si	2.303776114237941	8.723132057561987	13.260980471672307	14	-0.09499874203202331	-0.44074530174308413	0.6436343078823532
Si	1.1883477440479866	3.475439041939803	15.144560068048785	14	0.06027390779916738	-0.5566322176170544	0.09449763360512645
Si	7.038529970106193	7.1467745618172	13.89826991065641	14	0.19205539676229313	0.4547120600631924	-0.8691747518921269
Si	4.505500869971033	5.876603953418515	3.455473042438099	14	0.9252988957045752	-0.5935630602145974	0.9966763789393341
Si	12.95064616881755	4.218147973937959	6.481212808173041	14	0.5302405928373304	0.7359269615649205	-0.04266466457200521
Si	8.62360392890378	5.6029007793126535	14.662281924292168	14	-0.06923652383467158	-0.48421215117497546	0.3760390654825134
Si	15.419956332662924	9.741394750965751	1.4077506181121544	14	0.8518100207809107	0.003962587519412219	0.03262964050746726
Si	4.560692011239466	7.126117873261245	10.556665407857981	14	0.41512089479089226	-1.857068235057835	0.4529035445810003
Si	0.1373355615683787	2.2356046124060334	11.808471234134885	14	-0.2432149933120676	-0.5884630157015517	0.25092573816719166
Si	6.075775052145376	5.874287438110675	12.195836233341616	14	-1.260871334553278	0.4308624871134989	-0.1593005434257347
Si	7.619002441568273	10.781428094606788	14.125957772188416	14	-1.0862377474403082	-0.6145949588439407	-0.1911447112578967
Si	11.09325861698049	4.794056319630627	9.270080680723508	14	-0.21948574809135696	0.38675286135157044	1.0989757745279178
Si	2.8412404774882565	2.010266078013421	3.457919164480584	14	-1.796676570635005	2.306728844498533	0.3682545299047011
Si	8.180868963946637	6.779752898175065	3.7506335137898756	14	0.4940556278931624	-0.05350701570706965	0.6697801349934709
Si	7.606766909581116	2.02505437049562	13.060975952423927	14	0.03667656028138034	-1.5217716758099844	0.08611145938239947
Si	3.324888515212326	14.498934783257928	5.79493366408455	14	-0.6103953154140108	-1.4835838198214208	0.12234219000126612
Si	13.529517422899707	10.972927787115905	13.50025090974351	14	-0.916231378572009	-0.4944207248486235	0.17552190400108092
Si	4.539592362957509	4.984315724906933	9.065036264148157	14	0.8859715258381222	0.8557944626955443	0.1252722216241069
Si	4.9206328816318585	4.503389428610418	5.583853511094511	14	0.22445132379615892	0.8002292771796959	-1.0046231512628476
Si	8.185313326530869	2.895903348268641	7.530991265786151	14	-1.0402972375799024	-0.32436704764243346	0.060696854624331754
Si	16.335462213183387	10.56473547782913	10.832642441890659	14	-0.21177037524665662	1.2426774219763141	-0.6818555882400784
Si	14.53835327709749	4.8782941347838324	14.023671809087944	14	0.2001250679201099	0.6673648386557239	-0.03726842872607842
Si	0.8349561152341315	7.19826288789456	3.6226706519054113	14	0.8219918839410254	-1.012079613801809	-0.15033561339544238
Si	12.075013226003692	2.1419842540194467	6.617431126876944	14	-0.2412666097004594	-1.1886024491040237	-0.458921987914403
Si	5.379378379796654	14.719423728946593	11.192422534308427	14	-0.6460341775881794	-0.45022650972166217	0.7867672268339326
Si	7.72613307159796	9.758427372726368	1.7663675311012705	14	-1.0621776009648944	0.05112694351220858	0.043694649363256524
Si	8.993468737750224	16.24630426388839	2.5860743476198444	14	0.7259315325223129	-0.460519929870875	0.7601987100081825
Si	15.62005928740597	7.904271786297554	6.7318049687225745	14	0.13795599838946135	0.64614782044333	1.2861532702768261
Si	16.148813749969797	14.062609609595212	7.685887719603193	14	-0.1077290558036725	-0.3148105062779751	0.48190766947652675
Si	2.1400188253092542	0.9033195662806409	12.050629113383	14	-0.24484584541663754	-0.25637879544069375	0.4051244373061566
Si	7.113936480796155	6.981199497420321	7.576717834242313	14	-2.0234267196979085	-0.3193899019636908	-0.59416444174898
Si	15.677158436679372	10.560530641615255	12.969750857740914	14	0.32160310942327425	0.09570553888453202	0.9393844390904744
Si	4.608029640625019	1.5460754564019406	16.066080357293426	14	-0.05770177403689125	-0.7592502292555798	0.00577444543852057
Si	14.675157286994663	0.7046242391113383	4.6192660523413025	14	1.0502055061521571	0.058190284047719386	-0.6550191622399689
Si	10.789552304100006	7.076744269727655	1.1143406579738797	14	0.15057446907968414	-0.39208430534342953	-0.8636977833391474
Si	15.345315978239789	1.6411510195180266	8.12579922645496	14	0.3781391443080104	0.13644007469270208	0.6398691812515284
Si	6.454067579926927	2.0025077204420523	10.994847731186756	14	-0.34672486528537705	0.7444203508794979	-0.7422649932896177
Si	11.18354201209785	1.4876195378937052	4.524695791431176	14	1.6161307268383547	1.5794120004297239	-0.5212646070541614
Si	1.630282100315168	5.5982414992317295	2.0587865739265605	14	-0.6198518407815155	1.2664632315140683	0.19334866273832765
Si	13.21808392368783	9.863328438801839	15.626626575491864	14	-0.07965849924989182	0.385112239046784	-0.39327421288559405
Si	12.220331906189596	10.23775245164296	3.00609860336564	14	1.4341468638361454	0.658250013185267	-0.1624799722646298
Si	3.2842789518872904	14.50321672727596	14.325635813712815	14	-0.6311726746166595	-0.5424893385825159	-0.2015368618514032
Si	6.5138244875563505	2.733596342294721	3.3807555802108094	14	-0.5311942158005734	0.14479308165679913	0.28400660765834496
Si	10.991387723549197	12.82218128591028	14.600029676872927	14	1.1878851107197026	-0.5793846999266409	-0.7519773436364771
Si	7.389913514828833	13.593301982852603	0.15485379843602035	14	0.3533696298747678	-0.22751608133777546	-0.009120739012693295
Si	10.57825395243012	11.533768939758149	1.2017645019711531	14	0.8376491440091312	0.722214999782039	0.4876561467513139
Si	2.013360233729133	7.448441619366491	0.721939042623334	14	1.0108647665380392	0.6926796845273698	-0.05095930744533492
Si	14.49143563915585	6.952740155320399	10.509780581747899	14	-1.185426362702045	-0.1502530809146656	0.2632644725985823
Si	8.424603451701007	2.012936961102063	2.2999666605943125	14	0.5698937217478461	0.6232678113098642	0.14141259238186846
Si	15.783898605913546	2.8514285511863324	4.218098756190625	14	-0.8198732931572235	-0.3659004258735735	-0.26852932496264953
Si	2.9559178287757772	1.5386370141882406	8.498384136137378	14	0.4484794436566215	-0.20844130807812886	-0.06297176861159876
Si	9.806901932075329	13.432279560084094	0.13800164174896143	14	-0.6861336503822728	0.3750635881240493	0.7955974309454492
Si	12.002976490414511	0.6834950601809809	14.515166796328582	14	0.5231425423799976	0.7006339130563121	-0.22089008581722183
Si	3.1000995789982735	3.353794098221408	9.907402931539167	14	1.2109065306457765	-0.4953887460016592	0.5105631524906411
Si	6.470450527422739	12.758710078948742	10.99093327968215	14	0.16426174825149242	-0.8401886247338415	-1.06935766968194
Si	6.753980845079561	10.569334056021676	6.172348475371984	14	0.45685816167392007	1.1679001661767234	0.31249779704250186
Si	11.372523396535058	12.757363153263377	7.671319266392418	14	-1.416493397597477	-1.760373077735578	2.129436991595062
Si	1.2712091028674262	15.55076069916012	2.177598215990112	14	-1.5345012182500375	-0.20863928318778027	0.2003832068942528
Si	9.375690482360582	12.668697381441715	4.079709934829305	14	0.33428277242011656	0.1648587589068308	-0.5509343911170742
Si	3.0352666810271685	7.151840708609415	14.927280119486275	14	0.8524098596521013	-0.054387619279220374	-0.32681679679147047
Si	3.123719175943716	11.690506137325473	9.306524782032533	14	0.6011647902041473	0.09603772569189516	-1.7830741379387616
Si	13.331169901144895	4.8429787604803245	10.06567736341488	14	0.059596164436776344	0.04827173105418414	0.008913250813357344
Si	3.1502327764323805	7.7898290396056575	3.7745500578108984	14	-0.7341775815050919	-0.9382631800603578	-1.0597257949316015
Si	4.751481327595399	11.06476646304901	10.782543696879685	14	1.0148607784266135	-0.7452438759135412	0.2378107870396484
Si	8.8366577135619	15.710916889575559	6.575896269902035	14	-1.6156183055480493	0.06608023494365779	0.1364688710722877
Si	10.615820218378355	15.352509972308399	1.138898673301818	14	-0.06950211901424287	-0.47699505854131985	0.42282495477218396
Si	14.536217226863206	3.927528660073505	8.219162011963833	14	-0.024285118190926668	-0.36686330481596896	0.6119788591806901
Si	7.5049665615876675	16.359977573130305	10.255109910535978	14	-0.45755236011036005	1.284380236048052	0.5582764394692892
Si	6.82304318813821	6.122046297005365	5.476069925616863	14	-0.36391141879790695	-0.4130652960874339	0.0834609069078588
Si	13.038261962029424	8.945340343224176	10.107896347077725	14	1.1506133395567077	-0.5879050858470796	1.0162825996686553
Si	8.503263255489726	7.164839115680246	9.25032467694376	14	1.7582074357244175	-0.9456695060455764	0.937068644528617
Si	15.505208033411204	2.683996337123396	13.94277259779554	14	0.774602556232716	1.6130202036220396	-0.16821070891270784
Si	7.777841236946745	12.59111872750276	12.817300525966356	14	1.0505490058229288	0.4418539623571319	0.1162959787304059
Si	3.6566686311719536	5.965277928198064	6.989038243979001	14	-0.13276339408489032	-0.3806493144320709	0.7160841991461457
Si	10.39197626291311	2.7153349174423407	8.204185051450189	14	0.6061421929934219	0.9935974803184568	-0.30794385529945556
Si	8.188048192691046	8.958323984970805	10.63683127471511	14	-0.4322547406443591	0.8903465186508861	-0.5487461233790962
Si	9.412830194498593	4.83760746365464	4.75851782487254	14	-0.5798428708946912	0.41117887611404125	-1.2760020322518173
Si	4.2303031169378045	2.188627913167594	12.018181493157469	14	0.13431248504027954	-0.026553604414893312	-0.3624803415767125
Si	11.276937609438281	14.236993010173244	4.429538198736201	14	-0.19029933182863204	-0.5942734566145542	-0.5162972315756353
Si	5.396440532205671	10.017914820810677	4.370337451651649	14	-0.42914036077006373	-0.5059284780405422	0.9959960644716229
H	3.454162209767445	3.6844602524997163	0.7916920747362315	1	-0.4062138146303033	0.31701214376361786	0.5874772539218068
H	5.899801918328465	6.065084957424496	8.159846423468835	1	0.8501673415918681	0.6538698781618627	-0.2717804876399768
H	11.108370106003514	11.276584882249056	14.954719013624812	1	0.12870773255288873	0.7362349799822744	-0.26482770463323235
H	14.664286727200228	7.302469983732626	3.022624282328719	1	1.255837881668024	1.3221965673178542	-0.2868003706992179
H	12.01060852243439	15.01324055579616	10.377250312910865	1	-0.1710399532069988	0.39452762672916625	-0.27043939910498754
H	9.049257054352973	4.400284810312627	1.1067250318697786	1	-0.07801144918180496	0.7402461613922374	0.021159425453222646
H	5.915459724346893	8.674230944402801	3.8652682096963744	1	0.13419704241140487	0.32111562785457415	-0.11945175340035565
H	12.422104983158833	13.494336577105578	11.993369186134972	1	0.22331798057103766	-0.30639990655470667	0.14781490173956918
H	6.679511112180518	15.263228978645067	9.781413701322784	1	-0.502227886153253	-0.8489717776179994	-0.821341394295028
H	3.7131738862941965	13.740566404649769	11.666363191666715	1	0.31299067793237423	-0.05778147830181584	-0.05767760564688186
H	8.722208404503691	11.020836342370528	15.305656317438293	1	-0.20310060810711728	-0.24291057444216207	0.16060460804411378
H	11.500223763767076	11.237601145177608	3.8542893708578037	1	-0.1957963550031086	0.2546880365821644	0.24027004927837003
H	0.9292704438581232	6.849213904987115	15.11739843388689	1	-0.9802557577016764	-1.4886656094866935	0.21908799809833004
H	6.877891445766885	15.899137039520673	11.762792242834477	1	0.2937091878049877	-0.2854505404061401	-0.21044651311731233
H	9.778457355299606	11.695022685939128	2.613644489084605	1	-0.28444266712064203	0.46956662105034797	0.6902772437162236
H	0.5404617240629376	6.071181395727564	15.233110998459997	1	0.5561658191119796	1.3215977568887913	-0.3468585627620248
H	2.1267005028807553	9.900541977560849	15.41725755951746	1	0.6243160509488885	0.22041134600661025	0.9559161320779626
