231
config_type=amorph sigma="0.01 0.1 1.822943338444964 0" dft_energy=-23317.960798556593 dft_virial="63.482946448649635 8.183663981901093 -1.2717583395652905 8.183663981901093 33.372553761418075 -3.867760283503329 -1.2717583395652907 -3.867760283503329 61.12110953231408" pbc="T T T" Lattice="16.3502463575 0.0 0.0 0.15550719310618252 16.504478231390298 0.0 0.101796633821795 0.0621309361585 16.294851722840793" Properties=species:S:1:pos:R:3:Z:I:1:dft_force:R:3
Si	7.925069051056939	3.3724116238457644	14.918540305254785	14	-0.8618625283616258	-0.59784472190424	-0.23049702084595514
Si	7.225121544590906	14.634124499816801	14.368001350003588	14	-0.4452431933901511	-0.4808781989063395	0.42544748219873507
Si	11.984444450736245	2.63630227751085	13.09775234551405	14	0.44524859271132344	0.705113806966138	-0.8630586065565585
Si	10.405126739350884	3.173924538139622	3.1554160592629317	14	0.3934505907105562	-0.4563089735775364	-0.06915039180644661
Si	1.2755513893832766	12.729646169070564	10.572849201510754	14	1.4953229724921528	0.2511422252351481	-0.20248971348305012
Si	1.0061990659144573	12.929712688574842	16.15285800834908	14	-0.7089982328838177	-1.0192529976450222	0.8633362859311347
Si	6.743649300003061	14.36894312419378	5.518414158760355	14	-1.2240847309641953	-1.0520081080921126	0.10603495450822693
Si	1.4032255581150868	5.06626444599005	6.541421277930323	14	-1.3100151845320565	0.19348544554135952	-0.03539152184237032
Si	15.13465786160822	15.107326789797023	11.208299891170356	14	1.0367131167636159	0.8272359103519995	1.0804645875544479
Si	5.233511115980918	11.898180550954075	2.996460599199953	14	-0.9620765004250375	0.6961514480411658	1.0982201266743263
Si	0.16685589910292326	4.97583777348526	8.64122455673716	14	0.5995264818941488	0.868153765969496	-0.42384105559470653
Si	16.401012237415404	8.674528373542753	13.521174675434226	14	0.27615316645795257	0.9418817536879343	1.4757969702488203
Si	9.930045806064184	2.40661401668069	11.926007035229903	14	0.49652183211624845	0.48698200293637106	0.2519528947425908
Si	14.407376013281718	12.264702388525517	5.513281816428736	14	-0.2892573189431514	0.7355595506146714	-0.17289706257974174
Si	13.071462784395825	5.61811796104839	3.2625232531016426	14	0.7044581751095002	-1.118077030172362	0.5419092972222904
Si	4.255771288876325	11.191128862445709	0.1869601620241053	14	-0.24451982926204274	0.08682442688767653	-0.7801546010610438
Si	0.8300235263877591	9.97049631555264	4.422179191229052	14	-0.5024340887999289	1.3928009191828443	0.19967795270493616
Si	16.040840835529213	6.514978024496338	5.476129151630588	14	1.3041042134010359	-0.7508517137273162	-0.2787906062953605
Si	4.993020247382358	1.1295894701006026	3.988083420486699	14	-0.3141826423587949	-1.5711896056158903	0.325401660423261
Si	11.189822477761744	5.671993657820988	5.938968655469427	14	-0.6880833195465411	0.61385473762227	-0.2119439248557666
Si	13.285961666359867	8.609464203187718	6.351212321954982	14	0.2994121565156082	0.4500755858393694	0.7454217964016955
Si	10.318888999962885	5.876062717633582	13.218171909937036	14	0.9410235187320689	-0.4852426501872909	-0.7115246009713952
Si	8.842630161418116	16.314578295071115	14.060729535182455	14	0.12787597998182082	-1.0065453096001904	-0.39884991188286717
Si	7.591389953343807	3.9696566928417965	5.70117721254449	14	0.7644500326550474	0.6801368043335594	-0.26525090856892874
Si	13.921330604787682	13.716762862461184	1.6726988734069517	14	1.314540072784985	-0.9875710665585617	-0.1303884641006695
Si	12.289978234369576	15.773380235563957	12.76216026897709	14	1.2563549309479058	-0.6863285401655401	-0.6561903007132963
Si	10.153081151651477	15.321611483533783	12.309897739506917	14	-1.1260382006856686	1.261759908551921	-0.8578822002155043
Si	14.203604527952834	2.9690183457135246	12.046424964628255	14	-1.2239808583092615	1.166675034491673	0.34773993766577155
Si	15.721801748404587	7.2750045112030035	9.146234615981264	14	1.3372174788192228	-0.7780164698768086	1.4823496892677497
Si	9.827235456968225	13.21398134179561	12.766527419779178	14	2.703030791009133	-1.465492494346731	-1.2672679874792745
Si	12.285086240659412	7.404393820777716	4.7287986312205215	14	-0.781494661153905	-1.5109056705059742	-0.7820572189979534
Si	9.346786737802358	2.4431175766984445	0.22758725417322126	14	-0.22715355548763455	1.182788408643573	-0.6106035749449429
Si	9.303898406582	5.775353375194561	0.6296888628432188	14	0.8764244975633484	0.23116653667132167	-1.1688332202974052
Si	16.30565106055992	8.149299599652965	15.943681131574406	14	0.11258818774822035	0.990960554702113	-0.5031539982895704
Si	9.270418007115747	10.739647874751425	9.442296701899693	14	-0.5389193588454904	-0.0136664532187151	0.3103522096528383
Si	2.7413689606041447	4.991264230923561	13.752447275136428	14	-0.6955963464025459	0.9186142789827222	0.3278922901468885
Si	10.408808814830593	1.2557937516848734	9.964481059917714	14	0.7848234712119008	-0.2701570917408353	-0.20502970842882437
Si	12.405729803457497	15.1425828260177	2.6848379838230887	14	0.9255572917892502	1.1260068332007627	-1.3531583318041411
Si	1.3678272747510993	16.478491149829686	14.582017899700084	14	2.4454734008896835	0.250010681783751	0.36130817466125703
Si	6.374877668532827	11.659146489305968	0.9011863386341421	14	-0.6394830012324421	-0.9318503291708445	0.9600283579270074
Si	9.922326854758808	16.18508761396899	4.689365107055503	14	0.510682451777496	-1.2675297260008653	-0.8193752700567106
Si	11.700174162490843	9.65092748044603	11.848524852766348	14	0.4306524278088428	0.8095220231383072	0.14094876498211373
Si	8.909996446460289	10.149304244742895	15.837569667738867	14	2.036223367986817	0.5952201375934327	1.1127239888958136
Si	1.0307685811158727	15.228037388605173	6.129471915879202	14	0.5944048400964138	0.27062811823548644	-0.6505364401142907
Si	4.175571695468152	0.2361989289297165	12.527383811480476	14	0.050978076514172	-0.08259547285709697	0.1811937623373276
Si	12.896343470783822	0.8377375726192275	3.2106243011136666	14	0.04768294793587023	-0.3820991607221024	-0.31774490877986
Si	1.2813295664460171	5.655313136487067	12.005412006665102	14	-0.27968175139932383	-0.7247020299582181	0.6260176084497625
Si	4.1235321313615	15.482865788234626	9.190067991441085	14	0.663128685530248	-0.8373321267231569	-0.27845481994054916
Si	0.8706784139556828	8.840485009096012	10.314234084824903	14	0.22888210959437014	-1.0041510963260687	-0.8454349651396036
Si	7.002578341418974	3.5027345324874903	9.40421534310844	14	-0.21165801794416614	-0.9950684096721135	-2.0660024240258363
Si	10.228171293072931	0.535712551854216	15.65058661536986	14	1.1745544438557987	-0.3672160604658933	0.03102398523503478
Si	0.3273613625205935	4.789093434713075	0.728481956409141	14	-0.6512213825715781	1.2522653308256781	0.4748857237366704
Si	1.3798675961687625	2.8472041052762425	5.554165607445664	14	1.5352620083142692	-0.24977311165216934	0.2663767955886216
Si	14.257996892510329	1.5934786597555928	15.409096746718857	14	0.2222543143000924	-0.9122459082152474	-0.564004090790983
Si	10.58267242952234	6.569355673832112	8.042226741331605	14	-0.3909103386542499	-0.2825459627259688	-0.12546556874418202
Si	2.8410842080646304	9.250469071534962	5.031834097210426	14	1.2980400043929348	-0.7686309070161402	1.0031447657037629
Si	7.271122962717733	0.5414367731039769	7.542919648016999	14	-0.5361132544990806	-0.280725877269836	-0.022279398930679147
Si	6.0859802605682525	8.078663265339294	1.2037214870855077	14	0.7515549110323767	-0.3260408372058498	-0.46583903255719733
Si	8.654286768552167	10.197078029574874	5.697120716423194	14	-0.4852565341560197	-0.4395024294313245	-0.8227349333785483
Si	16.1700094167781	2.970081111726762	1.9874182254439263	14	-0.3806557421953713	-1.1940138544713395	0.8561454185717444
Si	15.602188251127027	6.688895595001065	12.734541432830001	14	-0.6346485518989676	-0.39936130473104464	-1.6049209647530411
Si	1.3166804340955678	3.9571095137870507	10.453587234529877	14	0.6147283992100564	-1.39095897933149	-0.5258648286929705
Si	7.638483567927314	5.2947427885897556	10.57328902313777	14	0.28305581291095416	1.1119876243321234	-0.1291998421111651
Si	13.234281807673081	13.392053509899778	13.33050954758551	14	-1.1899476514075253	-0.3437431544456014	-0.20358191902304898
Si	2.9565431077427524	9.644534534120247	1.3187291199641626	14	0.14852298414473797	1.0396246364281516	0.7351029223098132
Si	2.5245745040515097	1.6524850638351745	15.849595273934808	14	-1.0172249097684896	0.10647384218637619	-0.2743937590873753
Si	7.014760909979947	13.35295843583436	3.4439652069800917	14	-0.35986089947654565	-0.1559881884417879	0.7920966139415356
Si	13.89687881136004	0.8260651317446084	6.803002329305421	14	-0.8999575674481317	-0.6464057023069407	0.3370387402127833
Si	13.767388130257912	15.056690076827847	7.476192657607405	14	-0.3367808583491724	0.08672646777497887	-0.5915660827124384
Si	10.55810781939483	8.22871438123598	13.197657255832281	14	0.27981390621277946	-0.590708104867105	1.5507662876158261
Si	3.8778467894951625	10.412556291295731	12.860858531114138	14	0.8321238386761329	-0.3192117243650045	0.07470552196115855
Si	9.614309468703773	14.451269884653064	8.107470764396572	14	0.34490812226616047	-1.275925927534341	0.019631931782522673
Si	1.8615066132694544	0.043194080827243506	9.57982516411117	14	0.45048490580633704	-0.209867757309747	-0.8718268470298596
Si	1.2265415259266705	0.9311661503552541	7.218146529494796	14	-0.26785286715291856	0.6104451948572217	0.40965395354866146
Si	14.949981829000258	6.300400661349779	16.220613429254563	14	0.9755897157666715	-0.3138568833147321	1.1254442753567142
Si	14.370829942623436	8.522312485028335	2.8685297316003298	14	-0.35497631358932835	0.6675679559760156	0.40856406200345063
Si	3.303510050670624	8.495952617850772	7.35720700978997	14	-0.5195640779954155	2.3020705158794885	-0.8081603657607568
Si	15.64122282928092	15.999206568204476	15.215431348663541	14	-0.6568999257816572	0.7544036957271008	1.1676538542870534
Si	4.234950885164684	13.288260510997732	7.829366154052583	14	-0.7144664596787086	0.32905365841999934	0.6231742230762108
Si	12.4293886099368	13.454867886356022	6.247999756798627	14	1.3750816326479798	0.5750919824841215	-1.968711027379837
Si	5.486899058906274	8.8689818534725	7.974749274614203	14	0.2948810976099112	-0.262546105772133	-1.3998223507016367
Si	7.223143164781649	5.936220179056732	1.6245097923174918	14	0.014394076024317005	1.0685665405749307	0.6789047306641445
Si	12.19554902155647	4.68731969123618	14.233618675191297	14	-1.6942468200066894	0.2133459485868434	0.1425523633702901
Si	6.450150932713486	12.600570784225917	7.146205445521797	14	-0.5355054452013976	0.6093884705706408	-0.05322342279025732
Si	12.653620793557463	16.510083095841647	10.543681997033609	14	-0.7422120285200225	0.6517852259682866	0.29997214325433647
Si	10.496166546094079	10.402118294021104	7.551214127994158	14	-1.424642001688622	-1.0309358431092432	-0.9220973553599269
Si	15.145097493907485	14.483586146578663	13.640371241429673	14	0.8730589206992745	-0.4836675910681682	-1.5072644711515806
Si	16.059645253864975	14.624386293086275	0.8350217966992468	14	-0.6936623609807304	0.27041265960965805	-0.3960399508784774
Si	5.089069769609491	16.208027009608557	2.1258426811557927	14	-0.3533829996224326	0.34020634196720567	-0.9381323107995624
Si	10.772863400226688	11.616364434686933	10.961481477231443	14	-1.1430877142846345	0.21891676248400815	1.8306969220101403
Si	5.437464089044373	8.063325099231323	15.176797351545405	14	-0.41635373979190327	0.011076321719197925	0.26568208293111756
Si	5.108080201049356	15.736950251654813	14.583355349852127	14	0.31469994874920865	1.2926998186429872	-0.3016500465862651
Si	1.7639773937469667	1.6069430876309938	1.8109287611871638	14	-1.0425592960405685	-0.44179431271370445	0.26471766132553004
Si	3.132532254460975	14.68512255323048	2.1639730906861185	14	0.8680982300945809	0.01677517666130614	-1.4064666010699636
Si	4.63477980959099	3.865827723397764	13.164806340850792	14	0.9186407613675198	0.8469388046413583	-0.3577844748199941
Si	11.143111458943002	4.268331548128156	0.17113148852540952	14	-1.5274733589679446	-0.28713949949094536	-1.0522112254124045
Si	4.836595805455519	0.489323632888717	7.5759651309301415	14	0.5992485454090409	-0.12960916207813264	0.6426295199232392
Si	0.519761251507839	14.797270528021208	9.64898016610485	14	-0.15265989260485624	-0.6255784636610813	0.633701356699025
Si	14.602473692917952	1.1211118673642388	10.880707990176122	14	0.7579947585277516	-1.6747946084860452	-1.620359937979466
Si	15.347616550365387	13.556533718206955	3.6197875811854683	14	-1.6673839116217823	-2.8628087886928193	0.40080652303149983
Si	5.494846913660655	10.383825638396331	14.667013020364912	14	-0.863727351050329	-0.914147754820561	-1.076479117197686
Si	2.391275850572719	13.275997826229608	12.75158492963306	14	-1.0817519399882458	-0.6183464586165688	-0.4487404108466166
Si	0.2719879831816483	10.015358121508347	6.687048017162668	14	0.24033149869552153	-0.40747159935291966	0.2961075148476218
Si	12.487139315096126	12.403067983350496	9.783982515254094	14	1.0445369902528265	0.2695947910073189	-1.5480278033393364
Si	14.220443646676422	10.600273469726188	9.478177317531228	14	-0.1514445311200222	1.0753051505085067	-0.163299640640693
Si	9.799327221460608	4.620452088707912	11.192526808509275	14	0.06429588785147504	0.2987881492544082	0.3276025265773078
Si	1.0269671488377539	11.093015939128257	1.4740482852372339	14	-0.332900546200005	-0.5493788723983847	-0.899213746679013
Si	0.8592953724415913	12.141758346064933	3.447648917484437	14	1.2176088879943385	0.13863682707823657	0.5437098422779902
Si	13.523419564259111	14.561137000076922	9.74332762768617	14	-1.5423171213127553	-0.8533938216581219	-0.6820299091807844
Si	5.924279594141849	4.275651553422409	2.5719313576013727	14	1.013342797845598	-1.0419769406855552	-0.27448863287368874
Si	12.298298874740908	3.5945166404153164	1.9451495685605174	14	1.1577360726251142	0.8178832576394288	0.7089347265824101
Si	15.498320041091736	11.782875343591712	7.579745307887996	14	-0.9974675080463437	0.5513645370371351	-0.1977550230359974
Si	13.279276050624285	6.970188503384766	1.4459879924384924	14	0.04536406804762868	-0.0673269639133976	-0.16311966326828264
Si	11.056940755565071	8.681171478637804	3.163596087515589	14	0.06245189111586482	-1.0411467307776794	-1.107782067359957
Si	9.468622233559906	15.734059528098808	10.032805469396436	14	0.8814656637645627	0.029067888307466122	0.8762105816007121
Si	3.1338566244159325	13.217568585846443	0.0016808053255510003	14	0.3633658302489715	0.7790096878619819	1.5599057956973565
Si	4.185712118259072	4.599844238198919	0.39318745435588853	14	-0.3487501249460577	-0.11269771683485867	0.0021239901049743284
Si	0.3414634500039373	12.698054223058604	13.96641477409385	14	0.3039218752471479	0.0187659835106968	-0.48224911226304246
Si	13.720884759567909	10.248587845699541	4.657980809172282	14	-0.06652272216925528	-0.4649607429798347	-0.2340939971888423
Si	13.454145205467018	11.241140996004031	1.0883541487869877	14	0.917532872085068	-0.07917950232874822	-0.4735335794488045
Si	8.455291190184306	8.927957192084001	12.811680260120049	14	-1.6584516346290563	-1.380903129313859	-0.24620827412578397
Si	16.19764787322082	15.480138567142196	4.050068839452617	14	1.1875259273064778	2.0088794057965105	1.9737547646863716
Si	14.683011736425726	4.712916001908845	4.886532727880596	14	-1.0303236629325159	0.4237389827134966	-0.9315081150527328
Si	1.768771285978986	9.932253089322446	8.469412897963279	14	1.513660352745981	-0.1912300719545256	-0.04252608199524923
Si	11.740842130255851	8.572331158685198	8.26525391179572	14	0.8462713457002479	-0.22048102296078628	-1.034615866153971
Si	7.119767097161719	15.034872308088397	1.9094798711069951	14	-0.3382754418717745	-0.0009070859569482423	-0.35972848755255804
Si	10.949952918524769	9.031439536305255	15.504143998844276	14	-0.3474038942004282	-0.4294200970288959	-0.651495205288174
Si	5.490450332415123	3.2815843703052168	15.264186148276972	14	1.0463388208611863	-1.1755057528242536	0.27886156880219665
Si	4.776856910339121	15.84083481193646	5.641016481072069	14	0.237440033652483	-0.48742937526207686	-0.8670700450770535
Si	8.859564111570581	8.766287591125678	3.631960339598627	14	-0.7320337938891524	1.035047297626692	0.864799244858299
Si	6.2141482067400595	9.218344107491745	10.025815739078604	14	-2.9458364643542327	0.31126083827297857	1.330011699048976
Si	14.054305523388594	2.0030817614544114	1.3460127760609228	14	-0.5159305919569822	0.3985673474081829	1.4015866431723223
Si	4.501065859854719	8.619034002380761	2.8871052464870854	14	0.004919552919571335	0.26878772104732446	-0.273104349769321
Si	8.242634980984754	12.657111571154788	8.725258282916169	14	-1.6131271616033578	0.5777435634007902	0.16380383439397406
Si	3.1484721096349015	13.098051555022392	3.7788411427265927	14	-0.0925605628569269	-1.5288206181557022	-1.1089004981742214
Si	2.5679664228596786	7.367610671547248	11.336312510001767	14	-1.4080347182047217	1.8247180736986677	-0.023499902626153445
Si	2.3791684931449906	8.60032278044924	13.317211892222955	14	0.212106932933064	0.20853952430135855	-0.8892944223538816
Si	1.2791958592963635	3.8140219678140252	15.095925763011937	14	0.7257775233136361	-1.3669723664682327	0.36665813061142116
Si	6.876120631016162	6.978329291046165	13.676595212234714	14	1.245940411738114	1.3104386455782848	0.40519771380778075
Si	3.6944869517189787	4.588197957718472	2.6803400310501404	14	-0.8635262906142935	-0.9737984266901243	0.7636681595271904
Si	13.041581074152857	4.2830500398991775	6.473585740817691	14	0.3341102512531346	-0.031342802294733144	0.025612836978251133
Si	8.51792080885671	5.583743203106382	14.640110325008282	14	0.30110780047424585	0.6545301380080767	0.359692749188608
Si	15.469772510951541	9.747125789915017	1.2015240139750596	14	0.0629116047471073	0.9084219032725913	-0.2163052908103338
Si	4.626390498184956	7.132706682129045	10.554191935392211	14	1.5946787095996993	0.6205876911241418	-0.5286387942228782
Si	0.6085022136131703	1.4790416504748143	10.869985498614874	14	0.519207979908575	1.339475166400845	0.07930111561039123
Si	5.813509945119058	5.827059394275518	12.009973725398845	14	0.18630280571899382	-0.8610186915955531	0.8057126734959758
Si	7.733202180100948	10.756262995099917	14.055906212506994	14	-1.2035385141298283	0.15183328224442863	-0.7684398738908531
Si	11.14993278172335	4.624410483351062	9.200561579553328	14	0.2093553360194415	0.3257757562473426	1.4741301226697683
Si	3.047672840840914	2.291665244688922	3.745028833259283	14	-1.129675800492614	1.6601377654980092	-0.43985724196550496
Si	8.110078628690594	6.583194522349099	3.654544934892242	14	0.314705605180913	-0.3257122499459349	0.08609371875569044
Si	8.0007952170617	1.745048713538889	13.094853446834863	14	-0.0020273165449367606	1.2956537615453052	-0.438765807757102
Si	3.0928534766005944	14.075073606311891	5.793471083183307	14	0.7750841242591798	1.1035489995608654	1.4092066280096454
Si	13.249487536785557	10.78975483973862	13.182176842581	14	0.8464063287295556	0.5141099922797854	1.2643973483893292
Si	4.584306599085386	5.425345286444194	8.950860617181588	14	-0.35970560471520874	0.8373922905876483	-0.40141227544492675
Si	4.219658499746514	5.945960020811894	5.41740233676372	14	0.7478373498499745	-0.39370075925820663	0.8483264301826422
Si	8.239019941515112	2.676510803353214	7.5228284652929025	14	-0.7748720080702676	0.47215315300241695	0.7000680127753474
Si	16.18160174144557	10.890338285280688	10.785269967162758	14	-0.36627477880818704	0.01168567368007302	0.21257384565920287
Si	14.363912153389577	5.445729138578089	14.23236297627104	14	0.3579999334458225	-1.1864890005308621	0.018326067390419466
Si	0.12493550246692901	7.991241768115013	3.5810374973181935	14	-0.5762186408354104	-1.9083592150894695	-0.049207613390718045
Si	11.923812832168727	2.2529004455999253	6.573343498918705	14	2.5838757431627224	-1.0970417891061024	-1.152680508234107
Si	5.499604835350687	15.236281182818626	11.183727105919669	14	-0.3959319644550311	1.2894255160177786	-1.7703672212255257
Si	7.755991153474031	9.903792215487947	1.540821056336628	14	-0.42404134469914606	-1.0131846748684088	0.8855465221287018
Si	8.875942153346887	16.355378699831622	2.6800637118866986	14	0.19017746143645697	-0.38612756853771046	-0.9107852632828712
Si	15.454988618195088	7.993968989207444	7.0933287488016425	14	-0.8901624275099635	1.121408411335678	-1.2001063456379624
Si	15.933131952624548	14.226220188714528	7.602493405645185	14	0.0846312740495902	-0.9611449889675477	0.23648872468402823
Si	1.805860184816339	0.06232223404088275	12.313823433657353	14	0.28381557453305795	-0.035866404995001676	0.6907341291316137
Si	7.0473780164385245	7.306006213321459	7.16505891459663	14	0.722027823314732	1.2235291151045113	-0.05796942610071866
Si	15.597508810619509	10.825576594483268	12.997979872191314	14	-0.24049604943601105	-0.2274245499883782	0.32493243370233404
Si	4.806748430729902	1.037861317985756	16.23004752140284	14	-0.07147595656852056	-0.21167987233938743	-0.7151069220139575
Si	14.717679163777532	0.8074618214390448	4.607026901423769	14	-0.3668435073050038	-0.4455872072819869	0.4092096665493398
Si	11.0351082716039	7.484534553299002	0.974114977487135	14	-0.6835694870464891	0.040285877929804204	0.7096260968029978
Si	15.430410927870494	1.5776843217742476	8.367830452368766	14	0.02418047420439664	-0.1566512765038541	0.17180794236612704
Si	7.031907413335058	1.8146991279972033	10.861496450706058	14	-0.6565409994789645	-0.8544849987559927	1.5761274133832348
Si	10.995661667241796	1.5573756807735968	4.635690518313102	14	1.2549796467121586	0.037291054452895725	-0.3675544179260247
Si	1.3692170456914867	6.385238819649575	2.3339764122128606	14	0.08416410421291931	0.6934929251401327	-0.5309034237888647
Si	13.075846285444271	9.91651270715408	15.388271437933309	14	-0.971757740397523	2.150648867596815	-0.16576121687420278
Si	12.186028273102497	10.637779299845658	2.960547283075704	14	0.8148552669038904	0.19509418614017618	-0.37598198694440615
Si	3.069641031846851	14.65843895117504	14.520537703346612	14	0.01887731237105921	0.5134271067067541	0.07209122207163199
Si	6.770220085358635	2.5545788411421575	4.134182681838776	14	0.6937850027045015	0.5537399812424199	-1.8882035491532325
Si	11.280533644553154	13.147130089513698	14.58273567551518	14	-0.4489838945204346	-0.7241520705302386	-0.026985035887614164
Si	7.443760308932668	13.453515720982256	0.14843407653192803	14	1.565281719811254	2.398844349024542	-0.20230305123680734
Si	10.774544205552237	12.38319589392759	2.597709156008607	14	-1.45030548944168	0.9480765748462991	-0.5645908170250408
Si	2.022357066885268	7.7772513788126885	0.513567778187618	14	-0.6431738229195146	-1.292488730896203	-0.6704794756405513
Si	14.160932019984394	6.653397575134297	10.709123599826608	14	0.2805780387139275	-0.09255850597267078	0.5236469932438106
Si	8.560953022245014	2.1222227366122426	2.439893308116745	14	-1.0912022947029822	-0.28404208891176297	-0.43316208371183934
Si	15.848496537379583	2.7576832364196586	4.355043444660522	14	-0.48720491776762787	1.0969944807682117	-1.1654874409442966
Si	3.3081306302912536	2.195035288716097	7.979834201231385	14	-0.01836283419649758	-0.8209667842498823	-1.749953673425678
Si	10.006985160348671	13.257361815431327	0.28747657155610806	14	-0.6098235015908099	1.1803096060044183	1.8560835017202182
Si	12.303924994512522	0.8265736244063265	14.368148502220807	14	-0.73976922135535	0.17394813043461826	1.6049240500794253
Si	3.7459379069567595	3.4017586810328417	9.823546841389971	14	-1.6898612856621131	1.1231063692891037	0.3360905165707126
Si	5.955199545028518	13.084981168084205	11.424370031809353	14	1.4168654365373023	-0.9778656581960666	0.03941093078935781
Si	6.339386188764602	10.3614323409851	6.47704054787303	14	0.604963598314666	0.4924402024205134	-0.9861772703645094
Si	11.069873800433854	12.549265346180718	7.70218576276077	14	0.8455357524681533	0.9225059039952984	1.5388677264152448
Si	1.178802076612042	15.877047337569051	2.2818338415541572	14	0.0026968323703033203	0.7317039210765774	-1.0518566699887562
Si	8.608633610672756	11.648065927349489	3.29796404710616	14	-0.23156017289583636	-0.11703645706260854	0.5225941256152099
Si	3.1852944994566275	7.1306024054228345	14.85078651937394	14	1.1651992200379078	-0.18368799160840324	0.6135094381777741
Si	3.1392865412312583	11.735292856642117	9.384662083489506	14	-0.9248684926739824	0.5152803594215167	-1.3322981830101839
Si	13.380642672966879	4.485014823005561	10.161926634930886	14	0.37284138179584525	-0.6054001719980271	-0.0863030067287505
Si	3.3473973819434253	6.752689351214123	3.570789162901312	14	-0.9118360740272159	0.3807346751286999	-0.6598263578570498
Si	4.877749375537347	11.184459596956485	10.792650468368533	14	-0.2968577633800411	-1.6434353511172632	0.27167815764823494
Si	8.594531523189413	15.371793659654221	6.216713560393551	14	-0.4441332472234432	0.8225626693220983	2.193396578870661
Si	10.62233976221027	15.650851489360852	1.2683818063555128	14	-0.7099775669002621	-0.9547521926995316	-0.6318560744107548
Si	14.648767780454579	3.753965877918292	8.209249412947374	14	-0.969830182739008	0.7291839807523003	0.7325978943963929
Si	7.287828009421191	16.228629955043647	9.772445781424242	14	-0.8666219014197518	0.476598336990421	0.8111878422752311
Si	6.56891748722973	6.163773097712602	5.327405675738133	14	-0.9050069611863705	-1.5483409639673305	-0.25415247534397756
Si	12.925128079496199	8.556370048191006	10.277928362788076	14	0.5085893149363635	0.9913747597691887	-0.845773322599735
Si	8.415604237200746	6.947357019371154	8.933929937078396	14	0.2764408731432772	-0.4734705873684608	1.240677102037239
Si	15.448438709504275	3.2504731215361655	14.129559167273621	14	-0.39627212168888676	0.5853337234163994	-0.13645910087207117
Si	7.759341318952683	12.765585645588985	12.939138605599942	14	-2.9295850218466413	0.29107663306768816	0.5240450003473696
Si	3.067876840264877	6.366624064171561	7.4081936180311985	14	0.4816947819560185	-2.7869933205649526	0.05238215712950487
Si	10.451025150925657	2.682182703814631	8.092951745631112	14	-0.7594340632859704	0.1949823430587497	1.890061944078635
Si	8.328867815298844	8.853105764259368	10.434228542842597	14	1.030945356198928	-0.23711067506097205	0.03329298568006546
Si	9.518431624063393	4.773161754662326	4.398387947754254	14	-0.4855902636265749	1.2952236156252446	1.8502622621648712
Si	4.748261964484489	2.2958263823869056	11.533772800236656	14	0.7551215483324861	-1.0052936955303424	0.16063263309210338
Si	11.196063366796404	14.107129899320405	4.201480295846246	14	-0.41921666556588816	-0.06355283841395223	1.7451739886355226
Si	4.857121904732724	10.24945767880576	4.643723394348541	14	0.9153183790728243	0.09004576474329005	-0.5507832101242496
H	5.559428751748144	3.0081314050499364	8.68652454929525	1	1.123076801577922	0.4432017357659535	0.5535582040962853
H	4.698681477430006	6.005474917553194	0.22681879259441876	1	0.19078372807094793	0.07369224935448819	0.042847470160267735
H	11.151973292468767	11.664007417548053	14.687364172006093	1	0.1848858695770602	-0.6798856073437809	0.0936427410861772
H	3.554102101468848	2.99783892496789	6.7009326463694565	1	0.05079475670484545	0.3060255536200931	0.2416664165777424
H	5.8395787779114565	5.674871301179908	8.040402053838108	1	-0.16951657330481107	-0.4630149304735467	0.3682056789036182
H	1.7148252831470503	15.002345127984787	12.226467337418502	1	-0.18089397145699834	0.032430379845155774	-0.33405008738864317
H	13.189908874083462	13.190397746449552	11.809938271362649	1	-0.26303178756710893	0.1468515085761097	-0.11756661897962307
H	10.532197583992101	11.061836019324506	5.036086796288012	1	0.42605220617003386	-0.09444826838297961	0.3121095601391595
H	7.333907908730533	13.069190100152133	10.022555499954919	1	-0.22050030625068737	0.0754200321296277	0.10067702813157035
H	14.209358179646037	9.0380319556366	15.636214748821619	1	0.37843045054078317	-1.0414082121887385	-0.0052669092483233395
H	2.8731584863441384	11.465190056865488	13.296402933683767	1	-0.48137776467004423	1.130819428139016	0.11662328043766074
H	5.901314038108104	3.551759111165818	1.1674468305167582	1	0.05799642270658021	-0.26665216096840944	0.2757808704075952
H	8.254575565899636	7.894229216377422	6.0662798487321	1	-0.6829706766174266	0.2679066032541097	1.079133526330207
H	10.495944182743617	11.05472529718363	4.24039224715246	1	0.4136350530263787	-0.025916227406028603	0.5987973164253548
H	9.42463189573505	11.638971920325448	0.17232178646023552	1	0.020918769995256787	-0.9599861917997571	-0.4940967655782848
