72
config_type=amorph sigma="0.01 0.1 0.22492539672786058 0" dft_energy=-6965.570172513847 dft_virial="-0.6628276835540494 -7.608054379162135 0.10187674073601138 -7.608054379162135 8.204221973098795 9.755012359858078 0.10187674073601138 9.755012359858078 8.204221973098795" pbc="T T T" Lattice="11.105996452100001 0.0 0.0 0.0 11.105996452100001 0.0 0.0 0.0 11.105996452100001" Properties=species:S:1:pos:R:3:Z:I:1:dft_force:R:3
Si	10.65497083018377	8.117350594846988	6.264070754892155	14	0.6050597576536396	0.18923797955247487	0.8541785230018312
Si	11.048489602471028	4.547572367241387	1.6502511188139912	14	-0.6530424964698391	1.231872608978924	0.7338520795715611
Si	10.21576198849257	6.035587089883101	7.23745581393646	14	-0.003508016098810039	0.3304811360937456	0.5583214338123916
Si	5.077528305942695	4.390278139490295	0.4213848279852235	14	-1.5456718995344847	-2.2954357786008464	0.13268626092528588
Si	1.266072489542948	3.0822805133406694	0.5820264030669787	14	0.996185554933718	-1.8361193831303326	0.31588985629137317
Si	3.800294289965387	7.773064704831887	0.7199584366034799	14	-1.4542873602509936	0.3775115374993623	-0.6691270742421533
Si	1.597897451538792	0.3291983938349222	3.1789137884703917	14	-0.42015614744987023	-0.24547113823049752	0.3457810125223508
Si	4.419808984056429	2.653844488208008	4.759086069671632	14	1.119607609169446	-0.3504457689046954	0.5767698858160503
Si	9.973584629858076	2.6945146472155983	8.266826201095801	14	0.03922529698524312	-0.27626295265512296	-0.335872229729032
Si	2.2635797728812137	10.481472953609062	6.8783878426436145	14	1.2834718645384438	0.7907904924389003	0.528112746074376
Si	4.208417447587157	5.868608433225779	1.9084100063430556	14	-0.057116333355493536	0.10683225426800486	1.2628863097926781
Si	1.9062443370348963	8.291981283059807	6.643640395635577	14	-0.7784365884861209	-1.4407826295569157	0.28978748086016587
Si	9.80886049048053	9.861947153521568	9.897308646225053	14	-0.05993246501265173	-0.8779856727137423	-0.7266393578169498
Si	4.693260828700035	10.344391639400792	6.693706227641644	14	-0.6246605790617884	0.3733144651747525	0.38517137446914734
Si	5.75723750080412	9.30269359617962	8.542788000937582	14	-0.12306467059622773	-1.1096008672634299	-0.6956115159239347
Si	9.466473725858739	9.792190389805928	7.486518890371254	14	-0.15651706480614236	-1.4097517023375166	0.25080078244863246
Si	0.6713719233248328	5.944851098869444	9.007618376443775	14	-0.15102466962124206	-0.8708431421343709	1.2769556552150603
Si	0.6452061956836852	3.60209667728121	9.546003766452227	14	-0.28454576844398	0.6104415953097735	-0.25127720826445593
Si	7.493704470075763	6.173990017669173	10.216872588137779	14	0.899943940589935	0.8136787291093907	-0.6361598476061507
Si	10.140485544540235	0.7696810933191768	6.6236607080182495	14	-0.4662786915669426	0.44428648510052404	0.9421607186151704
Si	10.517611866064195	7.842721514579457	3.992561300544142	14	0.6694196660275863	0.8270849864697067	-0.7601670854127447
Si	10.456962019439276	4.418665066421863	5.629873933491437	14	-0.3559340503210835	-0.48064859920125025	-0.2544455813504744
Si	8.4297067450623	8.790751583723619	3.511016400377538	14	0.5462734913927098	-0.37118790396445805	1.1050834352159296
Si	5.325502994725184	1.4962886899985288	6.780777239826107	14	-0.4928513221612051	-0.48442709557973984	-1.3311373289581367
Si	5.50777460849705	10.464203129126046	2.9410122384699577	14	-1.6232701720913416	0.741802708553055	0.040040851592794094
Si	2.566662416059023	5.832036386909013	3.6416673426400425	14	-0.548986007505466	0.05560606609043855	-0.8949464831791631
Si	7.534152509154312	8.156332642393856	7.302814603057069	14	-0.5958778263343266	0.11665490503309857	-0.5448429283925794
Si	3.8013382536318847	1.1460721978780075	3.053615936497799	14	0.7401834264224257	-0.03431371449216425	-1.3459175850015404
Si	2.268788485217249	0.11509255183275752	9.101208608545623	14	0.6327024822821475	0.443955840956353	-0.9307067015244427
Si	8.009178189403531	5.825439425016465	7.9600008371136335	14	-0.7392105201692817	0.8966650099751501	0.26526659231138167
Si	6.752923400724241	7.789501579580994	4.776511378104977	14	0.34314948622717917	0.9844623431159707	1.8224393030534207
Si	4.213848279852234	5.595045528617651	6.732244035330431	14	0.268606201011722	-0.3010445512833702	0.5994534625030566
Si	5.888521484864394	2.5648743506302347	8.739597364065245	14	-1.7950783715680008	-0.28038829114130054	-0.8760578579446953
Si	7.951526961820682	2.7075752990432678	9.438153434905884	14	1.4382557472482742	-0.5908374314647085	1.4576722204049686
Si	1.112943010461393	0.8674871616742406	5.447224715840201	14	-0.2870608236681489	-0.25807572495199144	-0.4635193813373597
Si	8.963816326436692	3.481130163924937	1.9185942050896314	14	-0.30060000717351665	-0.6018882992412369	0.8477286481957077
Si	4.352284525627661	7.631907489925696	9.569670644891652	14	0.2607249918738721	0.5120618497817554	0.04210596338593703
Si	7.623222600700153	7.934468151270257	1.650639828689815	14	-0.11569151186963908	1.1065247968584047	-2.141813007053594
Si	1.4452455303046774	8.464424089971564	0.8833154278177735	14	0.8224518546827999	-0.41037129193298266	-0.4460500062396136
Si	3.6392684474063888	2.3639224508259375	0.8322078533444999	14	0.5028459798722167	0.10653194916661154	0.2841850423675632
Si	4.8288650453801765	9.121332674116827	4.719948538174432	14	0.9845348482859988	0.22749242716883009	-0.12867507951532284
Si	9.275372844907453	1.1118657288055394	1.4534639676792311	14	-1.5795981484549027	0.288035015473953	1.6043800041936818
Si	8.317836042800296	1.3956461501495987	5.348103697505207	14	0.17956779533286593	-0.5588906765302724	-0.1225764176959316
Si	5.978180194222197	5.957634100785811	3.5917792065772094	14	-0.3285736330567277	0.14784164123489874	-0.04553530366195054
Si	5.533862594163033	9.128251709906484	1.0478785302467655	14	1.881401432918249	0.9463125394861456	0.4943083675461329
Si	1.1651522997827153	3.0699195392894825	6.1014678608369595	14	0.8206821628909419	-0.3998320741151638	0.7553220945474577
Si	1.4639036043442055	9.10510681330031	3.102515638876396	14	-0.8203656598260317	-0.9057898627563555	1.0592439697946057
Si	0.054620401151073014	6.537855779429325	0.31926519060816394	14	0.9224951053529536	0.0797883400685593	-0.8891877214830954
Si	2.925086239557646	4.342633414710786	5.256801300672493	14	0.6527216225258845	-1.0803360322884406	0.8248422112989416
Si	2.897254612448684	7.860646592853147	4.625036692494785	14	-0.2811007444255135	1.01476719019296	-1.0073822043818987
Si	0.3762567220017603	0.8820893258094618	1.20320144362761	14	1.3498655172206273	1.4500185540879518	0.6093488755487105
Si	8.57720548394264	3.465892736792656	4.489099295921081	14	-0.007217349744187672	0.7601295472750705	-1.235002158374608
Si	8.444722052265538	0.5281656520732294	10.528406894615635	14	-1.3067231412801386	0.14201371680571906	-0.4835508628866334
Si	4.330705574521231	0.9148042595584126	9.965110754565124	14	0.6824597979903133	0.7844041239341847	1.1684760937684366
Si	9.241255223806602	7.6500324761355225	10.965927624846117	14	-1.6780437142791165	0.8134007926242827	0.02110928889947976
Si	6.2438134173635245	10.562657787673912	10.426975829018607	14	-0.32585623184386325	0.5947606810727224	0.035872061426706
Si	7.372893440669819	4.212415606309914	0.300861443887389	14	0.686224924621138	-0.8801150621398889	-0.5807664119256883
Si	0.1709401655917876	5.592113545554297	3.771407593193475	14	0.4539211880667149	0.4975816417292135	-0.8041728385197391
Si	6.362736427372612	4.13344086553903	4.939880585915368	14	-0.12626158295129983	-0.9799181715731411	-1.1308176283652918
Si	6.268912969345271	4.40605976044873	7.203771326697241	14	-0.6973552395520591	0.9315492527378553	0.8591626106649383
Si	0.8499074798902115	10.446022612933959	10.715243072929315	14	-0.27994734657889514	-1.1756512773853738	0.0941582477028669
Si	8.733455748027234	11.046001859265758	3.622398438795649	14	1.2881507620000492	0.9983437407394501	-1.3544716524016727
Si	2.768258463657542	6.64656127270248	8.250078358446034	14	-0.328023673628748	0.5698042472827051	-0.4914012187606416
Si	2.053598697961359	2.341899259861423	8.32944180909274	14	0.34469446341405613	0.6874539129641689	-1.0146838863805874
H	3.526009495587873	2.8760643712180767	8.135364521092292	1	-0.6990382850946281	-0.13145470147693494	0.12801173434272464
H	4.181996282027612	4.271954853289622	10.285951886069842	1	0.5488852201769163	0.6621058998338929	-0.1383156960237501
H	6.846669116776417	1.199558676791321	5.949404557414805	1	0.17740806686394156	-0.031044296967063952	0.09283361424192661
H	6.851344741282752	6.763263083421147	2.279694573733211	1	0.2655144468642439	-1.033014581760583	-0.1640010381720294
H	10.290894054491025	0.23240074995770899	3.763677819662813	1	-0.579944429554837	-0.4997668241408074	0.32505276143131695
H	6.821780578727261	0.11790570073407446	3.114898824920487	1	-0.21199894650961776	-0.049119424478236966	0.02241206796519879
H	4.59761598725455	6.8398833529441845	5.947805293925704	1	0.11716372677595586	-0.05982936368931379	0.06209682147115237
H	6.001924814636786	6.895413335204684	10.2116971937911	1	0.35905305818495514	-0.34495517349351923	-0.17912916476524868
