234
config_type=amorph sigma="0.01 0.1 0.6589515906433131 0" dft_energy=-23370.45462408284 dft_virial="24.20119293512758 -14.715359094878174 5.835261770608937 -14.715359094878176 48.7617895364034 -22.953375712208437 5.835261770608937 -22.953375712208437 50.009606759322544" pbc="T T T" Lattice="16.365857079 0.0 0.0 0.109143900859851 16.44850465724895 0.0 0.012438051380040002 0.077852382124803 16.338444268392678" Properties=species:S:1:pos:R:3:Z:I:1:dft_force:R:3
Si	7.801383130488734	3.468098593125138	14.717993658986863	14	0.09440661647679321	0.14644758793031443	-0.17525168083193335
Si	7.15549639793746	14.805567360216592	14.447804814712526	14	0.4010114401255157	-1.07460246742451	0.916441952097729
Si	12.04933281587101	2.658307801927678	12.923590354688358	14	-0.5839245005904262	1.292090723792644	-0.6127938995671769
Si	10.182972111167556	3.407507280461556	3.3349688921303047	14	-0.5890564268094418	1.5537446560186854	-1.8466110354997287
Si	1.5982061364640372	12.814878512455392	10.83553774999277	14	0.17206016779803354	0.16604532401207914	-1.088941778905508
Si	0.9411611625563004	12.976424251096493	0.1600793578468227	14	0.8526736550579485	0.17485341661784243	0.11136896960540613
Si	6.710161787789374	14.802618232770957	5.993477994100054	14	-0.19169235669108825	0.3146986631965486	0.4839676390590294
Si	1.604541359739318	5.2774259224939835	6.2906426805977045	14	0.273120547732838	0.17717821004832032	0.8757446973167012
Si	15.483159667687012	14.678376828755727	11.53913704094743	14	-0.7929155109860028	-1.4137819099268487	0.4143109966150456
Si	5.18920086015251	12.407897288371943	3.5700791583415104	14	0.005206745383831876	-1.8478029999261494	0.5659804994505808
Si	0.33531186276309155	5.311805678459837	8.341410589695913	14	0.7573460686554783	0.5160347217224484	0.6078668904421771
Si	16.258713085875204	8.789214807677219	13.605377231328125	14	-0.23076338735712248	-0.3858264921047211	-0.3012700372199472
Si	9.851992290773277	2.7431124001396405	11.935328255458694	14	0.3048623855732581	0.04794417223639728	0.6459781274922001
Si	14.219556752374547	12.233379971410027	5.296317031320273	14	0.6898445266908425	-0.4748006201505734	1.618461690921601
Si	13.037342880901654	5.808385060293688	3.015389527777255	14	1.3460507682571237	0.056332917564444404	0.8547161411242741
Si	4.434738121982026	11.536857277056328	0.0577616559746226	14	-0.6417656285356697	-0.3510301811439651	-0.9432256704387757
Si	1.2355191045649023	10.189372797871155	4.8542981438163935	14	0.31415461731080524	-1.8289416284080753	0.5703881453009108
Si	16.353036066564314	6.615629324129656	5.3004674126755065	14	0.18852269805240968	0.4549213480362525	0.13595207890293795
Si	4.937466156320455	0.9755180063222452	3.689857593131296	14	-0.8133974501873664	0.26801510389861993	0.6865601967548854
Si	10.949625776276187	5.876283728143043	6.201108349689911	14	-0.12842105430969222	-0.033262646637287716	-0.8060181208080095
Si	13.215041720479729	8.456982999216395	6.134626965063597	14	-0.4086481371474195	0.24415216120126157	-0.7877779283352829
Si	10.644610388137743	6.143583998642934	13.269607124566823	14	-0.028411999340296347	0.15730099481825552	0.21489632509489265
Si	8.928390056277035	16.2315326704384	13.901447041987192	14	0.5156418568295296	1.0943002195032285	-0.7103640040298803
Si	7.385775463138946	3.9288531138130565	6.005503625881703	14	-0.6260613172402051	0.7885415466153669	-2.7742254686556294
Si	14.374420311570292	13.751985852213224	1.9755782519201588	14	-0.18909811142305882	0.11066320119502547	-0.06887168398974257
Si	12.69018050102766	15.79663784052101	12.877009852270108	14	-0.382369898112314	0.4936339666206581	-0.7745627041002537
Si	10.49097426822292	15.410498535427669	12.201792230661848	14	-0.7031854779760269	-1.0468201317771182	0.5860747159696662
Si	13.445585912565894	3.105948361338194	11.0755004928279	14	-1.6874567879667106	-0.18548133756920654	-0.5651256069316315
Si	16.00189842000583	7.483893686084674	9.100413216620112	14	-0.7326554871555642	-0.234001951618381	-0.36810283469081234
Si	9.81504800500314	13.072666946820968	12.690604376726004	14	2.1400065484556587	0.8536331915634277	-0.8220700455427579
Si	11.826619686397146	7.215334881175408	4.49501521018969	14	1.0339383799021122	-0.6914620090477477	0.9601669405037634
Si	9.731120616730614	2.6418224740920015	15.82552685143686	14	-1.062773068957041	-1.1275127295867735	0.3024442610196588
Si	9.445762259529754	5.883064102730873	0.16832611322893082	14	0.45866693426664423	0.38530018684568684	0.5625688998012763
Si	16.196485187503722	8.545527195770909	15.924374991608314	14	-0.21364779635142875	0.7904678187212218	0.45516663148379466
Si	9.243931963688695	10.792346616575582	9.456280595874428	14	0.552650346807741	1.8535123964000704	-0.9448051004369427
Si	2.471984155668971	5.348710686172983	13.825162508970555	14	-0.6854646487779703	0.6804196259187758	0.2860724907830839
Si	9.982059939908629	1.4534812257287322	10.037062312379732	14	0.13380546307114632	0.38514952007392617	-1.266339047127105
Si	12.53850010103378	15.264515090282988	2.4877068345647664	14	0.0364988969037581	-1.4505841972583842	-0.09793494430763242
Si	1.90151783888056	16.505174710556407	14.782954655490537	14	0.22237464202907536	0.7651581150602161	-1.1673494354171476
Si	6.072168308107302	11.890808214446691	1.4960946443910326	14	0.6069970855123711	0.36587908569941624	-0.08084120769715993
Si	9.95724439081974	16.20954023169564	4.816538838363725	14	0.799447661162371	-0.6828143534139617	0.1539634430021713
Si	11.90587298588791	9.768369307442418	12.084840179389607	14	-0.3486909895236944	1.1820142488316763	-0.1207655882189513
Si	8.619862555209435	9.759330444577687	15.92122129094919	14	-0.5768323636753299	0.7149865942849747	-0.5697584816080064
Si	0.9228215831135731	15.658568923859734	6.439714362973192	14	-1.4751457092712268	0.09805681469980744	-0.6972539380024453
Si	5.094962981920212	1.2189110328011332	13.999460523447613	14	0.3050228225452354	0.8144618877899077	-0.7263408524892805
Si	12.966432895349763	0.9784736801107126	3.1132737189667545	14	-0.822574753517103	0.052511997948172344	0.366064719503531
Si	1.0764577030283935	5.971344808986415	11.966649232736485	14	-0.7547124854760506	-0.2882913546743717	0.8693734983333742
Si	3.9347071808902143	15.175663215615389	9.41612041918827	14	0.6208753978094664	0.610207110504576	1.4329443578779124
Si	1.029921388424257	9.17324291720737	10.071667917173277	14	-1.408925606198153	-1.0374479386641142	1.2896309473328584
Si	6.5211345019412175	3.837778755754129	9.523071295199534	14	0.7576985671948706	-0.9201690263698157	-0.39571547738707463
Si	10.509181284223308	0.45262232630536353	15.494150977301269	14	-0.4317415480224575	0.6008560004551974	-0.41533069698501635
Si	0.34962053160726125	5.116991425548546	1.0725593558721755	14	0.1275358227479652	0.030296876650496907	-0.6266912380436414
Si	1.5428977224655567	3.1713626920829574	5.3591553761608015	14	0.30003513533468	-1.0111766416133732	0.0842229825247507
Si	14.453819267189061	1.5634516023710727	15.655051901173456	14	-0.2384239956585037	1.8670577505582064	-0.3222340586688386
Si	10.419653499658345	7.029417108172259	8.1228511147487	14	-0.011935585117191411	-0.8877916112942551	0.0028289871837589315
Si	3.2444591561406027	8.7643305219886	5.162619435084798	14	-0.02773734130428949	0.8181431963872956	-0.3471436983420292
Si	7.183166152500925	0.8424717711985147	8.006635527045013	14	0.10591668366350011	0.15939567432258017	-0.09847899019337575
Si	5.597126394189416	7.226900632373137	0.8124584259013365	14	-0.31292999984681874	0.5641221045251777	-0.5788990181316648
Si	8.73483270118941	10.530690930182239	5.457365247906172	14	-0.15869042013326354	-0.6369080392543137	0.825144059063527
Si	16.074282969280535	3.129382632089614	2.044787824921542	14	-0.5741378452998145	0.3239646696598303	1.014645062690253
Si	15.126920783477004	6.799483362555141	12.41665793166633	14	1.7131513860941425	0.40161822098107064	1.5161625524435491
Si	1.0790778767467413	4.323865986614632	10.417290269896139	14	0.38392258861515144	0.11760775666474546	-1.1544049485723302
Si	7.6600934131543115	5.531363470688871	10.530483083797334	14	-0.10373921456786671	0.1732153654183761	0.47341607993567364
Si	13.392144842860127	13.810911120626164	13.685093684574227	14	0.19933625280788847	-1.0270318767911302	-0.2339096489373877
Si	3.0427925188703333	10.079135657758425	1.2057234251668751	14	-0.6104634497049948	-0.33197520539528363	-0.3296357566644809
Si	2.3841862421972597	2.004293784750972	16.029136115942407	14	0.7904264239255675	-0.15321242313815606	0.18097059039553873
Si	6.9858086453995565	13.674403506730224	4.0269353318732115	14	0.7751702562874049	0.774929086608375	-0.1814143631737963
Si	13.706865184246421	0.8867512341114571	6.739589235403125	14	-0.05979722487281194	0.47147078165044964	1.4341833735316916
Si	13.726911722582487	15.095601442784922	7.28137275107488	14	-0.43197346172233486	-0.331634533940364	0.09493703550433975
Si	10.571772504621944	8.466013679152587	13.670028913133008	14	-0.4218440780925475	0.36107137586127136	-1.5363097337322296
Si	3.762808401060938	10.924661297887882	12.981314369191699	14	0.25644050196837737	1.1374317968013725	-0.8143945248305199
Si	9.513721481050302	14.415403690867523	8.537373725774152	14	-1.717394224093451	-0.016893447506032954	-0.49296470790582364
Si	1.9660549596858887	0.09035753351886691	10.30940817661708	14	0.5910660027276695	-0.5990708820314186	-0.8105352957449776
Si	0.9384673424810971	1.523615469655079	7.07849831355218	14	1.697992149126549	0.14307943996092046	-0.16026522214185424
Si	15.118816411051482	6.490669458988658	16.20452900625805	14	0.3685229533001245	-0.022270914283122663	0.5475857835481134
Si	14.774783183050992	9.15726656752685	3.1221456500892804	14	-0.42991066392398003	-0.6308145196455628	0.60982735824879
Si	3.5294689205856797	8.35805139317384	7.485522088864034	14	1.7266592021146043	-0.8366019328122349	-1.2447245360322163
Si	15.960721923595063	16.266702897301172	15.113873922213626	14	0.3643366796178594	-0.6367604578089373	0.045595467526442
Si	3.9509290184269195	13.427675118578636	7.8890648463751845	14	-0.14698289205796927	0.13305212921234294	-0.40862756830485825
Si	12.475913790392267	13.524493892472291	5.901575523672929	14	-0.6258193762295792	0.8279820451159065	1.1978496864984685
Si	5.762554114129656	9.170051575076965	7.700158667869411	14	-0.5631790230937475	-0.02018960452646279	-0.32595521939868893
Si	7.507280495850565	6.0373679496145165	1.4625986447074433	14	0.9270523895329162	0.7538928170999873	-0.03030099041900914
Si	12.199067315458196	4.640440579607977	14.171013983692523	14	-0.42729893513977363	0.3001660045954756	0.24977516853642542
Si	6.243576112224209	12.97231969414108	7.458709905211508	14	-0.10325764654140297	0.9507117006889187	-0.20926534733323632
Si	13.96199416683666	16.290174809523876	10.97848369206359	14	-0.36617604836389334	-0.3598462441762208	-0.05547931059815525
Si	10.434978488227122	10.577584020470697	7.334684530509723	14	-2.1537084829277915	1.1417160295963353	-0.06272802782724873
Si	15.645130918612168	14.351346089674609	13.858460481783489	14	-0.39591422382832214	0.5772717655745432	-0.6245937303234645
Si	16.142428761571786	15.001142625482057	0.7171436742732406	14	0.036742380577576124	-1.1718771518859286	1.0678432886483729
Si	5.074229077586827	16.098951225655714	1.5843327994181688	14	0.7215951062893512	2.3166679663346295	0.8360907970745894
Si	10.845277071540483	11.682475763588146	10.999739667237794	14	-0.6404589928119704	-0.41445343584978184	0.7730259544504012
Si	5.38201356874304	8.116384964616786	14.923023479886865	14	-1.2918025028862556	0.9384141039426505	1.2331874722396476
Si	5.242183685860064	15.50318165723746	13.491842371013979	14	0.677490622738063	-0.0025754761991923308	-1.6606087919926604
Si	1.5855635118705096	1.8601007643707348	1.9030365904174913	14	0.40057640910534664	-0.3633205787953369	-0.41284700924575335
Si	3.3124445630324764	14.814318183996733	2.097610265229722	14	-1.1025274994171705	-0.1544547812288516	0.5628365518651037
Si	4.54202449806341	4.495980795757351	13.24390618260996	14	0.02475151669600153	-0.7955789189871442	0.06674769388476823
Si	11.141558001755868	4.31905115146199	16.26566857513378	14	0.24419484154957605	0.844054281582684	0.46084774579919385
Si	4.840300426256725	1.516100268084402	7.563667419830551	14	0.46225362618825083	-0.5648163029616177	-1.0523631777368254
Si	0.5742762883164021	14.794451670088534	9.781774580975826	14	0.6764963763107619	-0.6355368687870787	0.7039745501987803
Si	15.082201079008636	1.6987350501575027	10.386542097616113	14	0.3240749700780646	-0.6127777016036601	1.0775849495958818
Si	15.640775964043446	13.558890014295226	4.065591486293809	14	0.048988040996377394	-0.38956385079808836	-1.0184790949436577
Si	5.489335949709998	10.566635262084846	14.501867786987297	14	-2.3749163573625838	-1.1909128443447088	1.06651068476094
Si	2.5198313754251354	13.011985621943452	13.100781852696983	14	-0.4970383671750662	-1.4059950603542481	-1.0335133761926918
Si	0.24141766752945273	10.07875596987419	6.970076146989513	14	1.040205706230505	-0.12383085998163186	-0.8965238562930741
Si	12.420354978780477	12.701828081510783	9.596283956842441	14	-0.7992517429369758	0.581021208462915	-0.13284926900258326
Si	14.189710338819573	11.26170466832993	9.539263674193498	14	0.30833157798173394	-0.9531856182279653	-0.41421792260245627
Si	9.72246635150724	5.056118620143206	11.483602778121261	14	0.4619497215394093	-0.46749276749911656	-1.5332460046327412
Si	1.0435639668853114	11.282454938520395	1.8056106432262045	14	0.5328484649635566	0.13670695542493344	-1.1316336971939067
Si	1.2955637976020455	12.175124066551618	3.851100563416435	14	-0.12331303937015405	1.7100403486567632	-0.1671907514322051
Si	12.81039263103004	15.017318638618942	9.430906971059144	14	1.7367757302177909	-0.4876782582570671	-0.3750347917444636
Si	4.339588665510427	5.18520268126811	0.7373440516658503	14	0.09532938617619435	0.5384077088867808	-0.5861459355870342
Si	12.249038823463215	3.9238140664184322	1.9278865078062448	14	-1.4003378573183265	0.3584349644659915	0.45202654055629776
Si	15.357072194993272	11.850032681534362	7.533441318391346	14	-1.197372489351049	0.5965182886695756	-0.8230740621702757
Si	13.2219759341241	7.016646829893515	1.0142379875854513	14	-0.3631174614750452	0.1359556784503862	1.3098532048968872
Si	10.63554697648739	8.445659462703436	3.043704097109633	14	2.3526901803120315	0.8939375814515369	-1.3847268771459833
Si	10.81024104470576	15.707044592527733	9.888268849574589	14	-1.5451324816383176	0.6915813083346026	0.9369732565212395
Si	3.2780451680381266	13.623099817958975	0.1019216481308883	14	-0.5070116847119206	-1.2309598665902712	-0.011205648316801372
Si	4.76894037963516	4.088683710632278	2.7369015573781597	14	-0.039904068789762215	0.09884203026458066	0.17901783590488624
Si	0.5627694542041572	12.52296890266581	14.249766487956672	14	-0.014516717748088069	-0.814241544063971	-0.11995903248002088
Si	13.172519950617072	10.300426594252125	4.618060270052444	14	1.1055860863060185	-0.4626858289925677	0.14151877903159055
Si	13.33126876428337	11.446126601996058	1.3554628345111854	14	0.5651731723800543	0.551607506489889	-0.25599570074799166
Si	8.258245850363268	8.817170964739566	12.720242943896073	14	1.2051225721175711	-0.33238786779916735	-0.8006745926211457
Si	16.27470743799851	15.811381841163481	4.173066069731602	14	0.43493408949848544	-0.18217643879068818	1.6187632815756543
Si	14.752600900366115	5.017547568179418	4.825361671915013	14	-1.8274138776268432	0.889025998958458	-1.2719607689096089
Si	2.123358668172113	9.789982058300945	8.318830616684016	14	-0.29102366829809306	1.6201233962900126	-0.5633500015975373
Si	11.75858845510545	8.866335635990591	7.918832703816177	14	0.4261481083984754	-0.3807526728659409	-0.09013369654523912
Si	7.116697860560275	15.106396362114229	2.056551602989927	14	-0.010894030351999425	-0.115898485847911	0.5778489787189163
Si	10.963666045064262	9.509147223996722	15.731140043905144	14	-1.2701861920176425	-1.436014514740701	0.06467178344928068
Si	5.521141356357328	4.009405862355894	15.419679781248988	14	-0.12716789757665203	-0.40908239683599246	0.046972808646445326
Si	4.826841145394955	16.317824925058844	5.849438812776359	14	-0.522835552404772	-0.8903395766665217	-0.46313628664465767
Si	8.61372535880481	8.857264041411701	3.585062100497335	14	-3.0421721811527336	1.7515269327710767	0.36066591255228403
Si	5.895217388197738	9.30523846430663	9.995056067015064	14	0.5312937175764632	0.3118719900075778	0.11531330227704528
Si	13.933200077891868	2.4145530900073444	1.5214355374921562	14	0.3140610290771519	-1.0735436862536734	-0.8309334169129045
Si	4.628639160068309	8.778105663891994	2.375477969645524	14	0.1555274463684174	-0.15652889189061503	0.4443597616021482
Si	7.833563315263172	12.76478589710799	9.249550362423916	14	0.2669977175234373	-0.02477414242281883	-0.3454452261675394
Si	3.2807275320133744	13.507028249797584	4.114263545246755	14	-1.019626065026976	0.03755844940619113	-0.7778511478047232
Si	2.382263253990477	7.7292833471271996	11.373954808863376	14	0.20559458026766092	1.3351994182534386	-0.26059437972360855
Si	2.238409006851775	9.22800471157941	13.224119861401451	14	-0.744909118000858	-1.0377978660981864	-0.5397074026261156
Si	1.2942185241501516	4.028216778482497	15.442357949403357	14	0.10518340442619388	0.4136952168908702	-0.10920667003116159
Si	6.89078193285605	7.150526087142567	13.634917603355722	14	1.352634340539895	-0.424908578523632	-0.38737404039691825
Si	7.449039320263527	1.536740887032437	0.3859429148083938	14	0.31894818606968933	0.3443159967109303	-0.16405246027843234
Si	13.053973864865334	4.654889994823026	6.374800827455046	14	-0.3327439658860079	-1.0935461143128293	0.4369876313176877
Si	8.629235281558579	5.722817813141845	14.402350283261313	14	-0.49013237828514844	-0.11028396316030363	-0.21731033587997967
Si	15.418902403037736	10.223592168437635	1.2657664816183103	14	-0.053325752781999226	-0.11768386138222182	-1.186188952540001
Si	4.646130988114345	7.500298821220664	10.713800322110629	14	-0.6296246121033983	-0.4748160467824943	0.46190369875417864
Si	16.108467971547153	1.8024994937954864	12.555600785095628	14	-0.18455651098554926	1.1381362796590935	-0.4802562485293957
Si	5.845131319193167	5.989910237256832	11.982774511716425	14	0.1887404706730262	0.31060623485846894	-0.043227222416053604
Si	7.566400517962744	10.648993164663496	13.877070097868021	14	1.467867681441484	1.2497165941218156	0.5572413124673975
Si	10.917619069586788	5.082141969484524	9.32333419247888	14	0.9156701062806206	-0.18204582664042468	0.8688847312120141
Si	3.066606477505986	2.677067983897336	3.5400821789014114	14	0.5576192649494592	-0.6851903118403105	0.5259926126273817
Si	7.79215115051047	6.6585029599195105	3.673370628709911	14	0.27678437281404894	0.2555706970385712	0.06398092744975689
Si	7.854559073309821	1.9076468523566457	12.899035022727025	14	-0.5447606530223347	-0.14519983051844657	0.8422012859784535
Si	2.8857523006830808	14.678957816682033	6.082948498165239	14	2.866851080477156	0.03349558877929313	0.22105875032622355
Si	13.302626877809413	11.368851934626145	13.357246289224868	14	0.67545867820355	-0.1828276997682817	-1.1561250180315092
Si	4.476901479574653	4.799395603073472	8.933972450126682	14	-0.5649453724486893	-0.5330541533891685	0.48500662271890127
Si	5.888628494137733	5.716014526354104	6.174574385607729	14	-0.9110976525792693	-0.10759612965862082	0.07748848635968683
Si	8.092605374281	3.060848968985594	7.848610084261605	14	-0.737739333705093	-1.0973762899082538	1.7225611173448205
Si	16.205774447981764	11.175162016096179	10.801326562354829	14	0.4264121609148546	-0.17202082988663528	-0.2495142013464304
Si	14.374700167726342	5.447336250688161	14.30858374171289	14	0.079540228405165	0.21813128980870294	-1.2665591337425097
Si	0.47307146472557404	8.181393422105991	3.664303943888145	14	-0.6130306983671626	0.17511052714985723	0.18886208395466925
Si	11.889025972610789	2.4233137333017325	6.535294241485968	14	0.513495240997738	0.5687644922912372	-0.23069216773975437
Si	5.634159055587777	14.990000749982674	11.178351721640876	14	-1.7486501230283629	0.8906445097574914	-0.25520919963055844
Si	7.900982463500112	10.4891674776014	1.6517666769264807	14	1.2907666045527677	-0.5337730344366819	1.1466939466066743
Si	9.088104455510997	16.15289800034522	2.7122136619744883	14	-0.04232039356963738	0.6855330401794862	-1.4285904481287734
Si	15.417267453915542	8.09752986067607	6.827735741630619	14	-0.09787683732739708	-0.1896321299980536	0.9874975329464054
Si	15.881665014389245	14.152302899294103	7.797144373505273	14	0.30980842087762694	0.9049393411164507	-0.5536204248450329
Si	1.9551258403285325	1.095237524026546	12.48036203034634	14	0.20103446787184628	-0.6402623032549789	0.6582983499652857
Si	7.120853151672632	7.472108632402086	6.944784351459627	14	0.35193623865878526	0.27902586243215405	0.39482690338843146
Si	15.616984917607704	10.86156109933409	12.963408484961565	14	-0.600970414641944	0.8895376489171676	1.2624096268663225
Si	4.856378244251134	1.7150763584508841	16.188729407833986	14	-0.2391171656528156	0.043325438639283266	0.6680338402600264
Si	14.598288870553933	1.0719587289173762	4.6862076989294	14	1.1388579889224588	0.0637032480751809	-0.5479223412345208
Si	10.91863866248281	7.622420846744161	0.8573352425976625	14	0.32178205835355655	-0.1799316067356669	-0.31556075481039425
Si	15.345805938980089	2.0139447306704588	8.126837837533143	14	-0.9697121690048133	-0.48211772878118286	-0.371708552791788
Si	6.102618621788489	2.0158791749771963	11.11816137247573	14	0.772934423101004	-0.2956493438795715	0.06524308305141759
Si	11.035386140541565	1.7567225549598153	4.416247976654171	14	1.6167524201047667	-1.8406990359265802	1.4919008313110358
Si	1.6191347944966623	6.844620396379023	2.1172001961532856	14	-0.06279950455514885	0.0038085783107353497	-1.0871651451292856
Si	12.629217683408383	10.9718358809181	15.480541130554373	14	-0.6653040977416252	1.3115259660181755	0.852679825710717
Si	11.618161218439091	10.762783332348077	3.000373853907273	14	-0.05056952787880048	-0.6196294401713226	-1.3098665746445517
Si	3.397260617344394	14.673750200959494	14.372206011107503	14	-1.125975979936921	0.531639531242023	0.9612660880281266
Si	6.863439495434165	2.289531034609447	4.2869118813302505	14	-0.5175485885349513	0.4654058013107523	-0.6557275017556696
Si	10.739787666566373	12.558844497968684	14.80912857071698	14	-0.6403713181205533	-1.1210011482529665	1.0556289957144773
Si	7.129548331538706	13.67781251475978	0.2721723861523095	14	1.4763906384672425	-0.04285235526037602	-0.1357358489455135
Si	9.752276760176636	12.010953244435047	2.1979444252239473	14	-0.7292099489160337	-0.6259332761952617	1.1218167028605175
Si	2.0537088536153045	8.175274228144152	0.198419651225796	14	0.2996988347588047	-0.2172571139998526	-0.14789589155715382
Si	14.017112736893024	7.152792758348009	10.451732216118895	14	0.575759441425232	0.6363853335427277	-1.0224679077373355
Si	8.459829021762435	1.997290834506868	2.5022642644365365	14	-0.3101637476328714	0.5654868472291125	-0.4251147811703079
Si	15.826476071147443	3.090633192283666	4.399533526819389	14	-0.07255813479777087	-0.6955544373858275	-0.7624383998525636
Si	2.779287490627062	1.5987282073048574	8.590881895493942	14	-0.8625495277031692	0.24304992835051412	0.9600175592846628
Si	9.594809393119624	13.464234806707415	0.42890983598360044	14	0.3947734243977724	0.20440647249922048	-0.8685556297310351
Si	12.552383257593894	1.0880447298403255	14.390293556351214	14	-0.14818462668460647	-1.3424885018360586	0.9758663666991195
Si	3.1546007812626455	3.287463718787091	10.227896388849413	14	-1.0439978294671917	1.1941262117738298	-2.1379936301005147
Si	6.4595415988244005	12.96101088689949	11.12948327240298	14	0.2757096507902271	-1.6631919815078129	-0.15001911033053214
Si	6.432678681014929	10.971467649133821	6.3595740340287445	14	0.6696847469860935	-1.3927667234820864	-0.7945862152230351
Si	10.908909160449344	12.882940838875538	7.62142416604805	14	2.3911588010015556	-1.2630693724914728	-0.5067247493581921
Si	1.2623460174887993	16.082726114947594	2.29731463623622	14	-0.1938343445333036	-0.7102282496689766	-0.33133191484418256
Si	9.07278764987076	12.640580497978334	4.506288012545705	14	0.3967161515776763	0.6410410910564518	-1.4704380154300358
Si	3.108422878928539	7.5600161971162265	14.492031906882817	14	0.47274810677349927	-0.43388250742254486	1.3629321315681522
Si	3.1345133282838806	11.71083943049176	9.185502580745249	14	-0.332467572064092	0.5264255867632947	0.8913016842773211
Si	13.311356425975353	5.057663557051463	9.816134697913187	14	-0.8598310980481767	-0.374452179278918	-0.019451183078516263
Si	3.4303131023011426	7.037307087870045	3.4892530999854534	14	1.055327147949892	0.7916543838264701	1.0474163711008604
Si	4.818039587457869	11.214559543842455	10.808923593210901	14	-0.20667007362307888	-0.015379066472465733	0.296370538921873
Si	8.740418368210472	15.786711948202598	6.721077814461068	14	-1.210623194839496	-0.10822862156737728	0.7716740672730674
Si	10.748093339033966	15.464622061373628	1.0299966713668203	14	-0.964446288198618	-0.1647425449463601	0.5439481837411679
Si	14.714049487430822	4.2096273944460885	8.121103241212662	14	-1.143220640429686	0.9609313301154433	-0.4512408107704606
Si	7.21437420536487	16.37071446538105	10.255327201899524	14	-0.5277435353504026	0.8933894217972814	0.3710938015097406
Si	5.531751341501643	5.988263832034685	3.8950510726020897	14	-0.8082518971101541	-0.1807703012910992	0.3589175609345833
Si	12.76270416008754	9.150217792882925	9.941222216739401	14	1.6765550442987507	0.46947200437456654	1.1351584254772977
Si	8.309474256191953	7.158525718082783	8.969165589189362	14	-0.7535467463238954	-0.11304147361616244	-0.5610120955299267
Si	15.585870150129109	3.482672388853987	14.317619331406206	14	0.3869716624143151	-1.7179652665850558	0.3115696280219284
Si	7.640202350460494	12.911818393691433	13.13958529983129	14	-0.3933500604925384	-0.9110601144415951	0.07738667058900897
Si	3.6587428256527006	6.05993482994075	7.14419577362441	14	0.3960762034634914	-0.5299677985628627	-0.46536646339935406
Si	10.321559825498237	3.0117563075057174	8.302247093705866	14	1.0755684316932899	0.06596144987786697	-0.005441487299561394
Si	8.22682831452871	9.029657070124763	10.280815387714359	14	-1.2291726912822365	-0.7997387102846117	1.6968364372851426
Si	9.205539299567068	5.040867277931285	4.789891949867696	14	-0.4248700119438298	-0.3715941386050415	0.4823954081557589
Si	3.920771653587446	2.4545332422656334	12.130882245109959	14	1.2842179993023506	-0.41298070672240106	1.5674980125972215
Si	11.08364577989612	14.0837103191046	4.1482325181999276	14	-0.201567715115245	1.1805129804352419	0.5819367790674198
Si	5.238899058344309	10.044855733520752	4.439937554776024	14	-0.6374346016238801	0.4319348951425327	-0.3821225577805158
H	6.798797633143531	4.781533906657452	1.6404120452850703	1	-0.0024181245535992682	-1.1407670346226686	-0.003504930772425861
H	9.66469487601837	11.332025483026978	14.993704343439651	1	0.445849460024642	0.7648562672956308	-0.2891483040775771
H	7.839109704227245	8.466637218307298	15.87517922522884	1	0.19132597418296712	-0.5073279306662988	0.02953428681254098
H	14.340189484903854	12.376276815909609	15.587819323707217	1	0.6267925395932552	0.011597741878123955	0.0745450849891813
H	14.632171104464586	13.263050962220975	11.336033481425625	1	0.7160415187978313	1.1287175495397948	0.037771851147763415
H	15.104065864066179	12.129373313087275	15.613045655808788	1	-0.2912234431814686	0.1709499645207936	0.10592799652690876
H	8.500498176603749	1.1100617173687042	9.536812068803062	1	0.8816245580733479	0.480209968633633	0.36137476628904885
H	12.396457554273724	13.857511262072908	14.824682681284862	1	-0.03653103572025995	0.0953180733127857	0.6714737220678525
H	5.882998639302556	3.0635166036894708	2.550741569690243	1	-0.12511564131010985	0.22889650778416296	-0.37888682173510946
H	4.689523421573605	2.6830758900310365	6.57506163760223	1	0.23509621404263603	0.27978768093851397	0.23447786321314038
H	8.425637473152987	16.179188113156926	11.225275907057783	1	-0.3191831850959509	0.018023962515302062	-0.5301210364399436
H	4.298875322854999	6.287624816552337	9.645414259793599	1	0.2415761707810052	0.2043871892093194	0.06300133632278047
H	16.378656815821486	3.314565578109915	10.723718031500503	1	-0.014485350263182262	0.06000419885108386	0.13401192282835422
H	15.177203242766522	0.704797271692843	13.006949847720243	1	0.09030750326488114	-0.33675000508533065	0.38751313719473823
H	12.24678197177202	2.5050382772114275	10.141008417031292	1	0.7173270714579054	0.27487712688756316	0.321945580651918
H	4.762857190558896	16.28306220803734	8.75091706552665	1	0.07017009217641734	-0.45198874530809163	0.022562734736959467
H	13.735330319463925	8.4027907366707	1.6520121647826653	1	-0.04223297598875234	0.07283709972500696	0.21207273723230602
H	7.624784076506369	1.3361151182723918	5.046682066951454	1	0.7939053865342598	-1.335807227551122	1.037599119656939
