236
config_type=amorph sigma="0.01 0.1 1.4834575679144224 0" dft_energy=-23397.247273433783 dft_virial="53.672633684698276 -0.17365863419428337 -17.551637772287336 -0.17365863419428337 66.23663394001026 4.159730074886322 -17.551637772287336 4.159730074886322 40.73304615078005" pbc="T T T" Lattice="16.340456583 0.0 0.0 0.08532986427642601 16.528061365029426 0.0 0.14668827874559104 -0.063629737934202 16.286336990797107" Properties=species:S:1:pos:R:3:Z:I:1:dft_force:R:3
Si	8.009389177353532	3.209422541284397	14.57704352993239	14	-0.02108537762000238	0.7386687882783266	0.2982371613843005
Si	6.962088463807604	14.833598502559441	14.258564763038404	14	0.2355034771253475	-0.8250196175660318	-0.33384491318409526
Si	12.130682728023952	2.9142142186102604	13.075362106137323	14	-0.07228534052330318	0.6236408786918177	-0.1484522787484339
Si	10.34521986284324	3.1141217304010245	3.391940539179532	14	-0.4818752735494929	0.3476198670473206	0.7412272951824059
Si	1.5840340568820703	12.330330426555047	10.618989506480482	14	-0.659848983583867	1.1683601369184982	0.48852903700750405
Si	0.5702933730663081	12.614322659830611	0.19376676820687233	14	0.20958724971931889	1.9440109327902388	-1.6223551157079013
Si	6.7463568538618635	14.482687197439516	5.773671567210888	14	-0.5878662621567453	-1.4655953385595366	-0.13119090607108774
Si	1.677081518802647	4.961286159639144	6.377374637806798	14	-0.035734507292078076	1.0174449963838943	0.6926326333000111
Si	15.152742326036355	14.104913815742796	11.380832247795349	14	1.1453479729715765	-0.507245655296054	-1.4709321818725682
Si	4.947867376693184	12.397723371640312	3.518371553899178	14	0.452185949086147	-0.14686719231856257	0.2534477353757249
Si	0.456536016472437	5.122747845181426	8.458915137951863	14	-0.5378310099634716	-0.3107142212819151	-0.7385872842396778
Si	16.36856216832276	8.345074445029418	13.594928165787366	14	-0.149877956648456	0.7898301846018251	-0.22383785806677162
Si	10.218001238116294	2.60091047431611	11.924193280321557	14	0.5913645080553388	-1.1237838555409627	-0.4946608660855253
Si	14.204789954469408	12.180057051635146	5.589343046726357	14	1.7709346641696824	0.37472368800072564	0.09975194443738106
Si	13.315380536702378	5.132945924134876	2.9637568489242585	14	0.6406335708632084	-0.33275553585994855	0.2499865133937416
Si	4.226277716124879	11.599732272272533	0.19749239230779633	14	0.32124418312058156	-0.7353518053048035	-0.32238472544059926
Si	1.3410988548169511	9.910310440658403	4.68719297496156	14	1.2388829847448395	0.15370941779654068	0.035006884486476174
Si	0.22046544021783604	6.6895280139575055	5.412864481584299	14	-0.5462308110443953	-0.7326896828563221	0.2736147141753704
Si	4.972945075411114	0.9233207673137317	3.798708427037126	14	-0.8333222308658539	0.005731250869142083	-0.22894870122216196
Si	10.961055722452029	5.735130966314225	6.20802868196322	14	-0.69771647984954	-1.2200439818430506	-0.7523023313489438
Si	13.154338800894278	8.319495094294389	6.482404556539689	14	0.6862899735857378	0.47052641466635925	-0.39430394056631335
Si	10.603002003759675	6.118456835157847	13.220050312997156	14	-0.1641607038124106	0.17836631781676074	-0.9671639465220144
Si	8.818749966411763	16.180548874878763	13.824125946003157	14	0.4970913319446612	0.5117126936792793	-0.2564973233959526
Si	7.271777699105595	3.5385029964094343	5.636442778781197	14	0.936044059058538	0.7970405923616484	0.28802215994735225
Si	13.959601403441495	13.539236621661185	1.7582739794722577	14	1.3805362325846742	0.11445815264756407	0.11716295544435983
Si	12.472163955649828	16.039491517471674	12.738918641275987	14	0.23570762288776723	-0.8460252909211097	0.815925103827604
Si	10.234763278479138	15.157631390645989	12.262102484138389	14	1.1087673149186377	-0.06914473537474229	1.1503480014876684
Si	13.86016809108828	3.012513503276614	11.588597885156878	14	-0.0033835746013148723	0.0267027285234619	-1.031680178099426
Si	15.773573463222567	7.18844627266927	8.864022835420622	14	1.3322434184668643	0.11066602941087765	0.9680820882318393
Si	9.991793761455193	12.91712112458755	12.523987713702812	14	-1.199245796687309	0.3056756261860209	0.062524139175361
Si	12.148750370867777	7.1110415298356	4.757404648807394	14	-0.6928486061469036	0.6204190266151401	-0.1726633491061403
Si	9.276655313145856	2.5737330269272647	0.0087078293130807	14	-0.20323559113642506	-0.14952982898810796	0.17602944019127814
Si	9.512315743940224	6.004072005031189	0.4052073742539174	14	0.9982177565787628	-0.5916645560462	-0.45941666857799945
Si	16.283343419151098	8.226061997598453	15.869202717283256	14	0.5693147088297489	-1.18290796504096	0.637988674820372
Si	9.127739830168002	10.722452375427062	9.390950270761307	14	-0.14176611936338882	0.5096326694752795	-0.2658507474401193
Si	2.665038596176094	5.232719117985015	13.723151728594168	14	-1.4053255445288817	-0.5353362664713319	0.2886942468780389
Si	10.993689248293938	1.1684570288805811	10.137598021499644	14	-0.8722407949864035	-0.07719306635840181	-0.12919290012680068
Si	12.424605056765008	15.138658486507467	2.1896342544872667	14	-1.407485530108338	0.034288260549494784	1.0447997572165457
Si	1.606811019313114	0.0051325374127203	14.358563455189389	14	0.5852550475936029	-0.9152384176973678	-0.149565053130994
Si	5.50381219483396	10.629156538566424	1.9187928206696998	14	0.8185100931164809	-0.7268231918473402	-0.10375541253138365
Si	9.92878005873417	15.878979212456866	4.821686370959259	14	0.41213275618781614	1.02942069074408	-1.2046109221588617
Si	12.015441657972346	10.023616800650585	12.23259161954949	14	0.6548918925266215	-2.1628605894253905	-0.8048824635881
Si	9.151024980798777	10.383675493365674	16.231557244148256	14	-1.4125151263356117	-0.1710312114489103	0.5840412287719611
Si	1.1760684135569426	15.392937233532505	6.340794891700095	14	-0.05256290583351129	0.8464981171894849	-0.14524173953516498
Si	4.781413681664796	0.9213925934369377	13.458220637922672	14	0.6177859576567765	-0.9792337433369175	1.0808623375474746
Si	13.161695274447947	0.6067048124702071	3.142645631412309	14	-0.27382760169587866	-0.11517780502667349	0.06429408807775093
Si	1.013069091050201	5.693202988767905	11.76579379634293	14	1.9405959907040176	-0.14483756177883772	0.9371853727101518
Si	4.338914117397156	15.224411568609394	9.058024906202292	14	-0.23956710908384152	0.4140281750298293	-0.16771602824911136
Si	0.9559150760598418	8.794128166432499	9.799803200878893	14	0.4994282095701439	0.08604563908620368	0.4716073073429495
Si	6.707644678171078	3.7071021933871697	9.321962497113539	14	-0.2819520373970146	-0.7925393582776652	0.2940855976238574
Si	10.279398869681259	0.4966975906621345	15.490561657341981	14	-0.5210902861134555	0.1416234230181206	0.03168733040763298
Si	0.0787364900451855	4.731683136100094	0.8134017839712073	14	-0.089784540442763	0.2546692675133273	0.2586313408116755
Si	1.6065675465100273	2.879796314909488	5.458351410574395	14	-0.8151979952430661	-1.267207823614783	-0.041127400701088675
Si	14.348867028253038	1.3705410894882004	15.138352919969366	14	0.6941634694076273	0.2207134508817277	0.3156029209376447
Si	10.388339059674461	6.610360135858529	8.263414647301534	14	0.5899887095985276	-0.8976687694921359	0.5552294225543816
Si	3.529306587444522	8.695034735576211	4.827158789868905	14	-0.9106690493224006	1.6118236112060427	0.5597455690492218
Si	7.2473912017011255	0.48018555928501294	7.732349808354033	14	-0.47104192128304895	-0.453991636352487	1.3298494623032746
Si	6.052720812370096	7.679983547142493	0.6041802119281335	14	-0.6027041109593199	0.16769931606453037	0.9360551148114146
Si	8.833966199581853	10.645910408700974	5.283551010323412	14	-0.5419589195549692	-0.7811488474883451	0.6387376378001312
Si	15.657727796277387	2.889460060932674	2.075466752433162	14	0.598314462846231	0.3246796940493635	0.6734503878379824
Si	15.391554830905584	6.58868452020118	12.503923267064547	14	-0.45655528546720664	-0.3367019254158439	0.30603686648350176
Si	1.1402583029552982	3.912142242590654	10.347773876207164	14	-1.577521980908883	-0.054674297522416884	0.42162887657725107
Si	7.695591951270575	5.207169180071836	10.600407139254294	14	-0.010261024222178968	0.7172018586288142	1.1738602454193587
Si	13.123301737660528	13.102415366056137	14.364735245640789	14	1.405453328463293	-1.0758815923212839	0.6424120044131548
Si	2.60515899302769	10.09372226152863	1.002933105831766	14	-0.07247123143794987	-0.17532238622823743	-0.4322226018278572
Si	2.455908530689885	1.7425969454265275	15.776565400822914	14	-0.8872318816660587	-0.6342076073365623	1.4002237002421118
Si	7.122425925936975	13.564696687063158	3.6514155513979643	14	-1.5054014482366014	0.6102343642209695	-0.4490345452952415
Si	13.830781413969413	0.5059446550424541	6.90482333371248	14	0.24549324973625083	0.2758968272575339	-0.06477668454634272
Si	14.140665100700742	14.862106063114142	7.474211445484091	14	-0.22743611996231886	-0.7355101853925247	-0.04989564117438967
Si	10.762100859280054	8.466972617092939	13.505174939913921	14	-0.3261591080505767	-0.45644961303854853	-1.3709107855976357
Si	3.56452680756352	10.621349068411067	12.92347592815268	14	0.17241472322168197	0.6724314587996076	-0.9408772228393524
Si	9.456709170188274	14.182241758430527	8.455415012151784	14	0.1738110905210544	-0.6664675228989922	0.17393193247110136
Si	2.374075524122221	15.857092804909596	10.34743072661892	14	-0.16286795205744015	0.028184456519463247	0.4661167119317733
Si	1.0544774420771812	1.1532407957104913	7.118206820047245	14	0.304305227050382	0.5977537047759067	0.645888395916527
Si	15.024551444142721	6.2009238514409315	16.208643021881915	14	1.299731020361996	0.27653728959278273	-0.22208539268055866
Si	14.402223521133505	8.318390479429379	2.534839472168408	14	-2.3494189630132074	-0.6248518692976074	0.015843408093284477
Si	3.6451244756135095	7.8846477658445675	7.085829839373688	14	-0.09291434694897927	1.2083786198950068	-0.27242840618065406
Si	15.820627441998973	16.030550019629455	14.96801346436554	14	-0.3385662338834832	-0.3877103409727936	-0.6612579492993081
Si	4.083880441277984	13.369998512831055	7.749938675819974	14	-1.0474837340602483	-0.6428064119692655	-0.20949494703832555
Si	12.613437007083814	13.683919926384043	6.010312425400236	14	-1.1778359455759038	-0.5141698990337449	0.8558754525131289
Si	5.659368439367145	8.903264441904698	7.544681298543937	14	1.0546236935342994	0.7675813818244557	-0.5307157331004938
Si	8.026536852491732	5.0412056987409395	1.7733872677658744	14	0.06811500769402298	0.04504807920378248	0.46802678607411136
Si	12.258695498940833	4.915323723362482	14.177458906788685	14	0.15286429547780797	-0.7398720655681558	0.74522202151832
Si	6.231317100685311	12.723767769932229	7.3818176018268336	14	0.41912641976915094	0.01954837085961786	-1.1239962288404068
Si	13.035643358321025	16.41313403174421	10.591514662781826	14	-0.2554953636526909	1.1135724536514626	-0.3477805611298299
Si	10.24366065708858	10.357811818686102	7.300533634600359	14	0.2578661798683994	0.03682028506877661	0.4248669266174456
Si	14.55249362796209	14.660231160350785	13.481657754799668	14	-1.0571572607167734	1.4002334704423285	-0.04216278481351231
Si	15.738351609057908	14.765697369274442	0.5367300752448262	14	0.284215381410341	-1.5567680187646475	1.431480113398088
Si	4.528046732117089	-0.00013235769832230002	1.6192722515033098	14	0.6641704974059719	0.44255510277793636	0.31421323851210464
Si	10.783444763668768	11.413326879756303	11.01502498245436	14	-0.9151240035106213	0.5578331809120955	-0.615174485983102
Si	5.313262862528281	8.157528488643694	14.813717069034903	14	2.3937473898378805	0.7466728962504795	0.22235998672875049
Si	5.012990632359073	15.142405353201948	12.994890259603023	14	-0.32706927933390906	0.864924200576858	0.8922067133500133
Si	1.2106350154126209	1.5574056488344135	1.8421642495237214	14	0.9791949196465833	-0.6307908654766176	-0.3967701447893994
Si	2.9792377974909927	14.85229361893605	1.825341749471523	14	-0.7569475473308552	0.03125281360852796	0.12633897322143633
Si	4.815723738352122	4.3299219641395315	13.376415410131198	14	-0.09885565712277744	-0.06669807155208937	0.6229657064347468
Si	11.19324217217685	4.085331473822555	16.166510788628308	14	0.00027819359564002215	0.6018458760034544	1.2661778388235316
Si	4.779346613907047	0.5714698859402843	7.703783422155633	14	0.8585195772243692	-0.5574814537042994	-0.41590559613460143
Si	0.6533813266995465	14.338128080186689	9.76823997494317	14	0.3599570588155192	0.5904054857709236	2.6197843142849746
Si	14.875505237512202	1.1652248865684638	10.285315749009964	14	-0.7783185747519261	-0.21464847054203037	-0.18320719491353554
Si	15.462057364878596	13.224723683579894	3.7590844538690096	14	-1.0737961687961117	0.8858514552196715	0.9522029417746048
Si	5.280596655773205	10.548294155119791	14.501557156701564	14	0.221153367002005	-0.9557333264897	0.5697065452805394
Si	2.238871318263162	12.66266426658576	12.898035471298607	14	0.2904647100014929	-0.7534500727638579	-0.4163935919243656
Si	0.6008173459633522	9.955173164207032	6.834907422130799	14	-0.16457876553746667	0.9771722310912228	0.6434522736256867
Si	12.483669271129918	12.329977472692853	9.821155275495897	14	0.271279893434144	0.5974197181948195	-1.64737171336241
Si	14.295265428523823	10.872253511151715	9.325626027479448	14	0.9006365963631827	0.8890967043547622	0.6433229470280832
Si	9.754603863924656	4.710219946378324	11.404154981476266	14	0.9430454359558332	1.1826256576768075	-0.08478631170039515
Si	0.5880750579199288	10.945252866890609	1.6700338798783994	14	-0.16743294955336305	0.02236604517996814	0.029998371322827715
Si	1.0948710507503572	11.985327830535534	3.616953528464417	14	-1.1361210473091612	-0.859975079946105	0.3576021834527956
Si	13.586779180089424	14.393898058504469	9.686792603150863	14	-1.0288874435006812	-0.38568302442785685	0.3435503215465903
Si	5.953212333916602	5.278163561787997	0.7636990171826962	14	0.22531007297308844	0.09379469341059797	-0.267130643668489
Si	12.131213792862901	3.331283130297778	1.9497530837575099	14	0.31835554629339524	1.0231741903687803	-1.3801436248022871
Si	15.614360224506106	11.833657346577787	7.5660497136175255	14	-0.5454396819373858	-1.4170631545364216	-1.4444495399645108
Si	13.165768950274089	6.700273498206487	1.262091113192488	14	-0.08570265363649592	0.28608020409904433	0.9867627110459071
Si	10.86380876318962	8.607642705679012	3.323000152855855	14	-0.24366313696936942	-1.3420691545583425	-0.8291254156517763
Si	9.59330068081123	15.846417584623921	10.262465254524296	14	0.5434054234080846	-0.16692207092624964	-1.5822713266562605
Si	2.9816120658325027	13.335167195578734	16.246101884552786	14	-0.31024216634513596	0.43745043027531433	1.040064809658961
Si	2.9835761887137795	3.969820786237327	2.328050994110543	14	-0.4600154790070619	-0.2092926010496299	-0.665177342249342
Si	1.0897973389813356	11.403034026154671	14.43598780657096	14	-0.8267494572254275	0.12213264491767406	0.942189257884224
Si	13.787642608590295	10.056039534602574	5.050949513001382	14	0.6564875204883054	-0.7076977678128868	-0.13621947385623334
Si	12.432219709532685	11.741314158335937	1.491501319343858	14	-0.793631563817664	-0.44222034486525297	-0.37376158038992624
Si	8.499792424139894	8.705781853870851	12.910104532530813	14	0.13628040905232086	1.8601304214941312	-0.04752919583772537
Si	16.2640992634333	15.5550410990185	4.425276698529628	14	0.32319102406899775	-1.9077246662964569	-1.045344060212821
Si	14.916872737397725	4.973954915627943	4.949615805547565	14	-1.5616070960876984	0.7520537054644855	-0.38185233461136825
Si	2.5308524007621562	9.656936954928065	8.19375854897952	14	-1.6633873855121446	-1.2439174660722216	-0.26628475001816027
Si	11.648755276067192	8.501472223076627	8.194962840629687	14	0.08886305629602193	1.424534272375708	0.41850575494486725
Si	6.644833597111684	15.44472340853535	2.0122749387353847	14	1.7704371552902336	-0.41646789686811786	0.9398760344276867
Si	11.034697258134635	9.296366805921929	15.578376905064681	14	1.232277043845783	-1.456623723655412	1.9620629203535302
Si	5.85208451621573	3.477780225701348	15.492824810578727	14	0.16892239086532485	1.045240958889483	-1.0878994528087198
Si	4.952017852665266	15.896894889054467	5.667891621520838	14	-0.35663930451040005	1.0609293293319626	-0.47574730112945196
Si	8.550261558342148	8.837030035191166	3.684101366700939	14	0.43472403019382927	-0.03401006695385476	-0.10873718619970256
Si	5.817717267930365	8.90620245599832	9.868353050290235	14	0.31042137238595024	0.7910895119876337	0.6010303213959034
Si	13.821573566684894	1.8357163053560697	1.1059384419940232	14	-0.2532764997614031	0.2865165206718735	1.7275002106648247
Si	4.097420143602658	8.514757014278606	1.9475863392146042	14	0.7527129368685713	-0.19289023465974522	0.3223430735344129
Si	7.655647705153431	12.640356275258647	9.23754933245142	14	1.9848429134900423	-0.07829941297766153	-1.6186103008091055
Si	2.7796015372795067	13.40100126110598	3.728285961301371	14	2.3580339656094274	1.0027092204625296	-0.31205839514328854
Si	2.451776029220044	7.44076253085869	11.19108032977092	14	-0.33974225745691894	0.26855066513680675	-0.8462412637680021
Si	2.281207807224057	8.61742900512657	13.149399080869237	14	0.7630019861387399	0.10660702544195987	0.1557673304947872
Si	1.2883747376062433	3.6642101289024533	15.227977056235803	14	1.0333002315616513	0.9455856880121397	-0.4415009495966756
Si	7.2750490585135115	7.07765797703653	13.834729268279867	14	-2.195977197280494	-0.33273599545951543	-0.6731197436938113
Si	5.158981173608569	4.383141197184704	2.6997865770998435	14	0.8218044503631865	-0.22666864502425463	0.5184549031603036
Si	12.939022238545746	4.262852560094608	6.349818091825227	14	0.2067472067826833	0.4257259329049071	-1.6980304585958197
Si	8.800541795641326	5.5213977942085855	14.514325589475519	14	-0.2543579066590574	-0.4746432685049803	0.9143102486767943
Si	15.048204255046612	9.77637098613887	0.9509165303911021	14	-0.01818542792940736	0.5115712828866711	-0.5967034082526262
Si	4.6850262304186545	6.9047775804340485	10.449645184682561	14	-1.4347503022547843	1.0084993496435029	0.283763638205591
Si	16.126202150329366	2.3704953300848857	11.737227410144529	14	1.8882860816340088	0.2503549527861188	0.5955875485436819
Si	5.912936376530823	5.9786495226793575	12.051666816171197	14	1.8244283101290872	-0.5531098033284515	1.4475695762705107
Si	7.642492003558458	10.66558922056388	14.189836802650307	14	0.43891004676556233	-0.07637236954021057	0.17644055993196983
Si	11.211628453924043	4.733170117649148	9.55327636645683	14	-0.39260958216033576	-0.19046233990592942	-0.8016724385958952
Si	2.869029588066949	2.047070306983225	3.713579550376671	14	-0.6073814657577332	0.0827507676184339	-0.7177734153414831
Si	8.008681635583487	6.5196869422794625	3.652685204874463	14	-0.7307446416816301	0.34511715312868846	-0.4321038167620664
Si	8.315114217884487	1.7421181700486454	12.772957446384034	14	-0.3457766416433065	-0.07437050693794325	0.866140333393288
Si	3.154786590653478	14.48825765908866	5.81178241409942	14	0.640625086215652	-1.0094740556703712	-0.21433788101935647
Si	13.57278848116306	10.807787141840464	13.726766237590326	14	-0.07901340892506666	1.3476312266974189	-0.4423049342302859
Si	4.677094572793266	4.896733185908003	9.320202629939551	14	-0.8984275026721116	-0.3325117950755985	-1.6719003152271548
Si	6.00200493727344	5.536257805425166	5.981453545029	14	-0.2684663328823059	-1.0756792463325882	0.5146918334137349
Si	7.960122700755787	2.6638065257497354	7.7807682152551205	14	0.6407911796193334	-0.2665161494969736	-1.321764878734601
Si	16.217821456344588	10.829712766483533	10.868887377095616	14	-0.5196054727910698	-1.3267453668502598	-0.9346407497748013
Si	14.56577024893578	5.169249516525326	14.243923713940037	14	-0.4344373519506328	0.4345509948057833	-0.9680630620524701
Si	16.2753104506949	7.4598759629238245	3.240722685869134	14	2.393053962733036	-1.453075084092544	0.4143130534993017
Si	11.799178983187657	1.548949462552711	6.841209936234862	14	-0.702719079470952	0.9311288770180111	-0.5779965601642929
Si	5.716527356494479	14.752642978510282	10.81556683321963	14	0.2577319681706877	-0.7374076611187939	0.39812383174045735
Si	7.58730701358635	9.338165693861242	1.555278121387307	14	-0.23413256376864452	0.2690867405960577	-0.4999061780491594
Si	8.882484283268097	0.041882224267887305	2.8133690908082762	14	-1.1250388120477268	-1.108977631333826	-1.6810642488092264
Si	15.45196059675596	8.205198502633278	6.88148589362064	14	-0.25238458332584374	-0.823895273209531	-0.2533502904840913
Si	16.342103701023568	13.981180610405005	7.68884824483877	14	-0.7745652752055739	0.6495663620769988	-0.6076702008851859
Si	1.8060436702469997	0.9635542395123944	12.212087614629143	14	-0.5541750122625889	0.7301998244642907	0.17112942767213996
Si	6.839288298540701	6.952593024487223	7.585934415233378	14	-0.155850891417692	0.07787286660504897	0.16277487804485077
Si	15.73214223555637	10.509158761603505	13.113097122524445	14	0.40195940665705426	-0.43734090118867597	-0.017377072416752806
Si	4.765287285063034	1.4802835958996285	15.846728053298998	14	-0.7456603949754053	-1.03296315965418	0.16847913230813133
Si	14.857939246685477	0.7758301721499155	4.827794433629983	14	-1.529648256958258	0.5527683605419359	-0.4270559656870197
Si	11.056317316239602	7.61266413411185	1.086508005071178	14	-0.3854110014849852	0.9415840196918612	-0.3730056754258027
Si	15.248966372716668	1.8333044539644188	8.064101928130391	14	0.8641009326533468	-0.4034269935737948	0.5222681094606153
Si	6.975358548598658	1.9331936650562977	10.900270858008927	14	-0.12572062239194068	-0.7090941351122593	-0.7516598121294387
Si	11.227052210892737	1.2747500649073378	4.52748952254761	14	0.31776342073816516	-0.05862402951522837	0.3231848534162294
Si	1.6483697025406578	6.106433527204075	2.0327805777013914	14	-0.07870487628664889	0.3031492580984434	-0.4647542832226268
Si	13.261842664753836	10.311226811013627	15.91995127329308	14	-0.940835828043698	-0.16562674806595903	1.1163993839509654
Si	12.2386571970331	10.405918122866453	3.4741215974724144	14	0.01676334957683346	0.4949220903860523	-1.5104600979539926
Si	3.0677671231663703	14.35018080096231	14.209412669636741	14	0.18268166098609728	1.6245914631153662	-0.9200754381361623
Si	6.562613321723004	2.6565628013464915	3.602457909429638	14	-0.9194411464536818	-0.009405360371633689	-0.11415990443042685
Si	10.851481522743406	12.802148038023905	14.606229219435287	14	-0.49123898201494026	1.7429008744219798	0.5406106319250836
Si	7.064456522163125	14.174795412365654	0.16625760954939184	14	-0.45033989546628067	0.056889047645192446	-0.6255252417809541
Si	9.87813444760082	11.980183854803206	1.5660039970883883	14	0.7176790557762337	0.490419313638877	-0.7338934743672154
Si	2.097160342592753	7.8443718084587895	0.3841739385402798	14	-0.8601781972663967	-0.5021551238726929	-0.22583663534265475
Si	14.19561969023503	7.0038138196922946	10.538453932165508	14	-0.20612448507414344	-0.3301726034553278	-0.2517112108424969
Si	8.475198402936822	2.3239511735538683	2.3591583213076004	14	0.3742104953788241	0.00287758107430973	-1.4032612040673347
Si	15.763153154059586	2.919536305319344	4.534264275846922	14	0.7102279925584445	-0.6021189273884542	-1.072394916396631
Si	2.8091173040053796	1.2655193409836012	8.813534092670471	14	-0.029676211826213158	0.23780410216581596	-0.30533752583642143
Si	9.315365854790983	13.81239676626788	0.11227200909047641	14	0.9983964483985132	-1.5096789961577317	0.02858272073355418
Si	12.211525502922687	1.1642052420776845	14.397340992706507	14	0.012754996382722605	-1.4271557713601308	-0.12017937620595756
Si	3.2420724075828895	3.2361800389390596	10.072077692738787	14	0.7009133922046121	-0.9504692454572289	0.8509540998198335
Si	6.472374784289044	12.486854026117944	11.07091914824217	14	-1.4722771270655375	0.11173432367139915	1.4026521092169917
Si	6.585184394401101	10.738082022148703	6.122329523368018	14	0.15107557750658096	-0.3893044262712854	0.8442959654827781
Si	11.265867331459994	12.472118202371396	7.689238781751104	14	0.16344285120702526	1.037078470829609	0.3429965054606304
Si	0.8130880472048138	15.831502015854959	2.260479938048521	14	0.03986473087836395	-0.07929648762081495	-0.8386130513936547
Si	9.217940784551821	12.45981057047308	3.7872259881962522	14	0.5356391426780454	0.254976771709617	-0.27361882794388265
Si	3.344775445298361	7.250477913949655	14.731194495199437	14	-1.848206406350881	-0.6604706768502789	-0.3322284592693182
Si	3.055559168053211	11.688604747536154	9.068188670196918	14	1.811868974861228	-0.18493317791495095	0.0716471921828424
Si	13.549201032085499	4.740547833796372	10.063593727680894	14	-0.5530339557215072	0.06126815422646865	-0.5578789465867942
Si	3.3386216293492033	6.806782228260139	3.6434512128594103	14	0.3008959413958656	0.0848670444074478	-0.6681276856042119
Si	4.648119675180291	10.798991074061835	10.753840758477347	14	0.429197439308171	0.4397788232532404	-0.08709002206724782
Si	8.615605410171908	15.381413943550173	6.531932480442762	14	-0.2581227761793502	0.5268552184622916	2.032370566664575
Si	10.378891007678172	15.607577300978502	0.9580850886940643	14	0.4733158068281879	0.7876804834436493	1.4557572611625222
Si	14.692748668950955	4.05113580033131	8.044200886057954	14	0.12066865754838174	0.8093325326762123	0.4292442334249977
Si	7.36717328463715	16.189725675295776	10.087713875643061	14	0.12756384779595484	1.6235609641030504	-0.7275014494307954
Si	5.592879121530919	6.265414731437057	3.9160672202618905	14	0.7359303040018368	0.5216423024256912	-0.4803372383469804
Si	13.106448190740823	9.06033217867181	10.073951943108858	14	-1.124466741113994	-0.5656516550801338	0.6791824100387206
Si	8.355104217280063	6.948929494121314	9.310643462838495	14	0.5098756389280336	1.010111175568704	-0.1558611758389726
Si	15.67498005033772	3.142410328837514	14.109039781030004	14	-0.536556513056274	-0.7774917072809665	-0.49160973540210556
Si	7.6874315272530245	12.735866243986282	13.131141888729053	14	0.4489787523097943	0.38877657834905904	-0.41213815550898847
Si	3.8407099366380693	5.554972530349675	7.012379487033103	14	0.5297114593624439	-0.3770011730933129	1.1360174317647591
Si	10.2932964280051	2.574469981519158	8.382255519938376	14	0.5712826328417903	0.7750067339890434	0.38066525528505585
Si	8.168587709659068	9.013743902908018	10.601580384036954	14	-1.0358188863332685	-1.07442506115742	-0.8181578516876206
Si	9.180727028729695	4.813222014449265	4.67856194579442	14	0.8590412544938273	-0.4110634334851666	1.3860808212075733
Si	3.6105562397121727	2.5877253598992875	12.447489866209498	14	-0.9758493974040066	-0.14594750794554565	-1.5874209935019852
Si	11.159955028071622	14.091816939791523	4.106487462960564	14	0.27872889976767695	-0.08411216788545232	-0.1689131348861723
Si	5.3637172903196095	10.209901273788102	4.2466967506709965	14	-1.1161960095201415	-0.7198632097456995	0.3234280799795154
H	15.096155324889427	9.58383302026704	4.289317563576434	1	-0.6232678113098642	0.2840192060744137	0.5102394503308345
H	10.840585706293862	11.435795007557928	15.06574900327978	1	0.2064384170337335	-1.2669203740399904	0.25633277265546306
H	12.099034531713999	5.581767611054478	3.8390007248794875	1	-0.2756404880571151	0.11919901374738509	0.05260532907129373
H	6.090524458674867	1.6205141262036178	13.358287307598019	1	0.6443243925502808	-0.17917415910835127	-0.02343562499314974
H	2.784766755605393	5.680663322386111	4.5179630363597205	1	0.07185827992962657	-0.20650346599833325	0.37118944662765013
H	12.41729597053543	3.197216220216896	7.286005334652413	1	-0.5019229530622835	-1.2086115620370124	1.1050605523785804
H	3.1463581831479672	3.375992253554524	0.841015521550819	1	-0.16939264602837992	0.5211303953564498	0.8001680848730766
H	2.971874787754693	15.04621725552612	11.58050282296566	1	-0.20001013951229932	0.3224968256325577	-0.32889167878483
H	1.8668481432380013	10.357413111545476	15.58839360495006	1	-0.1812163880641449	0.26276876349285777	-1.0872803306476282
H	5.73090695828752	6.439729820127527	8.613196826871572	1	0.5597977624872207	0.10838854431829047	-0.5402661038121838
H	5.577401441055501	1.8099539415073116	11.33308053152285	1	-0.892894741133685	-0.020674257879310702	0.2520511109658205
H	11.401297035619898	11.440659561482686	4.137562109244455	1	-0.37116527823764073	0.34818268200190106	0.5196502100236404
H	11.176288948471987	16.037906493183126	7.065521919932336	1	0.1906572296891966	0.33747942766465666	-0.10324993322544253
H	11.12046014451051	15.42637307579264	7.546359463435011	1	0.09529133381745616	-0.23929045815139358	0.31328455527046717
H	13.987854052873502	12.63915198360848	15.611910790064313	1	-0.4946629229697814	0.7024025764060419	-0.2658687451773603
H	13.512928486562556	7.677996547622	4.023394607190351	1	0.2138138897551103	-0.06330524097162196	-0.5517957113993238
H	0.42468683254651174	9.089913307224016	3.6324736941269506	1	0.269960402183844	-0.14660416824431144	-0.14111382994366722
H	12.545463975789849	2.956052323645374	5.281807483606006	1	0.5435437488743087	1.0999221983962644	0.29954893931864013
H	6.059778255568293	13.023533445947365	0.1366045829882217	1	0.22640742072372763	-0.2987002174524592	0.16831535289923785
H	15.355481638952952	12.547566992552083	11.424691667309778	1	-0.37047725045396906	0.543826827570057	0.1679515414964369
