234
config_type=amorph sigma="0.01 0.1 1.0612952453688056 0" dft_energy=-23363.36112023 dft_virial="32.875339843963566 -11.137475407155327 2.8954205463851954 -11.137475407155327 55.340088099948 -12.684122644624683 2.895420546385196 -12.684122644624683 49.153499150070566" pbc="T T T" Lattice="16.365857079 0.0 0.0 0.109143900859851 16.44850465724895 0.0 0.012438051380040002 0.077852382124803 16.338444268392678" Properties=species:S:1:pos:R:3:Z:I:1:dft_force:R:3
Si	7.728942937299957	3.3339836675341483	14.674581586499107	14	1.258181187056807	0.7441758387635518	0.1792872877424378
Si	7.377410873585868	14.666855265372112	14.354249392720423	14	-0.7534886393436601	-2.1733452998104226	0.1445233727087156
Si	12.044794563703002	2.645598077320127	13.010707448505581	14	-0.48561906000616056	1.223107710942539	-1.9445354382755484
Si	10.288027820929074	3.6119086524497264	3.185766282898185	14	-0.5583193769281355	-1.626485339294187	0.6289648664782483
Si	1.3498624382187516	12.667539974344571	10.543439932846779	14	0.7793894401177679	1.1239334938705952	1.2367173427336788
Si	1.138639777000054	12.670808236003248	0.1283541438991812	14	0.2509784458262547	0.5293538186124114	-0.8426895388787495
Si	6.440706133912179	14.619145518815412	5.722930737555689	14	-1.1728176622120388	1.1894146612746586	1.172698362925184
Si	1.9274691784507303	5.242556827401465	6.239240796683982	14	-3.2347148023731944	-1.0832092424837059	1.6353877914652
Si	15.317504462333375	14.442553011175876	11.642526706458305	14	0.4243120820893576	0.3591870127721349	-0.7996993723732134
Si	5.137615678639501	12.296098845493878	3.5775632647837368	14	-0.09970309343629825	0.816756342177608	-1.2261254172567968
Si	0.34819833862709615	5.489587983909015	8.50860091244356	14	0.17110371661893847	0.6103156111490862	-1.8126626750735577
Si	16.269185597820055	8.781082613294664	13.855992510535977	14	0.2938559979187682	-0.11470240765297812	-0.17655780233456858
Si	9.902106181734881	2.6553243061821763	11.972922265754866	14	0.5152068258093606	-0.7309660138496948	0.039884014168265064
Si	14.186101667333654	12.23316066892517	5.495450233914713	14	1.015028928714551	0.2557478461951294	-0.6371849472972937
Si	12.952538282689693	5.940670283063245	3.1409336540159725	14	-0.3471794367059793	0.28070967930631907	-0.8661619306779773
Si	4.31035433501021	11.664977389199278	16.264246382153615	14	-0.22724971482660813	-1.7181845818688641	-0.2431990524590827
Si	1.0322191547581485	10.358603942996552	4.738620992810605	14	-0.08045914144658592	1.2939216078911215	-0.4312615226591858
Si	16.307430969227973	6.530972018631403	5.518863229051931	14	-1.011922262156216	-0.5302022833680602	2.4795364326131333
Si	4.5129407334483185	1.2897719207817873	4.135210205722167	14	0.8709295312731279	0.40130120369509636	-1.683224748609747
Si	10.951061061942017	6.026268625343539	6.1096608500895835	14	0.04269114695680273	-0.026965495487181038	1.1779675861682952
Si	12.953263290158294	8.735971764842109	6.346422431280061	14	1.0020875271961178	0.20736478628058286	0.21701260188390653
Si	10.512176236068765	5.960723367742144	13.048073973388355	14	0.13427211868675318	1.57219130824862	-0.20961116099879623
Si	8.82726869855731	16.257091229438675	13.673198979649209	14	-0.18408239916451397	1.3018105303449319	0.5032481007442878
Si	7.465640845684465	4.180820212815632	5.800244682982593	14	-0.9595725009537451	-1.3216021277678358	1.8973445998979546
Si	14.20977978935555	13.398609356406332	1.5100105326653062	14	0.8542281453345101	3.2095061431512706	1.8107454018363234
Si	12.433221815615989	15.679013152522822	13.007946528416355	14	0.3773107341738587	-0.30979762223528234	-0.7625499858234579
Si	10.20819680668342	15.385111817926724	12.152220049569557	14	1.415939838622049	-0.8357676091358468	1.0422037121747922
Si	13.31528586826002	2.9452454643366615	10.906202247688478	14	1.7642315354895242	0.26980639297516706	2.163406177974326
Si	15.601753214424278	7.529405498035664	8.955424815585836	14	2.1153995278786493	0.1292867454709861	0.17348198904007542
Si	10.096892612689139	13.130240395439182	12.6500203243415	14	0.8890223994110099	-0.1320028611311905	0.2205422152674058
Si	11.96647411806574	7.471018666320624	4.6934937785009705	14	-0.6969302358426386	-0.10133291709874011	-0.746124736596224
Si	9.560824054309371	2.6146387854837827	15.968340230065339	14	-0.006211019121881715	-0.1926871173394535	0.7437518634962593
Si	9.170387075147085	6.141021105424363	0.12922808066719982	14	0.6656887350975194	0.07116433860371861	-0.5183368894261089
Si	16.192653940361527	8.32841282600377	16.191393769366446	14	0.10558835351411722	-0.9841298991980757	-0.9452398743465795
Si	9.136079328952375	10.880457117917503	9.45894332082118	14	-1.077396744686447	-0.11087840271032186	0.4717546316777941
Si	2.554291324090678	5.322500766060965	14.158629939640845	14	-0.017047970935773853	1.0279243074477538	-0.23426009059252387
Si	10.21270723689439	1.5172213292943135	9.933852671296727	14	-1.0800131014602297	-1.0800035883705452	-0.6858819391714303
Si	12.511313139254144	15.029987448583796	2.283182718648503	14	1.4426883328202094	-0.13591762609164798	-0.07546605491485836
Si	1.9080265402408785	0.32976220062760264	14.776909107885555	14	-0.7272852194733709	-1.2678148615808698	0.0596681553857405
Si	6.002106073952103	11.621170899555917	1.3450852445373915	14	0.1657876992590003	2.4063051824425474	0.6010529471227208
Si	9.774151364748429	16.30166691436475	4.52975010525416	14	-0.09095156514757823	-0.6876881406588344	0.589771451198975
Si	12.053124784956212	9.964029675164696	11.999799912835709	14	0.7748121013163082	-0.34923554963050174	-0.036312234657515347
Si	8.617463320561654	9.810861618762335	15.731074580476829	14	0.7210484892982877	-0.3802284244911627	-1.4363916958911669
Si	0.9619179790895962	15.456097086421178	6.286164982100891	14	-0.5049483726925017	1.3650589498889787	-0.273798548205761
Si	5.058012149807246	1.2200746452394502	13.745904299722667	14	0.4068136535014938	-0.7364977469459935	0.1383439781822717
Si	12.840567998312299	0.7584494609549287	3.147648565175486	14	1.6894900180538837	-0.3559515338372605	0.09524145437424529
Si	1.1138880547537744	5.749523618723357	12.240022872798392	14	0.7896795178300644	0.514344734195515	-0.3843817880253299
Si	3.760579371326778	14.981616521401103	9.6191257835676	14	-0.34937130399140554	0.5552137388119287	0.1864552722644786
Si	0.9040712206581628	8.898208142651944	10.013225441544169	14	-0.3406591136140838	1.0674013156438393	-1.4270596120211574
Si	6.681032198774462	3.8059046125070686	9.63758810693842	14	0.4713972480382934	-0.35531132861254366	0.45261172412716344
Si	10.3149021948385	0.38849107875559413	15.314427681202524	14	0.9969003222127188	1.4033139117263977	0.4566984960335389
Si	0.0748296083223117	4.936408921953152	1.2256030317607363	14	-0.3447386864255627	0.20795305517783275	-1.8428415379898597
Si	1.5636692682702233	2.9807380985838887	5.299798049120977	14	-0.14202785788497987	0.8980500644111138	0.47527036109256454
Si	14.539136116727596	1.3311775391916574	15.728426584801445	14	-1.4835434534678944	1.9607591128456832	-0.046040525857359633
Si	10.553459110550543	6.7563511462234365	8.359905644780891	14	0.4033801994569681	-0.22750759669021894	-1.0292365996031574
Si	2.980387869242398	9.053292640918254	4.564453905190179	14	-0.6202927853439208	-0.4931415999518497	0.320330926510865
Si	7.102888350357015	0.7656815331981388	7.781622994651549	14	-0.5823088180072452	1.308325711226187	0.4266579585834607
Si	6.13037020563735	8.019186502838897	0.800995779603205	14	0.0117826043506426	2.2921591619808495	1.7183583885885065
Si	8.52124190045138	10.86271489225816	5.55629521736302	14	-1.3384382396252295	0.4148740686801581	0.15399275360282097
Si	15.927644889852697	3.0449773607903796	2.2985240730743577	14	-0.9611398467569076	-1.0428544589313218	0.06646281541529583
Si	15.429134336883527	6.806635242098664	12.688545551905467	14	-0.34828681176736703	-0.3539524994508454	0.6954289674462042
Si	1.1716055229142837	4.4265060958712885	10.286453425478074	14	0.9101396587369822	-0.9785428873373937	1.4182749164738073
Si	7.655635353685992	5.538305867261782	10.817484573048926	14	0.2216981842193444	0.12315568772456097	-0.4846944905330353
Si	13.300109808990664	13.544434052737346	13.786522720407039	14	0.7550534140415022	1.3554746405870626	0.41119995917766644
Si	2.8591970609866952	10.00364650539583	1.125005381467539	14	0.9308067175213964	-0.07218455319475336	0.04663136585992966
Si	2.508805697511013	2.1017115490137197	16.165660095695426	14	-1.4324198523926022	-0.018569551064237484	0.6847424252935408
Si	6.804785900248737	13.984220637335651	3.6767698172252192	14	-0.005700911826364336	-1.6688029046479724	-0.20455996748683333
Si	13.843806493354952	1.09435376774428	6.814289553454512	14	0.05862685773108052	-0.01922492581034323	0.3994212114850041
Si	13.589792025631795	15.316805640236101	7.0548398305587785	14	-0.5628728044501178	-1.264727221201904	1.5706357895299303
Si	10.707121415836689	8.45736105051492	13.283118776171245	14	-0.9044793703746762	-0.7976545723120997	-1.3071288616996581
Si	3.8018622458085556	10.867330063954437	12.724016910538491	14	-1.1815589060794782	-0.5298574981446283	0.3844910600014362
Si	9.489305258874142	14.161487418286839	8.133209065693999	14	-0.44612919628347414	0.9617368574122459	0.06603806881640736
Si	2.1217368117355844	16.45939286196361	10.604921548135458	14	-0.08659199896673515	-0.41925111837717816	-1.3905393749432422
Si	1.2394780053923125	1.4066830574113318	7.057453457934295	14	-0.6750161909779526	-0.2093147125553832	0.6705419534998309
Si	14.732634554729735	6.303507880847507	0.1310676030028794	14	0.7371582639027396	0.04119502077100857	-0.4183867127685444
Si	15.718273207069634	9.236012525448167	3.5035175810155095	14	-0.8494448609969065	0.6088397966953212	-0.8311733010392741
Si	3.358316423839206	8.655423926056393	6.8710496189759	14	0.6188791916389034	-1.0733413402649774	-0.433573460563063
Si	16.082981422318024	16.038441742277527	15.492565125750314	14	1.323496775278253	-1.002126350886452	-1.016484688546819
Si	3.706588408823157	13.447783847171603	7.887724482680414	14	1.5630500003933656	-0.879300021753402	0.1654714533046221
Si	12.41649590968125	13.55555137945111	5.809114977519411	14	-0.18654063296110754	0.6824158320893388	0.7257371569601099
Si	5.499973756811349	9.17122500702953	7.501401879987788	14	0.14158974153842663	-0.5262137276849145	1.1517083733125588
Si	7.292013831347646	6.294079510584294	1.4523045206047522	14	0.44586385821443486	-1.4628018326291958	1.0167721381216115
Si	11.946278650430253	4.631419719186032	14.138272450020278	14	1.0228579444144021	0.5599162904424795	1.667775748072573
Si	6.24705058368208	12.998292309325453	7.386461192550555	14	-1.9270290392611924	-0.32660313793936624	-0.3650056812221619
Si	13.740613218129026	16.059899017493805	11.031044278658506	14	0.4886637629262799	-0.18068108393649007	-0.5511688759222718
Si	9.905253336051175	10.496111510760018	7.340877370828417	14	1.8762949606419024	-0.20641193464893598	0.8398461535051976
Si	15.692739196854978	14.2925304725041	13.900939700417743	14	-0.4123744400879101	-0.15645921493643905	-0.008420884144548987
Si	16.29380966638112	14.44409303832701	0.9336803292854895	14	-1.339457425774136	-0.06408839965213908	-1.2540872160555352
Si	5.065358783050009	0.166342571350956	1.9332790577137755	14	-0.6801725426975095	0.350716506294907	0.2730529276629181
Si	10.836554069717376	11.626185398164925	10.995638383453796	14	-0.7140530259432288	0.06650163910563006	0.1737313862561298
Si	5.443274244961152	8.33594930318865	15.08398986718737	14	0.049054118403105196	-0.10605938000876833	-1.2912432874791233
Si	5.299145051423523	15.33003907227018	13.528554261613591	14	0.3158489757167829	0.587844664872056	-0.8791704380452665
Si	1.3606360819338574	1.5664841956878115	1.939601188303393	14	0.08577207348013992	0.27036149461378706	-1.172652597250485
Si	3.408194646458874	14.979660801480163	1.8183220044194635	14	-0.05172421127807898	1.2606353070848884	1.5153559967046186
Si	4.6446089634059975	4.241103847366129	13.725694102815812	14	-0.8180763476489719	0.5755938622426144	0.031126829447840707
Si	10.841190517027858	4.542448373761756	0.037551459067765504	14	0.3966855554243665	-1.1112093507517147	-1.033990830450643
Si	4.725232085134276	1.4180082305099997	7.490667514329672	14	0.22883068748796714	-1.3432027548939958	-0.15185410819752182
Si	0.5923736530743603	14.755041049656594	9.81286643625451	14	-0.5629738488891997	0.4115290606586454	0.9749322841363098
Si	15.319563287153912	1.4548706869947394	10.618580492453592	14	-2.1902253775687908	-0.3440185198253892	-0.3325112808545345
Si	15.385169098426498	13.512764482703773	3.781809161129657	14	-1.3417647356884368	-0.8701304317396258	0.0823895273209531
Si	5.256836037702892	10.560396597366331	14.438671029876737	14	1.3575924600392684	0.19222046172384663	-0.3680850940641033
Si	2.563696782153979	12.809757635775373	12.81565916383806	14	-0.25942889768198546	1.176569676205731	-0.293990980948076
Si	16.34251118387681	10.524241145907403	6.785811325551345	14	2.377597763100966	-1.2159968049586054	0.08350564414042938
Si	12.346851004881565	12.617385168740268	9.617719956444516	14	0.5736513921732426	-0.17471843358853464	-0.7040280291894395
Si	14.297234019828604	11.266805905981455	9.536371827247637	14	-0.7236532760981298	-0.4812805768889427	-0.23144730137228187
Si	9.889738503540281	4.79143197701883	11.194102222493706	14	-1.4305249477716528	0.5872810785858796	0.8828568888532949
Si	1.0032466779711948	11.149444708282239	1.7489815045614483	14	-0.643821998570724	-0.5962233828893545	-0.059165761406183556
Si	1.050933512327985	12.461336721492001	3.597577071405646	14	0.416054206022106	-0.6723851789038451	0.388428707799243
Si	12.45965431138428	14.89975777746336	9.264744424136058	14	2.237872844251243	0.8287202094533209	0.13676660506836086
Si	5.521853271140263	4.629720943221232	1.2277387761095457	14	0.4471077589683225	1.4349230805322981	1.3970897799673834
Si	12.09263851028775	4.041111437275041	1.9043589516694743	14	1.089028425154797	0.43187704527282933	-0.1074354355761116
Si	15.262729575275669	12.2357775694721	7.601443091140299	14	-0.8252682434504902	0.4878741764824624	-0.05650132496291411
Si	13.018595791617662	7.361329782420042	1.3532779925911391	14	1.3531691304464857	0.1961246851524915	0.329688978544608
Si	10.702481695354793	8.90555968565183	3.1889199835573083	14	-0.13407311513497375	-1.498744342341674	-0.6439580100421598
Si	10.417007140568673	15.510646124651194	9.977410399912484	14	-0.7119925421396621	0.9920501891367915	-2.2298512527629133
Si	3.261766050001645	13.555883606349813	0.1382882191461342	14	-0.314341279557048	-0.14321519432182425	-1.124691969940039
Si	3.819777949552937	4.998563173967778	2.9505103605589755	14	-1.071351818968247	-0.8119445185709507	-1.9550211771027086
Si	0.8102293961671767	12.42432042595072	14.19648580365028	14	-0.7487032981218005	0.595953416830739	0.04263381130816343
Si	13.694741357322298	10.171843328353837	4.558490186870592	14	0.04820102565788007	-0.017276285088203	0.7577291633481803
Si	13.596320366020608	11.351474667579662	1.1053925383440655	14	-1.9450578868766029	-1.9924027344628734	0.6078437504942958
Si	8.361160906018851	8.931872710663447	12.448926492068995	14	0.5784192498789252	-1.2186036486427037	1.1174064859048674
Si	16.246878934621378	15.608752891496966	4.166334792715009	14	0.34237609774687866	-0.2874436612503189	1.6621869364381672
Si	14.455956648123578	5.340244628306016	4.654837624080373	14	1.5414519443725256	-1.275195219402355	0.5455697798665852
Si	2.0039795602950554	9.997668057804871	7.968110299481046	14	-1.848560704663997	0.28098350202291483	1.965289914640848
Si	11.589314758751645	8.860792520197933	8.415849054034036	14	0.07104195399047956	0.0372923400055558	-1.5145859506612342
Si	6.957755929780442	15.143373379598522	1.7908731889265646	14	1.0216819208409662	1.3953550552078795	-0.5542950828810398
Si	10.959245627067224	9.26207024308935	15.395646520128476	14	-1.3264131800428969	-0.796773711629417	1.6368867458668461
Si	5.700928479298682	3.431880951409311	15.681649692098247	14	-0.6002281365360173	-0.4317626310860827	-0.2496268157594529
Si	4.58526145588042	16.198573470867004	5.71816009021716	14	-0.08482796360658154	-1.0938657027041234	1.7841699430262086
Si	8.653744789120088	9.924260642462725	3.4884364437172106	14	-0.05926320629781717	-0.38034978066227365	-0.9186965543529669
Si	5.582987930258868	8.912842492051984	9.970630025324656	14	0.18473880235274776	0.8053100384028405	-1.0773329812745076
Si	13.735847480547623	2.24094571469902	1.5572440327810082	14	0.7432013898472156	0.11985490271455487	-0.25058172427535585
Si	4.498236010862838	8.763173455893114	2.4000513040496423	14	-0.3257233056988115	-1.0273344958873118	-0.8095127671591547
Si	7.826012108806921	12.793265761596864	9.116636690742524	14	-0.6345035415589113	0.10836026215976885	0.25315720047454815
Si	3.0646818527134956	13.61070431780734	3.665528109997654	14	0.8120872149162188	-0.5028135839451827	1.0611584148159876
Si	2.2970053215374264	7.73487883366251	11.423117843528692	14	0.32666433024598573	-1.1384856928721014	0.09919118636705676
Si	2.266790676198177	9.023174554135771	13.407829880284641	14	0.07926229192005699	0.27348950134627925	-1.023103227861944
Si	1.1852235525897197	3.9973736842314134	15.528069216097496	14	-0.41756061662918076	0.0012397869853754038	0.5488047445803956
Si	6.939696206493766	7.348960467639734	13.597012641775049	14	0.7957010464898512	-0.5159969264742421	-0.026925386244186725
Si	6.818369561624307	3.3122350800618654	2.5718502521507367	14	0.2048479312826899	-1.6534544343288162	-1.3665522478589205
Si	13.003861610489436	4.695611520406993	6.297912394312196	14	0.013660282565946742	-0.24209347717141902	0.5951244924755233
Si	8.545478098199672	5.548653998692834	14.19715680379052	14	-0.9974315125718616	1.0884468411313797	0.7722625932808493
Si	15.403498858354979	9.927010106451995	1.1553951414775343	14	0.7572555657482091	0.03805338718031963	1.9876806424318894
Si	4.4958465957293035	6.895402014309452	10.49888552353491	14	-0.6806708229085542	0.751888897613464	1.2302517841851026
Si	0.044866997182078504	1.9634036908390908	12.532497104657203	14	-2.5075434828655063	0.8392874523191296	1.2436899232513885
Si	5.636797231748912	5.901053452832109	12.39314674138664	14	0.9460831968915885	0.4779854483106408	-1.4396253750523171
Si	7.64554416621108	10.676617094827142	13.692134276289615	14	-1.2311164469042681	1.000202906996449	1.2516086705269127
Si	11.131296609367336	4.7401315614189965	9.389390064821137	14	0.5380271852993989	-0.08238001423126856	-2.067561285181442
Si	2.8589973975303318	2.7553295124491135	3.2670505852524543	14	0.21373907059029398	-0.06993869269760403	1.2494198885678705
Si	8.5253890086352	6.7909812998026	3.497701155409633	14	-0.087700916691315	0.639430293573379	0.010762903980671874
Si	7.8441765735789035	1.9067614594886717	12.875409271447781	14	-0.04892273492124563	-0.5564085314542014	0.28926014715900356
Si	2.9607602968475537	14.526933733689493	5.967598664301031	14	0.927187115451692	-0.2614055634521153	-0.9866652661542735
Si	13.553739679072464	11.241571390951345	13.429331343315031	14	-1.6778115434687073	-0.13982570617827303	0.47076449901900497
Si	4.805676819020392	5.128072747376737	9.06590580696904	14	0.14028644825164358	-1.3007867162064488	-1.2680819994236334
Si	5.482545755607921	5.249965650901129	6.64804517724603	14	0.26648503912259985	-1.16926388043853	0.37536132212012235
Si	8.145886058587392	2.945929557162563	7.963845357126258	14	-0.45984115806635584	0.13238518449229655	-1.122401886431383
Si	16.19462438955384	11.012058247861157	10.797583690840861	14	0.28000519644859845	-1.253737545731995	0.5007744403157733
Si	14.252884183730222	5.268987686584051	14.35413646830658	14	0.07375806965068399	0.8810411742762063	-0.15528781935257957
Si	0.918371706573793	7.590919845038502	3.977282958081233	14	1.9932972220037528	0.7204764183645548	-3.0307161071777498
Si	12.053892343653219	2.529362850587945	6.329413396017856	14	0.983914954793311	-0.31234378783382494	-0.6163859908099558
Si	5.467444979281128	14.838654213473205	11.149758932738155	14	-0.3190661998038841	0.848237984159629	0.2581878251439499
Si	7.520086779014882	10.040595700923088	1.3610272259180456	14	0.20298876502569083	-1.40262254150581	0.9293419588205082
Si	9.024881513029111	16.442423104758394	2.318343125997027	14	-1.36181910007506	-0.44121452846401105	0.7192937099172867
Si	15.286633546125257	8.492482179806455	6.912123010487067	14	-0.6927781578611315	-1.368105966803886	-0.840758381672786
Si	15.848753275803377	14.474980320392207	7.733276616254475	14	-0.645993039903057	0.37328592590569887	0.32787994884135174
Si	2.0854602529342725	1.1728427817094562	12.599551294281282	14	1.3018593813460146	-0.5203600922025333	0.4927021980526365
Si	6.557414333913944	7.123316213163021	7.141367753521159	14	1.9131772093488946	2.0791885947707476	0.30734864441784127
Si	15.789803458604819	10.931073440691435	13.108526176266764	14	-0.07924712239866813	-0.7433584843822767	-0.1474210084045225
Si	4.661212125412643	1.3677175882919408	16.15865059910849	14	0.6827017390009392	0.3974309188566774	-0.2416335064296445
Si	14.76969667467084	0.8804094644933447	4.690308982713397	14	-1.1078741129304184	1.7475031529450449	-0.5016108208764175
Si	10.803192270061835	7.744135362426392	1.0048063441508235	14	-0.8455030994305875	0.481008811056603	-0.6605380398096667
Si	15.47156609453225	1.9708174240958778	8.324010410449521	14	0.21507758801996305	0.07585172071288056	-0.9566977480952876
Si	6.244972119833047	1.9258685976284042	11.179364768194066	14	-0.6747338836138004	0.4823866663976703	-0.4404041160671004
Si	11.150166442579422	1.7077379081366606	4.3537860465264595	14	-0.733381310187442	0.2459984719316599	0.2980407289378412
Si	1.76063890455882	6.139960597885644	2.077905773306606	14	1.1708330260154165	1.421078449714897	1.2100454674740586
Si	12.258679949868453	11.073006336209062	15.572607259552287	14	1.518105022512921	0.24454579742577623	-1.1219719976218543
Si	12.046491703082095	10.726634427231982	2.9980711778162576	14	0.6672367976107806	1.3405594015143516	-0.9797163398055092
Si	3.294140988475323	14.68333077369354	14.442821411231973	14	-0.6030820634413816	0.13723300357343574	-0.7706577093400129
Si	6.654833734762399	2.346842629514397	4.608910119359575	14	0.2939827534110515	-0.9745854420286219	0.43643381523172775
Si	10.626483564837041	12.544129955868955	14.983248197351879	14	-0.3359452491201243	0.6429437089933614	-0.07875321306666767
Si	7.438638818089823	13.473046184158747	0.2343165221428746	14	-1.0161293617915743	0.18743177806507086	-0.1284151407674559
Si	10.182039257314052	12.375141025428325	2.8024828198651286	14	1.1830288069910069	-0.5444932580690393	-0.9250746953206583
Si	2.115010444476115	7.909203033510894	0.48148187867847214	14	-0.9518548141142568	-0.3536411385965754	0.4662606938297016
Si	14.19724190624733	7.009437669850216	10.619495343864308	14	-0.009541114732537506	-0.6251241493510111	0.9738760740707928
Si	8.871921303011653	2.2301917100124093	1.909849696719479	14	-0.8098395546453455	1.512356802348666	-0.7720597330710897
Si	15.715965621221494	3.190494379008308	4.579598869331085	14	-0.5538597947503388	-0.3872423998045266	-0.26739469618486816
Si	2.758188627680815	1.625312905543985	8.92552603128821	14	-0.09271380073400771	-1.0865737909056516	-0.8426023784083965
Si	9.7032544718822	13.346894884622401	0.6504380774049444	14	1.1801633101117017	1.3336492988559216	0.3189684978017185
Si	12.533251570668543	1.086872934473469	14.424881158701973	14	-0.07435688007974647	-2.382403930275919	1.4004083056040983
Si	3.390568618384791	3.4898488171831286	9.986691477461985	14	-0.9407481533522809	1.599952303721855	0.2895799926608299
Si	6.284981730634078	12.779191124508925	11.009362791200246	14	0.6774070618151582	-1.3257981716503175	-1.0553430888028767
Si	6.152732512750095	10.944486897153382	6.144462845168077	14	0.7708436002546596	-0.19568399770061815	-0.06901180922969063
Si	11.190135138737757	12.500706427281244	7.503297046237536	14	-0.383307066001508	0.38246065813011526	0.3350811006220225
Si	1.137752747546372	15.723053673922411	2.326300205708837	14	1.5370450698537919	0.8508407140752149	-0.2821862650916801
Si	8.827520732756327	13.095588966245817	4.439186361936097	14	-0.028767326095540814	-0.4182118776067743	0.8456280551491469
Si	3.287563550515273	7.663657896826117	14.916570422440616	14	-0.6644232370589425	-1.8560935290309668	-0.610537240427683
Si	2.921374225201232	11.729953114974323	9.247720659602482	14	-0.02330347017969413	-0.3115657713639482	-1.8398623982554043
Si	13.401668135094397	4.977549413478342	9.789977148543823	14	-0.09192472851125427	-0.32231427715482724	0.30426511780738774
Si	6.205471487187173	7.493484078332967	3.91603046479166	14	-0.20952065809152703	0.16003767932102111	0.597272136749443
Si	4.568659930459483	10.954435701671706	10.575986712819786	14	1.7428574227420695	-0.1941516189298099	0.5956831936615915
Si	8.27005708941718	15.694955133903475	6.426055418655058	14	2.218125726950378	-0.3701918577634326	0.22814600214121172
Si	10.76723157230215	15.738481767390784	1.083781424071246	14	-1.181954342077717	-1.2606126813580711	-1.7379034170112082
Si	14.76056943617788	4.262965359252258	8.027205772807608	14	-0.2603580951446869	-0.1943395667287127	-0.38784583822316543
Si	6.821510169597767	16.382839928890878	9.962658216341474	14	1.2702088177444597	-0.27615522334220877	1.698871981367104
Si	7.9916869531890535	8.290275469252578	5.437040489999762	14	-0.6107892087490575	-0.7511535614919016	-0.34314537245866694
Si	13.26576769449609	9.033048075711532	10.10179582347001	14	-0.9978063797275394	1.7455506555649243	0.07498654377265074
Si	8.423446084890108	7.175845704629488	8.945083230497614	14	-2.261782066844364	-1.05498236272646	0.20207782241076236
Si	15.458290111269765	3.250884391629818	14.463684605836281	14	1.15683207199455	-0.3880726097124025	-0.15364359750034487
Si	7.900200175531736	12.787372416462716	12.691502862279643	14	-1.454344181678569	0.030422346590120126	1.5638786676380494
Si	3.790779287394657	5.537764157392467	5.136119839302481	14	1.2798640895532118	0.47725551151025075	0.015345384992771794
Si	10.523111901768953	2.769193029980735	7.961068071179953	14	-0.6442151205741745	1.0708262850408086	2.0032599980087946
Si	7.9110310997466184	8.988871717698187	10.24451264354172	14	0.04399546868571385	0.7600220750726884	-0.7734581572547181
Si	9.335652773102241	5.033551739816972	4.797603541723321	14	0.1412346718937142	-0.1129867090728433	-0.4678897461605474
Si	3.8321979984901904	2.7090534149725336	12.212770447590442	14	0.9736811842875257	-0.565810035167855	-0.7874961351921946
Si	11.21390981931642	14.348472245171537	4.039303010067812	14	-1.1370978102202856	0.01807769861649316	0.36198848912896825
Si	5.097712445909484	10.072466570998731	4.079512284325207	14	0.7042758837423018	0.581801796038112	1.7674150780969315
H	5.772317984462988	2.0868660800573586	2.1703663194601246	1	0.6223409278419508	0.3480446136462091	-0.2634984431827158
H	9.302308975889487	11.892038926899032	15.423519211319721	1	-0.1419934050736899	-0.5463755642739196	-0.31625521035736626
H	8.076041490331344	8.314793159742628	15.556187395144926	1	0.40614568033931936	0.42182556613424244	0.028924677741133872
H	15.262317155677279	11.689049928376779	15.234090961973127	1	-0.09392916221884172	0.26279833120403945	-0.45245308692891034
H	14.934397750556771	12.994801472010503	11.26195506594324	1	-0.18514940787237538	0.3085971731613052	0.19958924957139104
H	15.250098406782097	11.408341111172062	15.955792527442869	1	-0.0010690655921175712	-0.023480362225720315	0.2854597963852926
H	8.640179130187306	1.3716928549764298	9.532710785019066	1	0.753817226603575	0.1963671403841815	0.4167530324481223
H	13.158676072113945	13.79490694898861	15.297240258098158	1	-0.23042760100231113	-0.2460141556741128	0.01068782770532355
H	3.9284570600717443	6.993030898128518	4.991573316409338	1	0.08491718096119068	0.8773608941209464	-0.1768635067571342
H	4.537491155652527	2.562896491742816	6.556141070233197	1	0.055600152548202206	0.7431139722663306	-0.15094290847206132
H	8.220389986353831	15.994044445193616	10.863084760628144	1	-1.1569575419341733	0.28852609659010126	-0.990354545178154
H	3.256748278221224	7.22052285786945	7.423565863720064	1	-0.21741935074555396	0.2109177967224955	-0.2327328540323559
H	0.48831953376607834	3.0478462955363286	10.546429974935112	1	0.03470992182199907	0.5753431794739001	-0.20970834877989786
H	15.4622751974685	0.9440071851023385	13.27102768096128	1	0.5673336721805747	-0.2776819456813127	-0.3168864167134626
H	12.621262240282283	2.1102839849517	10.001428931761627	1	-1.2628886237874661	-0.9295412194828195	-1.332043129362425
H	3.9947551470987737	16.116056819474686	8.629065076644956	1	0.5415385438351251	-0.04090011499078758	0.018827432927848338
H	13.661639774794313	8.763677524291147	1.8985261602065189	1	-0.5786827881742403	-0.9278864560987722	-0.5646342687049513
H	7.81859346579301	1.1562183440886078	4.58139584043836	1	-0.9787341775732126	0.9811546161216002	-0.01851375807879027
