236
config_type=amorph sigma="0.01 0.1 1.6188843787667082 0" dft_energy=-23395.63658818265 dft_virial="39.085308412378474 5.682272053752481 8.2427272648961 5.682272053752481 31.686642881124357 4.446468749951302 8.242727264896102 4.446468749951302 38.18470665830114" pbc="T T T" Lattice="16.340456583 0.0 0.0 0.08532986427642601 16.528061365029426 0.0 0.14668827874559104 -0.063629737934202 16.286336990797107" Properties=species:S:1:pos:R:3:Z:I:1:dft_force:R:3
Si	7.9089656333313885	3.432526965240388	14.752285122511116	14	-0.3583133511843485	0.18601638458632933	-0.47328546778541025
Si	7.270823416441147	14.420833667135886	14.146872840156623	14	-0.8566035895397948	0.868258409956026	-0.5524832249619315
Si	12.227999951249668	2.8802554817394705	13.001666646947994	14	-0.6362392947605432	-0.3898163333405269	0.6403972862842868
Si	10.29597789693037	3.087053764071285	3.3738140706920103	14	-1.082657483282002	0.3729563102036559	-1.3813898395509632
Si	1.6554712649716299	12.499731939951008	10.50767341410011	14	0.09363425643862072	-0.5153333241911118	-0.5642630010967218
Si	0.6449905022441761	13.089145281265084	0.0022124978213382005	14	1.220051695159011	-1.9393402628656577	-0.21981793489872006
Si	6.777480521515503	14.592017924345052	5.73217497771836	14	0.20878686463315677	-0.14422306760732231	0.15731050790794007
Si	1.6906440977665373	4.788328962890722	6.561328961835579	14	-0.44833674731135326	0.25716221123174293	-0.8372609071057888
Si	15.163244337482249	14.120190508602244	11.498159994152605	14	0.27492417811492187	-0.026062009077681005	-0.7465471692003243
Si	5.478579261778491	12.146376102526267	3.00388574220079	14	-1.0766950900445786	0.22928525890856935	-0.34685290633032045
Si	0.5745239172756469	5.035506147484788	8.524044929800384	14	-0.391657501860285	0.058644598357789554	1.7966750279718127
Si	0.26131004549270287	8.658165763387988	13.560987403418817	14	-0.5003322102007078	-0.2991992689950999	0.5633029503701786
Si	10.342415840493599	2.744263665873111	11.715337734505942	14	-0.5817467743842608	-1.3034971754349491	0.373793204985364
Si	14.107699863590199	11.941685739093657	5.264529084815141	14	0.34516420435604717	-0.2995584524083246	0.2147621133971809
Si	12.358609220717588	5.1799443453589	3.1517815806878646	14	1.156640781758731	0.5077727318866845	-0.05117965117127162
Si	4.302852363764133	11.539480106714038	15.86832360071909	14	-0.08637062679867039	0.3793938437042426	1.899183454422925
Si	1.7568834066170445	10.066686976112056	4.825774753196325	14	-1.1297567903101988	0.055516077404233366	-1.5794179139719604
Si	16.01773419953141	6.035444047624891	5.586689356577278	14	1.0004039674324847	-0.3248771549379508	0.2638704821225412
Si	4.929151017723016	1.3574213368977097	3.966686686664708	14	-1.3201905909470744	-0.79529892561778	-0.9233857362358531
Si	9.506889078309008	6.444123768902696	5.940378539316312	14	-0.8529546768694406	1.404899769487865	1.1244556853611174
Si	12.995187655912833	7.9837967542532375	6.240454684006525	14	0.6767717416905497	1.2789179227953975	-0.12200794630964686
Si	10.605260254859445	5.940999476666467	13.117412637108016	14	-0.26422118088820945	0.6251724861310299	0.6132119612922331
Si	8.87075510353282	16.275666672648406	13.803376834234065	14	0.6627931562859687	-0.6410837714047662	-0.18877312371059213
Si	7.168780533171629	3.560266850532332	5.768558638346067	14	0.9228185504022283	0.819677117821296	0.12513261060522282
Si	14.24667708087427	13.50752142947924	1.9057302596772496	14	-0.6674679399790618	0.8030955453905971	0.15514486589677934
Si	12.650538013755513	16.23342822642701	12.570306371932984	14	-1.15259540464801	1.1331200531794843	0.4412170995693313
Si	10.538674528329379	15.342845563877319	12.354723460142148	14	-1.36518930492871	-0.33461161679056345	-0.9849526529005229
Si	13.706036734369134	2.816640450216193	11.317740110882728	14	0.9411541308823324	-0.5139837510085662	-1.2392159428837988
Si	15.919276412436203	7.183758195675607	9.002032697674982	14	1.4180283474736053	-0.22419009949563187	-1.169714852311684
Si	10.160031834342444	13.05928473090531	12.695840295586223	14	-0.9896850293527875	-0.5819177528880507	-1.0280196954551313
Si	9.758659565248557	8.485229809233125	4.754618600959994	14	-0.07292091775844377	0.26787472154813985	0.3393709898486896
Si	9.075340888043296	2.2099176632437447	16.252664211916517	14	0.3873552713280811	-0.7792004638767369	1.6583968700857368
Si	9.706696913314616	5.520394490174389	0.5872465967711706	14	-0.20403083401194685	0.7709071065560673	0.3717291216343492
Si	16.500993398699684	8.098144001329754	15.934674024674363	14	-1.1774736768362948	-0.14272617008993213	-0.24429742865184997
Si	9.38766093685115	11.014433457926057	9.59068620775795	14	-1.385489724094471	-1.5805782538029431	-0.9343548428632008
Si	2.7327420099364375	5.0107209429396935	14.140228810509976	14	-0.13317091427813377	-0.2740137497210574	-0.7192633708745089
Si	10.60786165554746	1.220326540211998	9.889296613492668	14	0.7161641605216024	0.5948486128746714	1.2342305696680316
Si	12.37984037595588	14.92779633262346	2.5862710592634004	14	-0.5407083339272493	-2.410789961452482	-0.6884607578075388
Si	1.5144253458841486	16.434682191840214	14.260273974796984	14	-0.22804007260202164	-1.1610327438666082	0.39518402991740004
Si	6.2530352015297765	11.66483755343618	0.8319776150147618	14	-0.9415320833643941	0.8072638213356211	-0.3351654328765234
Si	9.945127051499803	15.848422558646655	4.791083963870616	14	0.4812947179682035	0.41228110896478876	-1.167147346538984
Si	12.1989776663126	9.600771537560977	12.141258271524471	14	-0.39357811753443556	0.6067109214902386	-1.6479761802231767
Si	9.481466595957176	9.97357251831949	0.9791642776861342	14	0.791199812405868	-0.8308724817168168	-0.7810290339804262
Si	1.3920582027166948	15.360042260385267	6.151351808305084	14	-0.7201267480410146	-0.6040855658478353	-0.5005494686002604
Si	4.755798381925286	0.745603595562682	13.668103998457356	14	0.1286534822306336	-0.5069399508734885	0.30044934040175597
Si	13.01223402022022	0.30513841813962544	3.312024268169054	14	0.8948549518297659	2.478737590190163	1.2317183426597151
Si	1.2990205450700678	5.526847336479015	12.315798858515786	14	-0.4178663210517464	-0.44324904410384425	-0.5357088196322214
Si	4.064840541267472	15.028420864261575	8.960746900072376	14	-0.09089782904638713	-1.1205666314538614	1.1161358456556503
Si	1.2008993713804692	8.541831516790978	10.010238868846084	14	-0.07224960215935311	0.21203185665771568	0.7472274836680355
Si	6.8491399598145914	3.751118481284797	9.440167725989303	14	1.1065381666060692	-0.8054421932162962	-0.22354552339187078
Si	10.332508621667325	0.3123331211731203	15.558279777513249	14	-0.9153710867318874	0.573120458924632	-0.20292320184002707
Si	16.316883840333368	4.718360761847975	0.7163165952289711	14	0.5542220634899475	0.37487923987259464	1.944193995489033
Si	1.4338652608843003	2.698832294435396	5.525370159203912	14	0.3017554619043911	-0.39653668842632994	-0.26712781545263686
Si	14.284802634173726	1.2854841108367105	15.58044560686809	14	0.6784558156752467	0.35519562887313694	-0.42640521893049016
Si	10.359316774737394	6.8483882988117735	8.194034702695774	14	0.46045308113255107	-0.7790058312040017	-0.7955971738349172
Si	3.852084528465496	9.288582212405787	5.252183869866685	14	-0.6322216855872799	-0.4159007110344932	0.8366649248925784
Si	7.044861046628791	0.5149482466196871	7.831256958005274	14	2.475295137277017	1.1014381220930238	0.8270176235103188
Si	5.528020581261675	7.940180807541894	0.9776576875891816	14	0.48919263929063433	-0.31960433214739115	-1.1446136652921424
Si	8.822826910329223	10.682303873602631	5.656084007593963	14	1.1361827538368447	-0.2689694981934589	-1.0956824457233403
Si	15.78875538143383	2.8997235017124563	2.105190042957639	14	0.5171996895430074	-0.19568656880593827	0.6908606275133651
Si	15.456973848835624	6.762105785916559	12.624702117852133	14	0.9021378647596173	-0.7090059461997782	-0.09229522478788761
Si	1.1075822919262728	3.831412216842342	10.58627101026434	14	-0.019039034895696524	1.0074228278459572	0.3476628045061671
Si	7.936860426764228	5.313728565540896	10.709932317593168	14	-0.7537076975169367	0.8932536674363776	-1.1070608723176554
Si	13.222684394598335	12.926363286830897	14.316901827085372	14	0.506290489669619	0.1845071457634024	-1.1893221014831332
Si	2.8852458571799184	10.21762050547791	1.1288003747992985	14	-1.432823001706801	0.36333729097991785	-0.8860157488496286
Si	2.117270542509451	1.4847788555056116	15.895097438830335	14	0.8806907326210701	0.709074080490762	-0.12349661629001263
Si	7.009346698291299	13.633893618555188	3.640536075405003	14	0.8184005640298426	0.5041320467533548	0.5650351040243623
Si	13.770496567497752	0.6767824945720609	6.803082748889747	14	0.8371701470879875	1.2944404569447272	0.7407418704979619
Si	13.948842846827246	15.081246292303097	7.437549997094472	14	0.05803833172329863	-1.862727237867481	-0.16930831377387906
Si	10.910952614477234	8.302440559758713	13.466086933721728	14	-0.699193065634901	-1.0877886381694215	-0.46499313890686855
Si	3.705589067107584	10.533269105291723	12.500910086870643	14	0.5170659920663597	0.962484791949877	-0.06462447511138995
Si	9.508549268697841	14.237952911104607	8.245239157444264	14	0.35941661247722406	-0.03163487985910196	1.3092124854511062
Si	2.2629963683623036	15.770164843979353	10.471631269014987	14	-0.4747286292016093	0.06711407639288934	0.03234476203799484
Si	1.3323076891752972	1.0141639016412618	7.1571314216736095	14	-0.5590058620486151	-0.2601372371976863	-0.3842298357009092
Si	14.969689995210956	6.1894332423717655	16.281443024050496	14	0.5460606038722016	1.2491476085144668	0.815437879369436
Si	14.650443226857567	8.508230635919356	3.0172244569094926	14	0.4940538281194383	-0.5536178537397127	-0.4998979505121349
Si	3.5917353018198734	7.76238029946227	7.075602347598388	14	1.0608251995664966	1.9717259054782428	0.5457654409814485
Si	15.637457459886175	15.821800686781632	15.022899423982178	14	0.7633871377156982	1.1685277729853718	1.0464619768060215
Si	3.971539802269859	13.134735155131652	7.636584928503703	14	0.4545742488180325	-0.941563707959832	0.3999703995813877
Si	12.589032535177102	13.49436409383861	6.04715198476661	14	-0.007912319512223698	0.24041094584991413	0.5617248059246717
Si	5.820142191687283	8.954550598936102	7.69278956296659	14	-0.33736784169376216	-1.2547158513063115	-1.169369295756656
Si	7.436598982521341	6.343889774176915	0.7010235619129414	14	-0.28703305573069127	-0.25222697456971865	0.9929081669821249
Si	12.22576784488043	4.7679377071207965	14.276055587764846	14	-0.15467795317064043	0.06007027625781166	0.3454719656628689
Si	6.2787844930132675	12.80808289185485	7.240941623487816	14	0.03412139581421717	0.8776825393964969	0.5316207621731859
Si	12.813635379001754	0.46056230497448825	10.395313166544085	14	0.2342706321243365	0.6101806281197784	0.5061863599041531
Si	10.344352184598685	10.675089562021236	7.443136799200199	14	1.0628062362156707	-0.07668141639969235	1.2648382929517346
Si	14.185549066842928	14.99464840859583	13.543594621431872	14	0.2744487807412265	-2.1244104806941726	-1.2481191663864077
Si	15.849532075648641	14.75948962981856	0.7592462427638287	14	-1.2136516997960984	1.222080811477672	-0.10895573015191513
Si	4.834621476390361	0.22353744605544001	1.8111549650661622	14	0.6180986040637064	-0.4289416143288162	0.3792303214058812
Si	10.978762241205366	11.443700520452785	11.138833353892435	14	0.8675138178553112	0.5141884109920499	1.1608543091573897
Si	5.231977261256147	8.083756229308422	14.862153450438234	14	0.35074684533768474	-0.38094653420708	0.5714050174550293
Si	5.229817052895874	15.078705351304441	13.011959500549626	14	-0.726106367684083	0.27849904295205574	0.8271657191767594
Si	1.2587494898212641	1.3350234730593915	1.7782403833710254	14	-0.9043929812359192	0.2574458041485552	0.8372045998992776
Si	3.2900071369691197	15.101547675561816	1.9115932154992301	14	-0.170644260098228	-1.7233746150681155	-0.014310257990880178
Si	4.995834786992581	4.2468846659217006	13.507828630063	14	-2.0816175179666914	-1.0950386409511752	0.3710997150519769
Si	10.901097685112028	3.62955202048991	16.094817035370397	14	1.2309482966163305	0.33262826614660124	-0.24849064431847942
Si	4.854774161494175	0.15382088804407051	7.792446739574991	14	-0.7010758860608454	1.4931645295758884	-0.7574229447045506
Si	0.47230945921200695	14.290850237155096	9.618177391913187	14	0.27524042406930005	0.6669264651986386	0.8010862265829014
Si	15.302816347385944	0.32729444322051515	10.31642307620702	14	-0.11807826893833255	0.04546356982351841	0.3611904180375942
Si	15.527355463429922	13.122362161407008	3.810565062333751	14	0.55971600133804	-0.6815097745745186	0.5003121555792107
Si	5.249847184575316	10.324323686964902	14.213630141480811	14	0.8524828790431936	-0.507089074982057	-0.49521442506095303
Si	2.426160729480533	12.53059416029932	12.723235071047624	14	-0.33407888376822875	0.028012449573545335	0.4161987021410984
Si	0.39818261196888577	9.88094990827007	6.617907792754217	14	0.49551241616755837	-1.092536184143075	1.1553588286461052
Si	12.722231767013426	12.483540181522914	9.960500153053088	14	-0.017603843905989867	-0.09478765428523915	-0.7375387874901215
Si	14.432242573922135	10.864361070622126	9.327694729282856	14	-0.29233776022722074	0.11167467402797172	-0.44535349380838546
Si	10.094745174110725	4.892667680310152	11.046164990564584	14	0.7047893334747353	0.3137265282750006	0.7763686484771258
Si	0.45985966534141925	11.16063805915679	1.4354077999857355	14	1.8729774634473153	0.8814430380377454	-0.3961139987116976
Si	1.413928269807382	11.90961759304952	3.467363184629685	14	-0.7040054034626221	1.0752886954344576	-0.11613914130587685
Si	13.470152439319579	14.78539252159393	9.777344877351217	14	0.17561394957154225	-0.4482884105313345	0.24685696399805737
Si	5.084053643992881	5.274702653083716	0.7990450588173835	14	0.4092196938600884	-0.14189210352407608	0.07652175075931116
Si	12.042035751061178	3.3281686392730583	1.7062394295293524	14	0.24661168055051522	-0.25206576626614535	0.8223608375544668
Si	15.403623892137787	11.64643166314109	7.128973546889783	14	-0.049278575897554126	0.7543790131160273	1.1246492895917246
Si	13.428291457645248	6.815545615125601	1.8402426118295607	14	0.15416656032246298	-0.19156560119880495	-0.10749817054592319
Si	10.34849775843379	8.46293652431694	2.473667338904289	14	0.7174862228772225	0.4973823810669021	0.579249974007865
Si	9.496007968270389	15.876580433430481	10.067729497242052	14	-0.3196033037052631	-1.7170849201234368	0.9399302847499418
Si	3.075519035769345	13.652322385489494	16.21292585555232	14	0.4150956979587548	-0.24081949448528567	-0.7692132623711537
Si	2.9435322658114798	4.4962547397892045	3.267545545350128	14	-0.14592899598724057	0.692958649454606	0.07757410416684778
Si	0.7004451097499031	12.028133290600362	14.213989631525639	14	-0.28445886508415896	-0.874281224168473	-0.7648680943801035
Si	13.530615396767995	9.73357696439365	4.678594626707586	14	0.1535399819559429	-0.46841887963543394	0.3261709351350493
Si	12.564162360257775	12.08472029174729	1.1441669401699517	14	0.14875644050780742	-1.9305730508344847	-0.47906762653989116
Si	8.756166017698874	8.737957846928436	12.695304328610302	14	-0.7531014308824459	0.4979811914959644	0.6046962033613705
Si	16.27095245092421	15.285283037472386	4.201990895505566	14	0.1448738143638518	1.0346168945960992	1.7349075650921715
Si	14.377467729410261	4.374439904054257	6.077216790833671	14	0.8637489483350184	-0.6757540982048351	-1.3468784070596793
Si	2.3123429131973054	9.370021413969802	8.190794390155364	14	-0.7726004365199168	0.29105863533044707	-0.44549413326939763
Si	11.804396490974607	8.687835130405743	8.146088534989934	14	-0.7964862620546245	0.4479238277969375	-0.5206693961725471
Si	6.722231803762723	15.15603329399217	1.9177993209094535	14	1.2407462647703509	0.1829128033543786	-0.7931217136326787
Si	11.326668536359678	8.933982866235079	15.638897054111139	14	-0.6605529522205236	-0.33237038428299037	1.4386635245520496
Si	5.697632886547557	3.4026892915198297	15.569941961376536	14	-0.3406092341708729	-0.16231387886094822	0.2253221571680931
Si	4.921567411822846	16.07737850010502	5.630726887068463	14	-0.1126442378441996	-0.5867779132747266	-1.068298117179507
Si	7.25217405334297	8.71457792164948	3.54768633300908	14	0.45021545396878554	0.19168001538555152	-0.25326364423480235
Si	5.9977384440596175	8.817276057227977	9.949784081625957	14	-1.7150306069726389	1.2467233133080993	0.7976103493005932
Si	13.900502874117757	1.693119676938862	1.6242103374826926	14	-1.094131812104759	0.7291487566094143	-0.4189276733279036
Si	4.119324525652169	8.961480586572952	2.5475262026594496	14	0.18736107266876678	0.2235162127912211	0.0866015120564197
Si	7.874683355420254	12.710718281305045	9.105907346127454	14	0.12055450047216715	0.3375714732351179	-1.1116125000659136
Si	3.4187928114823762	13.279846579816986	3.589477050720103	14	-0.15846364864402648	-0.024552256033690052	-1.5039405461936932
Si	2.6520038139598343	7.2118523426787595	11.583695748181977	14	-0.2883628314022718	1.090139399763633	-1.4105495163183586
Si	2.597936511218004	8.685429815196725	13.364199284789748	14	-1.1416669214847204	1.0080247236014037	-1.9195129270788034
Si	1.2560059271609785	3.663850638857627	15.391752550430239	14	0.8879677320086852	-1.2526188578071986	-1.1473089549992534
Si	7.2019696345373605	7.326451232786655	13.69188099683128	14	-0.5079113144634403	-0.5967406892797684	0.7033855099699344
Si	5.324135802338609	4.873160443241367	3.0985100581816267	14	0.11735938789081914	0.17288986348484534	-0.34419746875567153
Si	12.748860175061083	5.818513048165958	5.442994649477693	14	-0.672140409677367	-0.5933807688473989	-0.6461051400950155
Si	8.634849565889706	5.790874799901471	14.805476576780098	14	0.6155766068551732	-0.743035296443534	-0.84516525619152
Si	15.12170199471129	9.642431531619337	1.0218177715047392	14	0.26814083094877517	-0.5932077334593528	-0.1827857907515633
Si	4.856681092777411	6.874073862514591	10.752977982369766	14	0.08267569134308558	-1.3276082297957017	0.26531852863884864
Si	15.962300834619242	2.5775387192654455	12.072399587483707	14	0.21926874680233646	0.18996123147903254	-0.7364303839866057
Si	6.328421897975447	5.645448004404088	12.346775462060178	14	-0.03250751300476023	1.7005467993726484	-0.8931816764874135
Si	7.683419945161899	10.440520673726613	13.966827153342496	14	-0.8896844590309481	0.7615457120854081	-0.9008253154936817
Si	11.316800534629206	4.800100627813116	9.077488024038303	14	-1.2897515321723734	1.065900304357937	-0.5462472661184443
Si	2.657142887555188	2.1446457094229507	3.5075901206457147	14	0.5466493869905155	0.3795943899192142	0.6237491222257959
Si	7.871291076633624	6.227156820439279	3.0940311390322264	14	0.2773093925204232	-0.09370367628226473	-0.517435459900865
Si	8.453950907241946	1.949708964524736	12.89587036080136	14	-0.7547618506981973	0.5964426981731632	0.1141257087296689
Si	3.4047808699624538	14.212501015930927	5.685449442119271	14	-0.3618766460475418	0.8886331340655393	-0.0774671461855296
Si	13.645322133889337	10.658883097182217	13.545532599582616	14	0.25945049496667466	0.7730526939457308	1.1028661139878342
Si	4.750708329699681	4.7171826149283405	9.40658645366558	14	-0.7144399772939112	1.292366603393496	-0.2565271482176663
Si	5.7786995257014775	5.50005388981987	6.076744551638423	14	-0.04059698167354212	-0.9413968432245543	0.023927220330362053
Si	8.256262429455154	2.715780616003284	7.752984536927046	14	-2.4092344427337924	-0.3352885888213584	-0.14317868462627817
Si	16.423387668250044	10.772936216040241	10.539772607011757	14	0.3710161541290722	-1.0667251149446404	-0.014126681071021606
Si	14.579934156701922	5.279505113273461	14.261837756491978	14	-1.3891635764864307	0.16213698681492203	-0.5054505095615267
Si	0.2048227211309301	6.946457183040306	3.517508777791596	14	-0.7003138104439535	0.6014643239739444	0.21081649517288167
Si	11.713602378016827	1.8649575524113482	6.654878075773254	14	1.5327798632381981	0.6042426603828964	-2.115722715817392
Si	5.660311283711985	14.863298916444702	10.70108886249045	14	-0.8740066301202812	0.24687907550381064	0.5713919048178966
Si	7.235549272815426	9.595119373628917	1.244090466220655	14	-0.21822564937395236	-0.240513275841656	0.28670549691290437
Si	8.98382942904152	15.9504409312313	2.623355725478519	14	-1.7609454057798433	0.9828584876172621	0.21735584444414627
Si	15.291829024379535	7.885830814901177	6.7914548799852845	14	0.9277640714855332	0.508424764195874	0.725482360422883
Si	16.090468839873658	14.080367181863815	7.316249885741888	14	0.3163410852750592	-0.5700006797291642	0.8781401961434832
Si	0.7421312485387945	0.4992532380717156	12.170296896918119	14	-0.39880851708721277	0.2700969278763438	-1.651995846280696
Si	7.144933270834399	7.095733790108644	6.852185820921663	14	1.3946677987558036	0.6032031625019605	1.06338422069164
Si	15.756239506879318	10.64169457090256	12.729081686413021	14	0.16820171004408735	0.3811483659747117	1.0253411179326009
Si	4.524241039778909	1.2525139715891915	16.02135034257323	14	-0.20681045597355893	0.8668918674783674	-0.7887202384351172
Si	14.895724918488007	0.7762501218840985	4.792028442261113	14	-0.7865455975553359	-1.6369654216896425	-0.7791930076713085
Si	11.356107502939613	7.12200761024845	0.795883180468573	14	0.04939941784760109	0.7971938302387293	0.21875426862777483
Si	15.637418242790377	1.4663190417037966	8.243967869922106	14	-0.942031906238631	0.08660099783535566	-0.15656000226498887
Si	6.827374471646035	2.0726022703941624	11.125903150598306	14	0.33397809643967896	-0.704818644075385	-0.4868063964430049
Si	11.102761795985462	1.316097956244961	4.3548542327938735	14	0.8889846041628037	-1.8573330589058106	2.002202245280086
Si	1.6034955406724234	6.002120954515179	1.9365597991123957	14	0.042086937206567934	-0.08622201691116584	-0.7100436443069899
Si	13.394690576773627	10.013402381240551	15.950878855467725	14	-0.33815357147959946	1.2545746976242353	-0.35686093378899686
Si	11.709558115012534	10.353461989143707	3.45592976715856	14	-1.5748539449181653	-0.45421583673640387	-0.2197662556817851
Si	3.0305844142117535	14.490855791685357	13.890852200459838	14	0.8051475445466072	0.07192949954699468	0.37310209187530824
Si	6.579535498560357	2.966377858160172	3.6328152096695354	14	0.348008361061195	-1.1447928713329567	-0.25516240551373165
Si	11.054590129978779	12.40789693990889	14.675723547237126	14	-0.5695839035567684	0.7218902691801042	0.5754686494135233
Si	7.340830834579695	13.73701006982221	0.0157750767852282	14	-0.5407116763641656	-0.016991406618730595	1.2682100404685765
Si	10.217622139523568	12.070074340511947	1.6140612798989913	14	-0.6195132262108519	0.2818599918265533	0.8113343952784795
Si	2.146523227884338	7.959550784775382	0.5208651259483915	14	-0.2814499005279897	-0.21375835388019507	1.322059013183226
Si	14.364073457149177	6.682741822338586	10.49578409789032	14	-1.0673694339378696	-0.2269463243988306	0.5438191142540965
Si	8.421899101654391	1.7946462017803575	2.437788598384996	14	0.45525379195414767	0.96771210617627	-0.7865936772248227
Si	15.695194829176549	2.892572917911736	4.493646802918558	14	-0.7732671241294311	0.9093876104308388	0.1555783542537563
Si	2.961456112637372	1.1420426808141615	8.758893239902575	14	0.7204651055011461	0.5273637830946166	1.5164973103562325
Si	9.827745381635822	13.615683813739093	16.283462704484155	14	-0.28939538729884334	-0.9752225619269546	0.2544232127341891
Si	12.210188853574197	1.1690191405870365	14.550529505080815	14	0.5891322744163862	-0.5138102013994562	-1.057303813720022
Si	3.3193088437137552	3.096608029035365	10.29440267691577	14	-1.0658180289876922	-0.6028578630574647	-1.19075986357816
Si	6.595753401718985	12.834484167556004	10.970758685571013	14	-0.634880208488313	-0.9299469399023389	-0.5963815058665437
Si	6.676475257239005	10.73429757240408	6.460759987749848	14	-0.6099001205293504	-0.4341059364748657	-0.7219288357599064
Si	11.448597755290708	12.81153563033084	7.968827261977551	14	-0.47584217491576547	-0.7128165813947697	-0.5197715661947514
Si	1.062902581491376	15.617069472207566	2.2765213642760527	14	-0.2977568789104969	0.7927594448930698	-0.5585461484173726
Si	9.172806809423914	12.56152664461094	3.8247828936066193	14	-0.23226234175876878	-1.2609104153541442	-0.2688113752162698
Si	2.9994378699188973	7.165952000137112	14.841273615016476	14	2.003990706140781	-0.8631665929800049	0.9151553709955271
Si	3.2642970625814276	11.376183387897484	9.078937422537214	14	-1.0184240732898067	0.7512286377672499	-1.0292396849295415
Si	13.447641826330837	4.547026172438245	9.643585167854095	14	1.1798411506150872	0.14191678613514946	1.5485911325149808
Si	3.3312471812932953	7.381329022175001	3.9695364622927833	14	0.35159351031960956	-1.1150505821000158	-0.12330995404376985
Si	4.938991240677299	11.137106167631613	10.541923011098078	14	0.9358707665599602	-1.8075325486282663	0.5784423898268065
Si	8.67578567772144	15.67581504766911	6.649454678233357	14	-1.3199039127038779	-0.36683579398904337	0.08781635932018966
Si	10.594638958080495	15.464199598736625	1.0587651778845604	14	0.7337278951845979	0.18286652345861593	0.12984930331503447
Si	15.02140754029615	3.7973799479169283	8.175239909534007	14	0.45619404516972584	-0.6477102811463838	0.011949726196452225
Si	7.17538371167682	16.428262026448753	10.124927631465185	14	1.82177184411231	1.0666970898966508	-0.1651801470718493
Si	5.774040861529665	6.975673919410711	4.2081643200026235	14	-0.8125903802273721	-0.8817294591704099	0.09529390492277631
Si	13.167836018031837	8.751553106805494	10.07465131465061	14	0.36676226037688714	0.6216999512856378	0.1656910256989627
Si	8.320988612026074	7.216377015106591	9.130857589284037	14	-0.6762701190425887	-1.0889908870171228	0.38877529279639894
Si	15.523580817959248	3.174502985566526	14.321983709082685	14	0.2639329599818208	-0.7243765280246874	0.2936901616256187
Si	7.7384954540749	12.535125368909785	12.887466463980722	14	1.914855369791355	0.1508382644855313	0.7112317520754303
Si	3.77230061515334	5.464243779218226	7.293286642105798	14	0.7162798602610091	-0.2627877896722269	-0.10299976467779211
Si	10.503467380575646	2.7763465183281735	8.301133323232072	14	-0.5329741920137119	0.2919626359610112	-0.4363484545350988
Si	8.130076521584254	9.058072293526383	10.491597672913755	14	1.8083815276049788	0.9934303584726472	-0.19510524189305278
Si	9.038195762138821	4.639934740477866	4.633465553716656	14	-0.9119558875351347	0.08553578890121831	-0.3676901722869286
Si	3.759870429830652	2.4666817937150567	12.407524377498797	14	-0.6267745418560141	-0.1754959358373474	1.6604969489112338
Si	11.049093200384258	13.77591833099199	4.300652938308062	14	0.812384434691228	1.6494260265132084	0.4194154120071356
Si	5.6081607165273395	10.321879154660083	4.297330923484738	14	0.9789385804461646	-0.6071590651475405	0.7355857758889369
H	1.0159695220936833	9.359038993100366	3.5564497198745433	1	0.5292052087249067	-0.11065728765278915	0.8785243192783132
H	11.12078695364217	10.892729737295873	14.850947165313611	1	-0.32574773119935296	0.1393767911893752	-0.0025711053201480792
H	11.082094386499286	5.911687965647881	3.1316844531364327	1	-0.8700684681014104	0.22337325933542085	-0.10307149851622424
H	6.114942002946844	1.2380297908740203	13.449117369560282	1	0.955907390319874	0.4316721281788135	0.056281752568573463
H	2.1256433924625804	5.053331951571183	4.482131683164519	1	0.44130246026596015	-0.1769033588895965	0.0914251627475495
H	12.326570487495298	3.2948798611221704	6.304834448897887	1	0.04317554319911863	-0.6321802907916255	-0.035613665342031114
H	3.5392040019968447	5.219888591476043	1.1391912711404282	1	0.12336137615017283	0.14598453186215576	-0.7356947907545112
H	3.020618369741782	14.932165770713755	11.69268332549927	1	-0.6419188664127503	0.8557708085265988	-0.7144767440999892
H	1.1810130357189583	10.804442250377923	14.967769991562454	1	0.444425581898344	-0.33170086845762387	-0.07755327821375456
H	2.257089293307549	2.4635967155121863	13.082821524567462	1	0.8983565401652756	0.21201565869419872	-0.43861745498012955
H	5.339874930119354	1.7954419820159495	11.248865086385383	1	-0.05127812450503329	0.07438953311731236	0.43723137210203766
H	12.70730149183354	10.771223736190342	2.3439960116442347	1	0.8537748594665678	0.4661010281893204	-0.9257161860980352
H	11.126385194067506	16.04207167556613	7.577352407435987	1	-0.6730755206823047	-0.05811649332503113	-0.08583892221846377
H	11.873916963506982	16.060263505879984	7.726664963508808	1	0.33009701295891547	-0.03126772601938482	0.11560589406247813
H	14.183444416035035	12.91578610928472	15.395367059426396	1	0.6440932501819996	-0.23903103362459066	1.1912486306995203
H	11.145580328415557	8.676382104386718	5.569458345110505	1	-0.22817865517877764	0.13616008132333793	-0.4105921498799835
H	1.7147446371808042	7.246735949392147	4.351679282079797	1	-0.08672672488551089	0.20832278012287006	0.11653714840943577
H	11.323374300312546	5.573618625356536	6.02184388561086	1	0.45761895173815187	-0.26498659894201754	-0.096000444664753
H	8.241632818676393	10.656378105188043	15.337469553661512	1	0.24636485443978098	0.030677143127346807	0.16264632277884336
H	15.181609376635883	12.53872517149502	11.70377522742781	1	-0.22450351723415793	0.6210520327449606	-0.17794979875489675
