234
config_type=amorph sigma="0.01 0.1 1.8667902035077646 0" dft_energy=-23369.01035393354 dft_virial="62.6452704826688 10.095608599669442 4.324958724098389 10.095608599669442 56.23657814359865 -13.156597127089217 4.324958724098389 -13.156597127089217 46.60132929607414" pbc="T T T" Lattice="16.365857079 0.0 0.0 0.109143900859851 16.44850465724895 0.0 0.012438051380040002 0.077852382124803 16.338444268392678" Properties=species:S:1:pos:R:3:Z:I:1:dft_force:R:3
Si	7.854336497653547	3.5295425669425353	14.733758889111064	14	-0.1336015744192586	0.9028405478436138	-0.0979745393295627
Si	7.4223122390678125	14.55291944155953	14.437919837036812	14	-0.33386291092133635	-0.09770174505509499	-0.4780417555171521
Si	11.92907486146881	3.0608195104428515	13.185985777821672	14	-0.305121038768465	-2.2593973666599267	-0.20660348199528705
Si	10.474304006202251	3.5184448792572653	3.205667165106249	14	-0.4588307136755377	-1.0884902928112898	0.3074728288048045
Si	1.3705259693666971	12.513082288404384	10.72174103596536	14	-0.432704684075385	-0.0007278799161339211	-0.6424580271983854
Si	0.9499610839076787	13.033482175216719	16.31072868942939	14	0.3744673488003069	-0.9924805921673844	-0.49867770392719263
Si	6.542140079502114	14.727983378147885	5.829619759853689	14	-0.4997053747236558	-0.4241364755959915	0.44257927116794565
Si	1.2889208962136793	5.074152158058555	6.138253638992304	14	0.5413585664627147	1.5717336515016338	1.2155234644691664
Si	15.45018082908712	14.766364586169555	11.588593024454461	14	-0.26065454358810003	-0.7688839037796427	-0.6184243631077692
Si	5.301071312801722	12.340613976748758	3.2093593024632714	14	-1.3110359133441551	0.2817224376919254	-0.5001293499909483
Si	0.2876806723203699	5.500119412939352	8.264522156553063	14	0.5113087730334841	-0.2548924394551162	-0.026030127371711165
Si	16.333848735724892	8.909225637637526	13.702526595534778	14	0.09222554783371159	-0.47952116951836526	-0.40357226102438315
Si	9.93211952703206	2.540638926115376	11.937092494851811	14	-0.17901012258892582	1.2694631972016168	0.7035179218939221
Si	14.15278896524935	12.098454935893628	5.541965272904647	14	-0.26638219490979387	2.630920542758132	-0.8543484730634929
Si	13.669433195935332	5.987931605135981	3.031336418915033	14	-1.467300238497327	0.2622442580075475	-0.8147981883657832
Si	4.339618124053169	11.308257348791146	0.1614737288699535	14	-0.28538729121526446	-0.5926348911940239	0.17310995010025002
Si	0.973835596214524	10.197126940955183	4.676142696825815	14	0.3034925006586832	0.40379543296617204	-0.6273260439471859
Si	15.935754172035342	6.397613195637464	5.306071082139357	14	0.5324687127077709	-0.4761044276584205	1.2540419646019008
Si	4.456850031481462	1.3750396727490855	4.071131328915051	14	0.9282194142377315	-0.30012692379460937	-1.517582316801335
Si	11.06658601047697	5.861914505627681	5.964330402642355	14	-1.059109758096894	-0.4587767204638146	1.316103819040699
Si	13.110437708373592	8.641292008468676	6.104237205053602	14	-0.5251786006830229	-0.575602346890171	-0.009352909823102667
Si	10.465995060563243	6.245276524774717	13.222830231863625	14	0.17248928527596627	0.6367830835357546	-0.48622198420373525
Si	9.007481333782717	16.261064859537456	13.671793152526124	14	-1.3719435986047392	0.0956808562734586	0.3674729138873761
Si	7.211971697545673	3.992270809994181	5.855418896953026	14	0.2901929441691532	-0.35574018897994436	0.823911471173048
Si	14.162610116082458	13.861425975086204	1.8734798525328173	14	0.9122119696250216	-0.18710807590526424	0.3161940180507467
Si	12.54527229269307	15.83583897798234	12.760876093851815	14	-0.030631891673712202	-0.5853072410316019	1.776590324542412
Si	10.397485946244842	15.23197649323852	12.179587035777063	14	0.007840328563259552	-0.11854775276979157	-0.8137111250364244
Si	13.130773922379957	3.3918287893798738	11.280548316170691	14	1.2396599727725883	-0.2848892681147518	-0.05475194490308535
Si	15.881049658163077	7.605871692065876	8.861381691052777	14	-1.3068894917943523	-1.695032292681995	0.8891602106561698
Si	10.00403601279431	12.984846121149348	12.697108168329201	14	1.4213728412740538	0.35431116864300605	-0.3503722352925392
Si	12.015357296575006	7.151082526283253	4.4386479252381985	14	1.4216219813795763	1.2527037042827636	-0.8270695598377859
Si	9.585924369311433	2.7081729318616836	15.96324390217094	14	0.4846135007154506	-1.5375816595341067	-1.2227814376774122
Si	9.297991662792047	6.064091757638815	0.3569507989929453	14	0.5419362938281521	-0.8004120827679586	-0.4255775801279345
Si	16.173751375435284	8.513399381739124	16.013076300390786	14	0.5964074740302773	0.06768434755289818	-0.7673528105614946
Si	9.06065400343239	10.871658833151832	9.255692468585664	14	0.9836606724771485	-0.18771614231347925	-0.18098498858533155
Si	2.6446193990668028	5.353939577509724	13.855863220265054	14	-0.9328517746930423	0.21377352340158395	-0.08555841462803561
Si	10.328821356284188	1.6054480282214947	9.86861345522271	14	-0.12437799119375935	-0.5936137109894043	-0.1899620028106286
Si	12.445741696281424	15.3437160190311	2.467513003514988	14	-0.6139339276661306	-1.287209994563407	0.11797619605712267
Si	1.9428809060620247	16.433390788236494	14.751224531785772	14	0.8554509630247724	-0.27587368730965256	-0.19007641699737518
Si	6.33448353854093	11.908424423006526	1.071554492247525	14	0.4921504388509327	0.44435924738108423	0.9391419838587846
Si	9.622457872068885	16.318813422826416	4.779630557479163	14	0.5086821318384208	0.7470572764958416	0.37520371336399727
Si	12.030834487614614	9.956123329609829	11.914463424268678	14	-0.7257975779351331	1.234822952333794	-0.8381559088677323
Si	8.707989422408435	10.036388039068077	15.821065518797125	14	-1.042962445354768	-0.7139856629838409	0.19122852929133352
Si	1.0851283341088476	15.54423049996301	6.407527631855922	14	-1.9654845473135831	-0.13551601944064084	0.19452725741708352
Si	4.837609879352937	1.1828259545276463	14.012826518924033	14	0.5403080128289023	-1.4320958931222634	0.17911193835960368
Si	13.108149761553948	0.7805760997257366	3.3955029242941093	14	-0.7787119538659087	1.6163904084756897	-0.1425263952065566
Si	1.2214624699197494	5.82163158501343	11.949476538903491	14	-0.3639191321138674	-0.1449172660437623	0.42835617364741857
Si	4.145967483580194	14.959396597244943	9.512353295398496	14	-1.7648115768497499	-0.15980756539486787	-0.34126640869070274
Si	0.9924648513275497	8.864694140525566	9.85265019822785	14	0.176616937756932	1.5219172003711046	1.5649793578256046
Si	6.613321738281516	3.516359869065401	9.730585453204132	14	-0.4565344595141134	1.0318460143925756	0.3840616854129715
Si	10.42600181561929	0.48584501617573356	15.270951781872158	14	0.8102468177280571	1.0528920541011797	1.111862925724096
Si	0.7453289533346943	4.798755698061683	0.9468204759342187	14	-1.1841197269783457	0.3299612585980116	-0.42599409918979847
Si	1.5979246437222783	2.959686696623171	5.459358609298394	14	-0.8652175636938869	-0.8251072922574489	0.6499093475267066
Si	14.417382322988374	1.6352207954196114	15.733215234582762	14	0.9477757555238416	0.259942347414419	0.7034688137823073
Si	10.40772769960488	6.8521716028352735	8.012893830792022	14	-0.7338711057509302	-0.3821989196085242	0.4632864391953543
Si	3.214404896200727	9.512142175842177	4.903394078467685	14	-0.05530113299946899	0.6456258860633399	-0.29727479666296913
Si	7.060009804810035	0.920041023995851	8.082037940365089	14	1.193100083640559	-0.13602689806775428	-0.5597566248020983
Si	5.522458807852187	7.117535792442719	1.0783250473211072	14	-0.0026698357644417653	0.0571487292825274	0.12186910662235886
Si	8.85693836085583	10.63264203685587	5.337293864274673	14	1.2882273809385896	-0.8580346667609893	0.062163670209476225
Si	15.765074648558452	3.3357757288842986	2.310189656000269	14	1.8140173904667436	-0.26772328344478313	0.17268006129072125
Si	15.463455175763896	6.840542024794937	12.427637785180632	14	0.09833809362183164	0.7333699973240333	0.9894837118062199
Si	1.050233053645004	4.32618993831985	10.16290102404587	14	-2.4489629050301884	0.99399985830106	0.6649258881490314
Si	7.6160905332260045	5.394232317638221	10.596393300011592	14	-0.3475378487876079	0.2569002155996198	0.06472551955047177
Si	13.457644276061702	13.808524978664046	13.80222412368863	14	-0.6886281367638806	0.12340997004072363	0.7825632125249585
Si	2.9602136772211147	9.79527804965171	1.415258766520728	14	0.4041132215837423	-0.07196189547402855	-0.33667518592051426
Si	2.4905201253966465	1.8480145789178932	15.997407628823352	14	0.13254382169054965	0.9971378923443005	0.4660223523665238
Si	6.862380624481154	13.80326826537027	3.7556843434744493	14	2.1962247947228244	0.6982633539511355	0.5572726799523033
Si	13.804174933852446	0.9846517911580351	6.991088270893241	14	-0.22542217316504684	-0.687994359302464	0.20774839519434893
Si	13.676547434007572	15.199691566978778	7.648431103399816	14	-0.11954791273932919	0.013620430433484447	-1.988692886596432
Si	10.512118955568988	8.746501557286736	13.071159651383994	14	-0.2974030948184445	-1.732278352791788	1.3612161758774852
Si	3.7561900484581905	10.99764483753168	12.891927330997616	14	1.540210100502894	-1.330568086240256	-0.3790452018228306
Si	9.410051959383376	14.20390444666419	8.294780989706426	14	0.07357089318337721	0.8109929524919639	-0.661237637567279
Si	2.2056036463369195	16.3857235929082	10.47806978991613	14	0.7536485620945732	-0.7804772747787225	-0.6619004685188131
Si	0.9960669764706376	1.3608095600188947	7.274068669060522	14	1.4783228241153339	0.41445909228148614	0.10731305096287254
Si	15.321600836360249	6.404018792098184	16.20129511289924	14	-0.5949697119352505	-0.7512746605524806	0.8224117454398056
Si	15.569785785791868	9.270709779041354	3.3667972109775435	14	-0.3662269562492323	1.357830287281382	-0.20101878412939336
Si	3.5522256448540293	8.391459017229204	6.857634525928244	14	-0.14429017345617817	0.598210590191297	0.17118882020503537
Si	16.13187278375583	16.163814027016915	15.392771039039696	14	-1.3741066695105795	0.05808049785054906	0.24567245577706515
Si	3.9095397658741287	13.166716617696856	7.885061757733661	14	-0.06208062350763544	0.6116343310677902	0.6594980277076667
Si	12.364323193899107	13.82480900645765	6.008444570398799	14	1.713956656280413	-0.19679754341477426	-0.17087437402438127
Si	5.689280898815558	8.974379751254734	7.278937511541525	14	1.0675177867148422	0.07298545250197949	1.2314321786375826
Si	7.456122463207318	5.882762970960619	1.8618142696069062	14	0.22621330227205644	0.5203246109491153	-0.8581940752908384
Si	12.179107516164647	4.98023177745359	14.229310803193629	14	-0.29577481381919474	1.3779067631737585	0.9204312791124709
Si	6.149809570675786	12.872050997575169	7.421164992486575	14	0.439755683305359	-0.1219704081719727	-1.4390425054762395
Si	13.835975430742652	16.29094073163517	11.035831291854112	14	0.38550381838704256	0.11949211975388198	-1.5077486102833644
Si	10.423216346744445	10.551005868574402	7.2246945148388875	14	-1.8323686546893003	1.5712752234230514	0.14463367312694997
Si	15.654860420645633	14.476049010859466	13.835635020915408	14	0.35008427149668264	-0.10765577930204827	-0.03716429896061242
Si	16.206848048206144	14.681587809914626	0.9362514054326004	14	0.19495868888980433	1.163794625201511	0.4968640462343601
Si	4.968500731099363	0.3615954292319655	1.8336797247023973	14	-0.18169024277464818	-1.0683590523755946	0.9327623002279012
Si	10.730390391431612	11.717899661235641	10.83638877456088	14	0.08461507608607328	-0.7149642256686893	0.5212615217277772
Si	5.375503230797014	8.077141275927053	15.217132660867867	14	-0.046187850192204116	0.33817928253280094	-0.013260989909727747
Si	5.2917460474381075	15.260922784654149	13.594399014399533	14	0.7254131976897711	0.9245242216716147	-1.0889883159118028
Si	1.3651039609164244	1.9190784035263269	1.8464565493239724	14	0.09313057690640371	-0.7147045440313543	-0.04520363107565144
Si	3.5163647788225245	14.826626945105849	1.988060491114312	14	0.03375321353237197	0.7761313354560762	0.22058618116838036
Si	4.7226299138587144	4.481495375656729	13.386817756380912	14	-0.19531735808196501	-1.0530329506727238	0.18084074957687124
Si	11.085995916972664	4.344629349490759	16.214233959505897	14	-0.05165710542922311	1.7812201138924026	0.18845919175100204
Si	4.836035483901937	1.0626825611249993	7.634364649240415	14	-1.040205449119973	1.129105529332605	-0.8190114586539098
Si	0.6164560117661089	14.605154347598575	9.887059412736448	14	0.6227800726306322	0.328630711594835	0.5925037648226963
Si	14.819718916832802	1.9042836687269111	10.595036570459742	14	0.46099815546042255	-0.7882962631678249	0.8399194300068218
Si	15.56056526191356	13.375053978312527	3.850038419292008	14	-1.3438799840353228	0.12827861507495603	0.6790371425881322
Si	5.280437240196519	10.426594259645551	14.62662798867193	14	-1.2134598953392155	-0.5760111526360745	-0.3045029450495014
Si	2.4272022609437034	12.746082995638108	12.828943330029086	14	0.4408219206816245	1.5597674702311324	-0.7991316723185248
Si	0.19642956300498962	10.148813294272268	6.829108837039547	14	2.128487225289799	-2.0926894688068454	-0.369554994975632
Si	12.418775673572355	12.709038878139792	9.587184540306517	14	-0.0996431866823388	-0.019189958777989218	-0.1842009271197728
Si	14.069457294174498	11.090118476370863	9.108794172030267	14	0.6738597078049501	0.21768828836204143	1.2114104672885253
Si	9.658649328413388	4.930577767075904	11.42718639559853	14	1.470092973096072	-0.5497287998324567	0.009986687284519168
Si	1.1145868768510476	11.24521443073713	1.5293467928041447	14	0.10855000973239577	0.14132080392193916	0.5962082133679658
Si	1.2294670106170882	12.310841209550642	3.6787304469032835	14	0.4443996137346105	-0.4078132992499674	-0.792121810773673
Si	12.512029963794205	15.051243423757999	9.50859569461316	14	1.443287657470336	-0.4412191564535874	1.19568944380848
Si	4.347766684292803	5.13879402034919	0.5461810214688828	14	0.07538172266035749	0.41012857959076077	0.1614898396058408
Si	12.137939202682423	4.332019456611389	1.9043262199553164	14	1.7026137109395154	-0.4162722357532546	-0.009627760981826498
Si	15.485891129233497	11.91756311759944	7.373342321516028	14	-1.4921515140797503	1.6947451002177343	1.045897619188249
Si	13.240798306350658	7.141881641433439	0.9098598243070051	14	1.8715420153470768	-0.989018598853805	0.1538158615567948
Si	10.922890512151934	8.492920784776171	2.7825344766715356	14	1.7665450160565936	0.3815605141575314	0.08771582910217186
Si	10.412344507886866	15.651806551714692	9.818388276432966	14	-0.621874272226344	0.6915293720071356	0.7228153528742934
Si	3.1864323732813005	13.331267127697663	0.1599451578187749	14	0.48022025305491356	0.8242778536811691	-0.9878407755066452
Si	4.332980132421927	4.6388710939141	2.837137522229911	14	-0.6472888769844116	-0.538620853517821	-0.23516383411255593
Si	0.6091977541515723	12.557347022045954	13.980672519520922	14	-1.826073817533982	-0.14679391581693838	1.6813691819001961
Si	13.605585077713028	10.222122514471941	4.467811882552977	14	-0.6054274257144207	-0.39750290980564157	-0.6869584609689764
Si	13.612571662100054	11.642184660045356	1.3539195341886359	14	-0.025192718368938938	-1.1166323260929707	-2.198134097533566
Si	8.229243915033571	8.803737869249124	12.548967703221507	14	0.06968518171303742	1.2724978728109877	-0.5731759947995473
Si	16.357353379661753	15.546279505269299	4.269446238655541	14	1.0237411190918728	-0.18953417088535596	0.5591133342509973
Si	14.307249924360951	4.803053372130629	4.86553821445825	14	0.8432268998906604	-1.12488223173373	0.6037587783616446
Si	2.201638199166678	9.726474349905887	8.135971622368933	14	-0.7460360334626788	0.4115036067159759	-0.021191564269724496
Si	11.587566885215608	8.852180806202963	8.027385797235477	14	1.0510323736231166	-1.203781483582582	-0.3892648312493551
Si	7.007722528028337	15.451166053683275	1.9999224643251712	14	-0.18216718281153566	-0.2985261536222852	0.18395384389850655
Si	10.825204347833091	9.301377758621692	15.4359032553714	14	-0.006138513951853539	-0.2679009468224054	-0.8370043107948381
Si	5.643870555178456	3.7395001474090264	15.522481912490726	14	0.568693529784401	2.275795362170767	-0.5379222842023368
Si	4.670457198076571	16.203051169363818	5.670599272959879	14	0.5781644533416985	-0.10189830315864068	1.0691715216567614
Si	8.886023762056627	9.024606566630183	3.4356958326944254	14	-1.332810090079425	1.4869990190181734	0.6183770547698785
Si	5.627756732298473	9.218595980344693	9.782836725100253	14	0.45378903325325926	-0.36665658794822903	-0.9040021732272567
Si	13.765288020847034	2.4809068209484417	1.773325716966461	14	-1.061992995602908	-0.9356990167245742	-1.2716540360449151
Si	4.3669818370892575	8.576966007219667	3.060858788499841	14	0.23405568771957208	-0.4396227571603074	-2.3510593282074614
Si	7.822912415476158	12.77783112178566	9.091017578071057	14	-0.8328907993931332	-0.018597833222759114	-0.3918397932274834
Si	3.319264215677296	13.48972299252225	4.041509127602061	14	-0.178353719400692	-0.18732610563641278	-0.7557553257939026
Si	2.198674342449671	7.818428170636512	11.576438102401887	14	1.2724531355784172	-0.25186779115649394	-2.045194982890942
Si	2.377535157880354	9.19352021412825	13.312102709058154	14	-0.7585709432299967	-0.7784427591388893	1.0637259205886878
Si	1.296553931955325	3.890607742405141	15.110654758126186	14	0.7025604422726989	-0.7800936658649563	1.322582233115876
Si	6.991224107506997	7.2919254557194195	13.702051985679487	14	-0.7126121785218178	-0.28939718707256745	0.25199068999079705
Si	7.411859366151455	3.65215065842128	2.5284545455200607	14	-0.36562531760431766	-1.0674617366188628	-0.61718663300665
Si	12.863193795724017	4.519704742179069	6.569147016853879	14	0.4771418686551003	-0.16849404471898818	0.1597538292936768
Si	8.566544229431761	5.836936934553711	14.495381997826888	14	0.17986295822361895	-0.6895748177427591	0.37807409534341063
Si	15.491218215712713	10.094676675640644	1.1087606317309238	14	-0.3938727662041245	0.5779423098420376	1.5253696805949994
Si	4.619665760631894	7.216521405813634	10.601458532777542	14	-1.2955637728591003	1.1193440708741311	0.7162634051869601
Si	16.225402020376606	1.5950246138478796	12.625692477793567	14	0.05834763569331245	0.7322734209049901	-0.9962382625927808
Si	5.9204666324992195	6.004667330584967	12.100983460812332	14	0.31699697424222895	0.07813100557919184	-0.28037286450937965
Si	7.3769166247020825	10.579119137864707	13.908014660432995	14	1.5662129741582118	1.0256686767503878	-0.48921140835947136
Si	11.110251753749449	5.153074867236326	9.538772698481127	14	-1.0362279491897042	-0.26385068461157607	-1.1563422764310618
Si	2.829417747445747	2.863015215443226	3.511734877854875	14	-0.03543317374855672	0.14616502345563015	-0.5216016789616328
Si	8.374379608781558	6.808962466975298	3.691687295952728	14	-0.09283207157873452	-0.6458889101375911	1.2336821529032442
Si	7.885065030905077	1.934840360479112	13.031114035697387	14	1.0158334275692256	-0.26162410740432784	0.6275515298837628
Si	3.123654582111964	14.616983589095273	6.187351210229304	14	0.40307629480812657	-1.0624105431069	-0.5598437852724514
Si	13.293255788045977	11.34044898966554	13.264982133356298	14	-1.061280028097631	0.9975130166105103	1.4475004135373988
Si	4.659410244548245	4.8408961434544	9.179344108726422	14	1.1880943986927626	-0.39277259023763317	-1.0632448667832881
Si	5.236462182225246	5.0518962290168234	6.82482752882768	14	-0.16330349729867322	-0.06005099296791055	0.19641907671164846
Si	7.999815874400193	3.1068042956634256	7.976001915764541	14	-0.04242400911403935	-0.360474365205933	-1.4332279507947248
Si	15.891998416548928	10.842720724664744	10.759596899974795	14	1.0362696010958903	0.17750859708195932	-0.04937370679439961
Si	14.455593326096425	5.556275578334524	14.232986574693573	14	0.633456587472547	-1.0125213296958107	-0.8812715453128914
Si	15.77963371501593	7.062140639401719	3.226335606011318	14	1.0890235400546888	-0.2281773696261175	-1.6137676239386065
Si	11.983224572786096	2.4082195033177713	6.622933406144012	14	-0.5097419414513858	-0.4488327135276099	-0.851780453069729
Si	5.675950908224712	14.877475663050301	11.115922523227322	14	0.41764366333102154	-0.11923372366920709	1.6231799262946045
Si	8.208313620415238	10.614983277067628	1.7591921627930367	14	0.158576777278113	-0.5026883711160917	-0.7841485560653618
Si	8.855025192163293	0.09196302409831682	2.5500869354070828	14	0.51696777584313	-0.029546371007545678	-0.5796610937485567
Si	15.290641544523904	8.08876267103885	6.768753192717903	14	-0.3250869571320749	0.8818428449150284	-0.6513697353485507
Si	15.819358559903787	14.253817037583724	7.857940259382342	14	1.159471568716214	0.40949943011892054	-0.3748543001509892
Si	2.3284195842005673	1.0170987394028603	12.704214223472901	14	-1.4255172059396006	-0.34998425549972884	-1.1556128538517358
Si	6.723606339379773	6.799084035642413	7.034351414081578	14	0.07511124238067791	1.2593189011609727	0.04758704570742871
Si	15.45048523402879	10.963382915736794	13.167948966734905	14	1.693346676034106	-0.63434259036587	-1.2410797371303741
Si	4.957028265286984	1.8148360768616367	16.245620400212005	14	-1.835647071083021	-1.7661248974472814	0.1781344041168834
Si	14.809606453743688	0.7851929080077226	4.8957152183262185	14	-0.17548899385298306	0.1979023473708419	-0.05752051111182081
Si	11.065792266408637	7.587275168667009	0.671852801392816	14	-1.3798309783953573	-0.40101889633094406	-0.3716869555070988
Si	15.333801582812644	2.1009210781168037	8.267706952340635	14	-0.2034657050625783	0.39642535956596753	0.596852532361195
Si	6.281305959134135	1.976895703415018	11.456284889484994	14	-0.5775710422338083	-1.012508731279742	-1.2287713417417612
Si	11.089075971274932	1.677878401896025	4.518346376041513	14	0.7591059902471196	-0.26852906785211755	0.5369300946592916
Si	1.576295527006672	6.65025129478028	2.1487502954301814	14	-0.3917217794932886	-0.6385908276863507	0.7621897739681053
Si	12.339704035095167	10.986568425460614	15.47938079128747	14	0.8876422300751544	1.4014750572014278	0.1622318606012355
Si	12.021974012592043	10.649129001277254	2.600965111894278	14	-0.6801527451865443	-0.280986844459831	1.347584689691124
Si	3.243745604771958	14.45535438458307	14.245894326171781	14	-0.10435293740778606	-0.01251022715624451	1.157194340734159
Si	6.5689849948687975	2.360040056662903	4.320291683428578	14	0.5503944589998432	-0.4867421188100011	-0.04286958166602101
Si	10.737561910003631	12.659047731106277	14.953855118037994	14	-0.7965682803143371	-1.03692291895774	0.6593841277419843
Si	7.565397290923801	13.845678747404792	0.39507178988706004	14	0.21233061909591686	0.08662568044642908	-0.5987273823606467
Si	10.001065609734471	12.063476189558681	2.3192907091219013	14	0.6624553130469012	-1.0056487651750547	-0.5974603416588778
Si	1.9999110082252158	7.926451010286452	0.3040203440280435	14	-0.5298649543500568	1.2739880854545453	1.0261505018873835
Si	14.093644394351552	7.306307770920444	10.496973991428082	14	1.6850823722035537	-0.8361558460391892	-0.20029553220283572
Si	9.119369788874717	2.257378671792044	1.7266944803912663	14	-0.4870609358696996	0.3804389980168828	1.9386077549599474
Si	15.759485708365974	2.8728085443192994	4.66928049295259	14	-0.05636557060201029	0.9831770475664285	-0.9152291617182152
Si	2.891832216587929	1.493731414628825	8.844716338789231	14	-0.9218597852283452	0.2619799483806363	0.41402586103504124
Si	9.985280740581777	13.638272604056917	0.6142989918030966	14	-1.2284116441074726	-1.5491683456593541	-0.8512839726324084
Si	12.635187948070804	1.1056265701002952	14.401239041565649	14	-1.6360637350538667	-0.23297710903776997	-0.6480167569005455
Si	3.0669305214761504	3.5683623799339235	10.098265708098069	14	1.1579163071080565	-2.330198150971376	0.058598575572558896
Si	6.674431848614502	12.777826212028536	11.054080859082905	14	-1.933379669401958	0.056723211352042884	-1.5835314253736652
Si	6.739477947574987	10.813494577093065	6.120853459745911	14	-1.915217895641496	-0.31772639682155496	0.29301293248429167
Si	11.146703427221507	12.765088665463951	7.569991187005877	14	-0.06086037692269317	-0.456578168304556	0.5943796432642764
Si	1.5173375268795743	16.008767170221883	2.451289529392575	14	-1.6472572991756633	-0.1367653195157008	-0.47447846065395893
Si	9.172476995096073	12.710555993091013	4.303251553037923	14	-0.614686490193338	1.621328473353566	-0.13813057644069943
Si	3.1362824774341203	7.428467437915224	14.841757179975385	14	0.7247971608550636	0.08453151516316847	-1.360224243444972
Si	2.9967324507071953	11.593923384105091	9.30993710187401	14	0.09862528608609218	0.2564839536482878	-0.44964004059813634
Si	13.373870726845716	5.200480208851356	9.904737811553185	14	-0.5347382273738654	0.4039329871007999	0.8498446678741896
Si	3.4854267626003828	6.570680497662181	3.710344373022788	14	-0.7964194133163006	-0.2970588238160767	0.6465859367898832
Si	4.838050120908362	11.194454088420905	10.71445495639379	14	-0.004480151020358028	-0.20432239735525165	0.6613034578634749
Si	8.35769298090381	15.757364693288533	6.772136015376132	14	0.3085879171821526	0.23918350017007545	-0.24579766860615637
Si	10.672782574513532	15.65248573478347	1.0345987503774352	14	-0.06465944214374397	2.014934615935991	0.08710313470438057
Si	14.634187378056719	4.410503560819443	8.226371707116206	14	-0.047532538274641566	-0.7180508376055271	-1.3128680829952926
Si	7.116282167790468	16.4077454901937	10.149602128583476	14	-0.23712430191916883	0.7136827867771275	1.315040666990818
Si	6.292809520074964	7.366403198114533	4.637682932690165	14	0.1419219283457898	-0.09992189449904285	0.866883382830811
Si	12.881991619164955	9.137511341446789	9.96358943360927	14	0.2465538306808119	0.9024132301394051	-0.7245932722031758
Si	8.124990132268925	7.021546767502968	8.969998611314685	14	0.6408577712471253	0.30505778957758933	-0.6614386980033147
Si	15.566100194777677	3.209869917204136	14.265206037525001	14	-0.44479247862752924	0.5489772657473775	0.23434776528394094
Si	7.828656831310887	12.699281554149291	12.876045903288155	14	-0.39841616641535815	-0.47279027290074976	3.0571902644382503
Si	3.3679968283014343	6.279078565985683	6.084549078987565	14	-0.5836254810416931	-1.2207623486694998	-0.9692452562786743
Si	10.369536335525325	3.174457475656596	8.135120597800826	14	0.49735358468731633	0.511515489901224	1.0015797338953885
Si	7.918523389117385	9.093662300575025	10.18510458234495	14	-0.26106129244974746	-0.8346450645530701	0.2782303624461003
Si	9.382223456006244	4.784568136559898	4.786689151637336	14	-1.399582723685799	1.127780124540069	0.2557092796153272
Si	4.050559446566748	2.542831950963962	12.190061184307622	14	0.32782955517707685	0.6710533463480083	-0.6258453443933126
Si	10.925874007897434	14.494933573342925	4.281570065579665	14	0.6985127511671898	-0.46336254391283066	0.2762706659710834
Si	5.519794446319725	10.25474457738751	3.9787689779040063	14	0.3502099985468378	-0.07866965214376286	2.1277847993163346
H	6.312607297383431	3.2199120071078107	1.5849186971015972	1	-0.3691621300827133	-0.1448583877319309	-0.41872352756548376
H	9.38737870098613	11.665299796583733	15.400040752754188	1	0.7644986265455981	0.8166139029428717	-0.38739923722905567
H	8.107532672522755	8.54215255604122	15.713068864518512	1	0.05570685341898835	0.2841169080765793	0.2862059311491996
H	15.029651948513674	11.675546459700895	15.883185402511886	1	0.06907428708897023	0.09631514795593912	0.08005470657972663
H	14.848421356977953	13.354698125277666	11.276447032386693	1	-0.060054078294294724	0.39367093443649287	0.1839373888244576
H	14.927812129668183	11.872018573934291	15.136632283067682	1	0.029665413183868533	0.19463447250893368	-0.12153357737807956
H	8.882277617371244	1.619779609265575	9.426723857989755	1	-0.6695502781778497	-0.3442064676242921	0.5011706476456081
H	13.267839612002291	13.958599888078476	15.407181176197755	1	-0.28731819131069564	-0.23387802434194985	-1.018375222288724
H	5.679397557725549	4.41673240602371	3.510183394603786	1	-0.09406697346400165	0.06247425973215011	0.2053624094572515
H	4.591917449954449	2.5981780064337245	7.301926630980397	1	0.40590013978124523	-0.05881763374583552	-0.502000086221888
H	8.507995375731639	15.9506405556344	10.57374786357138	1	-0.25703365596573546	0.21245146104596382	0.16868430651267913
H	3.9723748375432413	6.456281520094263	9.364556513289463	1	0.047929259825540416	-0.11646361479727955	-0.1284053705672393
H	16.154938822722976	3.514436880858618	10.749222583172418	1	1.0360813961864554	0.31760864019789214	-0.3985753178346753
H	15.509183017028331	0.3034246268303679	13.020330572468033	1	0.26406408635314843	0.23286526595634355	0.1860606075978359
H	12.128975622760255	2.760533855000236	10.38948304213321	1	-0.3840951097821334	-0.3946368987052725	-0.7082466987987385
H	4.713992014492418	15.894314185325607	8.45643310641854	1	0.3492790013104122	-0.1366575902027866	0.027199980292378544
H	13.92609729591958	8.45670641623176	1.281935948412362	1	-0.4438833357863248	0.30703034157920694	0.11701588822004737
H	7.452070276994558	1.0469516993006645	4.125912762315588	1	-0.3216010525390181	0.7503704028113845	0.4616041649843814
