231
config_type=amorph sigma="0.01 0.1 1.0392531023883276 0" dft_energy=-23321.218696820506 dft_virial="37.672308147567385 -3.625520599776607 10.844263174832925 -3.6255205997766065 22.35468547991433 -6.3587916978264545 10.844263174832923 -6.3587916978264545 31.785883833008043" pbc="T T T" Lattice="16.3502463575 0.0 0.0 0.15550719310618252 16.504478231390298 0.0 0.101796633821795 0.0621309361585 16.294851722840793" Properties=species:S:1:pos:R:3:Z:I:1:dft_force:R:3
Si	7.835937318063663	3.510188609801874	14.692790818772147	14	0.8772817040770857	0.3920531949690558	0.7657322428782052
Si	7.274581039822344	14.724937038135629	14.585554457987213	14	0.2342732032296566	-1.0182996317923114	-1.171607185827313
Si	11.600480170350622	2.826115557524339	13.481757501515565	14	0.44060440517154	0.2106941105596426	-0.493180423642184
Si	9.904472385736419	3.1861626975382107	2.919467289102485	14	2.2147580932020476	0.21868999099477113	1.925452951699942
Si	1.500071337339831	12.82542264218353	10.664181677663748	14	-0.2750864148606232	-0.8408900222651778	-0.13163262196508918
Si	0.8548889810482451	12.903910364798072	0.00849722303199275	14	-0.35526967670635723	0.12415044837292627	0.42283343941974044
Si	6.816986695014991	14.417990593217008	5.790065326867039	14	-0.9367968786962775	0.954620037886076	0.025653203331777456
Si	1.761294318319701	4.839375347336294	6.376224928832686	14	-0.9202541299559127	-0.013006964704097118	-0.5667142929089511
Si	14.774496269869845	14.990035027502225	11.439083618506467	14	-0.18400706577863363	-0.13552424697766532	-0.4488124017955807
Si	4.98851411948623	11.73878526926408	4.153541373526056	14	0.5198003625743371	0.2173702426339391	-0.5333922537387679
Si	0.5014898512033328	5.154173180555785	8.265611982190949	14	-0.7089087584186765	-0.35165650239995316	1.116218892357491
Si	16.505740470409098	8.628134549503345	13.581856979765451	14	-0.017565791547251675	-0.24165973170391009	0.3222787959014092
Si	10.080886638859937	2.5577589640586917	11.803730082820703	14	-1.0247325373033218	-0.027280712999431193	0.2496358146280734
Si	14.148213163342893	12.139018044775414	5.525714543758979	14	0.6667431453893121	1.0191486107690244	0.781111309350671
Si	13.2102534856261	5.549839332259469	3.007150390268486	14	-0.33275964962846083	-0.6518698153333194	1.456286651747941
Si	4.3097516272256104	11.252542022789115	0.22135127021247078	14	-0.5878392655508838	0.5943475044477745	-0.5920751615658277
Si	1.1094132660954474	9.361748848244106	4.570233942045487	14	0.06132703253830004	2.034593544324375	0.016371256015510878
Si	16.196907207060825	6.228173448065522	5.474500667093381	14	0.8800250734536837	-0.5033969677423245	-0.2903639226729431
Si	4.702175525076605	1.0933229886550317	3.813224075791779	14	-0.09744052075456794	-0.09567751383654241	0.06028419222044798
Si	10.851645427275665	5.553593348823153	5.957333252178171	14	2.02467499133084	0.801599933425867	0.32631388859084953
Si	13.325248038307668	8.477574940944942	6.021681281742747	14	-0.3989476138850328	-0.141283522894797	0.06085806292790503
Si	10.571191286530103	6.1945671517023175	13.006436219607412	14	-0.673167309142234	-0.4403138702703633	-0.4517565744976822
Si	8.959686480165368	16.23293660993421	13.893365143417814	14	0.114318284518148	0.3764586698707616	-0.051234158604058756
Si	7.3308814781297595	3.887737053516814	5.517518165259964	14	0.3543119399746021	-0.49666478557204874	-0.6203197819497824
Si	14.381330070834222	13.258251268833176	1.6551665042378043	14	0.5042312914187125	3.358252299237798	0.6944858860147738
Si	12.703160404996051	15.939199529047816	12.562580986814266	14	-0.6965952208194234	-0.14894978762788252	0.23209290591817106
Si	10.436049960286823	15.28799210697349	12.297056256017738	14	0.010538189375690931	0.09723868898693631	-1.0111591580971964
Si	13.435726652945297	2.957820061983273	11.849469897005811	14	-0.15833175094110288	0.6337607492319205	1.3723356921660614
Si	15.988492251766406	7.1790694407003715	9.039454427069701	14	-0.6529260253988363	0.8305132983035922	-0.7495142247397751
Si	9.884788324146623	13.071644272130394	12.592727571048226	14	0.47889124871492905	0.07921781179801843	0.19646869904432734
Si	12.138308444083497	7.118925059474308	4.493028078745372	14	-0.5758581718695256	-0.611649500589179	-0.41989389470721517
Si	9.31355813213001	2.4076686075707485	16.25462030665353	14	-0.30038017766864394	-0.8057990626347328	-0.8274343996827148
Si	9.246235992753006	5.9318121526387495	0.5245436985674078	14	-0.9497457364201393	0.993009468531739	-0.6702956416101606
Si	16.15003105075387	8.214154486854625	15.885134169417471	14	0.41137042346039226	0.26738878264263183	-1.0474513381332142
Si	9.005933151987554	10.87089457231235	9.421536794099577	14	-0.28559966451470864	-0.3932186770106788	0.07641350722533292
Si	2.6213990279559884	5.228315007688503	13.894375588642708	14	1.592660391923383	0.8522579073276806	-1.282052100180658
Si	10.539314846231521	1.1243246907734876	9.831939422845277	14	0.19812397664943865	1.2204211629935164	0.20668704291819184
Si	12.611093802781603	14.87196499348081	2.193123944916905	14	0.7015924211196631	0.3575070525559501	-0.05217981114080922
Si	1.629264443958253	0.16245768283275577	14.486074654074274	14	-0.2067610907514121	1.1396827995091625	0.687698682190647
Si	5.821663812977543	11.448749884153022	1.914759365655832	14	0.5191593860180241	-0.6479663632362707	0.6463833336906555
Si	10.109694137917215	15.96459636671492	4.851693622942034	14	-1.2687851967286938	0.6718444754550179	-0.7148328421868296
Si	11.768724205369297	9.827876386625439	11.76323706269172	14	1.234828608765498	0.4026446062248737	-0.19957150894468204
Si	9.108316759653585	10.460524644059364	16.095973866246705	14	-2.1502488036090006	1.0464748323326223	0.8325051335951109
Si	1.0840327786747004	15.441408103570549	6.324684047239938	14	0.8373678650871069	-1.8346733934982813	1.1986634413322952
Si	5.2240099878225745	0.6123428864825471	12.129626463267666	14	0.1539359321752457	-0.4386153980958734	-0.5646872334745463
Si	12.982301620959104	0.5261754531538864	3.1231194176329624	14	0.04296574100499455	0.10867830788787118	-0.39100135578258316
Si	1.3430517464455796	5.792373981652718	12.03358511616371	14	-0.6102577612793828	0.3464240459629198	-0.08112171528758809
Si	4.172837934277177	15.21737048788154	9.175908678095489	14	0.37770488461943735	0.4546884058942471	-0.13451920190801944
Si	0.9798473738600746	8.861282522462753	10.050583092260945	14	0.18992575022561448	-0.5056060614333957	-0.5879968743070089
Si	6.490915366932005	3.645033996586084	9.29121061540858	14	0.955941586020632	0.014022808416087624	0.854990735172466
Si	10.311967940679756	0.21916524227447304	15.672925956968113	14	0.0954777389531669	0.22745231792583578	0.1465753718647258
Si	0.14616629736214276	4.45683517340841	0.7486728756360178	14	1.3826679360056089	0.45706873519964014	0.7597932466991952
Si	1.367201060315607	2.6339004263209334	5.506601105767061	14	0.11467412549445648	0.7647374822298398	-0.2832746139736988
Si	14.317686736887653	1.6072864428045015	15.347843818789755	14	-0.061204647925060994	-0.9024597671456998	-0.1415627449325651
Si	10.52692789959108	6.656976644061954	7.989740815499394	14	0.3913302001530301	-0.3459895291638147	0.19673275156070652
Si	3.033294434194129	8.303616494824322	5.198824068333481	14	0.8656816482041736	-0.8826630275121558	-0.3016873276134072
Si	7.321960783717107	0.6963390070949318	7.7773216848720255	14	-1.485568456018043	-0.2099127516528496	-0.883520491136425
Si	5.8918635957134695	7.956816324409296	1.0321828774257964	14	0.9536407038696316	0.5918951841934174	-1.1323880594948381
Si	8.416662098140078	9.959448454088877	5.585239250648093	14	0.9191799221531548	-0.39118236159712155	0.1874706017554051
Si	15.599895946587704	2.7734792094256395	2.1387806310984825	14	2.77770545970645	0.2265794276696455	-0.2756921672740501
Si	15.510568010638139	6.673411911700513	12.55640549876504	14	0.08737027254714397	0.6094586617458808	0.16814180329012787
Si	1.147885395774645	4.247661566683005	10.342734199250662	14	-0.04789994922489073	-0.9491255858169196	0.32749968236450183
Si	7.7019535892624935	5.245396110058184	10.57410490043101	14	-0.12303818821143021	0.44969969024156375	-1.2876691939735854
Si	13.020791735909295	14.330332017420544	14.546951526337153	14	-0.2868517928056208	0.07578718596934485	-0.4821840632984427
Si	2.6849377203258693	9.91457029788681	1.2335917521560242	14	1.2278179758890504	-1.4792674482099561	-0.5516710127912967
Si	2.670945179493121	1.774112911463981	16.04712096515513	14	-0.5067126651631872	-1.3260647952720166	0.6227294218558252
Si	6.885871917943775	13.222359208029193	3.881726702955797	14	-0.057064139917494525	-0.3744454944050856	-0.5518772154379725
Si	13.86609783756741	0.7448256626680981	6.966651945097639	14	0.5912421234420997	-0.903037237400605	-0.07690844499946144
Si	13.754510676226746	14.993048377905913	7.3421500679193485	14	-0.26784901049493837	-0.3604627952319923	1.335308176008481
Si	10.681877549296471	8.53683313881843	13.335363935729054	14	-0.17816705715444928	-0.9185345747177975	-1.1076206019458517
Si	3.72314729855904	11.011155160690164	12.97254379393295	14	-0.3486783911076256	-0.24903931819379904	0.8770716447724296
Si	9.504717037418722	13.949894485174234	8.115830645359162	14	0.2943766467460982	0.780763438800855	0.658407107720328
Si	2.229913634245916	16.156477952892633	10.258636707110862	14	0.4264476421682726	1.0807191269811425	0.1754314010938117
Si	1.165059694548563	0.9712062686601358	7.201412052347896	14	0.19323630543583717	2.096976272707128	0.6083664562058819
Si	15.263013835613139	6.054540371847415	16.023200554734107	14	-0.35760295478439164	0.5524444012715972	0.3309817302995784
Si	14.444428941577085	8.338584766709106	2.3058360032069674	14	0.8350266165825802	-0.10228499739879095	1.1288188510894086
Si	3.3355663436791385	7.9376374854319485	7.52119834573106	14	-0.06527110809940719	-0.6178330088841352	0.024950263137248973
Si	15.938707386632455	16.170210524808297	15.207220254942806	14	-0.30070619382323877	0.16016392059224038	-0.9539507791712413
Si	4.147727225921329	13.284145153989549	7.836552087326705	14	-1.0187526605497215	-0.17639916513631546	0.30390721994682307
Si	12.460462253139228	13.625816252122227	5.861095702117926	14	-0.5181363432111373	-0.5002170246823653	0.35173543533328167
Si	5.3690742785802215	8.994664562197967	7.862462322729436	14	0.7012216677324978	-0.13660359699106348	0.19742283622863427
Si	7.046208973823963	6.067069565631168	1.516748588624481	14	2.000088025375328	0.4350212499688384	0.8464353822196731
Si	11.836083950312926	4.9448556916624335	14.437027185051045	14	0.838461356179766	-0.17485881593901476	-0.004249522873140745
Si	6.327685952471175	12.758922920198303	7.269214888967812	14	-1.220327574759863	-0.7494124089690973	-0.8428090952761363
Si	12.937629477861144	1.0491789585144176	10.740131842043608	14	-1.7663146450199083	-0.6730374683235667	-0.05481647964662108
Si	10.063728690332375	10.331622571826106	7.420251924719855	14	0.028813605991303476	-0.8358984783966422	-0.408900362579326
Si	15.287897275544617	14.360689519832514	13.673776429762682	14	-0.5335537191528732	0.9828633727173706	0.43105532001251
Si	16.09160998549389	14.833417652668368	0.7838422555510004	14	-0.06738224267778077	-0.9433614247996794	0.7469958270786902
Si	5.042128212317109	16.1415943236334	1.96064469703352	14	-0.5929454807166978	0.527471769518063	-0.168803348689002
Si	10.634376813578662	11.658858724970075	10.899610509990028	14	-0.002374415763156751	-0.42740332201577164	0.24223617351668722
Si	5.438922531019462	8.143925273675254	15.070716953177945	14	0.017623898527487025	-0.5986813595754162	-0.34768851555936864
Si	5.414900749071022	16.073760421545405	14.181507170000671	14	0.3380550981458378	0.4510412929976171	1.0531607346071352
Si	1.418097742201869	1.5359977336611657	2.046274207257019	14	-0.05515817954366876	0.1541575614538425	-1.5240571313290638
Si	3.378928832043864	14.449196673414933	2.1266569234243966	14	-0.7936390200230924	0.39525319265051206	0.5373373577420031
Si	4.928199695698049	4.150653920019321	13.374813810140429	14	-1.0650870637451741	0.6650557289676988	-0.0565445195322926
Si	10.549857485082837	4.192311077688959	0.14917964776583	14	1.5227360974155717	-0.34567816830954484	-0.138991125391353
Si	4.773946566487487	0.6767170764412961	7.863798137856843	14	0.7938663057333937	-1.7070560667116674	-0.7786754441703627
Si	0.34924126219620005	14.759347766619623	10.022604550693991	14	0.10833069444858714	-0.10832503801688281	-0.14129766397405782
Si	15.134600635745969	0.6536844843974857	10.506512981989104	14	1.1868366139701463	0.3393689329644335	0.657971819589627
Si	15.351583120131716	13.116716996264113	3.8305291765365572	14	1.545050977599669	0.37024970763313597	0.4914852939046104
Si	5.359824944215784	10.40603581304836	14.59640775151932	14	-0.26389207940723053	0.23233921780784125	0.09917601684566789
Si	2.0643477695805994	12.710923501966592	12.939449260280734	14	-0.06911259655824044	0.3491561024761091	0.3786430809507594
Si	0.35946016616963755	9.889850360418906	6.771521564968692	14	1.1577620407888476	2.35487330583937	-0.3793100256708058
Si	12.326071403203757	12.331823419872325	9.499605950407368	14	0.6797328836877642	-0.30358711733446464	-0.7001973393729508
Si	14.382530178916863	11.000318217404411	9.38554172674354	14	-0.5320269968137693	-0.3664735252494345	-0.31311357676667734
Si	9.874669156675967	4.849664557369069	11.04483012808807	14	0.34625795255923825	-0.5304845907322124	1.703701802711002
Si	0.9122685356152556	11.19062854490717	1.5491057261659733	14	-1.3782314937756932	0.00471669270981165	0.3853765486736952
Si	1.1035075571111186	11.704392526051077	3.781937879386703	14	-0.8720129950550384	0.06969058103420972	-0.054094770383255504
Si	12.986037652251795	14.50208808535681	9.73571822303139	14	-0.0866105109250402	1.0152428446771873	-0.6942357174671234
Si	6.074641364719326	4.050381129158046	1.727189339442592	14	0.3885824598973878	-1.9527647750737467	0.5947398551196292
Si	12.099649921595827	3.8691484584329725	1.8060400375262715	14	-0.5714099025551376	-0.6913817905617591	0.777638774505279
Si	15.569244139741299	11.923827547390449	7.381389024152712	14	-0.6828637186361085	-0.502748534980583	0.06426657725082534
Si	13.441212160598237	6.666301189559635	1.1019984293723213	14	-0.648404736693356	0.25718997916920044	-0.8222240547514348
Si	11.161011708655193	8.48610486446965	2.683240564753961	14	0.9233913926675573	1.5724592174229794	1.6117032834770595
Si	10.58653108766271	15.239270007852776	9.863567339399225	14	0.9467408856324822	-0.11278770552106385	0.42337774241601583
Si	3.0586013455062675	13.362480819312967	0.093346826504239	14	1.3111582979573941	-0.2730022768881112	-0.3757593292236813
Si	4.171901065160893	4.777949106795802	0.4765213899907945	14	-1.2301952198680592	-1.3597452465238284	-0.10079632741842522
Si	16.397160119373577	12.46679470355349	14.261108344392161	14	1.161120675668557	-0.38814742887721876	-0.7456184859586867
Si	13.790291555355498	10.219806507036436	4.520012525333789	14	-0.9024224861185576	-0.5851663444600579	-0.13698386346791339
Si	13.644121987944084	11.369485524836499	0.8387578279919357	14	-1.5008379934038707	-1.2401060595456341	-0.83214260774497
Si	8.520847502954704	9.085223671698252	12.83242381767381	14	-1.3574518205782564	-1.079304247723465	-1.0055567196045938
Si	16.37089835367416	15.393879572433933	4.407758273941737	14	-0.8555057275680916	-0.8294568311275433	-2.0246788479888207
Si	14.545584645741668	4.730237452899981	4.767530729816803	14	-0.7085716865112052	-0.3944620635435025	0.4947045748759678
Si	2.11118632032093	9.857229983911058	8.293330554840818	14	0.13805498594428708	-0.40227282439558026	-0.06316357306848182
Si	11.750434819793798	8.636432299529776	7.875122318484048	14	0.15092953872439654	0.303089865565548	-0.4441612722714328
Si	6.942146195857019	14.95577472128472	2.3098107480964756	14	1.419219797678962	0.042829472423026704	-0.21310040802876923
Si	10.813089911340045	9.171428710593535	15.48198287493132	14	0.5329736777926477	-0.8744941116889813	0.8397512797188842
Si	5.689615953345101	3.3673266972285827	15.511119013940387	14	-0.4384392773814433	-0.41943983750767705	-0.4743319076507104
Si	4.8870543007394	15.92264326958621	5.640038736339891	14	-0.1952073147742627	0.47829938027023094	0.7168359903417572
Si	8.980258360132375	8.859855145955743	3.321053865012222	14	-0.5337511800414606	1.3478016909801447	0.6270288241721769
Si	5.664701447945543	9.174404455430599	10.232335700820189	14	0.6111476208306862	0.017344162268654914	-0.7135452326424996
Si	13.676016413513658	2.104809724241505	1.3534063574637845	14	-1.5451970163818534	-0.6965358282865279	-0.36587008683079575
Si	4.1534988628855265	8.41059779176608	2.3459529676697293	14	-0.4269706049903907	0.9458047461854163	0.9349189433704411
Si	7.737914321101179	12.73489950322523	8.972549218974812	14	-0.15525773742033386	-0.08065325989825711	2.030503429981084
Si	3.0070310334700765	13.054384952075416	4.096037557086728	14	0.33322810501779176	-0.8610495448593949	-1.5328369417763055
Si	2.5717089942509106	7.671319767687082	11.27009074220462	14	0.22917727248512312	-0.34392673136546	0.41541502923951723
Si	2.528966180223134	8.974414782084203	13.230915291948072	14	-0.7603532334379235	-0.23274211001150844	-0.7500708690415872
Si	2.2524459087511866	4.000661665009523	15.673512930812347	14	-0.7387034982001486	-0.36946500628942675	2.0642782407981453
Si	7.193281074834311	7.213763028446351	13.732405143151405	14	-0.768054465203363	1.031160300603692	-0.29212795803309666
Si	4.237405057142945	4.495331828457143	3.1488988510648324	14	-0.23186304910254982	0.4563426550572304	0.3829522534673276
Si	12.956296554127503	4.108395073283727	6.506729325208979	14	0.5560444629408686	1.0234253873585586	-0.5788164856508881
Si	8.76085440426108	5.765217857477547	14.465022076864358	14	0.16857991963668112	-0.4820783908697846	0.692662972342789
Si	15.352140663532508	9.916223307793553	0.9095805551140825	14	1.3820439287444088	-0.04903920599224834	0.6126314057109435
Si	4.794322243498202	6.9670247307145905	10.607817473395539	14	-0.9290948755992419	-0.17304824357256646	-0.4578927744547477
Si	0.1451411369155275	2.3977472780810176	11.621944773768748	14	-1.245728295549202	0.39480967698278646	0.11746403187734916
Si	6.122761774774085	5.855502282839025	12.154362750981926	14	-0.12774022562091703	0.1745209726999473	0.33722283135370584
Si	7.618667069342025	10.737973609524419	14.18067657748571	14	0.3852991584035588	0.7110666871138769	0.05473471849744036
Si	11.262878648536327	4.811714000548675	9.263590144236856	14	0.7098281856811616	0.2947589701072042	-0.17639582269939924
Si	2.8273794315677736	2.690997121625959	3.577991446421791	14	0.11215058562273114	-1.546336530259743	0.5260016114960022
Si	8.244564310054939	6.761422017793664	3.519182880323135	14	-1.2841699196328638	-1.2345984948393447	0.32188593100849056
Si	7.891063808682611	1.8407859460605949	13.15418195076769	14	0.9935578852965263	0.05567959970259478	-1.2589180658415615
Si	3.0732495312179515	14.292803296956173	5.923928063845162	14	0.9157379834610725	1.1030969992455832	1.4450275244404802
Si	13.315038944482044	11.012392874339428	13.284459078719612	14	0.5708733128748226	0.2058442345942473	-1.0984438128371792
Si	4.634335082890066	4.950877487395901	8.938409904580352	14	-0.026554118635957344	0.715463020100798	0.8098236137923607
Si	5.395182351963877	5.082480620327419	5.1277299271218	14	0.35386199654357614	-0.19266629138636032	-0.6915561115024652
Si	7.848278484014304	2.8797476356262104	7.553576738592817	14	1.1961501858818506	0.46479027869710887	0.02950420488029525
Si	16.383257504895795	10.895230278990853	10.679009716085364	14	-0.7218205922259282	0.6502253363705528	0.974032397274258
Si	14.255052213141342	5.391555867321784	14.135718305076493	14	0.07675726400663672	-1.4107228088169366	-0.966497516023032
Si	0.113542650805023	7.550542132868864	3.590505924983822	14	-1.2509309271645215	-0.17745846052821648	-1.3106440768933647
Si	12.054672028890979	2.008969485167747	6.5787864959311175	14	-1.6484562055864485	0.7558206318690345	-0.5946089858588336
Si	5.28060636558906	14.897983140509501	11.203965440860982	14	-1.4806321909138909	0.43500428067372543	0.3593736750183776
Si	7.433639506437376	9.65975661347908	1.6361822331921112	14	0.6671869181675697	0.4428222406206997	-0.42874929565086917
Si	8.973679020998116	16.17673427310494	2.6581298563981126	14	-0.002197523717130563	-0.36665633083769705	0.41175248971096623
Si	15.548167037161845	8.060347719369622	6.715826085776503	14	-1.6518256391085022	-2.0044596757511757	1.9406692672056418
Si	16.00404460610166	14.292043010500551	7.837318913880871	14	-0.1281186923240428	-0.5413832490737882	-0.6037747192146296
Si	1.8510996814629055	1.122581754511778	12.342714318971057	14	1.1480136949675062	-0.9753081797341155	-0.1883512053275558
Si	7.028460781402897	7.361302746502524	7.270648805573366	14	-0.9783055743163441	-0.17762146860551384	0.2578522958996707
Si	15.710621449945329	10.654847322018252	12.957226883145244	14	-1.3491602630313109	0.599791305742124	-0.23553870126823354
Si	5.011422449657724	1.0333470149664503	16.123903357074585	14	-0.4462330689384081	0.6521333536286347	0.4983414033513173
Si	14.754302080593698	0.6583868152499027	4.748417291824885	14	-1.4063485873357684	-0.89891858378826	-0.12844805091555378
Si	11.119266259655225	7.40977795690324	0.7169550327271036	14	0.023435882103681756	-0.7100089343851679	-0.6424017199918741
Si	15.520551471064028	1.5010866876386317	8.450037856029642	14	-0.24216623945197924	1.085139885468605	-1.6293032707250692
Si	6.769297931464071	1.958048277911949	11.079716648741067	14	0.8122216837244627	-0.043971814516768494	-0.6847974469473919
Si	11.134955956059883	1.431352886923894	4.404270766393683	14	0.05139845223401621	0.5382575563360842	-0.13644161735589416
Si	1.234692123735884	6.341241941726178	1.9368550885833575	14	0.5134386766806947	-0.5327924148675774	0.8726120625946328
Si	12.806574078182603	10.200086474904655	15.347762067557968	14	0.9289557788014218	0.30484670183080514	0.246850793345289
Si	12.359667889419148	10.812262588874354	2.73525396846644	14	-0.08459193613819194	-1.693192923935961	-0.5065571132913185
Si	3.408210488245511	15.084513291054403	14.709445179711897	14	-0.17638630960971471	-0.8989849183055196	-0.15771597121692743
Si	6.661757456096886	2.529594029683262	3.606865981489136	14	-0.4737850335491149	0.11745143346128044	0.11789520623953799
Si	10.922831129866948	12.903934890167609	14.716158590866286	14	0.20125249760299485	0.44897155321489784	0.36966940916237856
Si	7.560015465608401	13.764005264286546	0.39692512067321306	14	0.8221361229494857	0.5292679436947184	0.2679318000862472
Si	10.552646837111427	12.248044757536496	2.901575214513473	14	-0.8284854675375912	0.04746697508897779	-0.7322955324107435
Si	1.847429051155647	7.854691050635716	0.3754621522797228	14	0.522280707876684	0.577721451895037	-1.0083484257612103
Si	14.216835147305321	7.024989624101199	10.61678067844872	14	0.6808659698023535	-1.5515772142338007	-0.4068005408643611
Si	8.258584646306495	1.916976459061909	2.0426084820236676	14	0.0884074564332917	-1.0716762924596497	0.017382471737925117
Si	15.624792466716269	2.6818180933208584	4.404270766393683	14	0.7886855285132952	1.3868498388088295	0.40612819682314233
Si	2.7902790875579706	1.5692345144566917	8.817323250105979	14	-0.12235761663318699	-1.3678010337129165	-0.46438352983546144
Si	9.723157963779558	12.707035413382778	0.5902471635550215	14	-0.5095843326952608	0.171408135488844	-0.21658631262182595
Si	12.284772315929349	0.8363494367034758	14.4077455288494	14	-0.09152132208652304	-0.21201077359409046	0.9019332047761335
Si	3.303864851016582	3.3587640732111597	10.079197658411205	14	-0.5693573891780633	1.196559248738286	-0.39928725689782435
Si	6.393920800465407	12.88187513778207	11.107613439076234	14	1.7506419583198816	1.106220892209563	-1.2617817629471424
Si	6.231026566054907	10.569490860908923	6.144559923217903	14	-0.6974431713540082	0.427636007047245	0.6602518757875343
Si	11.074164105078061	12.362090995929329	7.360629116352595	14	1.1075750933816852	1.2877257582906287	0.40896978242297005
Si	1.2888817452385464	15.705572493870132	2.409243136294976	14	0.005950051931886685	0.05408834261995514	0.11781910152206163
Si	8.775653012239253	11.937777577582667	4.343457660091597	14	-0.04811952161923137	0.1650204814314681	-0.24036286618042735
Si	3.208072027657261	7.408626899559672	14.726684879471245	14	0.3626639184965711	-0.32875361042913803	0.717024195251192
Si	3.0838771913503265	11.726692627058071	9.3454394775025	14	0.9982771491116581	0.7139149575875369	-0.48731136152788196
Si	13.427023416809199	4.688506719121735	10.30251749828512	14	0.4014775815200585	0.44084968861908214	-1.4029624416291335
Si	3.231073554232992	6.582192252247385	3.3569181303973976	14	-1.1956868727031598	0.13734124710741397	0.2998358746723686
Si	4.844058057893082	11.309180911196131	11.02561858861801	14	-1.4597884971939823	-1.8084756300596965	-1.4988335596962832
Si	8.597597194381443	15.532348173810965	6.640559361694388	14	0.8455177547309123	0.027795448284524838	-0.5371933758440749
Si	10.496578572302289	14.918783923925513	1.2135250948014646	14	-0.3410134119272002	1.6895928622666896	-0.9041888354734995
Si	14.78308178423217	3.9418105882703385	8.250149554210662	14	-0.6518320200851132	-0.22689747339774785	0.755224392545292
Si	8.227215063644996	0.5801492514046296	9.768536437520163	14	-0.5804969600881369	-0.3176639189622754	1.9593779150676995
Si	6.413817415257848	7.148172380158604	4.986957576032996	14	0.6270771609521956	0.41244385993155414	-0.23861374323113063
Si	13.016915092497934	8.82650554846035	9.872839564108563	14	-0.03769806042507517	1.8684595171787513	0.30664339022852466
Si	8.519995655119477	7.084206946358793	9.062511544483048	14	-0.8675742388303347	-0.24971757577725412	0.8029831880881066
Si	15.151716073633	3.0667731986357456	13.613468546073042	14	-0.5751254068532836	0.9407388973731284	-0.4532262182986789
Si	7.661743428395494	12.76326881568013	12.98942542329707	14	0.025421803852964133	0.6530268127273862	1.577436877322786
Si	3.974741619458979	5.387760975142208	6.776328537397796	14	-1.101843071180947	0.7646613775123635	1.0118806102500297
Si	10.357370939789897	2.9363848890085906	8.183666182471795	14	-0.031931071191983025	-1.3704472153084128	-0.4908574299854302
Si	8.025188149602453	9.014386229354384	10.399065703026158	14	-0.09227722705064657	-0.047781678380163915	0.6492496019015566
Si	9.239257707607623	4.901933024924725	4.572596552644145	14	-0.8447754766249855	-0.8238091411813061	-1.2865523058225132
Si	3.7901522431567107	2.5241886382374723	12.124152400787176	14	0.016379740663067365	-0.9260105776571922	0.47975411166037074
Si	11.229308322715106	14.226370610981016	3.89754883635595	14	0.7924216016540024	-0.3789323302992761	1.2688461319247812
Si	5.1734043403214764	9.1891540126697	4.438717465419664	14	-0.6970163678708636	-0.9588443639270793	-0.16254296434497342
H	6.153176503048305	6.032294226653401	7.7377083079970745	1	0.1281981394784354	0.2718771612000144	-0.0700322809312574
H	4.378831418086048	6.1460461606118	0.028287561223110755	1	0.34503487775844377	0.8524476549003075	-0.13500025571341914
H	11.321821286655114	11.449714548688114	14.912657486615357	1	0.1677391681969927	0.16213647259385802	-0.24314531635789158
H	15.018450120646925	9.68440133981374	3.8359705385243332	1	0.38292988485104223	0.23716646804641925	0.03493206532165986
H	2.8212922348488765	7.042343775585049	8.735653769550266	1	0.08717846809026092	0.4578930315652796	-0.6178600054899966
H	4.070437976364791	14.535939635415378	12.194724969140053	1	0.9649605092626474	0.05856489409286496	-0.8969833128137844
H	13.048842218560225	12.75631669092892	13.577229860046279	1	0.1333534627558643	-1.0542915067269363	-0.4841131636201497
H	10.831274655338856	11.133706797238169	4.900497473294536	1	0.789463802093704	-0.6189900062782018	0.20447332123754433
H	8.198216266705334	15.694648894278687	10.423035164186253	1	-0.052048427658949646	0.24455196807854462	-0.1748914689765806
H	13.731154349305056	8.97303482129163	15.449035493496323	1	-0.03794334387261729	-0.027529595994421525	0.038499216842833306
H	2.835603605485596	14.184329222521976	13.173442540976822	1	-0.16473123208295146	-0.3364864667900155	0.550738472891679
H	5.65061080563465	2.0948229937663436	1.0628444944200162	1	-0.0013984241836285402	0.10539603483617012	-0.11267997620814964
H	7.760214422108173	8.810304089344704	6.930689578234318	1	0.45044659633706685	-0.00576210413298386	-0.46514277723650116
H	11.53664553852167	10.740694290518306	4.707729703764247	1	-0.8905007849700951	0.2551456933291507	0.6839757216870725
H	6.654772630852962	12.66631348980479	1.0521432581790324	1	-0.5289691812565172	-0.6920700754559628	-0.11470060787925401
