236
config_type=amorph sigma="0.01 0.1 2.429336211372122 0" dft_energy=-23394.609143693906 dft_virial="41.492297853769 -10.980879683122241 11.647244209681702 -10.980879683122243 97.68096244784027 13.77961069467197 11.647244209681702 13.77961069467197 50.57504827941884" pbc="T T T" Lattice="16.340456583 0.0 0.0 0.08532986427642601 16.528061365029426 0.0 0.14668827874559104 -0.063629737934202 16.286336990797107" Properties=species:S:1:pos:R:3:Z:I:1:dft_force:R:3
Si	7.735872810793328	3.1917062182571088	14.770785787454388	14	0.21054447223000997	1.190812828347755	0.34594813436816035
Si	7.300363693851895	14.640460841931013	13.841716447514758	14	0.11899178265858117	-0.7302988120191165	1.0213001117009242
Si	12.041633775829236	2.9641065346951345	13.275570282329214	14	-0.029528887491368675	-0.4776609748192382	-0.26835140447449535
Si	10.446257808032904	2.7639097968228516	3.4805221543159752	14	-1.7747758955179838	1.0009683250502572	0.15659625485000292
Si	1.5275761453421473	12.125077951415983	10.481370181138455	14	-0.4235376651669291	-0.8091607828408264	-2.272179102537979
Si	0.9023167444219435	12.847058148896622	16.039395108777835	14	-0.6072811926502475	0.43505518855906433	-0.5432503857572797
Si	6.870933226759339	14.186717409488612	5.609440174277789	14	-0.7169354921176468	0.8885395458318861	-0.21927774567095695
Si	1.8383912380987066	4.757262486835122	6.517387840038234	14	-0.005891430730587308	0.8401055780320008	1.75307653794753
Si	15.283912073165071	15.146024764335085	11.006833511569303	14	-0.2882808131425591	-1.8851164229953306	0.039555684018882147
Si	5.303617091007336	12.114691957211829	2.927438550122883	14	-0.6682297584854217	-0.5004929042832171	0.6166736974952804
Si	0.5052452835007017	4.8497739817797765	8.804805020763832	14	-0.32095801909844907	0.6066116768248809	-2.2197756052343167
Si	0.25713832692706295	8.334909046989132	13.78966392306961	14	-0.9752050784107774	-0.2775302504674239	-0.02638211169003944
Si	10.161059649061514	2.6325096492563156	11.89943912264397	14	-0.7709749837365191	-0.6482934078329935	0.7313462803265448
Si	14.193590205527421	12.088491669126647	5.4454865691066	14	-0.4751839719538075	-0.43440701290785505	-0.045039851666758
Si	12.265249656076273	5.704891317361725	3.321485392530611	14	-0.7650311024574008	-0.36759478427955106	0.3851844871062801
Si	4.330253675408167	11.573726435620689	0.03873668637565981	14	0.7375524143483182	1.626831410070279	-0.9303112655262038
Si	1.439538667409918	9.986940645850042	4.7197497006575295	14	1.163395846766356	0.27320950797691507	0.8305055849876317
Si	0.14457382366375082	6.212721661093857	5.9640591289963965	14	0.24274319548582043	0.33507467285872217	-1.3755485453741187
Si	4.758478216804897	1.0281055791978775	3.7153720984638263	14	-0.43527758916925724	0.5552422780809824	-0.6052050251042279
Si	9.089800558073593	6.62954546593263	6.051892351221338	14	0.537612208900727	-0.42271491146448165	0.9248466382787612
Si	13.602627788929276	8.013990649927305	6.317408430238505	14	-0.46825998532664875	1.298220238875877	-1.150739837938459
Si	10.500364327870535	6.123391653045913	13.225962290188885	14	-0.8181413966135717	-0.36062580330928967	-0.23665070431919755
Si	9.013861554195415	16.391348935027754	13.709747652059134	14	-1.0357906041747467	-0.5898920360384899	-0.029837163019254424
Si	7.248275220402266	3.7272761210845418	5.833882881627927	14	0.6954189401354556	-0.505249706236023	-2.0879005280375376
Si	14.187921701138778	13.612435330970394	2.0470801112571744	14	-0.07417870248106022	-0.5442531168321375	-1.0776327721548367
Si	12.379080544724768	16.20021951651338	12.711215031185167	14	0.3075921280916593	0.6656265143487717	-0.992679595719164
Si	10.332230833905415	15.215172674457365	12.21798325136429	14	0.7641337867006692	-0.07098616100503234	0.823391336566782
Si	13.673664655832553	2.942362289120137	11.497295583999366	14	-0.6438677642454227	0.5584548741785074	-0.6124617127598138
Si	16.098902149516146	7.0243014841560605	9.224797240134047	14	-0.7874241442432306	-0.8275472712062693	0.8663809888512538
Si	10.301512409575032	12.946096022200527	12.70131271449587	14	0.869040025973351	0.5725224198271656	-0.40887285175240046
Si	9.907911661632019	8.391505852410011	4.8967495263645855	14	-0.20071616503321196	1.1203257188853637	-1.237463734608118
Si	8.751736119919222	2.302700409767677	0.27244443260835904	14	1.0349007446234435	0.7919621451332919	-0.029925866152799536
Si	9.344036819911516	5.6814166174345875	0.5603256945506782	14	-0.718015356352109	1.2042897911043753	0.7216627263592711
Si	16.299383211332973	7.976608587402375	16.143302438143472	14	-0.5326700302543385	-0.8916171589001034	-1.0167767661111877
Si	9.17657001657498	10.708089114090606	9.289356750047821	14	0.1620444270233967	-0.41467429379678256	1.367169313135756
Si	2.477897883113628	5.0412171370605465	14.2498030102186	14	-0.3625950128739911	1.0180612903291337	-0.6399427148636845
Si	10.47874263571991	1.4242668766874462	9.937602271243332	14	1.402190595812025	-0.4222256301220575	0.22253867854850082
Si	12.392723191925915	14.882374765459696	2.603892607642508	14	-0.3138627968569685	0.8511019383757419	-0.15717398221544018
Si	1.423672084067825	16.23562765188308	14.240975895572463	14	-0.8483277157353021	0.7632925210399167	1.6040079652538564
Si	6.682485277170233	12.139602983272614	0.8200654221657547	14	-1.021366446218184	-0.45695869189193783	0.12363956974581283
Si	9.706245916712927	15.962622741613925	4.662406136370808	14	0.3738821652294412	-0.3368489926401563	1.047479877402268
Si	11.932330827699891	9.722607615889483	12.067546471878558	14	-0.09107934908198959	0.6373872932859894	-1.5841780583616825
Si	9.778858003630802	9.927637860819019	0.9757883393560864	14	-0.18468583758315274	-0.9659156748890826	-0.9404581326721683
Si	1.150895940190831	15.323929851336839	6.168126921033192	14	1.292211051521627	-1.5582921699984316	-0.17225300069704466
Si	4.885588994518397	0.7943569818237208	13.735985523194456	14	-0.05274416875858172	1.2710914782008664	0.08720983557516673
Si	12.923578873029154	0.5478759006800904	3.194029831183211	14	1.4479112761675583	-0.49663881740831517	-0.5502738741603282
Si	1.2170960319455388	5.435917597731596	12.060136074818166	14	-0.31696457831519514	-0.10734313289511827	1.1808204846315316
Si	4.416996989179022	14.92360500550992	8.984785345751625	14	-0.34121472947376774	-0.8965806777206492	-0.8869657722654235
Si	1.3170800176855995	8.46131064888693	10.000923174548115	14	1.1533960468447042	-0.2623491591046096	0.5409908984019335
Si	6.743064251860389	3.6350113670342905	9.422237342980779	14	0.8697092846881855	1.1467641377819142	-0.3888652814826041
Si	10.117564621728885	0.45694125979569544	15.658294810120818	14	0.34733575990944426	-0.822644173360747	0.7181778502083423
Si	16.225730237330758	4.693528169978789	1.187792691155245	14	1.5108331653359464	1.9920054986909106	-1.2805225496257018
Si	1.6405883771158334	2.723779269500662	5.561770160288203	14	-0.6217521447236368	-1.4912621687495111	-1.1512604867657892
Si	14.096299127032239	1.4271084820872297	15.584632031844652	14	1.8325224067874453	0.9449773644933926	0.5108565156076701
Si	10.468248794502307	6.916027984791444	8.043906757839462	14	0.3791423896039322	-1.596412663027607	-0.08842365439680863
Si	3.744629685975688	9.053369510121794	4.78743677396129	14	-1.9189961349094538	0.4071849211097232	1.4215265933721988
Si	7.329186625218649	0.29349257473292134	8.043043981731879	14	-0.6212793184552616	1.4112316305597938	-0.6006515975822456
Si	6.254906183808529	8.964176761909147	1.0325289407948954	14	1.9808003645951733	-1.3695190462878393	-1.442194423488209
Si	9.290355151945043	10.516670469494711	5.7122396206871	14	-0.7061584470577142	-0.09060498015042226	-1.7876903004305555
Si	15.755118551557725	3.1034726548458833	2.521713183395284	14	-0.23477508298814953	-2.2821040832948145	1.2936063903788713
Si	15.286546154766251	6.490932640830357	12.780155417508844	14	1.5743533507123324	0.2528970046161493	-0.4105556401844373
Si	1.0430963140671217	3.591560458934435	10.521809543090065	14	1.3404928098865598	0.4616825836966459	1.1317622524599142
Si	7.768640328379218	5.294989329931512	10.78087604389392	14	-0.384886238889143	0.03363082891913292	-1.0585592844478502
Si	13.565793131699877	13.018435223493467	14.263352516817223	14	1.15287359824365	-1.493834559622319	0.6434551018415389
Si	2.481190485115102	9.966667041367513	0.6146577126891531	14	-0.9331577362261398	0.7236843864725035	1.7169046856404946
Si	2.3526074322634756	1.3385905947314605	15.960895555353103	14	-2.075162500949928	0.714717913779019	0.4062292412622242
Si	7.198783245503676	13.298234495609835	3.4561421930941396	14	0.4662303547869239	0.9857484099971087	0.12250365541537142
Si	13.9743780783295	0.6653703196944937	6.892935651548348	14	0.2869870329454606	0.18839054323895407	0.46621698503925907
Si	14.007140693778416	14.95746896773253	7.373691492768107	14	-0.5367866269824274	-0.414716459924033	0.569197980648214
Si	10.521389593355881	8.487538715748304	13.406592965348684	14	-0.5265145470073719	-0.38885036907174725	0.5173968933210628
Si	3.7524763732268442	10.424694941525978	12.657894487309182	14	-0.06286378218815256	1.0869136910289754	-0.169411672207749
Si	9.481540128011801	13.999333223623058	8.63534631576983	14	-0.4757853534881901	0.6351368047992637	-0.9882840340638388
Si	2.282232353851811	16.123180799907168	10.35526597555047	14	-0.3842830575810362	-1.3708768470074095	-0.7444350061798226
Si	1.2926183541808485	0.8816803818032728	6.999431309236734	14	1.4718981461413478	1.5461182434180625	1.6249686442658315
Si	14.655920547904191	6.066139595316056	0.22198346863439672	14	0.17744946165959596	1.82148979385869	1.2555257494821581
Si	14.575228105206019	8.559943278867575	2.768694282510354	14	-0.3258271783537456	0.4410975431719444	0.6087672915252931
Si	3.925745672696001	7.967689966199375	7.020977835287078	14	-0.942727390227731	1.117938190485074	-1.0111627576446445
Si	15.356452262073983	16.0472140172528	14.912299043600143	14	0.7189296414039537	-0.8902683570491537	0.0046583286190442896
Si	4.242446597913758	12.948272571017384	7.558426890621556	14	0.25210201885115946	1.1069886242581592	-0.7238401954549046
Si	12.475283348811523	13.612242513582714	6.140488672768706	14	0.29592316659616724	-0.492850293719077	-0.5295962738441014
Si	5.919975845226779	8.692202934450378	7.738961157087515	14	1.471206004589164	0.9812021815700229	-0.14781104508158896
Si	7.15598595566714	6.604704703835153	0.23529440456690853	14	0.36688104544267797	0.6471700919186208	0.3762727789561149
Si	11.897015832932711	4.867308925738994	14.579698854127129	14	0.8589350678441051	-0.09145910133777545	-0.2613744530777415
Si	6.504134095703763	12.365437897523622	7.0143664865535955	14	-1.2545916669193484	0.8511471898293765	0.07979399650026361
Si	12.843925683369662	0.906753178384228	10.539610836491585	14	-0.315295416741355	-0.3825732725431378	0.7969266923959658
Si	10.65421789682777	10.428043101079837	7.4815074593484	14	-0.616128108946345	0.8846569196879305	0.7033140332420343
Si	14.180517840261022	14.866637271724608	13.120963418323502	14	0.9682885479890472	0.9050545266347932	-0.1691198517539122
Si	15.620268933606518	14.811264366501796	0.562307791934196	14	1.1520081641928883	-0.7773518391515504	-0.10780773162646903
Si	4.809399981654501	16.37664579219437	1.693877874124313	14	-0.9190955898986539	0.22932433970943558	0.19432259743359973
Si	10.86861449147068	11.597402123163796	10.908431282026479	14	0.6955215272377295	-0.8778167510942086	0.01022477163716488
Si	5.475585690132486	8.207314591760777	15.295402682234236	14	-0.489951115360078	0.9592110035457324	-0.17675937699166822
Si	5.171136839260663	15.227588153369128	12.944711985527945	14	-0.10678340326692203	-0.6494948853490986	0.14351704208640964
Si	1.1130089575574873	1.5381516888426647	2.0376336933065424	14	0.7363589072587055	1.0820753850375207	-1.189839922094611
Si	2.8847883243955943	14.831534702893007	1.931267125225162	14	1.3346124349088493	0.32598093045189036	-1.4413888961914068
Si	4.414978942791022	4.257599103303174	13.231776224641116	14	0.4858476312691216	-1.1913864419446802	0.7881257988850989
Si	10.682104520032318	3.954050611589074	0.15028481323950932	14	0.7120383078143608	-1.1185724821675544	0.9587281499666084
Si	4.98687694869378	0.11180467203220261	7.585511197407878	14	0.45169075420148647	0.3696380416774728	0.0544922632657504
Si	0.7429204925917534	14.163195322237382	9.79371147866475	14	0.04035041267333992	1.2067827348227909	0.11765737899742432
Si	15.381010334272574	0.7427668922998732	10.352708694095229	14	-1.0354419622933348	0.9520455901290118	0.2125121391315193
Si	15.501781014831868	13.168907951983682	3.890579376083727	14	-0.30109751605296525	0.2133456914763113	0.4774460304144738
Si	5.274153613742529	10.612553000632438	14.379278251999658	14	0.11151295150333441	-1.150788688939542	-0.2723551296790299
Si	2.6579566422930214	12.549349736365288	12.27143451889294	14	0.21318268339901394	0.0844608097668644	3.5826306036428646
Si	0.7822013161716271	10.070559664322227	6.981777079944461	14	-0.5001661167970264	-1.3499120542269223	-0.30374112654314156
Si	12.810071525421002	12.177271003787743	9.631744873014053	14	-1.2081801305642912	0.4356835666993085	0.36114876613140784
Si	14.476139576486707	10.675579775718726	9.119669278661657	14	0.21864345398847645	-0.38747045684642384	0.5939489831231517
Si	9.894182410010984	4.767231799396411	11.19940252430864	14	0.9861099074051215	0.7537974290926098	1.1256517635560503
Si	0.47595664912133256	11.197196562669935	1.2622349092104181	14	1.808793161566735	0.6172761074717911	0.18098010348522328
Si	1.0315762921761067	11.894216712720043	3.4876237167469473	14	0.9268364166860237	0.1573776137567959	-1.0489106975129305
Si	13.4661898785982	14.34696990124375	9.59101301688961	14	0.509639611459644	1.2628891380085303	0.36747599921376023
Si	5.3296621447549795	5.221331453792322	0.6009774824378655	14	1.8543780875613642	-1.5899789861850004	-0.913350455060783
Si	12.129697398491999	3.6925624551196163	2.239534740800432	14	-0.6320252531408206	-0.21333772104981885	-1.651680114547382
Si	15.50491184631317	11.759461869417017	7.295255667124049	14	0.6306453409154971	-0.18927526057961702	0.002479059749686778
Si	12.97125869129269	7.119556541761001	1.7742990652432058	14	2.060176556480913	-0.08795519900747766	-0.4933321188560728
Si	9.092073515584289	8.260175968806783	2.577997886095428	14	1.077010564667361	0.4626794012292673	1.5096208891774965
Si	9.663847334017015	15.844286789085498	10.189943040117626	14	-0.8748219276173002	-0.2783979985129739	-0.795366288577168
Si	3.169877002307879	13.484680739267523	16.123252697916133	14	-0.4446446400716206	0.5176154372732753	-0.2881075206439811
Si	3.1565742366036584	4.616252516752124	3.2327583473305794	14	0.30277721915861805	0.43167881305264594	0.1409518503084979
Si	0.6345293419397394	12.073940492539485	13.687500120421378	14	1.2914464047994147	-0.48242343320374836	0.6302213656482046
Si	13.81689529396518	9.864689519924326	4.6628783755660566	14	-0.5890906225101997	-0.7233707116234454	-0.08623461532723455
Si	12.72978432604609	11.737163682363857	1.5723522644708838	14	0.720686991890275	0.7427298491315005	-0.20452371490181925
Si	8.17011390830392	8.900105831647203	12.87940408270267	14	0.7737425215031265	-0.7276611150711765	1.4110686224824964
Si	16.30095516325626	15.303246101394077	4.266127187593842	14	0.011347573330473548	0.3163778520811373	-0.7178122390318173
Si	14.912503299307431	4.524654453330459	5.919044439201548	14	-1.6214696270356421	1.0848105268770942	-0.18399241047830875
Si	2.6720323115936178	9.390502542250934	8.34241912083468	14	-1.48694245470113	-0.5424667128556985	-0.758280665439352
Si	12.001401937676231	8.66892105191092	7.8642532419833255	14	0.11112754281584424	-1.037339180909072	0.6850720409955837
Si	6.698562652402247	15.160423974676023	1.9614626549448877	14	2.1639458529810254	0.2050459063923413	0.6680873192506855
Si	11.420399029365425	8.914217449952282	15.634191002615234	14	-1.016468747693834	-0.5837324390230112	0.08644467463189065
Si	5.526615301995537	3.379003799702771	15.400888499705793	14	-0.6034335335386459	0.8083573124282801	-0.8722078848383056
Si	4.851195601502498	15.939483021046739	5.377245554324675	14	0.26611351440383846	-1.769592804303097	0.7953544614926953
Si	6.900194082362517	8.455916664168882	3.2549241766854187	14	-0.1872500009189364	0.0552527962194502	-0.45257855686853354
Si	5.9699547657315435	8.753906132553444	10.106686779781583	14	-0.3467981417870013	0.777171347558076	-1.1817548243048734
Si	13.857953959221284	2.15833410990253	1.6371029577266796	14	-0.8716496978733014	-0.42787486273148684	-0.044794311108683864
Si	4.586091301991222	10.11083235361669	1.8143152093693145	14	-2.313227827416271	0.6871518080890515	1.0432910326146827
Si	7.652444975663163	12.44841963818907	8.9872119035542	14	2.06322228784316	0.3759007400162894	-1.4616520343300257
Si	3.159530225199523	13.23071572900888	3.5537126933968906	14	-0.21946003703815548	-1.3415222804567468	-0.8639410099024335
Si	2.6532228120209265	7.220522588941699	11.610551288576136	14	-1.1973961435199945	-0.22748317118967754	-1.7593335798546423
Si	2.5894966653928844	8.469895924775638	13.40871068852184	14	-0.677313473581505	1.5373057799332548	-0.17547588121585028
Si	1.1908352841709995	3.5298621629683438	15.648913753996517	14	0.6128414650155998	-0.2243441087043088	-0.19389270862407096
Si	6.8498278930367364	7.065936967529544	13.85653560758988	14	0.10426294872158087	1.3356344492736079	-0.7729321091062158
Si	5.552745326117412	4.628287263025504	2.7541676166080675	14	-0.8529474777745442	-0.6010596319965531	-0.34350121343497547
Si	13.008376038420973	5.929061139086927	5.466153978592779	14	0.149669697117524	-0.7137239244622499	0.9050550408558573
Si	8.384513771038145	5.570399555409685	14.489993015577776	14	1.8010672471902218	-1.6991604593840246	0.3476514916427585
Si	15.109049579179072	9.802752653292124	0.8825447919565135	14	-0.3752996155924388	-0.6231531400125855	0.24041634517108643
Si	4.655157509830589	6.921528182477282	10.57048939729648	14	0.13879263606063755	-0.305467623765621	0.20097096157043864
Si	15.985028775680536	2.5564448238624506	11.997418134361295	14	-0.3666262489054513	-0.7149989355905112	0.6800486154210784
Si	5.922315798609465	5.825062303164423	12.121373569908618	14	-0.10861248759167537	-0.4208837702554722	0.9149342559379942
Si	7.57408104802807	10.828683317718804	14.030213418473611	14	-0.8876242323379134	-0.6668161647804043	-0.5437887752113186
Si	11.216059985749352	4.660499205087571	9.281930012530848	14	-0.2750869290816872	2.1418091503956145	-0.5657614412773042
Si	2.7856736509457494	2.3421985614201044	3.4377215963881236	14	-0.40932562339927847	-0.7101246341245746	0.9540448816259587
Si	8.6049824793473	6.049897181472554	3.1652673595058145	14	-0.5645476224556623	-0.2786828769824463	-1.365691698908267
Si	7.94288515310638	1.8834075619392134	12.906390346749495	14	1.0962303482670637	0.0791478777333104	-1.0408523392185223
Si	3.210206883200381	14.113941918004905	5.614213221645683	14	0.3831882809357171	1.204108785289837	1.5522678131227925
Si	13.56708075967862	10.669373670308504	13.432440299571672	14	-0.36649563675518776	1.0496141519285231	0.45085488786190636
Si	4.74608561453235	4.985501082249491	9.287613223330416	14	-0.8382685232807549	-1.0211201343285141	-0.9413202242860138
Si	6.014255377573714	5.625989788705051	6.023749182848436	14	-1.885471235529511	-1.088059118449101	-0.8525433000182171
Si	8.059173646424957	2.647059191797819	7.684825224428036	14	0.061938441383431256	-0.6037783187620778	0.5817262055416996
Si	16.320545736653617	10.23948893852294	10.532282141714107	14	-0.10846002104619058	1.4588464442046802	0.9835945950704207
Si	14.345848945922157	5.195134433798457	14.48474936306029	14	-1.0090104853811486	-0.7699234016605785	-0.8744082367712882
Si	16.339716360316793	7.267058575244425	3.7864449143715846	14	-0.010643347583284987	-0.007532053035373798	0.27963315750877304
Si	12.095962525876395	2.093588318783709	6.680985223255913	14	-0.09024991050570981	-1.6149567601491752	-0.8122900751259786
Si	5.880917251856434	14.63750321928949	10.740828852900306	14	-0.6080851772838578	1.185061265746584	0.5939345849333587
Si	7.980428986151481	10.305896554076252	16.167535335256062	14	-0.311979976431024	-0.595188512997995	1.2727621824378987
Si	8.823879235733166	16.45316978441822	2.6207984440232797	14	-1.0079308782572183	-1.76645014227028	-0.6561615043337107
Si	15.66814483734905	7.946600972933354	7.206755754270521	14	1.183049890054632	1.465237697809504	0.12747411622028168
Si	16.190263276317356	14.033006002503646	7.593524557316181	14	-0.25050330556309136	-0.08114511234600144	0.6076915410593431
Si	1.1162443679609213	0.5805731543026734	12.168831157962625	14	-0.3661400528894113	1.1582919455953302	-0.8159644417390022
Si	7.1668605295231265	6.797798245230806	7.415042652197047	14	1.7153864479489473	1.2307487788434872	1.0955106958879544
Si	15.687782798070499	10.27333165815199	12.852043622200096	14	1.48617292287881	-0.2485214975823212	-0.23106703489543196
Si	4.623839390743611	1.3749301361263944	16.129068266414023	14	0.22096207676618598	-0.9181617644463761	-0.6153148683335821
Si	14.738194746799596	0.48703221059328994	4.6977799567816865	14	-0.42631625868641304	0.8795054530684819	0.10525179582770983
Si	10.835706445958177	7.461382553020777	1.1332188342593414	14	-0.5342209209834516	-0.09981442229666065	-1.533472776121978
Si	15.749379783205775	1.572185591813737	8.212095809356963	14	-0.6376199783174629	-0.4703076136036146	-0.3472473138864312
Si	6.564299656842368	1.9012088553407336	10.87535329576551	14	-0.3006285464425702	1.347947215541265	1.2992669358517095
Si	11.303303317491647	1.042012941795669	4.626836230480934	14	-0.9973806046865227	0.20186981999036238	1.9246715927931486
Si	1.4785237287256394	6.215489734439018	2.399792134692546	14	0.8135918257495696	-0.5937610353242488	-0.8838776176653935
Si	13.465416975001824	9.963800925282856	15.697381182267353	14	-0.0074901440186553835	0.2249526893335878	-0.07624278583207508
Si	11.929675503505154	10.462856443829915	3.284075551229491	14	0.6101096656129423	-0.3763185446308135	1.0370381044760826
Si	2.9669497741405766	14.593151952031912	13.813767730575194	14	1.4473201790544563	-2.103361355659184	0.18464290012430623
Si	6.338245780473146	2.7722483318171567	3.7321782580594416	14	0.541328484530469	-0.7071730052170445	1.4509346389135205
Si	11.283343449775513	12.832162188675559	14.826209348092608	14	-0.42949620174637226	-0.88815722247078	0.26851904054136894
Si	7.296290018025753	14.152322382427055	0.008508475742768102	14	0.8525849519244034	0.34167829976299047	-1.593584704285976
Si	10.374555884546702	11.908864298001044	1.7314658264021878	14	0.6309281625007134	0.47703799600016633	-0.005638176856552723
Si	1.944867287239193	7.758906318392724	0.6376879521972334	14	-0.10303190349429397	-1.1387582300360373	0.6394182093783743
Si	14.127332922174672	6.854051901063442	10.729166669037017	14	1.0472227668702534	0.8625546699138097	-0.6914530101791272
Si	8.209510749125533	2.125713656425887	2.60018005590685	14	1.7826259942814597	0.5513267417889288	-0.9817799089354601
Si	15.667128460949588	2.726316942408002	4.819390536809347	14	0.8380075560907599	-0.8103198371191492	-1.0740139414167282
Si	3.159812915098409	1.0412465743819261	8.816498251494627	14	-0.6420317379363049	0.6296742344360772	-1.195618481301644
Si	9.660334135851672	13.549910207901203	0.3589638821240274	14	-1.566753677607039	-1.155268582849368	-2.1132529120468577
Si	12.141790970409076	1.0380373087090249	14.622141556055812	14	-1.2204643575628946	0.16995443254083228	-1.048696010218698
Si	3.3444764149428923	3.071571181458893	10.18777629557472	14	-0.5782824670758933	-0.10171446912825009	0.004768114816214613
Si	6.545481987041386	12.4755938174866	10.84385543165612	14	-0.09340337118087143	-0.5004373684083019	2.111988956671473
Si	6.995574961483146	10.301316324096037	6.218321535564852	14	-0.5691768975845889	-0.5853182967844786	0.25438798859130307
Si	11.271581589127068	12.615136414568445	7.824237097857217	14	0.714576760096943	0.2118937883020237	0.7102040812789672
Si	0.8818356161408113	15.905084725893866	2.167452084675844	14	-1.4628213730296291	-1.742019756628765	0.06494226372896025
Si	9.480471462151273	12.296807979875023	3.7541332955243605	14	-0.2813820233475378	-0.22336297491414023	1.60007545966669
Si	3.3938311300061854	7.2709574081851285	15.081692386767813	14	-0.3796329564990164	-2.085750826879362	0.4833387466977212
Si	3.364498376394042	11.42182555122512	8.962619516396787	14	-0.5173267021458227	0.2973673564544944	1.4846945373197247
Si	13.468606632126827	4.880815947150502	9.785796161495945	14	0.20232207741617644	-2.3382176855754504	0.09442924220361051
Si	3.6738526323320815	7.372912052989099	3.3276261361145028	14	-0.7619380627572626	-0.7551614004649484	-0.30906717121382826
Si	4.943761019953877	10.757134994524481	10.615928938962485	14	-0.5050442749209433	-0.0003416998970476797	0.3710344089768452
Si	8.555644104740589	15.38233881339277	6.658997504877829	14	0.6475143629209886	-0.7223088451262243	0.3274945401538616
Si	10.515559318447066	15.285792859717775	1.241330563103786	14	0.31091656727061073	3.5258240884784486	0.2700179949430153
Si	14.873812366210203	3.7306798381907806	8.042326635687886	14	0.016266354918448835	0.9742031186675156	1.5830832817163634
Si	7.347126812501125	16.460266444712214	10.32249682391892	14	1.5930177755628836	-2.5888508319572088	-0.8005226402967249
Si	5.7352192047797725	6.538418007660555	3.8502870782413656	14	1.2945325025151888	0.3181390592254388	1.3210364845974032
Si	13.026275374561992	8.876149088250868	9.966851688526901	14	0.21900289451223318	-0.14641544911381257	0.7245156248225074
Si	8.604415465503868	7.150170387169251	9.362547289128736	14	-0.5138402833317018	-2.5129304627322804	-0.6072901915188681
Si	15.540780782558514	3.12307466656285	14.430255574401643	14	-0.4793015971240247	-0.23920072657572042	-0.13657582905360588
Si	8.121615433165577	12.532674300422336	12.702502299735112	14	-1.6771584827173893	1.670781627302358	0.20042125925299098
Si	3.8799172281633196	5.7012784424112235	7.050733806724721	14	0.7108537995933686	-1.2417631369244695	0.7744583172242557
Si	10.50338567829273	2.8315690913504215	8.12297659319894	14	-1.4779088761587897	-0.4862456383726806	-0.01470440843645888
Si	8.17832171964556	8.83595810123932	10.634039066993425	14	0.2622072340909375	2.3045174368126737	-0.4229779355387328
Si	9.37141688896199	4.609067617992579	4.784129465548891	14	-1.096925832256164	-0.8450161320829515	0.7659914102944761
Si	3.1926098455061482	2.0776841523914755	12.392752604747765	14	1.227830317194587	-0.002031173202916982	0.3560024417225994
Si	11.04207497428186	14.06190573401634	4.295589030812991	14	-0.28741640753392533	-0.00021314463104027574	0.6423441272327027
Si	5.642637445871811	10.130975234446554	4.294188653683827	14	1.0945365040821502	1.0479385625913824	0.38537732000529124
H	0.9769256351342631	8.936035227581904	3.696121406563394	1	-0.5323622689475167	-0.8392447719708152	-0.06916170466985526
H	13.041725276261218	11.482496032472142	16.171981573492296	1	-0.11352252742156217	-0.0531275205618158	0.22636654014913724
H	10.664278715945926	5.973786602800256	3.3507527843164224	1	0.7522437101476445	-0.02582186784077917	-0.0038718275016109923
H	6.343327662470459	1.555082035908311	13.542339674366298	1	-1.3084876908613563	-0.6308818826049507	0.2733599176381438
H	3.1458009735784866	4.88968064484678	4.7630224977806295	1	0.0038139776319076604	0.21690230146567216	-0.42195309295812183
H	12.226803829827793	3.293990940284055	5.8934422118273035	1	0.7825107619764275	1.1666225839431419	-0.531014238428163
H	4.235724134075511	6.04933343572044	0.8559049455892487	1	-1.826305731233859	1.1900160428090412	-0.02448746417962232
H	3.437200335823126	15.620764049440984	11.16656964489642	1	0.05220577930454271	-0.10738015681172841	0.6089459833450434
H	2.7488079468488436	9.806479911438705	15.432744219814351	1	-0.036373941185198905	0.25714935570514214	-0.9723030718359265
H	2.1051197789943323	2.4545359323369125	13.362847929030334	1	-0.06012015570102254	0.5988245701417484	0.32410016691020205
H	5.037140193143088	1.7515809284558608	10.680682900309598	1	0.10588660173125437	-0.17529924628035612	0.6902605315316426
H	11.480600539508513	9.350824645576091	2.3464062289902268	1	0.18218286655398855	-0.27643444537997686	0.1316835298504281
H	11.716725039269837	15.89328691624094	7.183678127438351	1	-1.840209497473624	0.28801084708394353	0.4344203826555198
H	10.879359975719662	15.991102523392437	7.327031318995352	1	1.8124384746896407	-0.2419348399731659	-0.26764512184305067
H	14.89512685777707	12.809600920271413	15.355368889802529	1	-1.5877565227462644	0.17001279663159963	-0.9404473340298237
H	11.379178593589149	8.370699549042877	5.251319459713445	1	0.17819585353403491	-0.13643467537152973	-0.3368970723096431
H	4.205017148064738	7.821717399452118	2.0158420604074534	1	0.04530261863047714	0.19712561645362514	-0.6174321735647241
H	11.885273580832168	5.716591084275153	6.515564245083571	1	0.22996505915521648	-0.23297505215351386	-0.4003038719414109
H	11.336559414729368	11.248064404012815	15.029234618999407	1	-0.3142140098437007	0.841397558455375	-0.14251688211687205
H	16.22287392552005	13.162196926465043	13.146565645697747	1	-0.9934977214320351	1.3014657451215	-0.5118703024354044
