72
config_type=amorph sigma="0.01 0.1 0.24108033668545029 0" dft_energy=-6964.395736009565 dft_virial="1.6866260410739664 -0.5131569162999091 -1.2376137393115458 -0.5131569162999091 8.244469574377218 5.9277170257879215 -1.2376137393115458 5.9277170257879215 3.4122419458864064" pbc="T T T" Lattice="11.105996452100001 0.0 0.0 0.0 11.105996452100001 0.0 0.0 0.0 11.105996452100001" Properties=species:S:1:pos:R:3:Z:I:1:dft_force:R:3
Si	10.843495119958165	7.941342763074106	6.631168361619869	14	0.07509375886450093	0.8171551206127629	-0.5232425583769513
Si	10.945248259452306	4.584621971405594	1.6104472275296648	14	0.20565937212172866	0.08251936813962059	-0.20708350735855868
Si	10.108322578814954	5.8549702695826005	7.366396432745341	14	-0.5936977861333732	-0.06229582502293183	0.2660083561962444
Si	4.916424721408533	4.321154417572425	0.4749590442705086	14	0.7100063632798477	-0.2888978784193946	0.00621564711145798
Si	1.2604306433452812	2.9201329651400094	0.5685959215574542	14	-0.03431422871322828	-0.07910134072701572	-0.09311052228490656
Si	3.6677442223095733	7.875273190180563	0.7884868771115178	14	0.5252171672628251	0.8072126563397503	-0.6248413277657948
Si	1.5975087416629683	0.2578112698401138	3.2817886336061943	14	0.46217520747598634	0.24825435973955787	-0.36833911926973395
Si	4.968845024662445	2.663184631224224	4.520129450008248	14	-0.23447477788675625	0.7334939246004645	1.0524593370757986
Si	9.835748107891064	2.8670907260847804	8.274300536708063	14	0.2503459539174983	-0.5832539563229316	-0.5606112602105155
Si	2.1452564866805406	10.430485323897472	6.839772292979664	14	1.2380944267431502	-0.05435059536261025	1.2838557305627416
Si	4.126344133806138	5.958011704665183	2.016115959935522	14	1.5021225176218165	0.15223180356905155	-0.8524599962058441
Si	2.1962219043992275	8.022294371213462	6.706133837671543	14	-1.278580336666862	0.9215221990998097	-0.992716876746306
Si	9.621846616223618	9.69008185842532	10.12591447719508	14	-0.04752739606400127	1.2130132943451057	-0.06776662292314291
Si	4.559977765278383	10.598252506302893	6.528382364455684	14	-1.2522141658298072	-1.170131885594612	0.7286926425256199
Si	5.362252736985183	9.359534086021467	8.4355262872032	14	0.8838380226434633	-0.28683199529465564	-0.7169547754075479
Si	9.354780719539969	9.624678645318902	7.891465733007725	14	0.8271366656866418	-0.3614063908844866	-2.217771685747793
Si	0.7154971578286714	5.721709418153851	8.986505877188334	14	0.3134946145751233	0.07323844926548205	1.1101929928186598
Si	0.7740968375085316	3.3804098821008424	9.35187094846952	14	0.07165079173029062	0.18588860065191798	0.7368214491058
Si	7.6505322459758665	6.206230725369619	10.525541547530995	14	-0.1375986147499608	0.9641590957343573	-2.1744151367341362
Si	9.957725266924477	0.7041645990489485	6.935083954531586	14	-0.33506335999531345	0.46861094120284896	-0.30755793239090135
Si	10.675672407570483	7.866765996898255	4.18912633174986	14	0.1903769792093005	-0.413986523123643	0.5842186350390512
Si	10.5176340780571	4.406093078438086	5.549899653039865	14	0.2963296583472827	-0.17415459019182616	0.1250107402130478
Si	8.653114969692743	8.713087350534083	3.4967451949365898	14	-0.73977050690801	-0.490140862932705	-0.4998596410428647
Si	5.7165007058178166	1.4131825185474647	6.4285172443584	14	-0.18928117412185338	0.11812969104473549	-1.463499887723616
Si	5.349414205086555	10.69490799342552	2.946443070735034	14	-0.5561786746385803	0.6956994477258838	-0.7830782049205842
Si	2.536032077844131	5.739034772619127	3.5516199234064154	14	0.5780446398337796	-0.28964812695181386	1.4451545370432954
Si	7.358333479321116	8.50037420048701	7.299638288071768	14	-0.7847977601586992	-0.37336100218104723	-0.3483354056579179
Si	3.8612439984945115	1.426332018346751	2.9753297675069468	14	-0.5606984206808686	-1.3069727956067252	-1.0636523869765313
Si	2.1677128115066866	0.22085606664575105	9.219165396863376	14	0.538949697888268	0.04036352531047268	-1.2847587027511778
Si	7.789323883637762	6.312370733462338	8.053046875389327	14	-0.1481602011840651	-0.8010867408039654	0.5505903772252384
Si	6.828744038502728	8.299999812498223	4.797257379477499	14	0.34497728499927244	-0.9833421125279821	1.3539314631739097
Si	3.806147150095643	4.592074095024952	7.297772480667814	14	-0.7173638382639835	0.4815145474730761	0.4536692197453404
Si	5.9824893208456125	2.454225307977963	8.376975473907729	14	-0.25858197558952867	0.7775739826512112	0.9239128128264834
Si	7.934623635220586	2.6495908915668536	9.660295575940788	14	0.3084925291747752	-0.6050229908475614	-0.179811793227748
Si	0.7827739525365576	0.6235894841893178	5.429010881658756	14	0.0338910247775319	0.18967198213051586	0.9590521092369472
Si	8.88198734457762	3.290662324771422	2.109772828016081	14	0.059967432045005736	1.5669022874945433	-2.7031593462751404
Si	4.243179216482231	7.64822219871383	9.629620813740088	14	1.2150187564948214	-0.005225257342136941	1.1337864836784668
Si	7.516382914830952	8.095338509878925	1.4654584438474996	14	-0.9906011141783562	0.8794344905616457	0.994346443298216
Si	1.4456564521734052	8.4172791350324	0.9750087557256016	14	0.23037257934845998	0.5874443437737089	-0.20038912043648913
Si	3.613269309712023	2.417742109632814	0.8192704780774485	14	0.01397935673617712	0.02684928152671034	-0.5012650072108576
Si	4.811573008904256	9.287967044884136	4.612353644546486	14	0.19206208163612554	0.4477369084401628	0.5101276072494081
Si	9.093812014908522	1.0988994779477128	1.5758520485813732	14	0.44525476336409175	-0.48427102948680684	-0.4731193743817286
Si	8.652204277983671	1.3279995257598576	5.00488398314951	14	0.44223551438664194	0.15824073381276962	1.0576295727640845
Si	6.0314001292206605	6.341501762156197	3.538092819727758	14	-0.05545308532388974	-0.02051202113360936	0.2359598483196738
Si	5.419870646578677	9.459188192186161	1.020995355234812	14	0.5539477265522879	-0.9310021215257278	0.35495548763623513
Si	1.1477603093387267	2.851864404948951	5.907201770896825	14	0.9267847374690888	0.5384246781818938	0.2093221687608116
Si	1.3535322116032356	9.00484187733075	3.2090332508484867	14	0.45023962235879483	-0.07210047805078451	0.49428291360346355
Si	0.2671280902637805	6.596040094841877	0.19794328536542355	14	-1.3693115580885034	-0.9004679318541811	-0.44961767198185104
Si	3.141853078309734	4.0717359492511624	5.13731188484435	14	-0.41749248233819686	-0.46887087995071597	-0.07198529253244189
Si	3.063089351471441	7.843343450380775	4.474939150444653	14	-1.342510099120748	-0.04412068151480506	0.18074921822747397
Si	0.3595677411331897	0.8712520944715025	1.3365178250386185	14	-0.05385977135699398	1.0006790757017405	0.17668764315323607
Si	8.699404762905095	3.5924122483749787	4.2765860538101474	14	0.06675823541658084	-0.5193797297439608	1.884623284994926
Si	8.174901868461768	0.4588198102263169	10.64340948787713	14	0.03294665779344151	-0.16041691735574298	-0.2137547543327469
Si	4.358481671647933	1.181000556719862	9.935113458148003	14	-0.6377516189098544	0.23434442284702475	0.1771447856791584
Si	9.180771967128466	7.723698550602302	0.05558329104347009	14	1.816122611502881	-0.9547552780259158	-0.42051147420511475
Si	6.027146532579506	10.655315116073783	10.26056357818034	14	-0.14338745837827419	0.39527813237211745	0.06141033635067285
Si	7.33137922593187	4.190592323281537	0.2635108672193315	14	0.19599021634424776	-1.679439824467957	1.8340427013632492
Si	0.29005753053878613	5.576720634471687	3.7046383425234497	14	-0.8698563519124982	0.6712338379414827	-0.17254122160343324
Si	6.590709216544869	4.3609472028603	4.69169488320029	14	-0.6770435075228893	0.03887254133531881	0.25205162518688456
Si	6.22659912286277	4.605245806817143	7.098886296203609	14	0.5575015083257965	0.7260606020093844	-0.10441490104600162
Si	0.6467999061745615	10.347023760559939	10.868339234021514	14	0.727493736114835	-0.4059603036457367	-0.5164514978948442
Si	9.187002431138094	10.888963069433064	3.423701056271128	14	-1.0965849036907123	0.4026543764250903	-0.14950668904022663
Si	2.891723826215538	6.548661913977218	8.31060603910998	14	-1.520706466875847	-1.4709681773470504	-0.86679905057631
Si	2.445096178894336	2.454491851892813	7.964765309591584	14	-0.38045133932241954	0.2554575684044847	-0.1780148477194965
H	3.3818980856254233	1.8138424465534242	6.881819595547314	1	0.28765269211284694	-0.20565448702162034	0.36349541395710694
H	5.120963858066858	4.553747301268755	10.063221127222976	1	-0.7676793409371534	0.10495791848961691	0.2730729822844152
H	7.269474401707864	1.0963051171765024	5.683427048383463	1	-0.8167278029085543	-0.1843621354233461	0.2729287432759549
H	6.9570405095173875	6.675969951307641	2.1052193694707197	1	0.10494840539993235	-0.2915877688053336	0.17419598498748057
H	10.604893892181249	0.0012272126079570502	3.778337734979585	1	0.533462444914008	-0.3020583381111046	0.17030358864330838
H	6.765595342676087	0.00205794114257413	3.1564685696406976	1	0.29757355910117034	0.2812557820763185	0.18062657650370295
H	5.003129235710077	5.815388498227316	6.77904470437958	1	0.3018130546635625	-0.4531269736333211	0.23600484266277638
H	5.268640292890432	6.532002919299067	10.086754733704975	1	0.19969672177377323	0.592184947762998	-0.45613619530002253
