72
config_type=amorph sigma="0.01 0.1 0.14855277832973954 0" dft_energy=-6965.707536593254 dft_virial="10.260622850918283 -3.573232351000103 -4.84606274143027 -3.5732323510001027 0.892993653365038 5.142888800858649 -4.84606274143027 5.142888800858649 8.768946128536683" pbc="T T T" Lattice="11.105996452100001 0.0 0.0 0.0 11.105996452100001 0.0 0.0 0.0 11.105996452100001" Properties=species:S:1:pos:R:3:Z:I:1:dft_force:R:3
Si	10.78312292324455	8.104867454834826	6.491654834188588	14	-0.9326905663894689	-2.1984187188925066	-1.5169611377559873
Si	0.00321185417394732	4.486456068765482	1.6377013428231184	14	0.6776795989790939	0.37853535163784524	0.0017768908867543372
Si	10.173559201974589	5.869752350860345	7.332656415523862	14	0.7100708980233834	0.338683476286082	0.4100187933935904
Si	5.351091210550823	4.138216444013434	1.2580983840903404	14	0.34751882260823885	-1.7847805805397439	-0.3209608473143013
Si	1.2903390917907864	2.772067820440612	0.44641219099003077	14	0.21872701491138125	0.06891256456433291	0.18264643684321127
Si	3.6536507128118583	7.57793234716849	0.5517681157332323	14	0.2841891561360754	2.234649963732437	-0.19037286544078824
Si	1.3511777403553904	0.35390479354226384	3.4773763371241273	14	0.41796839393295626	0.12008913040922035	0.04730885211178868
Si	4.737618178529723	2.6881842292379012	4.489621277754329	14	0.8004933296960752	-0.005570299676100813	-0.05652575046345552
Si	9.947696552128232	2.605522297644921	8.135442263067459	14	-0.2332707292653309	-0.4033992256363372	0.3733502035387025
Si	2.290367436323679	10.513002877536573	7.152139549191428	14	-0.04028176416129197	0.18729293837778285	-0.6072613951392823
Si	4.121901735225299	5.985032594033142	2.0217244881438323	14	0.16087868787124157	-0.792223112323287	1.1816386103444028
Si	1.8258813467075006	8.270813253822105	6.790039640867159	14	1.6229544403580278	0.41814168643153427	-0.7672615363226293
Si	9.499869457190202	9.750509585121197	9.972551772188032	14	0.8491412134585972	-0.6041009924797562	-0.17475597172620883
Si	4.6203277499990945	10.422200250544204	6.730211637979697	14	-0.7174211739126228	0.5142786567887871	0.13967503940651238
Si	5.692511753481281	9.276794412453324	8.380107364907222	14	-0.6103498068498442	-0.05049676559824029	1.3378941937394861
Si	9.61450555256878	9.56410654066915	7.633851039304813	14	-1.932306232930796	0.6668909839452206	0.7207121887224124
Si	0.6678435482520007	5.540048634186852	9.25959122394902	14	-0.3276125538880563	-0.06129026573222192	-0.44223679993930193
Si	1.029402594549052	2.9057062757487313	8.961073145313025	14	0.1297104636277465	0.21501999526079174	0.42117121983026473
Si	7.427190657324136	6.076901396684915	10.051326605022776	14	-0.8703109233331002	-1.4398374912412293	0.26998225657906527
Si	9.803029842343177	0.6175822507083768	6.772947512327377	14	0.10611902965219576	0.7864522664322146	0.021784718267082656
Si	10.523786800091562	7.794454853998631	4.055732208363687	14	0.7047530808897212	0.4114899798577791	0.3578153280838358
Si	10.606637533624228	4.2754643481684855	5.6287744398426796	14	-0.2877161984142546	1.2673245517963179	0.022448063439680862
Si	8.493843874573177	8.825224596710937	3.522244562790611	14	-0.6092511735465449	-1.2189618036138004	0.6616387299972222
Si	4.809362915610288	1.5783508977830958	6.531603103426793	14	1.2861980075093968	-0.35626803690217074	-0.554471974927066
Si	5.086979508923432	10.586113652180748	2.99750844242179	14	-0.03337448971871415	-0.1010740067930012	-0.7842305743250746
Si	2.7472459183701687	5.869541336927755	3.9825214797514437	14	-0.35492874814090564	0.915886336238045	-0.3200571037942692
Si	7.530487530325118	8.333917525662937	7.41974963970123	14	0.7882584679196185	0.977353236905761	-0.2646073609072957
Si	3.5977320206755348	1.3311980527380625	2.9645791629413134	14	-0.03942018676851035	-1.2252599832060351	0.6404132271372717
Si	1.9227256357698128	0.3204601958264099	9.232192730701689	14	0.7183097479112659	1.265799629230938	0.06026670870427097
Si	7.9261941839134415	6.155298625640287	7.886845638483651	14	-0.2722720829771891	-0.9647352804366025	-0.9716374126685401
Si	6.904975598149942	8.074592508506402	5.20436989142213	14	0.844173837980071	0.6672139147734312	-0.6478259808857906
Si	3.9409850530205897	5.056371382701445	7.214588567241585	14	0.12178528858892204	-0.9700222443064228	-0.5722933343431404
Si	6.256329875365041	2.891179632389385	7.720211267716342	14	1.024421176449052	-0.1259016282064791	1.175895532390788
Si	7.979203104979314	2.4221178722349412	9.469272436964667	14	-0.1939523582674984	0.20352226937962156	-1.415317116913509
Si	0.8018707134359435	0.8438236150337511	5.789467102508113	14	0.831257890404307	-0.6736213663417723	-0.06099690261519303
Si	9.169199518825378	3.3377184317389696	2.0374172611306496	14	-1.3321074069954288	-0.20410333918197504	-0.817590408743464
Si	4.20938366927849	7.684672079069623	9.468006353369129	14	0.40430399759849733	-0.5698865226529498	-0.9494253766972487
Si	7.368417724099624	7.978036975351845	1.6576032884652814	14	1.3314751721972042	0.5339738377621854	-0.8482253857435603
Si	1.3831074801551777	8.304431105082612	0.7484086677148244	14	0.5938232560729964	0.7308258886097468	0.8406087433431536
Si	3.6244530481392876	2.3199760228649775	0.9263556064682419	14	-0.4133206068457245	1.4938268463063586	0.16730413717682363
Si	4.968811706673089	9.23446945997437	4.847345423476471	14	-0.44526247668005225	-0.33950083066735703	-0.6821978023581902
Si	9.182715516507583	0.988930122278309	1.3770658180852355	14	-0.4845602788353235	0.6339247857513459	0.6841428435328822
Si	8.389669627852479	1.5118148730385648	5.144552994531119	14	-0.504832158732031	-0.9201646554907716	-0.15526853606267846
Si	6.322144010340185	6.272811174099958	2.6973577823073356	14	-0.7754250528246314	-1.1973861162092458	0.8161163940634231
Si	5.525644156788478	9.283802296214597	1.0273457640061228	14	-1.4855103490378079	-0.5816395592924106	0.9795461326333155
Si	1.2396957479692106	3.041987958212451	6.435091994258043	14	0.7572275407002194	-0.5369676327969658	0.12607774892090926
Si	1.2300668490452398	9.107550132519771	3.103281952631591	14	0.44214552570043675	-0.8347893035615306	0.4074608007105751
Si	11.001266905556697	6.54792891821138	0.43501077503230495	14	-0.4390923381327609	-0.8019226071435456	-1.5282817144805991
Si	3.06763170402035	3.9850758589354265	5.2599887216542465	14	-0.11091131285841978	0.7389593231795032	0.9927757550581375
Si	2.928362508511016	8.208142115842904	4.63759757448211	14	-1.1241366111908868	-1.1222154812956724	-0.07720052256383025
Si	0.37248623620627236	0.7075774717586788	1.3668816193386597	14	0.0951810333992218	1.3980994530266055	-0.34949523126783666
Si	8.715997121604532	3.7079257174732714	4.399962568396527	14	0.6862920304699939	-1.3110940203243906	-0.7455380103621663
Si	8.036865438558618	0.3624997241965441	10.539224135159982	14	0.10337308917027763	0.14199571906847802	0.020980733633472352
Si	4.030143992538048	1.206433288595171	10.14272895582356	14	0.11290109126568237	-0.47215572410773704	-1.1672820724577597
Si	8.875412594677975	7.560740264660639	10.851069409538498	14	0.804464916084108	1.125561774869845	1.505641846584035
Si	5.880736181351472	10.626395101312514	10.32333467012761	14	-0.5688611658512748	0.740396313942934	-0.5603304955095554
Si	7.489173223523307	3.897471758921262	0.10440080904832084	14	0.053408028152243964	1.296829013787145	0.8322513655000122
Si	0.40606077408061586	5.564759476292775	3.7645107693967206	14	-0.07351998529803827	0.12908105704537423	-0.1452106291607912
Si	6.621628310667515	4.473739702827827	4.350840746088888	14	-1.7952622055983913	0.12552856082452563	0.28789257623921677
Si	6.270156840947906	4.945255888198185	6.653291506552453	14	0.37499108295402106	0.5164586969897407	0.265517017969564
Si	0.6281995833165845	10.325156053545754	10.765386646910548	14	-0.3807171916125229	-1.217378259847121	0.03417436058381222
Si	8.788919094309023	11.064137951472036	3.4393494052721367	14	-1.377304867418312	0.9453604591860946	-0.35892167470309555
Si	2.5566114892698724	6.610377936261537	8.186307726818075	14	0.06075727559935523	0.04634185940088099	0.7648642377221233
Si	4.368554810429988	3.433474333148976	8.943170279032238	14	-0.33506413132690954	0.2607599589062261	0.5496231274037987
H	3.4899594311043565	1.8669180035980102	7.050397515693739	1	-1.2006491059710458	0.4435524345316218	0.6239725512781167
H	4.48766662237876	4.649269976753268	9.930571105599094	1	0.09211370475228516	-0.6525362458323019	0.15259150120334028
H	7.010216020530042	1.1727599073524038	5.607539774626264	1	-0.356794599271737	0.12031281657207325	0.17425537752037598
H	5.990274624358534	3.394159105708542	2.5079783308061265	1	-0.4617237213817683	0.39143407280796405	-0.5299608565784983
H	10.147215778390208	0.33486911562336447	3.6694212277738405	1	1.9282551993883708	-0.20469572184773718	0.4517933413037603
H	6.487689993455189	11.013838893540475	3.283121353180446	1	0.46306043903771327	0.5449462868264493	-0.10580586902420173
H	6.792338582132744	6.558846112723793	5.254457935421101	1	-0.050398549375010634	0.0011449131990619395	-0.3433178936256489
H	5.8604788438228415	6.673226770183972	9.788480986990926	1	0.22223117435221107	-0.05445369668594818	0.3277992161342991
