233
config_type=amorph sigma="0.01 0.1 1.9578840457498092 0" dft_energy=-23347.925987695737 dft_virial="53.106078510737156 6.775115531571413 11.716061443981573 6.775115531571411 49.599340119917834 -0.28280148313058967 11.71606144398157 -0.28280148313058967 37.08739450198304" pbc="T T T" Lattice="16.405915777900002 0.0 0.0 0.1676028355870264 16.440581477938707 0.0 0.07751795205057752 0.0672970665209458 16.313550472070425" Properties=species:S:1:pos:R:3:Z:I:1:dft_force:R:3
Si	7.395066612974671	3.5585596142285336	14.737276646496104	14	0.4435321227995926	-1.2558543367420731	0.5824209181992037
Si	7.084527236172691	14.730637172380789	14.289370536885766	14	0.1665883414556944	-1.6013008484622726	-0.14742409373090667
Si	11.630575326988804	2.778891435165925	13.424280035550789	14	-0.6795603625207822	-1.5695255862526905	0.6516206752277971
Si	10.394051611259014	3.3465705735043985	3.1545524540567014	14	0.021776747840590197	-0.5014002473506974	0.20457745100301034
Si	1.5642925852817207	12.442489333512874	10.23272731964019	14	-0.011023871170666902	1.2514868001347375	1.189022310602804
Si	1.19241312997775	12.843407259743728	16.282333295528236	14	-1.4413714126752297	-1.0110452581315137	-0.33128794894320807
Si	6.810599301020673	14.684687483470045	5.984041374073247	14	0.7380838618179928	0.43379457562059576	-1.0865725053529913
Si	1.4996893701315062	4.574522198240236	6.702636891061046	14	-0.40561294731698466	0.3595472246274876	0.5539477265522879
Si	15.242498463468113	15.21528597096731	10.940931329574266	14	-1.8537216843731303	-0.93833362834613	0.6266079342312686
Si	5.427731535368859	12.47312902181968	3.4043456465078514	14	1.3316186398740686	-2.072158678604399	-0.7535606302926242
Si	0.27629038702403613	4.636982800789856	8.775845905547959	14	0.05039160739064623	1.2451641950419614	-0.4290621991683312
Si	16.36824451409079	8.649940345502042	13.751512431656783	14	-0.021972923176517497	-1.0847645040918634	0.34714755500000943
Si	9.645615374062793	2.5916097036033077	12.187223127558218	14	0.4172893650179052	0.3021367568233691	-0.8620718163346858
Si	14.603760382120822	12.05822341179659	5.386475578962173	14	-0.7633557702307924	0.5872383982375652	-0.39849021424857844
Si	13.54940959578041	6.036779830932885	3.282695781014723	14	-0.6341135048818448	-0.47718223500862655	0.9474301989688139
Si	4.641953793270561	11.351015240950233	0.0021360502342825803	14	0.09333909354786772	-0.024397989714481164	0.1863372585302838
Si	1.218109715860675	10.464264009013693	4.817523341559335	14	-0.28388190905031774	0.06201660298516376	-1.225013157095301
Si	16.163424858561598	5.979848022000417	5.8538095740367	14	0.688323460783443	0.20739358266016852	-0.40787037778807467
Si	5.038355170887758	1.0974261588068648	3.4590446103029477	14	1.2467230561975673	-0.09690701640063722	0.6274741396136264
Si	10.939761587779302	5.691625612431114	6.104272127851588	14	0.733001043710592	0.2352327397351359	0.067750424959626
Si	13.430488034081147	8.421806243060876	6.15396400615127	14	0.33419946860774374	0.3217429775526903	0.6230289556256224
Si	10.566275993320675	6.03755583074918	13.2752224471591	14	-0.3205816092795794	-0.147534137038609	0.7002796147431956
Si	8.802444816798667	16.175849058580198	13.823554089020696	14	0.8619337479789939	0.20339525677680625	-0.7376822551669857
Si	7.549597214869867	3.7934595163365055	5.406394001308122	14	-0.171564458692309	0.871503659091117	-0.48116873380751624
Si	14.31500149910558	13.393098952023312	1.6198151260488678	14	-2.313852863119599	-0.7811822718575071	1.6757767707183417
Si	12.29161889142773	16.07879330142972	12.319198876441956	14	1.2049922170778398	0.3059556195553851	1.5423706003034146
Si	10.228186162152868	15.293949055939185	12.04733316490322	14	-1.386545419938924	-0.5343677310972321	0.6599176320959149
Si	13.451686117857772	3.254881191404871	12.02593000717937	14	0.6353350370194472	0.3034675609370777	-0.1662841796963209
Si	16.04826025157547	7.009101038383796	9.179296905174919	14	0.8677328760285878	-0.29526676340793345	-1.5575763742773023
Si	9.965409327955086	13.031560145434153	12.533689819322221	14	0.7742824536203576	-0.0327103732145199	-0.16373107211341384
Si	12.073006782504056	7.235368147609438	4.774178912074124	14	-0.32469100691277203	-0.6444984563804549	-0.9824501960924228
Si	9.020658261968938	2.2028682480628112	16.01234442075449	14	-0.6653367507791911	0.4851133235896874	-1.1265092271803196
Si	8.940034670061603	5.896209022773104	0.7550445400715584	14	2.79118499356839	0.042373358339232434	-2.2935308466691486
Si	15.086435549039262	8.454672214138744	15.783595096471654	14	0.9851812241634841	-0.09326144616719925	0.8931338539284588
Si	9.12185323167018	10.948397661844789	9.414782498476162	14	-0.4063616531862118	-0.828633048982968	0.12687864822813538
Si	2.2808406439804365	5.357220549947023	14.018876359906063	14	1.775846760883825	-0.8164845763452682	0.5359219642632617
Si	10.213071391946688	1.4659916191236995	10.051842254639375	14	0.7798149580482524	-0.5969350648419717	0.9255884021636239
Si	12.51473114304928	14.819924728410431	2.5756008109872326	14	-0.7604689331773301	-0.2416849285360475	-0.7976625427385922
Si	1.7609880313176973	16.21989730185228	14.362537640072045	14	1.2342022875095098	0.26748031399202915	-0.09361394470659155
Si	6.511416099120154	11.819433667057677	1.2716733902839408	14	-0.5632967797174102	1.3459769775344357	0.08278059244014763
Si	10.007651279900022	16.19152162992283	4.801650618044217	14	-0.02558532615132555	-1.3596200336947373	-0.7632927781504487
Si	12.042260455744692	9.71292720590794	12.003173361403848	14	-0.18557081203434767	-1.0168459288442997	1.883056453412828
Si	9.44799627496852	10.1998186931813	0.18684533420292535	14	0.7641944647862247	-0.3951899434596364	-0.5391674705088846
Si	1.276695241103556	15.172332002277612	6.004025420082308	14	-1.1526709951444225	0.8093497590818574	0.5551985692905399
Si	5.487045483272279	1.3193555439008293	14.084455727045063	14	-0.9939936876482915	-1.6420484969075753	-1.0301480564391499
Si	13.105178411304323	0.46691892540534524	3.323023162588379	14	-2.0708093625323856	0.17417001682374705	-1.3054352746252766
Si	1.136299976242599	5.822971374148981	12.174954783739503	14	0.17049205066327522	0.159549426420725	-1.4218924616592559
Si	4.00821787564395	14.860202892236753	9.131496628964431	14	0.11086117630467689	0.195560327534719	-1.1785558550655453
Si	1.2026389372821154	8.54368251019174	9.888920026823783	14	-1.2836708680902233	1.4388856680517106	0.3526916294018448
Si	6.559088409187576	3.6475206925341963	9.424685109239704	14	-1.509006652116513	-0.9672487929975793	0.1948620153297668
Si	10.258266408731647	0.2816337937928982	15.467210291878008	14	-0.7026306334479389	-0.10107374968246918	1.077827661938104
Si	16.29538912330429	4.423641912605623	0.962223366289613	14	-0.8519115794410567	0.24890922026459958	-1.2007018136301086
Si	1.5627373044659758	2.607114934605001	5.32870870891661	14	0.13386434138297773	-0.2085773195495647	0.7197205134004313
Si	14.317185126495618	1.2287834046657766	15.450797813733796	14	0.5112293258790915	-0.08854706745217573	-0.10575136159141459
Si	10.445781104298309	6.657773273774801	8.14098782328214	14	0.7366615263548869	0.4205340999319321	0.17251885298714797
Si	3.2756527213712703	9.616145427550952	5.272329779345856	14	0.9355187822416318	-1.386043540180431	-0.6232228169667615
Si	7.348664120788459	0.6544549486625202	7.875646744448274	14	-0.41079141054229484	-0.4681028907915877	-0.772256165517549
Si	6.053458084912698	8.144213226324075	1.0782213937972551	14	0.5739347279795229	-1.3995197316054553	2.6316705341800195
Si	9.033376127879967	10.315531257754406	5.361156329142141	14	-0.6232868374892333	1.0200654669261893	0.9145269928552828
Si	15.757714764332016	2.644464642464968	2.2070287883040867	14	-0.3825830427433543	-0.6175555866200912	0.19308640999567253
Si	15.497933650355282	6.692045231834833	12.73080689739369	14	-0.626978944728966	0.285483964775302	-0.8312530053041989
Si	0.9818021861789589	3.916861533634714	10.858532617579764	14	-0.41720117610542407	-0.2417057544891407	0.5197759370737958
Si	7.577485631100719	5.151086780564021	10.642752169719355	14	-0.08104869589649587	1.8065159335846794	1.2566261825591813
Si	13.167317457904698	13.53421279599534	13.462077624911494	14	-0.6675149912064205	-0.9465076863799446	-1.032162003236422
Si	3.6724248726850486	10.326459238254067	1.8006575356686594	14	-1.3476906192303142	1.063540543895105	0.0006618025094061156
Si	2.343283200022702	1.8281883029355535	15.72186455717415	14	-0.7757754944797676	-1.9622760649845705	0.26736204314730233
Si	7.259191177910525	13.808780561862697	3.8194284404213437	14	-0.030100958425101618	0.34015903362931493	0.40277830370152146
Si	13.87925053249509	0.63637891065843	6.9567038245723385	14	-2.370152870535945	0.5624177188084516	-0.23302236049140457
Si	13.901234459637477	14.8916300645009	7.256498967131372	14	-0.6917013789530536	-1.4637713964454235	1.1215891600396843
Si	10.549963591262708	8.30647265514224	13.574299010607064	14	0.32725311336429963	0.6477197942360685	-2.3739869027893503
Si	3.8012277174573414	10.626812181949548	12.617296006717977	14	0.531779399371439	0.9682795491204266	0.3889742963481784
Si	9.82585404598196	14.059005229898807	8.131362472495246	14	-0.268588974606077	0.05976277206152194	1.8249723560148308
Si	2.1882505771047023	16.078269952716408	10.056345678520408	14	0.44621815652755126	-0.8758395711030146	-0.49898520812348235
Si	1.0935035043443688	1.018418549603654	7.129025001537089	14	-0.9906944453014774	0.003271474409356416	-1.298185786064587
Si	14.64921461237507	6.134898691425772	0.35377060546832445	14	0.25118233447814253	-0.6237763759421895	-1.4662144607206284
Si	16.028108865225477	9.028921921746267	3.6744657686078193	14	1.7894785041807182	-0.4207207621781748	-0.9917043754712318
Si	3.697832714450282	8.259448378748045	7.168518962589228	14	-0.3255520700844897	0.6964054732467965	-0.3287417833446654
Si	15.862392709952909	15.785677007183871	14.847033863641833	14	0.306926983145337	0.4195874189530535	1.0982538081540203
Si	4.193046922797772	13.126399463363036	7.4467632941824125	14	0.15056187066361537	0.30465206915806997	0.331756147222007
Si	12.599036222457176	13.285589345339156	6.006750442693017	14	0.04243840730383218	-0.23787506467265207	0.30443892452702975
Si	5.948791623432852	8.756883948091861	7.429847154423819	14	-0.5315022342179271	-0.3561235407831784	0.7735013518240966
Si	7.135710412216583	6.031337988669356	1.7405265731595003	14	-3.139843072943987	2.632951458850517	2.323686569637569
Si	12.4758606067967	4.867492479835663	13.97603723262681	14	-0.38298516361542545	0.10542251722096765	0.3079271431148746
Si	6.491151511951292	12.664750118105554	7.104325895333461	14	-0.3885773176867475	0.15482142084750472	0.8614832903269038
Si	12.71844668044662	1.3066097879329786	10.820799011290593	14	-1.0793443569664594	0.395061131083097	-0.13210107735442017
Si	10.33596482585578	10.205043977356562	7.396011593723478	14	-0.5571695786289654	-0.24923240820334214	0.6317632575086974
Si	15.369178382738745	14.344199107415509	13.17688374739479	14	-0.14677283275331318	-0.800732185380317	0.05781670244470187
Si	15.875996495315944	14.425921895679963	0.5697151124865111	14	3.3450522445241573	1.667615311100596	-1.6509288375728346
Si	5.123311565152036	16.415485348573252	1.4322807433832705	14	1.088490035700758	-0.24781752894566467	0.9848873468253911
Si	10.874505417181128	11.350892196581897	11.035910097787262	14	-1.5825109536720985	1.3477165873940478	0.1052343123115328
Si	5.376389221941921	7.960317675778016	15.420259842104816	14	-0.17037095160269625	-0.9269878547893804	-3.8176409427678073
Si	5.167582928878699	15.32589629573349	13.148237377854999	14	-0.6234763279513281	1.1911159616650004	1.4835658220841796
Si	1.456878132909076	1.5911982871574768	1.7066270293876256	14	-0.13058335388393674	-0.3480608116097261	-0.00046537006294680223
Si	3.349216847719374	15.03390708790158	1.6968064482029748	14	0.6338641076657905	-1.8258892121719954	0.6051250637287713
Si	4.514602872044612	4.190677908559444	13.376904672558947	14	-1.3558708479168973	0.36498588371119683	0.9143791542993742
Si	10.723370839851958	3.7546365572396834	15.703381652458768	14	0.8479924436015549	0.23580352511620878	-0.6422222568405278
Si	4.693207514752298	1.4320937159434026	7.238537770537728	14	0.4034285362369869	-0.07874087176113095	0.3254672236089248
Si	0.5509729943018381	14.584506399363878	9.700383242704158	14	0.2463800239611699	-1.6647271884944734	-1.3460420264990354
Si	15.025188984257206	1.0225872928028183	10.575981733094881	14	0.7870821872356508	0.7574792519110619	-0.7694832284297692
Si	15.737460020712621	13.455667833617067	3.535914528680298	14	-0.9027996672690234	-1.6175366072274115	1.1421667443589574
Si	5.392975602793378	10.096774776771888	14.544010036857708	14	-0.6273736093956087	0.7359369888756692	-1.3098082105537843
Si	2.435876548081592	12.624302973346717	12.675422166319077	14	0.42470906075078857	0.11068351292705465	-0.27190364358481195
Si	0.3577424776781541	10.187404336712165	6.854124195579441	14	-0.6717876540274427	-1.230174393914966	0.4346813498455148
Si	12.473429250078418	12.27013534471657	9.70893236541602	14	1.6667935858402763	-0.11668935784438855	0.31793054258397474
Si	14.417333398770232	10.632531284189724	9.651590408589104	14	-2.052456041425572	1.0001052049942838	-1.1348352375385553
Si	9.611976684351786	4.890833176212881	11.563457084949837	14	0.9407733501844184	-1.319526217332348	-1.2328203183999304
Si	1.288756870383468	10.978003777457587	1.6584198864658442	14	1.1407284680428667	1.1488451904280421	-1.0979802425479566
Si	1.4074192186134409	12.369968623408244	3.5288337354305566	14	-0.25470346321408527	-0.21526579292939793	-0.2316876997197157
Si	13.263334720586435	14.48581005063561	9.631670345651578	14	0.442879062048275	0.4086609926740203	-0.20850018638996026
Si	5.840138524418976	4.215342562339938	1.8157641029169496	14	-1.4147309049005152	-0.0024960290447997554	-0.9228805140404439
Si	11.891696804284594	3.492870327453822	1.3675347967657883	14	0.7322446245254045	-0.24129257786419292	-0.1590089800824299
Si	15.258215330783342	11.669898666516852	7.638904457998444	14	0.45327789751561387	1.022476906605956	-0.28882228792298226
Si	12.531271587336558	5.693061130061681	1.1873617485097347	14	0.3858542600421787	0.3184807591224864	0.47004176131351144
Si	10.909243303249252	8.543221503958382	3.0735072301138753	14	1.5182888565433117	0.18216743992206766	0.5582196180417139
Si	9.482414245678978	15.695004791862571	9.948023979005246	14	-0.44239852246393935	0.6163422820195132	-0.43266817437983884
Si	3.330889799203882	13.260729461160905	0.15971487128101208	14	0.4743966995047782	0.5469921153296912	-0.8287464347275864
Si	3.700022904206632	4.3524697687779375	2.7595357357311587	14	-0.139668868753744	0.9741095304338624	0.653719725611166
Si	0.4897904125913156	12.476964724928553	13.915317297741225	14	0.1179975362312799	0.5272856214928843	0.5915833091180834
Si	14.122166365052145	9.941373020748886	4.475330390855475	14	-0.04574536296660664	0.30406431448188415	1.3138469027906732
Si	13.115271330690886	11.343114151911594	1.0518538059590141	14	0.1673748425731277	0.9836611866982127	0.5168924424572496
Si	8.358942054983117	8.825959415883132	12.792439001196525	14	0.18018151817278527	-0.4458183496502683	-0.10775913773591823
Si	16.45394737752296	15.510541596630599	4.02582634504837	14	0.32094670623504046	1.1687951679386668	0.8146770893052041
Si	14.520057399821974	4.575987246519202	4.969322358477511	14	-0.08783024328891845	1.3726802202789616	-1.2159592668209316
Si	2.1154181546002935	9.639819164018462	8.141688355885856	14	0.7936161371857431	-0.1555526432005548	0.3206646559814202
Si	11.970414028778535	8.555563674398094	8.014442432520886	14	-0.9669076073215956	0.006452188800911605	-0.22664267686052114
Si	7.236409923261334	15.306855589881659	1.8846722303672852	14	-0.9119466315559822	-0.6442488020538685	-0.017689975934214827
Si	11.242977363778028	8.768187624062834	15.64621852011383	14	-0.6465581688524256	0.5586201962505929	1.3486514412884534
Si	5.263980808806483	3.6360710039127997	15.780103917594117	14	1.2654455880283535	1.9490027337693059	-0.13031595893064135
Si	5.007370958349616	16.29751040821437	5.498191662451784	14	0.09668821533789261	-0.9366009604708821	0.2033790588132893
Si	8.769144088952686	9.012509443602054	3.514168487316692	14	-0.523825427953029	0.6217056077173422	-0.39301915923783537
Si	5.783818656145023	9.047386779954293	9.693369713709105	14	-0.6757798092580366	-1.640290117979126	0.7771852315268049
Si	13.605791806534318	1.7941263405974774	1.3983073729903952	14	1.0158876778914805	0.38885885371930373	0.12631069106291468
Si	3.82017326899766	8.124042152875147	1.9273161272487807	14	0.03002022571804897	-1.01876011675515	0.5815904511807959
Si	7.875508934755739	13.025995258802288	9.02050076517747	14	0.11951114593325107	-1.3143274423750086	-0.3904963906977061
Si	3.4811483006305126	13.49683027630382	3.5946427853904472	14	-1.1631729319350992	0.8429109110468143	-1.0529691872607843
Si	2.5652962552871337	7.524302573923501	11.312359622194345	14	-0.4602473927069393	-0.5726594597407294	1.062014078666533
Si	2.240450919926825	9.025025516749015	13.120211151931613	14	0.513547948656801	-1.8627727464316475	0.7608175750587421
Si	1.0802393214379367	3.607985716692613	15.169127926926189	14	-0.70883008259588	1.1128060071555264	0.31655731523248365
Si	7.214493260373637	7.019919099247743	13.770909145880994	14	-1.3621613141931719	0.5206619399671187	0.9097290532173545
Si	4.357609742191154	5.730258262904912	4.78039511356237	14	0.45969691905789556	-0.7179911879620997	0.24701971496482275
Si	12.9081023480223	4.349470767373737	6.464491898812205	14	-0.9800464697286162	-1.361192264598008	1.4361086171954185
Si	8.691115912921415	5.472554137865659	14.812481364421997	14	0.8038187973171548	0.5600031938023006	-0.7395671324771863
Si	0.11127968612991793	9.091331665956975	1.2357723247871621	14	-0.47614710800673493	-0.9964290386075358	0.4078179272395437
Si	4.6476876608349365	6.838653417000882	10.648299009843862	14	0.4440183188156326	0.9221901722619841	-1.595300659976643
Si	0.34291152981493245	1.925314605523877	12.057823107451608	14	-0.6407922080614614	0.39426203154959494	-0.9612156943638518
Si	5.845304747297437	5.8297388144073645	12.288905352958064	14	1.1950219848673695	-0.4566378179479834	-0.13790303361986633
Si	7.534972981545447	10.705754167489648	13.7956246580004	14	-0.8106003447095774	-0.3766242490533791	0.45788763224410733
Si	10.958600500867064	4.80892336050856	9.454489736433413	14	-0.46125320910818113	-0.5026315496885163	0.5999967370572038
Si	3.1114655974492025	2.235210870427364	3.4910033342382967	14	-2.021844461483889	0.5148360724221953	-0.1973331046529611
Si	8.174911975927682	6.849638818205763	3.7697857798689958	14	-0.40837354309922763	-0.8833924500914818	-0.6501569449690369
Si	7.567356618699444	1.8169157982045583	13.092836240864608	14	0.23186150643935774	0.13021234338623938	-0.61850740980961
Si	3.39821475578165	14.450348663681678	5.6543923865731704	14	0.7600092195460877	0.5394909155581591	0.4887786913340906
Si	13.459201667875627	10.912070042537785	13.624919463739772	14	-0.08807167007848037	1.278527629007799	-1.993798844651714
Si	4.691125604040082	5.080050805837291	8.730641045213533	14	-0.26437596142848235	-0.7615773366808459	2.4606832886320835
Si	4.516661814474738	3.6714897354857086	6.296054002112084	14	-0.07618776417822391	-0.7224124606706263	0.046306635257994964
Si	7.726797511186965	2.9045771559404168	7.664712604108658	14	1.8003401386056839	-0.15198549167938136	-1.185777318578245
Si	16.302796394278012	10.912001137691517	10.766621755617233	14	1.237082953910204	-1.34372648904771	1.2021709432100414
Si	14.822572643216983	5.011090179456466	14.25235550970767	14	-0.7743806698435873	0.838202960095091	0.8090229715956665
Si	0.7552955505829604	6.950110287021201	3.9780605212610145	14	-0.47245191544061815	0.681258834695272	1.048626333264522
Si	11.861030866512543	2.085823523128539	6.669373896821354	14	1.1475884341475537	0.5783009790341984	-0.28357749018041223
Si	5.353125633368858	14.794046036862373	10.929169928553089	14	1.6447946945000256	-0.08894558877679869	-0.11598101832868775
Si	7.6110603377401915	9.812036983713812	1.5386911537103078	14	0.3796396413728488	-0.24139156541901857	0.5708234334316118
Si	9.019757577192731	16.4483381949185	2.6969734165037145	14	-0.5339843792939981	0.5533741129553628	0.5685791155976544
Si	15.57242307035326	7.951356764580127	7.014519912365237	14	0.23114391094450437	0.06735730295617534	0.20127692310353626
Si	16.102035562312274	14.115430096033739	7.4622291509862375	14	0.35143924400040066	-0.7134506159667181	0.8255130126769683
Si	2.34959455582246	0.5800262305529212	12.044626188799867	14	-0.7161898715748038	0.4466153922995142	2.521453676868571
Si	6.872032893242597	6.651491448623442	7.646392117959477	14	1.5912172305071839	1.7402433799630748	-1.2800800624001045
Si	15.72830059793382	10.658355836215716	13.14220164144031	14	-0.7797311400148155	1.1487392608888518	-1.2950976314645573
Si	4.552525146365228	1.6049415228046235	16.174662910869458	14	0.07893473310227013	-0.9028346343013773	-0.4901439482590891
Si	14.636188315247418	0.6954713786988479	4.843641559477752	14	2.3920118937467802	0.05686822169209924	-0.24213564329866943
Si	10.729096504458443	7.285898368205369	1.1774886683945944	14	1.146275370660554	-0.23517309009170845	-1.028082430424943
Si	15.334369951232775	1.6771324740021167	8.21456179317971	14	1.1467715939873426	0.996415925970403	1.3759946321471643
Si	6.108229234737218	1.8627161932817218	10.983575226455763	14	0.9893615843035128	0.712235511592416	0.4701055247254511
Si	11.207435587836786	1.5007098180928915	4.480289899195133	14	0.8370685884278416	0.9385411165454659	-0.14054098767833825
Si	1.9072812229008094	5.205309972801558	1.4323906630189824	14	1.9954762337625784	0.6262423230547435	-1.1008645084960986
Si	13.291766172629535	9.958107054842344	15.638127122452172	14	-0.276905471874628	-1.1052711259043004	0.2338618263784329
Si	12.454982438377746	10.371155515199376	3.050863785157218	14	-0.5357288742537185	-0.5827944998022211	-0.7021516365267955
Si	3.373989780544003	14.242566099762996	14.329486282145888	14	-0.6602948132463807	1.0910079191407789	-1.1539532053675803
Si	6.855594165633141	2.805409957429323	3.2813570582872464	14	0.090964934895243	-1.2995009064358427	0.17369333389739158
Si	11.03436137933783	13.147935509004686	14.680047890488057	14	0.8233193456178179	-0.2937688374484152	-1.7643102113123208
Si	7.513432014129064	13.780841287292933	0.13509123228996198	14	-1.04307120310981	-0.49254073263853115	0.3030225026061601
Si	10.828030738965492	11.826278215120217	1.1255311331259854	14	-0.8628853140579806	0.07922655355610693	-0.25081646619108544
Si	1.8663730719086156	7.472386053444336	0.7038137868719101	14	0.8736996401450555	0.49477348049854775	0.03119882039680485
Si	14.308222574706152	6.8084370013211455	10.548705257522544	14	-0.8099035751678172	0.39521951117081805	1.4486409558574163
Si	8.755825766524186	2.1602128670402716	1.9295342070619528	14	-0.5392751998217987	0.4471224142686474	1.7699964678383602
Si	15.752499323706223	2.7456185973767657	4.56950855037851	14	0.27257701606815865	-0.8230468084538822	-1.109710910571132
Si	2.7409330678305976	1.1750671552257765	8.623231514615622	14	1.2799944445929432	2.234112088499462	0.30853392397042956
Si	9.760061401937847	13.656208826311383	0.1757434509960204	14	0.5584692723683002	0.029982430469842797	0.8243089640555428
Si	12.281150276569852	0.7412848985086338	14.50750031188557	14	-0.18044454224703643	0.27562583275679026	-1.5768691772680974
Si	3.09142413073492	3.4669358557921175	10.102203494302795	14	0.41951697066728144	-0.8768289324302077	-0.45713301283264396
Si	6.523971546464982	12.759495922314503	10.910262110619058	14	-0.5748873225006378	-0.29557503893581927	-0.1692478927988556
Si	6.798819853492141	10.504422409654836	6.219103694747421	14	1.1379925548716971	0.5781757662051072	0.18127243816012412
Si	11.25161671902667	12.240619461640549	7.790931517145932	14	1.4576328824935703	1.0810423149198851	-1.613077025049615
Si	1.2463295315902407	15.708524907055141	1.966696887482052	14	-2.308781357875607	0.7634509011276378	-0.02469135283151006
Si	9.232506211817384	12.416590954865882	4.118244149808437	14	-0.14688750405059176	0.7442421732808114	0.48751216485338555
Si	3.0565599191153052	7.5152120559909665	14.903527634623032	14	-0.19817308476105347	0.08575021908491864	-0.2586521667647687
Si	3.204634793151897	11.572390106090904	8.806613559997832	14	-0.47181428132122144	-0.21703754160551197	0.4025520464333484
Si	13.156003938384256	4.802881061727559	10.197751547793285	14	0.6273941782381698	-0.7701792266399333	0.10766040729162454
Si	3.0305893544388893	7.40220154574648	4.071357683106776	14	0.26015652048758736	1.8234615745287117	-0.13408571355104248
Si	4.8205666389361355	10.937919203437444	10.377983657346139	14	-0.03061029438902296	1.1522807013568237	1.3280689718690721
Si	8.988607664905233	15.514790728817074	6.689978086446818	14	-2.314971293933864	1.2616786616238045	-0.22763615195622636
Si	10.446517729916737	15.502036769891335	1.29053691224537	14	2.28149987354458	-0.27001182429024695	-0.9055427795350893
Si	14.498560728378193	4.126655462827766	8.330615600800998	14	-0.8422519367532603	-1.211662949830964	-0.06795585627470582
Si	6.975313054839211	16.37885421982436	9.972787068280407	14	0.7480255547594095	-1.208260863271344	0.46910382209272133
Si	6.6854221636352955	6.132103123377218	5.29583781606401	14	-0.527663316864414	-1.064981648427048	0.9506895891831656
Si	12.987849864027092	8.752152481981515	10.105074529563927	14	1.0846043242304182	0.0694365558285791	0.038836802971368746
Si	8.508404869494521	6.968619441201827	9.369643261804848	14	-1.246945713918292	0.7220689609998545	-0.20275350888889726
Si	15.54722030253525	2.7626840309689378	13.96331280434947	14	-0.28980676415006695	0.06467152633874866	0.101712669354526
Si	7.7435659977035565	12.755197572380693	12.924987316540914	14	-0.4382726697566977	1.1210605407858618	-0.1279397433937605
Si	3.388536906064267	5.929442486364397	7.109823517710636	14	-0.5253241252441433	0.03187733509079192	-1.4547342183556353
Si	10.195520343247491	2.801249417188047	8.238901609827803	14	-0.35945929282553857	1.0316192429033384	-0.3087946340498926
Si	7.887306428791628	9.127557568586155	10.495914301732418	14	1.5992501348589223	-0.47357343158126675	-0.6719540045416562
Si	9.431104744083596	5.0409194155238435	4.54100983408072	14	0.16814823105342827	-1.1073583492031966	-0.20608514716274517
Si	4.124452148338794	2.1583622797405244	12.149945605727673	14	0.021019300213274576	0.2701714899306282	-0.13140070826521183
Si	11.070877666676278	13.997220551079236	4.321167281473704	14	0.3311246837553786	0.6033178337992392	0.38718532126641936
Si	5.395351179398018	10.326152447629019	4.492361372024512	14	-0.7250419300815417	0.369208409978476	-1.410906128626263
H	2.6947815861557873	4.932469749865614	16.22073236296538	1	-0.11024462524890538	-0.0550964730159852	1.2142494817830327
H	6.121063582650269	5.430454917387991	7.954539512241039	1	-0.37231199121042674	-0.6943601589646187	0.0063336608456527775
H	10.867058772009539	11.636812856167563	14.719200608492015	1	0.4131223746255412	-0.26630274775540136	0.21669352771367614
H	14.588839201720821	7.075548278467447	3.235794548988862	1	0.6132376723454345	0.6317362609028359	-0.30517683175391225
H	12.029834615134511	15.422368002282276	9.919702446597858	1	0.5176480903108412	-0.3332363325548163	-0.15352275555029793
H	9.581131922097759	4.716741800935695	1.3718971297711318	1	0.2593332525640759	-0.7370919293854796	0.25923940721989047
H	6.131112206064232	9.368127355186969	3.5121784497328323	1	-0.4116100504762301	0.08370773301859302	0.37686079074283274
H	12.829526214404048	13.652261562975221	11.825142925748386	1	-0.06674100901093585	-0.37517337432121955	1.3025396958137259
H	4.831560243098907	15.842151091066135	8.179226731777268	1	-0.3414003632778824	-0.26936082042318543	0.5250135357214694
H	2.7225207085530605	3.7686111162992986	8.613199297117436	1	0.12074244827106997	-0.07721363520096301	-0.36288323378037973
H	8.410633814416126	10.83405171005598	15.073760338509256	1	0.580049330651899	-0.04526868004025118	0.7043103365535918
H	11.873647015745748	11.568541278249407	3.7249073972585505	1	-0.3822176886773612	0.24929257206783365	0.2741487327503652
H	0.6715449911283586	6.089523209567257	15.135979774096942	1	0.2998294469090682	-0.42456070797381595	-0.5715132609890076
H	5.679690308702692	3.5202567226618706	5.204791545862976	1	-0.40877643530289487	-0.1159175120272801	0.4502486212274154
H	9.403898813949104	12.012418094944692	2.683776497851972	1	0.305815751425969	-0.48690615532942666	-0.7151855978367541
H	0.333415785762684	6.577942087599539	15.622858136637682	1	-0.3376236666731169	0.6852713016578951	0.46521733929078546
H	0.5950999859696557	6.361321656851303	2.646205310129003	1	-0.3346491549282376	-0.5957544132789596	-0.4943423061363589
