233
config_type=amorph sigma="0.01 0.1 1.8614173176152637 0" dft_energy=-23355.17306083064 dft_virial="50.58510528968732 -1.8745698310370509 -5.264147607416548 -1.874569831037051 32.93021269996337 14.249154728594139 -5.264147607416548 14.249154728594139 69.79136601544195" pbc="T T T" Lattice="16.405915777900002 0.0 0.0 0.1676028355870264 16.440581477938707 0.0 0.07751795205057752 0.0672970665209458 16.313550472070425" Properties=species:S:1:pos:R:3:Z:I:1:dft_force:R:3
Si	7.704447732122731	3.1168106448096426	14.703588739037764	14	-0.592670886668506	0.4572155453134207	0.07791451851123538
Si	7.173652373636132	14.320210377365065	14.200593204836816	14	-0.41409965175772945	-0.19095830612218595	-0.46847878638939333
Si	11.324565623533102	2.753490155767002	13.683208041907074	14	0.3205450995840333	-1.0361266476400903	-1.5441991704071039
Si	10.469474527864753	3.153463101249049	2.963879619702792	14	-0.7517351455153191	-0.687353896967215	0.8254844734079145
Si	1.5786100279810942	12.36913356229515	10.663764866647691	14	0.22279141820147133	0.5971132424406579	0.45001825019073016
Si	0.9555822515827191	12.823478993848314	16.11427109429943	14	-0.27012649558752555	-0.38832586358643706	0.2284931013594317
Si	6.970086130072372	14.582790340573508	5.7771037148171285	14	-0.7837837162204329	0.7375529285693823	-1.0616680078904412
Si	1.4861561302063164	4.678584922019455	6.812623791027666	14	0.9407954616901717	0.5960655170226975	-0.7362221244556736
Si	15.258220252558074	15.01643970937285	11.100739714575212	14	0.02087634675747434	0.675059128436799	0.28714412748052165
Si	5.428423865014687	12.146433099159625	3.3632192968358114	14	-0.46957639125056455	-0.3994618349490624	-0.6236179958544683
Si	0.25652946146955563	5.0219984728571925	8.686594442533027	14	-0.0503684674427649	0.2790371752955627	0.19761078402753712
Si	16.33298820108408	8.689120953562824	13.792100667291306	14	0.6599759961866825	-0.22644238775608158	-0.3221214442558161
Si	9.72043127178475	2.4779659250097943	12.030106953336425	14	-0.8513549351392447	0.5534083086561207	0.6002721024369917
Si	14.439921063613244	12.129886092506034	5.441794686373675	14	-1.1628206905062388	0.3808485750943824	-1.0829534175043511
Si	13.817127891810493	6.158172123548301	3.4849511919078298	14	-0.5264885788436383	-0.11460959075092077	-0.023635914097589278
Si	4.711601827522479	11.416486329045096	0.011334847210951113	14	-1.7307400604787435	0.058979613381004846	-0.4387236416298517
Si	1.1564989397483492	10.10015111423898	4.6136371826379055	14	0.22224582965253595	0.46564491410552605	-0.4834647308584084
Si	0.16805399827091866	6.164686912703704	5.626105306588915	14	-0.4489890367310748	-2.047522604537272	0.3322346299220866
Si	4.746198622714915	1.2383349288316703	3.6383481450227726	14	1.2054226201084326	-0.09665967606883898	0.23579606891078034
Si	11.102936466697873	5.531426766634653	6.012312048141726	14	0.8241981494162445	0.2021266734118452	0.6064952057538783
Si	13.173633735479187	8.353231155700831	6.416855681759494	14	0.5133489451050216	-0.22404997425568385	0.5059169080666015
Si	10.294771211929053	6.061131131722022	13.05980128885423	14	0.6440613684760298	1.174662173168713	0.4323411297831161
Si	8.727057993207639	16.039222232573426	13.798349680611109	14	0.4932197615535823	-1.0358384267337015	-0.9311371045550355
Si	7.552071226969175	3.875083869106292	5.52515642562434	14	0.28269585816613346	0.2962167868237282	-0.320399832133445
Si	14.225666365920182	13.406814297613638	1.6446520419450306	14	0.6442110068056623	-0.2225445920907371	0.6223861792955855
Si	12.305207911466564	16.05284078326066	12.59223925155039	14	0.6586053399405114	-0.1510534660008277	0.16071696534660426
Si	10.201175462416131	15.312235089665231	12.016647540032235	14	-0.6492611718754973	-0.9960060917823714	1.178309543175875
Si	13.398844303728733	3.4759148134973623	12.366360962528686	14	-0.06176309200059715	-0.5996306116596148	-0.5320267397032373
Si	15.959914395111479	7.218550443345512	8.987334565840868	14	0.5002152249086411	0.1907017098112352	-0.6872011733111983
Si	9.975311938718628	12.948866126955648	12.390832026503002	14	0.1251827471589657	1.0798336383088833	-0.1202930190611081
Si	12.149779905978317	7.142981514089349	4.701028214803623	14	-0.7640810790416062	-0.018622772944364555	0.20531150157191264
Si	9.33977793272276	2.335613434396534	16.089115903637175	14	-0.7074098040170304	-0.44763612111161294	0.612863319410821
Si	9.160646660118603	5.704645347192455	0.5881734083282264	14	-0.5375546161415556	-0.5244988004363756	-0.47448643108045135
Si	15.1990359113893	8.434784963032774	15.824852693469918	14	0.2172794826161379	1.3087106056926132	0.5726620308460496
Si	9.084324699328235	10.785344186702973	9.539531441459737	14	-0.4278234406250838	0.42481293340572246	-1.6324143081624483
Si	2.5982590212680905	5.0601356646744975	14.009756311325129	14	-0.11088971557373052	1.1761423585015223	-0.4603728626465625
Si	10.781802149486525	1.4688446078774762	10.276334243777848	14	-0.18000899700580336	0.029497005785398836	-1.7841681432524845
Si	12.5307662851306	14.775623834035368	2.505485208135644	14	-0.1878632095377917	0.15993612066087529	-0.5833943386734118
Si	1.594085728334387	16.407672851479813	14.36441283624546	14	0.3789454429364088	-0.09072067988982892	0.16816160080109302
Si	6.46410964097458	11.758644827325826	1.2898757538395207	14	1.0362544315745015	0.314271859713404	0.24946612167694363
Si	10.197977949431019	16.047602374352778	4.594534134306119	14	-0.7731025733889416	-0.598591627999743	-0.09724126009225646
Si	11.993859723016731	9.842565111793327	12.031770513196305	14	-0.23063997430175537	-0.20120956014414837	-0.7045795312806111
Si	9.382836899273435	10.281488982515263	0.04959344280501391	14	0.5144576057190695	-0.0656948262561676	-0.3261390534290795
Si	1.1150362688028626	15.24109739826068	6.2296904321989	14	0.7860308622702422	0.11275222426764579	1.086948400950797
Si	5.270480832637688	0.8125850084793871	13.967830993554706	14	1.1034289289424144	1.957213558609199	-2.2313175541269934
Si	12.949043310846049	0.554309957571063	3.158222457416218	14	1.6076399086290976	-0.016736352970971907	-0.6158422020347445
Si	1.2370027684705047	5.64252926887417	12.137449219679647	14	0.6897874481527353	1.0535569419369701	-0.05243923566761216
Si	4.158653560960983	15.376646355600846	9.186343246001528	14	0.835233847671384	-0.606352252298078	0.46004787493409577
Si	1.0001308752860287	8.673010344268926	10.101712957421036	14	0.47283835257023643	1.028223584107019	-0.5014005044612293
Si	6.4825105161110725	3.526860103762475	9.188840226382924	14	0.2932358473155485	1.0685989365019644	0.0056788003206110615
Si	10.034018867738265	0.2008133308962294	15.434224557614963	14	0.7652784427891991	0.26643953055843317	1.3978390000576744
Si	16.33745717254198	4.566839307881445	0.49977341234216777	14	0.5308620289932102	1.0560342019129325	0.2141368205833209
Si	1.5763739016605662	2.7311010025049023	5.366524344784669	14	-0.6619863434365062	0.3779558244986838	0.5910629174012854
Si	14.15008103074824	1.433901647862127	15.426197143024837	14	0.7304643912017341	-0.13169972781394504	0.00453748666899733
Si	10.487307758315332	6.546764285255218	8.068570470446911	14	-0.2262097027246082	-0.07175080772724438	0.4301145525758678
Si	3.2508010401509075	9.198045585725904	5.160972985411783	14	0.6164317564846545	0.439563621737944	-0.36503190649642747
Si	7.181625648704193	0.809077423686072	7.45527960506272	14	1.8746394259262589	0.7707219869730165	0.06486230235350365
Si	6.047958821943946	8.109291593999238	1.125296528530361	14	1.2531197091235637	-0.816706205623865	-0.6247634232745943
Si	8.700546033310552	10.749973032285821	5.5001324822883095	14	3.06885125550725	-0.8268191341796034	-1.4244314281629022
Si	15.867681977199704	2.874959556186574	1.9237757306239098	14	0.8694398328506341	-0.45309946280639557	0.591454239631012
Si	15.526032062308092	6.779222987095438	12.537719112237273	14	1.0218071336700576	0.14043557236021217	0.36967506559408286
Si	1.2490217423693941	4.060959613686744	10.50258658767929	14	-0.37136556734208026	-0.7148850356248287	0.42956819269533636
Si	7.482052419020675	5.231963023574334	10.516436461778992	14	1.5566973133683435	-0.2600662746908501	-0.7376711994141091
Si	13.113158248738694	13.209319883479278	13.554869484551295	14	2.4966646220348956	0.7870811587935228	0.5736663045840994
Si	2.8856414479495647	10.06733107972529	0.9498746334835877	14	0.004655757513724141	0.07478111245757091	-0.7963849605050106
Si	2.1677218546918167	1.5722576573918912	15.871573460422221	14	0.5792075507700826	0.5799174329489756	0.13594822224495773
Si	7.0343497427659845	13.704501279995212	3.5613305734034206	14	0.44829098163665465	0.7188787335186148	1.107069871186276
Si	13.911709636861666	0.7001060499061047	6.883179072422102	14	-0.31774002367975174	-0.036941127018823565	-0.034513232265007736
Si	13.833415684994792	14.866159880255708	7.347136730029537	14	0.9379451343322556	0.36468609283086756	1.347179483492669
Si	10.66938389280162	8.554467759224131	13.452207825979508	14	-1.6792606184271424	-1.5290854420036775	-2.0091804822295
Si	3.82820560536252	10.861068972159027	12.899080734936033	14	-1.2288361335958289	-1.2592816201338304	0.4362216990428155
Si	9.550907303460132	14.321316136088495	8.211461075097686	14	-0.16350455773470882	0.33049784827832657	0.5094776318244747
Si	2.275667858735665	16.189608700143122	10.252189657527511	14	-0.834852038531342	-0.40002567834577085	0.09098036152716388
Si	1.0328311466145392	1.1791833994944516	7.066575883128513	14	0.4931958502741049	-0.9270621597331327	0.37135296892601155
Si	14.78225182400964	6.2727838511727105	16.235366439839265	14	-0.2410287824583457	-1.952984604578619	-0.3299538023925832
Si	15.703114236031588	8.72627871220819	3.6376459718274785	14	0.7275449011107059	1.3673559753819988	-0.24913650597490067
Si	3.4527201297705674	8.429749987480536	7.334722373560399	14	1.896117411328648	-1.1055701454530336	-0.6274983080036358
Si	15.837910161837549	16.04462470063909	15.10403745607737	14	-0.6260165800076345	-0.14939587440092825	0.054281689740030274
Si	4.01712628791135	13.382103707268964	7.889839502187735	14	1.2263323912350688	0.23893770250146923	-0.4469342093592125
Si	12.570780313712897	13.466095433685501	5.9601576418837805	14	-0.12182462650032029	-0.2619619506433953	-0.44582297763984446
Si	5.7699851879610975	9.042709453366014	7.73827016809045	14	-0.602010940965008	0.6105727216811011	-0.27312543283294627
Si	7.21426849932748	6.113464362461946	1.9368430425410073	14	0.5478719475702459	1.9019250240257988	-0.32758118640315054
Si	12.167517982117381	4.986732316301018	13.90734074149001	14	-0.29084703336259893	0.4699448306429418	0.11059455268297753
Si	6.411369543523365	12.947473264706103	7.286515230638618	14	-1.1181868163695325	-0.9383680811574199	-0.1606568014821128
Si	12.847456239757713	1.3969013860082293	11.257952683700093	14	0.40193678093023694	0.042298282063884106	-0.07774225445478546
Si	10.236686067117397	10.4579182007908	7.432375306045194	14	0.23475708525090846	0.8783368857004745	0.6816079907977481
Si	15.294211550591632	14.49573398908966	13.460153210990747	14	-1.1992483677926289	-0.7028898008642099	-0.21656291556341264
Si	16.065829346782024	14.522715158177993	0.6074913741567036	14	0.051126172180612536	0.6786234517421204	0.6419278652813708
Si	5.041767601369561	16.40918875809769	1.6396269099422596	14	-0.17363599824875228	0.06880586369354678	-0.3730126174101671
Si	10.807016401445578	11.517715751169474	10.829005250362698	14	0.21845807729489378	-0.6348748091671408	1.124655974465557
Si	5.585344808838722	7.883290260609197	15.108524474042625	14	-0.9227108210893142	0.30547585130264543	0.6868347908030773
Si	5.071022630384713	15.203539335270333	13.609095957971988	14	0.048416998504772504	-2.419867248785265	-1.7033727012300235
Si	1.3629132502911536	1.4719125141279437	1.8159593333147068	14	-0.7977134506239311	-0.5516036498319088	-0.5323309014626109
Si	3.239800873621826	14.851855562288959	1.9784599290948064	14	-0.02302707635777821	-0.02221692107139955	-0.5342983112535882
Si	4.785021581811737	4.384861608889823	13.796261207532583	14	0.09586289053012507	-0.09950871787409506	-1.4396816822588283
Si	11.134260281692619	3.7651281403796504	15.660216047455535	14	-0.14662113753942443	0.839816585794016	1.3106816150310387
Si	5.00565325896767	1.2492038480345289	7.093542286892648	14	-1.5640090226777807	0.490940219576739	0.040254253334366386
Si	0.7471877470055222	14.420545677079543	9.895966367650393	14	-0.36758732807412264	-0.0613247185435119	-0.15062152030704282
Si	14.983367023756182	0.9202734396455227	10.518329704459763	14	0.8248848916472561	-0.06640445132452848	0.15271260026391925
Si	15.60268050082244	13.214415560919893	3.722640099698045	14	-0.12837297464020545	-0.5713602802224587	-0.3064333309238686
Si	5.33591746830942	10.161970245481685	14.462605523359347	14	-0.8991229866612117	-0.09171312654340608	0.8551236613175177
Si	2.5302745468760506	12.736289754446663	12.944987768465753	14	-1.8154592663302827	0.928369052567364	0.31246488689440394
Si	0.3815458208803092	9.93232843938053	6.754432007763454	14	-0.29357986120738433	-0.12003333742377312	0.028665253214330933
Si	12.55590835106023	12.370549392826783	9.715783475844871	14	0.5052345367146343	0.24390662064318744	-1.2667331975726834
Si	14.303202364478116	10.824367297972287	9.36641293698818	14	0.1354283447492238	-0.07638805328266346	0.018362319975433552
Si	9.693305730637572	4.741875663907439	11.319079485296973	14	-0.9010757411518641	-0.5350727281760167	-0.5972945053657284
Si	0.9545224294234668	11.238652764378973	1.5187399195328035	14	-0.09212810294207797	-0.7292276895427428	-0.38284606681760547
Si	1.4086381781557389	12.205123622263484	3.549862838274669	14	-0.965352859934502	-0.4771454682025485	0.22252813701668817
Si	13.403426476005501	14.50457513710237	9.796781122631941	14	-1.0011457313173475	0.3301031836116838	-0.4358879695722603
Si	5.712024728109355	4.49568192937796	1.706887883448494	14	-0.42281004236132713	-1.7340200195356563	0.44594022004244327
Si	12.108156457058207	3.7140712898872477	1.4216398664097245	14	0.4306976792624774	-1.673175583465948	-0.29947720548020795
Si	15.42804280854985	11.686019119360216	7.337854262882401	14	0.7039005023655602	-0.015576013139989077	1.9038353552786684
Si	12.985302025306785	5.72469993863936	1.4245338699529462	14	-0.04212344690211404	1.584253648858095	-0.7645055685299625
Si	10.95878916889851	8.350127156435653	3.013929146966432	14	0.23422718044442598	0.5190591129105384	0.42428765658881623
Si	9.764684589004059	15.931655205184047	9.893372592365905	14	0.2465286338486745	0.2313578269071407	-0.2635424090836903
Si	3.0923805956247716	13.315459596195979	0.13552270787492077	14	0.9910983659472729	-0.10462778856650988	0.07178551764906639
Si	3.4110064483136786	4.477400817426646	2.257160345146616	14	-0.6415519696835652	0.1419363265355826	0.1718228547769839
Si	16.575342951321534	12.582354687294206	13.956574894739488	14	1.2990795022738706	-0.36557363838738266	-0.5359911269963736
Si	13.88249398204438	9.964718638900838	4.961588609779809	14	0.3509707886110697	-0.38908176855056054	-1.264415603237102
Si	13.529095790864215	11.134178252113728	1.0895923340229177	14	0.08593919532594954	-0.2605586413596585	1.2336322734600331
Si	8.302751793443813	8.807269796628947	12.689777342624739	14	1.0671465191066127	0.09899475392059746	0.7998744646455157
Si	16.39594098110704	15.268040833742726	4.308083563640828	14	-0.870603258008001	0.8913831883159699	-0.12814543181937235
Si	14.841824985382349	4.6721357565271635	4.886546310420116	14	-0.03722394860403986	0.6380277556212383	0.6268655589843474
Si	2.0930011112813705	9.855550394131535	8.269032714745492	14	-1.3602682093459464	-0.5894706318765177	1.2810941063383707
Si	11.667434497967012	8.533420609872662	8.286291738143845	14	0.07597770487356782	0.6510899990897187	-1.2399211970731154
Si	7.066298623151867	15.213560068627475	1.7941493088795664	14	1.06651068476094	-0.22566951349684508	-0.2795660516599172
Si	11.004053090529736	8.699748705803747	15.643249049358031	14	0.37126143757661423	0.5942891403570072	1.1120981818608897
Si	5.633553592352081	3.530244644187456	15.792436244484366	14	0.4021046741076426	-0.35492180615654123	0.738154310103765
Si	4.88612795956778	16.06934513453323	5.465417564502274	14	0.39292454256205395	-0.8970213651725225	0.08607880634483357
Si	8.83773394163693	9.124981839809026	3.566322893574636	14	-0.4746039305935821	-0.47330757929116346	0.7151033224665092
Si	5.884672382798086	8.897615534226267	10.06063582549633	14	-2.0408981516799103	0.3636162559071539	0.2455696115642592
Si	13.85443330369786	2.106434275120315	1.3513552826256232	14	-1.4595002762875937	-1.2738099078558593	0.2722620556664405
Si	4.01381557410737	8.298389460438468	2.097483207471893	14	-0.39933430812518306	0.01960930605570537	-0.5568767297330005
Si	7.851069042021402	12.832644978993425	9.102133320905144	14	0.902828463648609	-0.18877055260527195	-1.0518304447144906
Si	3.4328345192561747	13.342350532747535	3.6854446074463905	14	0.10103955398171122	-0.2155046486136397	0.5991618991597518
Si	2.5951550220029116	7.483442000087063	11.414775192029463	14	-1.5186593528199448	0.38748048415717234	0.5881112884937555
Si	2.339985610951344	8.885053524515126	13.360249386861222	14	0.2115443750890156	-0.4901827719494234	-0.24532664211150523
Si	1.1679519095529014	3.6009590629649386	15.01989151405252	14	-0.28120024620140327	-0.6378066405637055	1.1536662700138516
Si	7.222586298626875	7.020412917312658	13.742850108126053	14	0.848376309625853	0.8350703253730227	1.0437000954711184
Si	4.495204517228823	5.631036924871752	5.047055228024778	14	0.3387600952246224	-0.6636781307371635	-0.1281585444565051
Si	13.224226298555076	4.281512542446942	6.513873705303684	14	-0.5144938583040836	0.42172632146888467	0.034008267180130655
Si	8.637005921502745	5.262898018365142	14.492196873647945	14	0.24752879381821208	0.8681421959955554	1.1402898374752495
Si	15.5688449401221	9.718398578819869	1.4444522922988945	14	-0.0909927028327006	0.03495083439049694	0.27559266549816036
Si	4.659112740582667	6.753880768993317	10.742444357535343	14	-0.06923729516626762	0.8177433895100128	-1.5937189159836878
Si	0.0926802994125127	2.395913377838205	11.695923370715334	14	0.011003045217573705	-1.1691646357731724	0.7554372800658004
Si	6.146975086029885	5.940078441563209	12.206636247698208	14	-1.6746004900343743	-1.7459324647049665	0.45943003832566426
Si	7.191922001446402	10.741051495285799	13.460919367257572	14	2.4332997314198463	0.5503672052834496	0.035090959630445014
Si	11.161723784704822	4.863714197432012	9.548602272293337	14	0.11426737663280906	-0.2978494387020222	-0.5286315951279817
Si	2.8081677918715875	2.4544923407147747	3.402600057069083	14	0.10820522450896393	0.35518045935174813	-0.23946272220784348
Si	8.18645681886059	6.76196232310551	3.993444348485951	14	0.9717829372296604	0.1773602443049868	-0.970613341419525
Si	7.515956884567283	1.4807979581132544	13.040014113834506	14	0.0522523163108374	1.2001757654816063	-0.07047553948845094
Si	3.2533866124775046	14.279558158659006	5.86826318583703	14	0.1559236536982522	0.8462726312529077	-0.3687252992888202
Si	13.399763035012295	10.841983970334594	13.557251623522246	14	0.8156631081954808	0.15198137791086913	0.15335666214661636
Si	4.4039006741500755	4.947932325486284	8.94907925142996	14	1.0033795076194922	0.08185859407234253	1.0313058251648124
Si	4.537882866533452	3.1409453875105116	5.513002923216072	14	0.17313103316387524	0.2429871933807025	-0.24575781647369402
Si	8.257202408878051	3.0301857689107528	7.6058038823249525	14	-0.7338142843233549	-0.9478593164467467	0.4294391232082649
Si	16.25602969076153	10.799669832360236	10.788285767401952	14	0.09834195027981187	-0.7442149195644179	-0.8667993076868421
Si	14.451449500630375	5.282668787469089	13.952658802643302	14	0.3853222983514401	0.05781670244470187	1.3943073297899191
Si	0.9175057616537909	6.95386724173434	3.7247761499323278	14	-0.3622198886077815	1.1404466748997784	-0.18741558010155393
Si	12.114489140548477	2.2480124065088587	6.594151132388104	14	0.18796271131368142	-0.6343528747871506	-0.14997385887689754
Si	4.81171400678238	14.310581745395014	11.296600099498093	14	-0.13850415804371694	2.1769613023326793	0.3579518537763357
Si	7.72269603224249	9.756775297007533	1.517486507567372	14	-0.7108113763555861	-0.14837668825202155	0.4646164719774669
Si	9.19879697666853	16.274579859731602	2.4741466278166993	14	-0.6569536618828483	-0.6357384434441785	-0.6656573676126135
Si	15.560569796203726	7.837237214429055	6.678215044834064	14	-1.0150003894454975	1.435143424258235	1.7739788528687377
Si	16.23242321854871	13.93253530635013	7.734762583297135	14	-0.6547083156067629	0.38407042717105994	0.01844022446663404
Si	2.0991205178665275	0.8494080864428837	12.31042171150078	14	-0.5999334878663283	1.5310520804630587	-0.11926894781209313
Si	6.822670773850051	7.069622461688469	7.605869505988064	14	-0.856676094709823	-0.20511944000449756	-1.37091901313466
Si	15.662567015186509	10.674709253063126	12.961626648247698	14	-0.840841942595691	0.5243496763278072	0.6902710730634551
Si	4.594145314102182	1.354309988057223	15.929732431854877	14	-0.8371390367136138	1.1718198162372893	2.3553944688877633
Si	14.80301515101815	0.6886481583268194	4.707521676268516	14	-0.6638689067519185	-0.5427994138841257	-0.4638862780665448
Si	11.025200315967448	7.06219058184108	1.0577008743422578	14	0.037701145751459345	-0.1238606848033456	-0.1888803388024423
Si	15.421898793091026	1.7131204908525184	8.332361190239766	14	-0.125482538039295	-0.009302001937763735	-0.23491546533862961
Si	6.4376780700648055	2.0077953470972694	11.02511008343067	14	-0.8268913822390995	-1.128010238466222	-1.2495638704657988
Si	11.338520495493784	1.4362985521572782	4.494646716092374	14	-0.282912859455154	1.615760487672253	-0.04640433726016059
Si	1.3639090893788723	5.787354130995161	1.9222434180902541	14	0.3068300524747674	-0.9844078356831835	-1.1817442827730609
Si	13.160413848545357	9.693648614277329	15.62740913767447	14	0.01835846331745333	0.3735193822687683	-0.5117797995281352
Si	12.376775437864495	10.244557625507634	3.1332641377432986	14	0.13911479555725212	0.8263151975368542	-0.2554359711197955
Si	3.0830751601955466	14.635020214044031	14.544938611690739	14	-0.17189304595222393	-1.0668636975213965	-0.8833402566534827
Si	6.725308226074526	2.8775336443721264	3.500074165071898	14	-1.076905663570299	-0.28285603802757864	-0.9948573219253295
Si	11.1468190102206	12.726475735628323	14.371852919050736	14	-2.1017670132501602	-0.49541060039688045	0.7562926868058135
Si	7.556297390873561	13.564667097453857	0.024190522814513553	14	-0.4708231202203043	-0.02179268869357512	1.417222563066271
Si	10.83319204006922	11.570925057811937	1.3493914945070085	14	-0.48111602614845317	-0.04339922936197151	-0.03737307271260845
Si	2.295190898511366	7.490319359981159	0.6787668752537902	14	0.4829931901426932	0.44200282935516855	-0.18885128531232462
Si	14.366434045069296	6.994386572522598	10.610027289517177	14	-0.6998476690494106	-1.6238203886298535	-0.7195497920071734
Si	8.471721241815136	2.043279702333289	2.0391125997257022	14	1.1000317274829026	0.3977389372740312	0.11766997741349303
Si	15.803210009375713	2.725212919332214	4.233841872971098	14	0.6909999814217171	0.19832477997494224	0.006366056772686644
Si	2.987687884679681	1.1658946077143526	8.530049194180304	14	0.23875643957639883	1.012406144177468	0.3868965861389667
Si	9.948342253771337	13.325089868757606	16.272104207040716	14	0.47982198884082267	0.20358320457570908	0.664017002418359
Si	12.099523664175875	0.7845587825560005	14.564581414651618	14	0.14998362907711407	-0.29852949605920137	-0.20169909859710458
Si	3.353677616219385	3.1956443513056074	10.080847913734702	14	-0.2980163034372998	-0.7544620598178681	0.2286296270519316
Si	6.325076067123189	12.804044546017813	10.72544618819786	14	-0.32298173609593767	-0.89159376184169	-0.3686209124128222
Si	6.72360529201678	10.742905363768703	6.317572001246377	14	-3.1771518680235915	0.4896685508853937	1.6057933407881675
Si	11.230697535818269	12.83858884227976	7.70507279751387	14	0.558396767198272	-2.2942499848271938	0.3834621036523129
Si	1.0315252357186184	15.651954028269786	2.3334101199075614	14	0.2741744438035667	0.3832152775415787	-1.3289272068249376
Si	9.064306200896041	12.668146142671578	3.9939496506919103	14	0.05307224179743262	-0.7724698243696533	-0.3203982894702529
Si	3.211899332658351	7.274461804316595	14.86894232357164	14	0.3648095058862347	-0.08668764408464465	-0.10745009087643642
Si	3.215108329784508	11.608650461143219	9.147387398986904	14	-0.3804893916811577	0.5894791165240741	0.3442522332989907
Si	13.390369007637869	4.682774992909132	10.267671920247116	14	0.09503268062224926	0.8628819716210644	0.48873498254364806
Si	3.2006842486325784	7.233637323494868	3.948288705898859	14	0.11635768525808945	0.34284609579940173	0.18776190798817788
Si	4.710809421790406	10.96822421106238	10.785708398033243	14	1.7248080062840978	-1.071597359526321	-0.8692732252258883
Si	8.876031911428859	15.733906499355129	6.44950017297436	14	-0.9054440490907958	-0.18946835058916012	0.2729711665137374
Si	10.793753859130724	15.163316951557656	0.9690334619290194	14	-1.2324009711222144	0.7196333529300781	0.013462564566827356
Si	14.652878053368276	4.009399101579959	8.417599766255423	14	-0.5126506329000693	-0.8334929522591118	-0.02695366840270836
Si	7.402843017053396	0.18711767240483848	9.626924114217033	14	-0.2958920562217935	0.21983773240968524	1.3638752129995824
Si	6.711911155250293	6.096495723772863	5.5314382507756985	14	-0.15371970221782125	-0.5444310373202917	0.39647883855662663
Si	13.064952746408489	8.787886207137358	10.159104131995285	14	-0.20380457674377384	1.5906940105745337	-0.06523562684598914
Si	8.389386512892168	7.047896107423796	9.126473137553237	14	1.2797352771766723	-1.4516440068713492	0.571819222522105
Si	15.404656175608453	3.0257364845517865	14.035662892930011	14	-0.050153780148532535	0.33799184895496215	-1.1872875858433
Si	7.698605585514222	12.799368860021112	12.461828627031863	14	0.07502253924713281	-0.45071090596397806	1.7902092123127045
Si	3.49513598442275	5.985860790133017	7.052627573534143	14	-1.093313686391888	-0.025209173442987884	0.7112137543381892
Si	10.57381451162062	2.8855823866527643	8.332753291626856	14	-0.12310118029177382	-0.07261932710439041	0.2943231677554391
Si	8.093279420200007	8.891289413102307	10.403970627938332	14	0.6604897030296479	0.3134010263414699	0.47562903028472514
Si	9.598223605155175	4.704250336662403	4.501596262015893	14	-0.824815986024676	0.5594154391261148	-0.26124692625386214
Si	4.141058216289184	2.3792958257467705	12.470098849175502	14	-0.29477259696540103	0.03997091752808606	-0.6395539637392782
Si	11.058273001584118	13.8895173545889	4.145650232115418	14	0.9866963765286472	0.9012798869142838	0.7004662769894383
Si	5.364442434072454	10.173782504841773	4.5124110416966845	14	-0.5444960862848914	-0.5524551999139419	0.7269496902290916
H	2.83249284319548	4.020323800896462	0.9388449363061055	1	0.23073433386700481	-0.4786315670775941	-0.5748346148415747
H	5.607046554229728	6.334391346101881	8.149861783126406	1	0.19744494773438756	-0.14526667925677042	0.1501281251961064
H	11.001876025506009	11.200441745940667	14.554695209803855	1	0.22880189110838153	0.16899926691439726	0.04293720173594091
H	14.413046532977466	7.561795013250736	3.2557293772505886	1	0.2731920244607381	-0.12559489534178547	-0.2011527387165731
H	12.0535985841388	15.106818258801724	10.444347227259321	1	0.8728483471735543	-0.0733052980038059	-0.5643470762406908
H	9.578562755686939	4.337174533498201	1.2195501552659747	1	-0.2774690581608044	0.5265284309761006	-0.020470626337954972
H	6.072607069808663	8.885220864856063	4.142567560540751	1	0.16358940421027368	0.13084483529499583	-0.3871495829024693
H	12.851291942866588	13.297888860397848	12.14888578356842	1	-0.42997802688336795	0.06579484225312136	-1.5195880360615825
H	6.732848384966049	15.498540669239064	10.22347766432461	1	0.11129209355633371	-0.06115399715025407	-0.2753702648879675
H	4.040055195802543	13.06431455628473	11.77375467575727	1	-0.6199847669265671	0.2153002457406879	0.035093273625233144
H	8.284693801947077	11.097228848598741	14.61065086674754	1	-0.024486178626962243	-0.4328697490369385	0.3200740730893822
H	11.611775788098907	11.480776191203955	3.831075000032075	1	0.22059697981072496	-0.5858155485533952	-0.40990900719642015
H	0.21367064709136965	6.199034337976316	14.74978943845991	1	-0.16279673244007206	-0.4783556874767422	0.32012883763270134
H	5.109714342155312	1.0874021442665678	10.72454878460481	1	0.6912311237899984	0.25212438746744475	0.3477340241235352
H	9.40395459406275	12.087097823565694	2.478077485237084	1	0.3105648400628145	-0.2776336089012939	0.30103786640953784
H	0.6975467270447523	6.774207698642135	14.582035668447725	1	0.44988146738769824	0.2306574578179324	0.1546108473217846
H	2.830420776032731	10.144834266451669	15.648943542724542	1	-0.2456485444975878	-0.48326109931705263	0.6643558740995545
