231
config_type=amorph sigma="0.01 0.1 1.9257606264267502 0" dft_energy=-23319.709048571178 dft_virial="56.801168505854214 -2.55966599137903 13.872259221416952 -2.55966599137903 55.174125296823064 -6.201335903404084 13.872259221416948 -6.201335903404084 51.120647922462574" pbc="T T T" Lattice="16.3502463575 0.0 0.0 0.15550719310618252 16.504478231390298 0.0 0.101796633821795 0.0621309361585 16.294851722840793" Properties=species:S:1:pos:R:3:Z:I:1:dft_force:R:3
Si	7.8320361492827635	3.373955087101913	14.929342913023184	14	-1.642873050383747	-0.8101156913567295	0.19417527309875526
Si	7.047176908408327	14.429934448181163	14.624384658061638	14	0.6103418364233517	0.519484373730491	-0.2927900176530348
Si	11.864360066363586	2.6070108111613886	13.38020775641377	14	-0.08000302736279165	0.6003566918020247	-0.7828226370517616
Si	10.517752141335249	3.191765926964926	3.2635173480801787	14	-0.22815911477834447	-1.243943177125423	0.3793915297094545
Si	1.5933233324151963	12.382805123039647	10.61664987647786	14	-0.06922675363445502	0.04612640077505258	-1.3874165104213902
Si	1.0809589323594904	13.019156711273546	16.011876374106905	14	0.17939296017109588	-0.6907079038573484	0.4186530792797117
Si	6.8562877821845145	14.70487365083034	5.946350791699838	14	-0.8671911441376327	-0.9046554910891065	0.6555076722507971
Si	1.4620897150513585	4.797996143854733	6.457878059142041	14	-0.3085506361550105	-0.012006804734559515	-0.6115713389874465
Si	15.218897600891331	15.000221230982948	11.258128901969473	14	-0.5315567416507143	0.8947824466597377	-0.41671600853151214
Si	5.011406099411365	12.599355960921555	3.424851768988175	14	1.6544060004078032	-1.1354867556266808	-0.04220058006171848
Si	0.30936955142880057	4.901290460242875	8.429995724044618	14	-0.09503782283288956	-1.015234102919099	1.3202821222964718
Si	16.24542819815134	8.697114603861003	13.553487667310554	14	1.1080620607293212	0.022884122901977978	-0.5956294575604004
Si	9.959721503203046	2.7213644341857437	11.993435451208233	14	-1.033155221221595	-0.04005962066163118	1.9672622095319336
Si	14.303937814725632	12.186795099656665	5.632918204051199	14	0.0003998068772830262	0.8390820210040497	-1.0360999081447606
Si	12.822033236113619	5.370638997156634	3.3289412238550797	14	0.8588191109941663	0.5498272731662185	0.08234170476199835
Si	4.51609991138044	11.45370564382398	0.04144950954089826	14	-0.9972451074361509	-1.6723080925309302	-0.8658541693711556
Si	0.8931583676726096	9.956036157674067	4.624869925273709	14	-0.2607861841804916	-0.26671386749609305	-0.00787221026922939
Si	16.29853870339441	6.42505820962863	5.496840008691634	14	-0.39524650777667963	-0.11832329527534266	-0.6049036915607066
Si	4.77945005941142	1.0687959840941461	3.816515380383544	14	1.6812470543974891	-0.7295673325555344	0.5106737100194075
Si	11.421042756675604	5.498803673279169	6.140323574386675	14	-0.8550658114478142	1.0078997678828445	0.13158377096400636
Si	13.232802110377728	8.529766562342719	6.15287075344142	14	-0.2312868644003046	1.2263838133414717	0.10797459636174664
Si	10.455418462121917	5.885663582294706	13.286138249020528	14	1.255088661577733	0.15818776904317458	1.0740404238015258
Si	8.582844367093072	16.230094937117276	14.018379127067258	14	0.9973464089857648	-0.6768833276614441	0.146561745006529
Si	7.72043263769574	3.9195399177067873	5.612354499207371	14	-0.28676257545101164	0.7675770109454115	0.6538341397979126
Si	14.273877886797369	13.418668440920515	1.7962952906972014	14	-0.09650463841803404	1.9223079756723365	0.006398966920784539
Si	12.37786734863968	15.839551317597397	12.668107111830206	14	-0.9237505760807819	-0.7154427083687689	0.24509241441683977
Si	10.038838710302352	15.28898129687812	12.348515386378697	14	0.4466457313422919	-0.9142225739853772	0.3225654741446057
Si	13.472223672864507	2.535916669949707	11.628983554825652	14	0.7936426195705407	2.715549502812934	1.248979201115997
Si	16.173910585559	7.027935938494821	9.01691888251516	14	-1.2359511533482748	0.48019814154916035	0.13280530310160873
Si	9.84035979971939	12.857622817359989	12.569099830037002	14	0.027142901754271257	1.3773539755299267	0.4913924770025531
Si	12.028508364669706	7.291215780466464	4.688256560352465	14	-0.5811433359656221	-1.214805097642717	-0.8177235919990475
Si	9.231252626990992	2.251630031457948	0.07536155551098901	14	-0.5037456096237365	1.2780455467602712	0.9295095948873817
Si	9.142797794196916	5.710523013362438	0.5775086866178933	14	-0.1217636913042328	1.5225021268314383	-0.3087295850852928
Si	16.173439698463902	8.281952418400635	15.728866689855664	14	-0.05391145057392895	-1.0863681024800398	1.2786168463624081
Si	8.972156813062233	10.800797796128476	9.541776505812631	14	-1.094669430227202	0.6151400331718122	-0.5029295407951215
Si	2.7960981402366047	5.140275471151909	13.979890647141703	14	0.9383809366840206	0.011169909952851314	-1.5017293956183657
Si	10.215316729386666	1.3960919456293097	10.23287362392535	14	0.146457615241063	0.2708664596986642	-1.4695047041988218
Si	12.479933761526375	15.181256063727094	2.261432004149269	14	1.9145614924532623	-1.6749915551535688	1.091911662660811
Si	1.411039340849336	16.502171211629257	14.403394728293668	14	0.7314164715017848	0.4895829330782328	0.7796416655496743
Si	6.185257321426357	11.903128135501854	1.4065168627068516	14	1.528658895631065	0.46862122562412956	0.5415493424774698
Si	10.115299002368566	15.999577718796793	4.671880153600792	14	-1.800477178519248	-0.03055347296144768	0.6245207109323723
Si	11.86539340193338	9.539752345313573	11.748750744418974	14	1.226472773585549	-1.0276713106842512	1.2582020130099003
Si	8.958640064398487	10.256050098137106	15.94456077482844	14	-0.8180303248637412	-0.17001691040011188	-0.40741040704630016
Si	1.3535551447056375	15.305078114417078	6.6223582674492185	14	-0.11095373609620224	0.9661475885889599	-1.4917985013192938
Si	4.154968750033065	16.535272285380014	12.410404338891105	14	0.6314814643656094	0.5877459344277624	-0.22363756896233208
Si	13.33131070965703	0.5827293202798431	3.050151538188711	14	-2.1601660710498756	-0.9880932580490838	0.7704779890781345
Si	1.3337288359725332	5.842302728954615	12.194334198252108	14	0.3514238173684798	-1.0750781219087375	-0.28957922132923386
Si	4.143044515364541	15.135132018752588	9.189660870306783	14	0.3279457691375475	-0.46416524299378087	0.5958251186752636
Si	1.125380916688182	8.765785638562502	9.816279156884063	14	0.44744097421781365	-0.23387853856301385	0.4382443875981761
Si	7.460247897359571	3.5615283833644242	9.548342764749803	14	-0.9284767818802783	-0.009747831600277411	-0.09546102676858592
Si	10.17023419510513	0.33440014357749726	15.715145563112449	14	-1.380189133366454	-0.8815620802140683	-0.5071592661572971
Si	0.3501928465342065	4.927019207911037	0.8016018931445168	14	0.40893584383274406	-0.7119601462126283	0.6669976848160067
Si	1.4902693646485095	2.7423646906073165	5.207296765995937	14	0.25718535117962427	1.9775880256081801	-1.3470753537272029
Si	14.098495334219008	1.3368762583963518	15.236761880061536	14	1.1152704116048882	0.2927002860773617	0.8112163815442848
Si	10.518896658580275	6.435139771532665	8.080958839927886	14	1.7893998283579218	-0.03442838578944286	-0.025044879813030423
Si	3.0298755976807756	9.16463191318272	4.8637355793843335	14	-0.3773459583167447	0.7780023287975478	0.5723085038645292
Si	7.05752824937726	0.788729344187257	7.663419328647137	14	0.31141767569750767	-0.7647485379827166	0.9738285086223702
Si	6.346178081101507	8.103379932757926	1.0636244011712688	14	-0.7751993097775224	0.11979396751846735	-0.3313293437388624
Si	8.60650807864628	10.196674178489843	5.734126229004124	14	0.40523268084013475	-1.2328542569901562	-0.4828371240497602
Si	15.816445149444977	2.883101071154134	1.7921079926050456	14	0.4198887524965749	0.7654967296308797	1.0567764800188593
Si	15.568621195355078	6.603910284484051	12.763594185582642	14	-1.1859300422342618	0.4539268444984192	-0.9363543914706798
Si	1.1345730251903687	4.014845503724655	10.69682003944259	14	-0.06496926033482181	0.5212232122585071	-0.8783104033156769
Si	7.863062376770756	5.5234271442935645	10.625124209164952	14	-1.03601814699558	-0.13733404801251756	-0.22415076158423364
Si	13.070779344098082	13.542828941710098	13.375662387926383	14	0.42326358533980124	0.9645959265282504	0.9561729854994454
Si	2.92758682144362	9.881075183198837	1.1494386691786076	14	1.1240265678831847	0.5941505577802512	-0.3607970389236116
Si	2.223576278757749	1.9086541836659414	15.678319903241453	14	0.8992098900210326	-2.426226363573587	0.9201757112436482
Si	7.144156759653203	13.636934419645327	4.02404578735002	14	-0.7343804417148515	-1.7966770848560687	-0.5714831790567617
Si	13.902125605416163	0.6441228603276198	6.7362916891421865	14	0.5960297786587474	-0.5227293657550498	0.7015463983344326
Si	13.74119340056856	15.005106684594569	7.677889296673525	14	0.45161619214720217	0.03983644871984232	-0.8605625775117588
Si	10.623930641180854	8.222435886634699	13.464485101263504	14	0.35795262510793174	0.05967689714382899	-1.1447134241785641
Si	3.690075655251725	10.435149061712524	12.886229208387071	14	1.1100179005463577	0.8720875571093227	-1.500399362836253
Si	10.121966632833155	14.57798429392369	8.18356808099365	14	-0.49012286519546394	0.14795348431632516	1.0833426828498214
Si	2.0502162516538123	15.956061538116305	9.890128314606985	14	-0.05025096792963413	1.222689134996419	-1.398573564847641
Si	1.2299619974646594	0.9856664265387088	7.889608636756793	14	1.729862285122445	-1.1854219918230007	0.9867660534828232
Si	14.917088403378239	6.1222761724572665	0.027587770679009752	14	-0.13335783363490855	1.2794221165486785	-0.017046942493645793
Si	14.54956102565581	8.57481966618081	2.7055651911304914	14	0.6983168329417945	1.0211047076965931	0.1240542890339527
Si	3.271267364853634	8.27225181723673	6.946315508678182	14	1.2469410859287158	-0.14885388539944103	0.002352047146871463
Si	15.66838385853	15.876761208257795	15.172511951975105	14	-0.9381911891113938	1.1561263035841693	-1.3529634420208738
Si	4.108027192740684	13.235511346199164	7.69935063004238	14	0.9442019191288359	0.23067674110783348	0.6227710737620116
Si	12.545843239618094	13.602214671505175	6.060137061175588	14	0.6076056661416501	-0.016345544962309395	0.4144002139696548
Si	5.439895370677733	8.967130747331936	7.657928915920289	14	0.4205456699058727	0.36911610729748273	-1.3491774894369557
Si	7.163600472621542	6.163657010963464	2.006776917131206	14	0.8232614957481146	-0.9388915582006021	-0.8168805265645711
Si	12.070042895491666	4.5856538593852445	14.571818616022275	14	-0.5559539600335994	0.8113457081418883	-1.2265835882248475
Si	6.400359527480991	12.795588347654999	7.349777457845122	14	-0.5797037740968711	-0.06936353643748688	-0.3632586151571214
Si	12.28209741562526	0.8395377347431883	10.923629021889194	14	0.5057024778829011	-2.5116143139188964	-1.1874166553303716
Si	10.283979588964987	10.601285549975717	7.579354537000051	14	-0.8843334746386559	-0.6741672120012396	-0.058869570073302506
Si	15.25837363569688	14.228829688033183	13.529778175067543	14	0.3179629385110086	0.0322588871203019	-0.2914669268552866
Si	16.156643090380843	14.708990642863158	0.6841760588295875	14	-0.6429645349464546	-1.542790718912727	1.4413115059212702
Si	5.067987761956131	16.258060398487146	1.8119882571511299	14	0.9149118873217089	0.35719929124912836	0.8344157219585131
Si	10.686937950544117	11.263491782774732	10.998519690305088	14	-0.6584898973116369	1.4298083807189277	0.05374484294918336
Si	5.630395361038237	8.116898316446308	15.11618044819961	14	-1.0377862961242459	-1.9839175726853207	0.8656525947140559
Si	5.0626722968653075	15.621211762763977	14.395051197577438	14	-0.04013906781602375	1.7583596451593702	0.7187360371733466
Si	1.274501703567125	1.4748036666189503	1.651695346936107	14	0.8675238451660597	0.04770583077321955	-0.4994066122854545
Si	3.4617935156083104	14.594265869246488	1.843778041144017	14	-1.2779262474734163	0.6599924512607312	0.1564026506193958
Si	4.756234344608407	3.9922004125195176	12.973830558321286	14	-0.8457720370470749	0.17258981549398403	-0.6023935214366459
Si	10.688630201042118	4.116974047547507	0.17269620710182226	14	0.3564600984695858	-0.6515003474988142	0.2626111547367327
Si	4.615494694012318	0.41102230308264953	7.874128223505512	14	1.0909685812293808	0.8535840834518128	-0.09778170643055159
Si	0.5699548728007282	14.272350773787577	9.845219092936839	14	-1.0487934551103317	-0.0982283074246613	-0.3897726245500843
Si	14.865668513608538	0.9974909247044528	10.542362532152561	14	0.6978990283272705	-1.7778632787864175	0.31834217654573044
Si	15.365242115938772	13.563886423993923	3.950865354703122	14	0.5233400032685849	-1.012509502611338	0.060706624824548305
Si	5.283882954959104	10.203248612550196	14.502043939691646	14	-0.0527680800380591	1.293805651041183	0.15938307590651143
Si	2.385301470553689	13.295838850184433	12.496733639658707	14	-0.37239863745971574	0.6316627272906796	1.4994632233891876
Si	0.21124354791426425	9.997122691745828	6.899599584785532	14	-0.8707652376431704	-0.5100833842379016	-1.5319794781520362
Si	12.418816540642041	12.371660795122374	9.853464522174926	14	1.1458591087092223	0.28955762404454466	-0.34568562451497326
Si	14.50016856643444	10.78378372976886	9.455854326179335	14	-1.6809410928643913	0.6491634698733316	-0.05878420937667359
Si	9.891298992246181	4.931736253985175	11.355133278583883	14	-0.016915816122318243	-0.4254012023029724	0.16797391011272222
Si	1.057278870559923	11.203192074208273	1.2558673277934824	14	-0.3964369295399082	0.5335010114938102	1.5287964497656927
Si	0.8583666784484854	12.032955631678949	3.580515924459389	14	0.1554652256196698	0.18536589494033187	-1.2708150843789507
Si	13.17760694872408	14.735693865214227	9.9699731076692	14	-0.16363259877965217	0.17468423788777668	0.39733604507036396
Si	5.955479134241231	4.1816180165711545	2.2754785007949967	14	-0.21906511526098074	-0.15850658610287294	-0.3583164365107327
Si	12.226748561655853	3.681795890496287	1.799261225386452	14	0.241520377795558	-0.341704782147788	0.3138147171874817
Si	15.423071302280613	11.843148891764	7.553544038100101	14	0.002006490591843561	0.0063336608456527775	0.12338837275603438
Si	13.304399839177218	6.86675357487795	1.6362476341775412	14	0.2429339715005754	0.08544811420980125	-0.5383367463799448
Si	10.75696605569329	8.564430719645253	3.0412880696383104	14	0.7477465898321735	0.5852936141734052	0.7398280996671812
Si	9.669573301392123	15.808480944444238	10.16334420129008	14	-0.5101679736029343	-0.7632192445382924	-0.2600673031329782
Si	3.386072254677456	13.42075963742964	16.180445779028094	14	-0.3507884972438711	0.12083912183110754	0.2327505946590649
Si	3.9719146618637673	4.476285426475291	0.24852701468327154	14	-1.0978408886396045	-0.6991709541291478	0.3882291900263995
Si	0.5314582177519945	12.50970102004484	13.805356672349298	14	-0.5705346983041591	0.18847230438813478	-0.09466835499838429
Si	13.732248180786373	10.340981452841138	4.454703101283392	14	-0.7449497414649162	-1.9422060168554947	-0.3831936802568895
Si	13.613215117254502	11.33758128911911	0.9206905475140038	14	0.048154488651585385	-0.8352757566881025	0.5241864111399778
Si	8.531228274367079	8.84848845468801	12.66476675649937	14	-0.8287117248057645	-1.246961911881809	-0.5282690692778409
Si	0.34728250268257155	15.529390414244892	4.275996543620552	14	-0.30723217334683856	-0.2715012656022087	1.3922638152814655
Si	14.594481692498405	4.864118175149099	4.792283367777423	14	0.1769087582107688	-0.020901800700143806	-0.23461361757404423
Si	2.0915676597165653	9.873642361204716	8.026664576848537	14	0.9699391976045821	-0.3049714004388324	1.3919856216858255
Si	11.561999865548245	8.588635624352898	8.02669727734125	14	1.3579585854368574	0.1349598893598928	-0.18624264185450237
Si	7.122739571949513	15.0742502414158	2.2942502186380427	14	0.08933125457482091	0.48867867533713666	-1.8058245633640915
Si	10.786041698790832	8.982038901960705	15.65531183656718	14	0.6686753310374033	0.0592374952446157	-0.14335300556698422
Si	5.269972165358142	3.0923956697025843	15.04368509087509	14	1.6967649605572426	-0.14291154678351478	1.0474983893605732
Si	4.958854772593725	16.097234470240867	5.784329660444827	14	-0.6474485426247929	-0.9515190277594454	-1.3234702928934554
Si	8.550895985710516	8.806559882928836	3.6195259772437485	14	0.23888885150038644	0.8220780159692503	0.6643972688952089
Si	5.709967104986282	8.949099695648886	9.920158812091803	14	0.42522790980439434	2.135779908419867	0.20268974547695762
Si	13.783290379865218	1.869979310931911	1.343592939600013	14	0.23040317550176972	1.7328254840039157	-2.1510970112541172
Si	4.6530348596491375	8.901191838796775	2.505431635616149	14	0.3333116659406966	-0.7350350451293612	-1.810395474402251
Si	7.479426736336919	12.86489704196444	9.490104822249025	14	1.1726762514194307	-1.426570073568201	-1.2081605901638581
Si	2.8853328797819326	13.319551612476715	3.7379900522023792	14	-0.4778260397807917	-0.3143047698615019	0.17166447468926274
Si	2.5105067520855164	7.610650543552942	11.322069810399748	14	-1.9534931692109443	0.3845357972340068	-0.21173849354068675
Si	2.3869495753865246	8.693775883554801	13.262152437614075	14	-1.8061485226344303	-0.4179758501383847	0.8183787096346212
Si	1.3069095268723259	3.8976420327601873	15.072183570276213	14	-0.6611898150083243	0.11573239244422943	1.279123096999945
Si	7.1174846027702126	7.086706899026855	13.683504826345393	14	0.27640976276890344	0.6800301034627734	-0.23355355085054716
Si	3.5496319441147075	4.322506454409096	2.852967567117261	14	0.5905242708367143	0.6324631123768417	-1.0756026273940478
Si	13.253743505912414	4.112245556300918	6.503861491997873	14	0.25896069940318645	0.13079984095189323	0.48457981923575666
Si	8.529213924015835	5.473004619551671	14.49932162367312	14	0.5520433088416541	1.0331595921006393	1.0635168897261598
Si	15.568421722349518	9.914957798725482	0.8376182158208179	14	-1.1698380082565192	0.23292980069987926	1.413090796816793
Si	4.581997944299707	7.283746987930359	10.832979986033942	14	0.5300469886067233	-1.779692877332235	-1.0534273582288345
Si	16.272424089912207	2.3955628851676556	11.914470301400051	14	0.21938496076280717	-0.6116847247320651	-0.452307819478322
Si	5.9906256238113125	5.945755642732426	12.039516985542212	14	0.12374395662181085	-0.8509073057030067	0.4469802321444432
Si	7.51266515215708	10.355484121360242	14.033712388101321	14	0.255809295612281	1.3076379405530474	0.2287391561385699
Si	11.229386803897622	4.684636615808913	9.555479647284852	14	-0.23900352279766504	0.129493462338726	-1.3709449812983936
Si	2.8999500000255374	2.1814760294118223	3.3412431492144625	14	-1.7248799972330617	0.3603100715759755	0.12176189153050869
Si	8.48255032091153	6.491819535555575	3.7873301906354064	14	-0.9907294123338315	0.14539677718596994	1.3583216255080623
Si	7.9289538695914805	1.8519973099879325	13.219996597430534	14	0.5310000973489022	0.36067131187345636	-1.4552175861558232
Si	3.279932995423109	14.215778921390628	5.8379404832264346	14	0.07500119907297557	1.4799845294837455	-0.28145941361767424
Si	13.172927508216562	10.930945757134175	13.258828432529596	14	0.5259866990851455	-0.7608227172693824	0.7325600991481868
Si	4.2485330348138595	5.646531419168453	9.083222401544095	14	0.5328998870699596	-0.2855600694927784	-0.5807371013250386
Si	4.430128681008069	5.4702561431389745	4.734632399120877	14	0.10604806714535968	1.652841997041557	0.33202354217530244
Si	8.345232776878067	2.732840672104073	7.600994088054203	14	0.223341120518919	0.3930893504130754	-0.18200905983434654
Si	16.43518752235185	10.670674360492312	10.688412742765564	14	-0.7059427313213537	-0.35942766823010075	1.2690111968863347
Si	14.305945624978332	5.259292184437424	14.301159907869494	14	0.6028956583056709	-0.24604526604848662	-0.02023305620637329
Si	0.2912976241298558	7.846358965091934	3.5493932305178877	14	-1.2120871822087884	0.4098827819221546	0.954918028992681
Si	12.13634968456987	2.092774307897749	6.521264694220796	14	-0.26007501644893866	-0.3264267601144041	-0.11543774377454047
Si	5.613299543446835	15.173698979860658	11.15420019602266	14	-0.0956546309991931	-0.08739315538449327	-1.5143424669874164
Si	7.692099295782828	9.92176440628411	1.588035662743181	14	-0.3986696773999248	0.5777463916166424	0.9912783433196832
Si	9.003101289318437	16.358951228660736	2.5911592473177922	14	0.6843953260753207	-0.28066931295279274	0.45053324258635585
Si	15.287253075838132	7.912096765596898	7.025591313167156	14	0.8139859761951483	0.29567351226958094	0.029417044409942233
Si	16.039316992568697	14.126802515737747	7.638635625218439	14	-0.7167765978088617	-0.5288007738580475	1.0884635533159603
Si	1.621970599058172	0.07180210687896126	12.109160859901984	14	0.007082366714879898	-0.027731684872585163	0.10255779167325868
Si	7.27202059124276	7.585538200172459	7.14204921289772	14	-0.26273611045529194	0.3790917388291252	-0.40475548369271536
Si	15.526831600689944	10.766558745231235	12.911877839848081	14	0.13040466206418647	0.28072664860143204	-0.3525011104976218
Si	4.707327487703852	1.0174545755069604	16.059113870858358	14	-0.9512693734328589	-0.5886455641792822	-1.4542050848807486
Si	14.904820813536208	0.6536419737569563	4.565817740504326	14	1.0436491875857794	0.551365051258199	1.307975269571051
Si	11.05649112379024	7.4623619842135955	1.1020883557272878	14	-0.8352922117621515	-1.5115337915356866	-0.9120541037583645
Si	15.389728244883763	1.6163886249517216	8.340242681689757	14	-0.8789776051462553	0.23687181937673027	-0.22400009481247296
Si	6.844440393673869	1.9737347042673345	11.081672138205425	14	0.14315451623626876	-0.8388472790883201	0.5135494913199931
Si	11.388612043025502	1.2508706925066302	4.422341058667992	14	0.5791198760786656	1.2778288025817828	0.003732730703790981
Si	1.6891243308976962	6.598388806289124	2.2761145253783037	14	-0.5011025133546242	-1.0541909765089186	-2.04300748648456
Si	12.81617330781909	10.103317541837791	15.50280818371687	14	-0.6690355428927561	1.5695608103955767	-1.2262431738804596
Si	12.13222942248778	10.514508252457922	2.688356556839223	14	-0.0850755610489118	0.8340405976923034	0.6635950840353229
Si	2.987181834392071	14.670338660474027	14.291106141384265	14	0.225893713880762	0.07864034154311317	0.2834437927037645
Si	6.787479405413611	2.665554503269053	3.869995401194291	14	-0.6678965432359305	-0.5139135598333261	-0.6332177317883053
Si	11.215425328532953	13.119450757455088	14.64276560501674	14	-1.3813602718397813	-1.1998327800318984	0.2983081238911366
Si	7.6975488328937836	13.685354039208427	0.399704662553988	14	-1.0490693347111837	-0.3568246812039828	1.5466723166145544
Si	10.480779329247037	12.333636662193372	2.8887353660489286	14	1.2604617574757784	-0.3283301493829097	-1.055065409428301
Si	1.9079494880479333	7.9913137091989865	0.32739569803794427	14	0.24254856281308523	-1.0636025075333206	-0.6615973352015678
Si	14.40596008194716	6.686804398491941	10.5668372159251	14	0.7790857925794583	0.14177871777945752	0.7682516689814183
Si	8.595744711469138	2.1514357217791873	2.4269553581740557	14	0.32721557522662553	-0.2552061143041742	-0.6760978549861388
Si	15.675509295892597	2.900340770913482	4.201367479146379	14	0.4004306274336942	-0.2736471101024043	-0.773715267786733
Si	3.360251945629692	2.3047683321198225	7.662719538103037	14	-1.3470067052151549	0.5668266502114415	0.6224252600964517
Si	10.000920853974677	13.163405124737954	0.5567749392119475	14	0.06306355707152805	0.2803378974770257	0.09955062689081348
Si	11.993288298991017	0.7046187718503698	14.532417792349973	14	1.2855729718060689	-0.4222629111491996	-0.5859302198506738
Si	3.2812573653780666	3.528824620600153	9.840330369275947	14	0.23950565966669	-0.33242129216832933	-0.6992920531897268
Si	6.223829187608335	12.882740065814382	11.40393549391175	14	-0.40512829396413674	0.03987681507336865	0.19205848208867735
Si	6.366771216388779	10.675711871395057	6.005304874991076	14	-0.38585091760526247	-0.15476691341471757	1.6428540242043779
Si	11.347747872304202	12.684091112669298	7.758630083236132	14	0.13933205395680462	-0.7767764257809012	0.09111174500902344
Si	1.2783047708698796	15.73521222046701	2.179339052212897	14	0.5506651963900547	-0.04420321399558182	-0.6386440495664777
Si	8.634885566224359	11.593613066880472	3.9112536128528066	14	-1.305440673946449	0.8453421482375462	-0.5305408979387237
Si	3.3535025639333162	7.215885290423555	14.786780209958236	14	0.5298518417129241	0.8577698429130141	1.2576523106924526
Si	3.175067420360011	11.683941637907116	9.084656318149646	14	-0.14015609321191208	-0.40379800407149213	-0.06428406076700234
Si	13.329840822509489	4.582530962330962	10.419091484764824	14	0.8308030618731729	-0.5459461896854549	-0.6969852574964899
Si	3.3850961449699133	7.375793969849177	3.5435431123711743	14	1.0794680271323585	-1.887396993414302	0.9199332560119582
Si	4.747863018473367	11.064577955638658	10.71666760349596	14	0.22120941709798425	-0.7647701352674058	0.7336350782825407
Si	8.704650432407174	15.62233011961483	6.752880649096506	14	0.8116848369336157	1.4675048984808108	-1.1017204294571759
Si	10.616250930466737	15.306572526934154	1.105093531007796	14	-1.4322218772829507	0.7859203047414759	0.11931162816040757
Si	14.563493070577037	3.852500637591766	8.487434139498514	14	0.03041591882681976	0.33890124890669854	-0.2201894596174815
Si	7.4375946310312555	16.413423709425384	9.952668006924421	14	-0.738293921122649	0.18210933294183235	0.38751725096325046
Si	6.580132121206339	6.2026343632551075	5.468421645497663	14	1.0732266689676988	-1.831822294808769	-1.2528078340482296
Si	13.238797745717022	8.642318388218477	9.903700654108343	14	-0.9074037455658126	1.125644307350622	-0.1325808456071598
Si	8.508148266608831	6.863936427430553	8.88439359568908	14	-1.2799317096231317	0.8163452224369162	1.088991401238187
Si	15.64272705194581	3.2859319008116756	13.988673999484954	14	-1.2691955451377894	-0.7397959608506794	0.7391418716572338
Si	7.63622723392998	12.602215619009481	13.300673618032345	14	0.07071413806216068	-0.3842141519584562	-0.6011321371665813
Si	3.380612907418687	5.960313902089144	6.814393545942692	14	0.23841602523201125	-0.24002425160976387	0.8378244933919654
Si	10.63445856481045	2.6038846440578345	8.335288557043434	14	-0.10247320230822579	0.6355180997182417	-0.7156545674471491
Si	7.983359314346062	8.786414744391761	10.283453111032275	14	0.9381315394679663	0.2893776466721342	0.22321050836865547
Si	9.745157220253574	4.739228453371971	4.770545715245126	14	-0.23962084518503263	-0.13484598939421025	-0.32570119419305826
Si	4.518285939318438	2.1922165062440637	11.344508888500782	14	0.21270471491999843	0.34072570524187556	0.7221440372752028
Si	11.331512077671205	14.14526848397391	4.1834917548037245	14	0.5089415563652238	0.1953782932780525	-0.9648070142750347
Si	4.900141037923942	10.297170967726219	4.184615016728484	14	0.8230938596812408	1.8318320650089857	1.0023194408959952
H	6.009824083084289	3.7894279272430738	9.130054412185881	1	0.3184447636480044	-0.47294119678304236	-0.08957216714331878
H	5.1192506893608005	5.355892709966805	0.2658533707483143	1	0.7972429383503441	1.339805296323952	-0.028860142997598155
H	10.897625590082226	11.614701614632375	14.321887115176896	1	0.551171961248656	0.05859651868830278	0.2983752297399924
H	1.0609969165816187	1.7434185939770463	6.1257080891677065	1	-0.5038595095894189	-1.3802009604509267	0.7965813929514699
H	5.7337076626973715	5.404091601204079	8.700587396187336	1	-0.7077576745668462	0.3155126751409075	0.06739921197289375
H	1.527794815063608	14.760523349332727	12.625186080117134	1	-0.17108931842914563	0.30032926978330504	-1.0008719086007518
H	12.629072533676311	12.783817805302235	12.214897903095936	1	-0.33508932815904696	-0.37206156555224434	-1.4421656271086234
H	9.43742432848516	12.546247090703124	6.117951532295708	1	-1.336625096153461	0.6448414418301627	-0.3386950462600226
H	8.824646525449504	13.78556306410891	9.134079842839096	1	-0.4293918148703742	-0.18608914686688952	0.08343622429678539
H	13.554833292585775	8.901350436186442	15.80284501452481	1	0.9153901129112565	-1.1442722225056268	0.1693890464809317
H	2.9232376559125246	11.717923989936546	13.183952479335424	1	0.01853946913199175	0.2848337322398366	0.46785040824914914
H	6.213477846639402	3.5841963649144626	0.8532425112400448	1	-0.03076353226610378	-0.11719303737660557	0.5664579537085322
H	8.517793276935121	8.345929297372896	6.314646631001068	1	-0.75182076332248	-0.2952837327030465	0.5887576643712406
H	8.657054865260491	12.662451561615148	5.762039369585648	1	1.5811459538576318	0.1984749325256389	0.8529811592542382
H	9.371886000985757	11.66978232456152	15.799537359686687	1	0.3075972703022996	0.4514629542701214	0.13137833964892656
