231
config_type=amorph sigma="0.01 0.1 2.1138552549204808 0" dft_energy=-23322.718370052346 dft_virial="77.12911529858829 11.583094210199427 11.227809340733566 11.583094210199425 4.969950844459914 0.718644395055942 11.227809340733566 0.718644395055942 61.08881090781719" pbc="T T T" Lattice="16.3502463575 0.0 0.0 0.15550719310618252 16.504478231390298 0.0 0.101796633821795 0.0621309361585 16.294851722840793" Properties=species:S:1:pos:R:3:Z:I:1:dft_force:R:3
Si	7.821078214173967	3.305682998411536	14.853458149628755	14	-0.8335055506751805	0.04345193702103455	0.08394221782379052
Si	7.427691286812517	14.591223088399358	14.478954121785584	14	-0.5199016641239509	0.5554749631124557	0.7207474128652984
Si	11.707567743893705	2.868429995097549	13.256040715525643	14	0.11286689556492441	-1.6102192414862702	0.4195907613899697
Si	10.246493379141146	2.9889885366145754	3.4617264795982443	14	-0.2346544981486346	0.42783629615168456	-0.33520117124047344
Si	1.6427092515380253	12.466206094684619	10.314461353249273	14	-0.6478084973696135	1.786816124621705	0.7239908622266652
Si	0.9442038368007245	12.921905445939137	15.94096045058052	14	0.4215445443227503	0.24137691011869378	2.2665519814343025
Si	6.818935644380805	14.589692705340296	5.70911362212642	14	0.002765223771819259	-1.3091595206815112	-0.4935110677863551
Si	1.2737087166187864	4.925006492584429	6.451262749465796	14	0.39303458586975626	0.946703861715872	-0.7267697128566813
Si	15.134247470424647	15.112959449667184	11.123142903066588	14	0.2014414738440257	0.5061279958133857	-1.283215268227493
Si	5.1916724705767106	11.842717245260163	3.7258663445282925	14	0.26370156050300747	0.725166371579037	-1.052529785361571
Si	16.43087105731347	5.039561223638981	8.403173144895138	14	0.34924480560965426	1.2936444427376095	0.43216218085283375
Si	0.16598443097206853	8.647519401584798	13.557952919590788	14	0.03581498288859871	-1.4677599521285696	0.8044199217410053
Si	9.687450660759414	2.6420215936867035	12.125960738034316	14	1.231563047898378	0.21445229520610307	-1.0422800740028004
Si	14.39156369002938	12.18896641237294	5.730426168253421	14	-0.3416127365773267	0.1084638777041708	-0.8780921164739964
Si	12.950049124994301	5.696126621444659	3.160550036619187	14	-0.19980959329732773	0.16162405130355248	-1.174278564254947
Si	4.362891562912122	11.160192561312682	0.037976717214565255	14	-0.8426062350663766	-0.36666455837472145	-0.6263382252831851
Si	1.1151407573944798	9.72781614896681	4.656188822171499	14	-0.3104751084871414	0.566262035483137	-0.7175271034518129
Si	15.976777300251257	6.558924216656026	5.440330287230842	14	-0.016266869139512866	-1.5589370032127245	1.2809568093142747
Si	4.814495177454086	1.1431127588628909	3.847116501466241	14	0.6651457176539041	-0.6100610717223917	0.5385506623425811
Si	11.023950863489542	5.759814101056392	6.103563315501108	14	-0.4236520793536756	-0.9278178075867243	1.4548018384255552
Si	13.231165450717342	8.482403168694312	6.206009054103295	14	-0.2298665858214548	0.5484406760670627	0.340281418242554
Si	10.352202626916291	6.1328629569737485	13.13805079771138	14	0.863897044001459	-0.5622032886247513	0.06036312515377652
Si	8.918714397818107	16.214436306180698	13.655624386256584	14	0.032055255578946174	0.2206620287753247	0.49141150318192217
Si	7.272849548733085	3.946015871633487	5.699401575790065	14	0.358079123489683	-0.4402097405048972	0.3479001175272168
Si	14.357422740610286	13.595738338922969	1.716614000098561	14	-0.030552444519319627	-0.2286142004200107	0.4471566099694053
Si	12.24156842495429	15.625624694255865	12.686666276470605	14	1.6370487255020154	-0.8441429847162292	0.5252781024589127
Si	10.189133444869766	15.25707379111146	11.957798454247428	14	-1.5034594923882936	0.23653243347447075	-0.2996623250632586
Si	13.387119005549083	2.575708264509955	11.628887088372142	14	0.2670596811616529	0.13985167434200654	-0.30093399375460383
Si	15.74747654025977	7.1919812302488895	9.317787940862695	14	0.06571590931979282	-0.35353880860483355	-0.40016451803305886
Si	9.944810078525006	13.13903181249283	12.61433442160966	14	-0.1859302525581044	-0.9167065188351724	0.7309816975921478
Si	11.937712176597238	7.272704031540504	4.702808279610639	14	0.3917510900939384	-0.5728016418649338	-1.0652261605429942
Si	9.472513592192989	2.340740509130958	16.219163162402655	14	0.8228974272347815	0.12837400308233352	-0.6003538635861725
Si	9.29297644201519	5.89770717376164	0.3150839625307468	14	0.6385142087478103	0.2728595805428429	0.7523696943083317
Si	16.193498180695286	8.237661236042802	15.821698483599642	14	-0.636529315440656	1.1128440595142648	-0.5984756711498043
Si	9.262777536992887	10.857739164093106	9.875658346580597	14	-1.6963361001898418	-0.8758598828350438	-2.149682389106972
Si	2.6397832449603618	5.270385826590987	14.028921765918573	14	-0.02071668111709315	-0.2867114104551407	-0.6056734804935588
Si	10.222684150395354	1.275020006376658	10.183826154902121	14	1.1370983244413495	1.7598768544087895	0.16577612928505964
Si	12.501715559723836	14.927840325382931	2.190810385057319	14	0.4157449020520922	0.977558925331373	0.5026446623256491
Si	1.7017761515291296	0.10698293196639401	14.528897584309203	14	-0.826517029304486	-0.10331832462695846	-0.34439210142840676
Si	6.110523615375496	11.501837499051188	1.4366699870393531	14	-0.10617430841657896	-0.6619580612779845	1.1018728960026607
Si	9.966698153323792	15.954670132151282	4.598797822432039	14	0.8452457317880407	0.19525025223310916	1.6815190773403605
Si	12.144147117057761	9.633717211130126	11.892912501577689	14	-0.9999514528961387	0.464341106597679	1.0297780743835805
Si	9.09523002246904	10.796816511140424	15.861295510228237	14	0.10376543984213221	-0.76063991168112	0.5035198665766275
Si	1.0980269545320847	15.459502921214394	6.243959610923689	14	1.2310310862076392	0.6299220889889394	-0.46095084712253176
Si	5.22971295375207	0.11084976522994275	12.089607600283049	14	-0.3898842105209788	-0.6557452423823787	1.170233958475822
Si	13.087159020899024	0.671622339676299	2.6688196474666457	14	-0.9087497192009102	-1.871092071916051	2.5950790774847357
Si	1.1818726528779802	5.736078448419209	12.146491742385427	14	-0.4417770863080595	-1.2762069493458332	0.043984670043369235
Si	3.848457221667556	15.162294683026303	8.8552247561873	14	1.2635604536076208	0.6192604865578814	0.5658478304160612
Si	1.0517900928577104	8.777969842148112	10.025423333166025	14	-1.2007038705143647	0.09759632973696891	0.0442775189393341
Si	6.600656585458909	3.713713206410763	9.426343766528682	14	0.05085826300625311	-0.3287278993759366	-0.6162057563270135
Si	10.36137021004894	0.12436324384441651	15.373279897048118	14	-0.6265164028818713	0.9199144869431211	0.6629978162694524
Si	0.3412345465549323	4.863505040910693	0.8696205530163525	14	-0.30940630000555575	-0.7612292090204978	1.1409660381744482
Si	1.1049954295296511	2.916630521359459	5.288152004283046	14	2.0561237231647636	-0.8141523267093619	0.789446575688059
Si	14.40165179203196	1.2592632739619352	15.3054770604282	14	-0.8443795264056828	0.6626903120731626	-0.8287289512114094
Si	10.69211116849163	6.637601602128315	8.3582001572642	14	0.556729405398156	-0.10691504385931362	-0.6566255888439974
Si	3.0195684023770073	8.484999587815883	5.051321955843931	14	1.0320573592498918	-0.17938318997087932	-0.24310597844649331
Si	7.38223269686476	0.8987239915327027	7.423788483006982	14	-0.9643462722016641	-1.166377814716664	0.7820813873879627
Si	6.186477049804626	7.74651618570986	1.0192056868918484	14	0.01293343109194088	0.9483797081635447	-0.17849821551968434
Si	8.430940768284081	10.209437180796508	6.086160113278185	14	1.3831926986014509	-0.20505901902947407	0.5219906871965713
Si	16.02054527472565	2.8003835398069055	1.9359263945902514	14	-0.4550771570186535	0.5017781998327592	-0.4840260031497968
Si	15.418707421527797	6.6834362477422955	12.761542229664776	14	0.38632245832097767	0.6256165160198195	-1.385662245261453
Si	0.8497778940368906	4.1516496500224935	10.358914403046045	14	1.185879648569987	-1.5553387413171773	1.8956648967923018
Si	7.711992640525999	5.301287792206662	10.610474388428633	14	-0.11410359722391562	1.1461768973267923	-1.24531203359787
Si	13.314474860982711	13.812009587592165	13.91951899749127	14	-2.274529607021658	-0.043652483236006095	0.051364770754322275
Si	2.6754660226109697	9.870290560701427	1.2209808071404846	14	2.3231201551355407	-0.8904755881379576	-0.5836853877956525
Si	2.425308888365856	1.6529690311273566	16.106287601649015	14	0.09204377068757713	-0.48849921218579034	-0.2645891060595226
Si	7.077514790524668	13.253820352070294	3.7526398729386985	14	-0.1851123839557653	0.10759021611638452	0.5531645678717707
Si	13.89115459011028	0.6036609056667145	6.721349198996067	14	0.3758811996158563	0.11865599630376981	0.5377237948716214
Si	13.982532846953076	15.017222217145477	7.5270321136314156	14	0.10179185939838656	-0.5964113306882574	1.0594694557311823
Si	10.59037830063063	8.400874300257275	13.280451633337389	14	0.9644005225239193	0.1382655594700072	-0.7190880214916748
Si	3.806875275131162	10.387695741709154	12.75986305936386	14	0.7578687743670643	2.782425494853178	0.2651766036251765
Si	9.203246290005229	14.21250069699595	8.358867247315585	14	2.0531962626472424	0.17433559600636458	0.5053728621808582
Si	2.3608431370275045	16.10371570789698	10.493444230075555	14	0.2178631235238115	0.5424070632122711	0.0669883493427341
Si	1.2736645709536212	1.2138668149503364	7.149724018537931	14	-1.1410069187490386	0.07680817189197565	-1.1095502164886228
Si	15.176377150214018	6.200801500638431	16.117840685725227	14	-0.9380130115127074	-0.561519888830656	-0.3804806499230692
Si	14.503366674621965	8.608940995304277	2.4951326154355593	14	0.469861783941101	-0.3611415670365114	-0.8499379989973108
Si	3.4858512680987355	7.962942761719451	7.284255480592077	14	0.2600865864228793	-0.5929123134580679	-0.5222609103657189
Si	15.851558938522343	15.894211826195153	14.983344506692736	14	1.380539317911058	0.4103895467807558	-0.20129286395652118
Si	3.886043167994177	13.244916007904	7.612041949517965	14	0.8911204213522508	-1.0119238048194084	0.20231847786872822
Si	12.697342987342052	13.593393713595303	6.2444321330434205	14	-0.6815449987174046	0.24712872983039702	-0.3823279890955956
Si	5.4647739055353055	8.99996858211634	7.872906860102606	14	0.6700647563524114	-1.0776348290390927	-0.256400906946447
Si	7.624695405174035	6.248194324730282	2.0419724574403606	14	-0.3297095473871692	-1.2252599832060351	-0.8202946973191957
Si	11.995646004515768	4.9572066677608895	14.31303999687285	14	0.02122550285995045	-0.4865248604104487	0.044884299794889046
Si	6.3979789316113385	12.914742403009916	7.291196160170836	14	-2.48458299813552	-0.3396445554547533	-1.2465996431422002
Si	12.281618353406985	0.41900776340365253	10.857959892418933	14	1.0521562037585535	4.9879443210872735e-05	-1.0845505881292272
Si	10.269442584928532	10.659623228979278	7.651248205258615	14	-1.1299305970298406	0.4478307537843481	0.8265679371898249
Si	15.414546283829813	14.32190019537398	13.287539465133367	14	0.7424182311666985	0.11307104132734415	0.33769540051154906
Si	16.15630954535515	14.751133402849614	0.6904365681598743	14	-1.4097892404751906	-1.52454538422936	-1.6777133272454776
Si	4.91827346113441	16.206570202658106	1.964588376454949	14	0.5395423376645622	0.2962782362408797	0.17190950102627287
Si	10.89655137889654	11.49866718628247	11.202856894157943	14	1.0080519773177972	1.069754648343371	1.003778028944115
Si	5.578939500726548	7.921445836464117	15.122926559846714	14	-0.3636681922346209	-0.28389913545596274	0.28748479893544127
Si	5.37327956194337	15.795856919231614	14.467270235738514	14	-0.2143936740048037	1.0670997249897858	-0.24242926352623037
Si	1.4635759524452552	1.3625150797095478	1.9308251177267115	14	0.6072048308222391	0.21745817443588816	0.22620841717194812
Si	3.2663770061681054	14.48112870455113	1.9654680197089824	14	0.23235155911337793	-0.4271248713095996	0.2991465613360369
Si	4.601305950223279	4.131730144885151	13.242288523314349	14	0.08508635969125643	0.6796860895709376	0.7771898595163811
Si	10.981523609216467	4.23746882310374	0.1366390088096275	14	-0.7909059350677752	-0.7656710505715857	0.42738635272065867
Si	4.923600371397684	0.6067821676963613	7.548540862714707	14	0.27420761106219654	-0.6439760077794008	0.20610931555275455
Si	0.7205259265315815	14.709512215721961	9.738927776391368	14	-0.3891792134421942	-1.021691948151715	1.3266319811056413
Si	15.117965895101849	0.9727726222611843	10.432013084461156	14	-0.300676883222589	-0.5112473236163325	0.13125801191994363
Si	15.374072883996456	13.357431863237771	3.9983660904209306	14	0.9601330019135373	-0.12912656560954086	-1.0622845589462127
Si	5.438783553925423	10.120454235045086	14.495704949178842	14	0.12356886434950877	1.0269570576263138	-0.3619069850903195
Si	2.337591451682504	13.505189039570498	12.455638930463767	14	0.6275456163415266	0.815003619680863	0.45724305614034627
Si	0.32486304487716755	9.904297438100393	6.829254284857023	14	-0.3492823437473284	0.7093556165233182	0.022531624362585673
Si	12.483812039962373	12.588909788523749	9.806225390398836	14	-0.8543253331156115	0.08164236411491807	-0.1005199335965093
Si	14.335810984974943	11.224782574523351	9.44684207038708	14	0.834175323611079	-0.4856247164378648	-0.1627576516392058
Si	9.778606554251747	4.839380252410201	11.325622718933232	14	0.38863491044591886	-0.7896062413284402	0.3845550805239079
Si	0.9971917151961106	11.245393695081617	1.3508884195247293	14	-1.8553934170522908	0.5981951635593761	-0.2180137902955722
Si	1.0212952483763371	11.88859930658858	3.5134308636545666	14	-0.08335986246877698	0.5824669409844343	1.0023196980065272
Si	13.152857580812732	14.799317578865168	9.813705628107392	14	0.7938861032443586	1.0048404096624004	0.004806681396016833
Si	6.2872893987957	4.26192879165456	2.5481564643729318	14	1.5154575553647645	-0.1983854580604977	-0.14031653018388934
Si	12.146223598345163	3.6479541505855337	2.134984103894271	14	-0.35833443424797373	0.8442879950562855	-0.5876934838792314
Si	15.673378858792216	11.972266787249179	7.536922377653068	14	0.1588804248164225	-1.1477025912237684	0.5986988430915932
Si	13.291107088888573	6.941300888120336	1.1072419533791715	14	0.627346612789747	-0.4627447073043991	1.5124586181193438
Si	11.023228182600542	8.597714916155217	3.001005967687338	14	-0.1083057547269817	0.8674446551221993	-1.1617652517723183
Si	9.218210035471614	15.959807379556809	9.941847413885027	14	1.0002926385721223	-2.241451565746357	0.39921860838577644
Si	3.1201763732886123	13.149435474250106	0.013869913985067251	14	0.275569011329215	0.6422996471106643	-0.23128866417402874
Si	4.041491500213472	4.423619647933148	0.5559116462042716	14	-1.037461308411779	-0.24245574591102792	-0.2557442466476812
Si	0.58304978510845	12.563321652974262	13.804722282790626	14	-0.2546427851285298	0.17151560769122617	-1.4101628220782083
Si	13.526104274711013	10.327193290087859	4.773202630278219	14	0.7344511471111557	-0.4748255598721789	-0.3574512595705029
Si	13.472717450304504	11.51440102835229	0.8446439166806355	14	0.5514972060716548	-0.17266951975890865	1.18631647936388
Si	8.422695339045994	8.911535004642529	12.984878419785048	14	-1.0292196303080443	0.49533603834259615	-1.6173586867392573
Si	16.39905511292641	15.541960483644539	4.196495105731844	14	0.16003099444718877	-1.4616677180724786	-0.07411185374273638
Si	14.34632582840745	4.825507068375862	4.686513624090755	14	1.8800338619984618	-0.11436276464018655	-0.06954377092042928
Si	2.107958781689959	9.546961168932594	8.202323448590338	14	-0.12586717539518913	-0.9231679636152365	-0.46915395864646425
Si	11.721763027781286	8.890726046103339	8.011689386209703	14	0.6546167842573657	-1.1988804426213158	0.6571079282020571
Si	7.060945450865978	15.199306735705775	2.1824014533556566	14	-0.3347476282619993	-1.4452434972873727	0.08972591924146363
Si	10.846009497356235	9.23068363841775	15.374779214639101	14	0.42587197168709146	0.5100730998166209	1.188240437474947
Si	5.414434767049833	3.2692481094284824	15.313869641883505	14	1.053364623259023	-0.6175329608932738	0.680022647257345
Si	4.941842341258746	15.899146330545848	5.593762634074258	14	-0.6655131286041532	0.9391026459473863	-0.5463423970152897
Si	8.793697144119392	9.289714567866868	3.3340899164330566	14	0.014781284485531307	0.3199154358911291	-1.1630816576962342
Si	5.68122991198834	9.10420630771931	10.135985334060075	14	0.9739714620781704	0.21245043260383575	0.28410482388157454
Si	13.879104458544802	2.112276881752975	1.1948351281902063	14	0.5500710139505686	1.2185347430201237	-0.5760052390938382
Si	4.439992784635549	8.68999897664622	2.3231247537053874	14	0.3998341309994199	0.0019581538118247773	0.374990568732957
Si	7.787439217318047	12.57988445253441	8.99705660324007	14	0.5185412922990607	-0.6664376980772786	1.2050858053114932
Si	3.14165569192846	13.023550022469808	3.8606577754995226	14	-0.21911319493046746	-0.061806543680507656	-0.6056143450711954
Si	2.3775612639280483	7.4373199468924485	11.313564412244578	14	-0.06845516492787858	0.45580426560319137	-0.04351415776978213
Si	2.4950966448935725	8.679399111932652	13.240251282618205	14	-0.9187371778170252	-0.7225957804799529	0.21650763679902946
Si	1.917878992660843	3.8789324458533003	15.762173776710528	14	1.3477163302835158	0.7107782090969561	-0.10868884941968378
Si	7.093479171068131	7.112085751422966	13.626113826605932	14	-0.09922795317313489	-0.6553786027637255	0.17595616368965394
Si	4.069833017249563	4.528668345755451	3.0011040691654824	14	-0.31376895151278306	1.104935082438957	0.3803911754579281
Si	12.995978602037153	4.13305778488938	6.348001133570369	14	-0.8930968300118487	0.5941140480847051	0.5595195688915806
Si	8.592795127026246	5.524270817005612	14.452278694853323	14	-0.6410161513348464	0.2734712464985061	0.6261795880849319
Si	15.407038250702449	10.061889287617156	0.8137043454983384	14	-0.09053016098560596	-0.29729279440021017	0.938978461560423
Si	4.577388809851528	7.238904802270279	10.945984713733806	14	0.811341337262844	-0.8480466939238099	-0.32093745025588793
Si	0.22960487457373677	2.166034856751799	11.83247381591719	14	-0.7782753801825476	1.5911077014205455	-0.8151691988634805
Si	6.012394341811689	5.723666976409231	12.064073420546542	14	-0.6314428977858071	0.8226200049707375	0.8128436341014065
Si	7.64025102955856	10.938808590607497	13.957827624706892	14	-0.5388152290800242	-0.557580955480189	0.23817279866872518
Si	11.221156089881259	4.5453341518676496	9.576157803853182	14	-0.6111694752259075	0.9817125459760724	-1.3013369327449607
Si	2.986616115868102	2.577969503581197	3.61535502939795	14	-1.7348139768585178	-0.7305914038045493	0.3450150802474787
Si	8.442034410437646	7.048589569693615	3.9668346403204917	14	0.0902964475120045	-0.37051273170738713	0.4474368604493015
Si	7.8368463917611395	1.8312978980993375	13.029037165147384	14	-0.5013261995174771	-0.42405497155734284	0.8429348223262917
Si	3.15163915235435	14.411267371914805	5.718971185655358	14	-0.13846919101136293	-0.2388150607776982	0.10424495098433983
Si	13.591673667678496	10.934261587095476	13.219524075310801	14	0.8384446439951849	-0.5652420780026344	-0.2795336557328833
Si	4.435601108463924	4.531935124977679	8.771518034935442	14	0.22845144945324533	-0.07666521843617542	0.2853171000400245
Si	5.316966043438868	5.126392476969756	5.230044863753127	14	-0.6808289458857433	1.5052754640759143	-0.31409033967780153
Si	8.083313275403366	2.9977996843766324	7.703554278380892	14	0.46772750941484603	0.5462485516711044	0.3842668596175193
Si	16.370906528797338	10.897708976338649	10.645280792874479	14	-0.5885941420728793	-0.6440233161172916	0.8102319053172001
Si	14.316645226194682	5.205707522049988	14.073000395073757	14	0.5946496093228919	-1.1185480566670132	1.0331765613957522
Si	0.09807858780009951	7.838826406595033	3.6514808987248464	14	-0.5932676402133124	0.3225222795752272	-0.97698556884498
Si	12.10524170585009	1.9877403252971688	6.6080681521327636	14	-0.7595435923726088	0.6470783034586916	0.2408901998815897
Si	4.633939406928214	14.52533650065254	11.106212222963396	14	-0.4476777730177994	0.6730937755300778	-0.2648025078010949
Si	7.595228991188548	9.648231324821678	1.2405733073506768	14	0.4221544105046893	0.29385239837132	0.16909954002188302
Si	9.129447818046017	16.1455183827592	2.5396510662177603	14	-0.15700660325909857	0.130483080776451	-1.1689432636051076
Si	15.282652116513132	8.055578352507139	7.196361461248064	14	0.1904847085222147	-0.42472088783526113	-0.6172259709180482
Si	16.26065518258408	14.226977205120878	7.705802437255049	14	-1.0156765901446962	-0.08894687432945877	-0.3184717602538659
Si	2.1898179251034184	1.1743826050216097	12.364973544362156	14	-0.7323868066496088	-1.9139246296654613	0.9441196437585911
Si	6.995111183907504	7.1539816226894235	7.541127661016217	14	-1.9649153045957026	-0.11845930674677849	-1.3953468276708552
Si	15.955806474273128	10.651367989593375	12.953950293775202	14	-1.380449072114321	1.8454802633799277	-0.934879091237979
Si	4.693310421501567	0.9981171391399452	16.248166864416223	14	0.6496848900322576	0.2673859544267797	-1.676698769086147
Si	14.662080151038856	0.5814916066305803	4.556252846385188	14	-0.835700503286991	1.2910591963382008	-1.3831502753636686
Si	11.103015749800505	7.550445666415356	0.7512022587475231	14	-1.3060551681179644	0.20684542300591297	0.298923389394248
Si	15.434292476355767	1.6604705241561775	8.085505843439908	14	0.41176200280065084	-0.6110347493071316	0.681676639309796
Si	6.463137933395248	2.0128052529632163	11.164939037830266	14	-0.24839268520578178	0.20674617834055525	-0.10742309427057486
Si	11.375253891751424	1.2921926701259403	4.564987147989364	14	-0.7099438854205682	-0.4829759637370483	-1.192755041306595
Si	1.3316687049314881	6.475292706537414	2.253024707472242	14	-0.29651194971448114	0.242318963107996	-0.27786577971170323
Si	12.939239977127357	10.330635016946113	15.312924597644042	14	-0.5294389221985083	-0.5139757805820737	0.06764732363628806
Si	12.254808854454593	10.739597188987718	2.8790396699589307	14	-0.06824510562322247	-0.38781421362772756	-0.7341914654738207
Si	3.2850865930749933	14.765627896245539	14.592120716924384	14	0.4011407667231191	-0.6188221131007962	-1.0341870057865703
Si	6.936627987711362	2.4285462371446402	3.964015857848459	14	-0.11061923529405095	-0.5034370769853187	-1.4706740428984253
Si	10.931383943736558	12.919848584947362	14.868676958938316	14	0.5198034479007213	0.7666300728560009	-0.7326909684089823
Si	7.776460026888985	13.787064016724527	0.4540136408550601	14	0.21293817128306783	-0.31409213945152564	-0.4674709131038953
Si	10.711464955105003	12.465161313942374	3.239351683963794	14	-0.14325144690683836	-0.9034774106314145	-0.3600591316967291
Si	1.7182539298082182	7.908619068196659	0.4898909864373223	14	1.78696987671985	-0.3682586436732133	-0.8687530906196226
Si	13.962338657676927	6.795733009774877	10.848020577658207	14	0.5560226085456473	0.17363779802247642	-0.7744727154140486
Si	8.64262904289927	1.8953401780570291	2.069185807477784	14	-0.10701634540892745	0.23386208348896492	1.7732633142581402
Si	15.52830312286212	2.7858792362631672	4.140049150231847	14	-0.9988325078608103	0.32918529901239096	0.4784898991744539
Si	2.9556830847843476	1.1679455130306617	8.703097159003212	14	0.11960087750892423	0.05414567826859445	0.15831452453545788
Si	9.956763743636975	12.755973335755412	0.8808858727566701	14	-0.7848594666863827	-0.14368364971115524	-0.45674914680834583
Si	12.354419460338391	0.6324765798471725	14.321285426110938	14	-0.5111794464358805	1.7926301650821561	0.6411009978104113
Si	3.0591932244244084	3.0868218707193122	10.006211793695963	14	-0.5465285450404685	0.9327718133175856	-0.1250575343298745
Si	6.410555541109528	12.887905108638716	10.788968392888824	14	-1.143447669029455	0.21942301312154536	1.1767352553883483
Si	6.233690021186543	10.68215059841064	6.447400821276154	14	-0.39118184737605755	0.1170007186986585	0.2756358600675389
Si	11.182510647590671	12.849153389746805	7.810530670248744	14	-0.3725899276955348	-0.4823049052484896	0.4286441374432752
Si	1.2062525052216486	15.535083570026575	2.1629789957075825	14	1.0544190335508157	1.652891619374236	1.4492737048767048
Si	8.809527452642723	11.563051186389034	4.15073894130038	14	-0.5721202989550945	-0.14184813762310153	0.21049099323935092
Si	3.3328718230794228	7.362520839856158	14.928088849127565	14	-0.6748974059121617	-0.4306249169819172	0.6848894925178531
Si	3.1082913792113454	11.394019069495927	8.992509599728049	14	1.225329660160211	1.4255159203869403	-0.5484067374768367
Si	13.403691615257047	4.421801500538193	10.096355606938767	14	0.9800462126180842	0.16308366779380057	0.3687291559468004
Si	3.3316488246518814	6.878738305457998	3.2081308885441477	14	0.4574896251405484	-0.8228622030918955	1.0623043564571777
Si	4.692025292137868	11.141155969478644	10.715902411966429	14	0.6185536897053727	-0.39042234286448585	0.09285495441608384
Si	8.678480228087361	15.486984415292081	6.590632249417126	14	0.09335966239042891	1.5541030681003143	-1.1688080234652676
Si	10.544756208219297	15.031592448669084	0.9017700424291049	14	-0.12642921901817353	1.0259936644628547	0.33143218795166834
Si	14.589393495831953	3.8096270215931294	8.081529463525763	14	-1.261460631892656	0.5473361292215271	0.49000022347169286
Si	7.0513560313773045	0.30067776046515354	9.763582312873842	14	-0.759094420273179	-0.2169097576711006	-0.7746447223599665
Si	6.4461680127008	7.380089179567292	5.042100416898301	14	-0.6076773999800822	-0.5468085384098326	0.9210689132318676
Si	13.162057864438095	9.117137717563457	9.969255331854106	14	0.27803547266283307	-0.8685687423681678	-1.3863471877187405
Si	8.59150836263791	7.181953624157835	9.163784970421403	14	-0.11633737352606027	-1.5400298660199518	0.017917004533983902
Si	14.924972492171825	2.783557501280402	13.427414187697142	14	0.10200243292410668	0.7128453777743552	0.6884625575812631
Si	7.620293918854595	12.994526700160607	12.867408439804953	14	0.10841476959255597	-1.0735465144695253	-0.6672008021362985
Si	3.5540317954095104	5.570568174591509	6.811949184112246	14	-0.0656948262561676	0.06840322860041158	0.31036352251624694
Si	10.484033028272178	2.641831930828957	8.327206630268924	14	-0.31776367784869713	0.5546097861722259	-0.36656608504095983
Si	8.07036224526359	8.867065604599402	10.532894104486932	14	-0.5231530839118103	1.7044767338544948	1.1433661649908067
Si	9.233867031383555	4.821816817772975	4.8660507742685555	14	0.9821455201119853	0.6703159533421899	-0.8821729748381355
Si	4.0424120190834	2.3452695273719857	12.00461247961822	14	0.8145243656491874	-0.09056307113370385	-1.05640135575265
Si	11.582455658766115	14.309673481147842	4.305474402778489	14	0.04944569774336375	0.29582675014666165	-0.38772885293109866
Si	5.099046689936838	9.667742073800083	4.5661431104068395	14	0.0902792211063595	-1.4036838937819671	-0.20676906117790458
H	5.974285187601627	5.883044272828235	7.776702010535076	1	0.7991486416136379	0.8387498341966867	0.037365873617712035
H	4.185936116634171	5.88476922381895	0.30686959876073877	1	0.1769781780544128	0.4586587067296198	-0.04460816308350514
H	11.34140397671749	11.511180029819863	14.537028561822787	1	0.18658896974112632	-0.21052467471904485	0.04312592086643978
H	14.724642733701193	9.445516065407487	3.9229047984071608	1	-0.5187150990187026	0.7336471624775454	0.5956826794405276
H	4.552995877310774	5.8531380372157304	9.681309508227537	1	-0.10098298966466795	0.272668804528088	0.09767706244402156
H	1.6620990086933842	14.958714495579798	12.249964276458867	1	0.09008844509160452	-0.5093033108837686	-0.2493792183171226
H	13.126491173536627	12.364226338103618	12.795385604600165	1	-0.0271575570545961	0.548483870636441	-0.06736244516681564
H	11.342313050414969	9.901110775085316	5.2056519312123735	1	2.0018667160358063	1.0568356154412228	-2.1970447202094197
H	6.3192181598826265	15.5873095269417	9.797067617414001	1	-0.09938170527127975	-0.09768863241796223	-0.020918512884724773
H	13.96407668886473	9.178034210121966	15.474602373725546	1	-0.3977916449330942	-0.03632046219453982	-0.11122575903907388
H	3.1819198086084395	11.9175915634297	13.12683943378404	1	0.34729796466123813	-1.0063229089899977	0.06926377755106515
H	6.408452899427953	3.6584804391904924	1.1772733285776156	1	0.08991078171398227	-0.22461098943654012	-0.20051484748664436
H	8.736332304774102	8.65249314652675	5.95782212454426	1	-0.198876282066114	0.8721868017746802	0.0008831746774708652
H	10.857439954584763	9.701454646764612	5.668262531602207	1	-2.365734426043271	-0.7792621704044205	2.0148790800610756
H	7.036704575616348	12.22625641924049	0.2991882530219853	1	-0.06600490155777745	0.7753826295868491	0.023828746996600383
