236
config_type=amorph sigma="0.01 0.1 1.5881912248160908 0" dft_energy=-23395.42916128928 dft_virial="48.46691323175801 -9.28871764295004 18.278580892170382 -9.28871764295004 41.82346083060462 5.569192012881786 18.278580892170382 5.569192012881786 23.528725646881277" pbc="T T T" Lattice="16.340456583 0.0 0.0 0.08532986427642601 16.528061365029426 0.0 0.14668827874559104 -0.063629737934202 16.286336990797107" Properties=species:S:1:pos:R:3:Z:I:1:dft_force:R:3
Si	8.005024641400212	3.1370588293065813	14.632824946569778	14	-0.016733781865651758	1.175771862224889	1.4422422460471638
Si	7.314194256303747	14.925641026400163	14.242229208592379	14	-0.5868504184447548	-1.3461271300851323	0.2854906496491344
Si	12.075071252135029	2.953769561860729	13.222297125777319	14	-0.3423884390524154	-0.21970326360144146	-0.21052904559808908
Si	10.286021656734349	2.9383147580245272	3.6793136129221202	14	-0.07859611853160663	0.000564871838836533	-1.9037345679501188
Si	1.6073175734671872	12.466848405123379	10.374434965167987	14	-0.6291762113355645	-1.1127011060584644	0.23054972850501815
Si	1.0035834560037695	12.711581057412626	15.970748850672653	14	-0.8457237002670562	-0.15485175989028246	0.5408116923611193
Si	6.5800976102668125	14.326634203026208	5.64973247212015	14	0.20771059994614277	-0.6788684780791303	-1.2519858516773783
Si	2.0830552604703074	4.991006182072304	5.733657057130438	14	1.2288497604540258	-0.09337637457500987	-0.17098261755835947
Si	15.202817655234957	14.827039443287024	10.966948091095858	14	-0.7980896033322689	0.4295478809633072	0.9813538767839116
Si	5.112378191433853	11.912220627783192	3.207221481782667	14	-0.2206797694020337	0.44165393036322437	-0.3608417761561821
Si	0.27876818930598	5.021381456814443	9.021495815510994	14	0.6587791466601535	-0.019943292636792603	-0.2184549919685096
Si	16.08534447268923	8.575507563762883	13.616491032294293	14	1.4088297039697117	0.5042215212184958	0.8984023058399742
Si	10.230545806635064	2.6545088059540083	11.692096703107941	14	-0.4579665651774359	-0.40291560072561733	2.0073565401153872
Si	14.016676984240256	11.83210827129372	5.487553440533875	14	1.3587201468326855	0.6330562663742	0.3392817724940804
Si	13.773181304514338	4.791649343668388	3.3298075870683332	14	-1.0204896993040136	0.023584749101718327	-0.4908204060688201
Si	4.3812604106320014	11.520940224674966	15.977376539862718	14	-0.29181145496818645	0.6915481410759727	1.0295335622676345
Si	1.4123334412448814	10.108709728306557	4.6122605432088974	14	0.012959913476738407	0.28164479031125694	0.930608485301213
Si	0.09941697189663032	6.134189426755959	5.669749531434325	14	-0.5915699393704187	1.563873011206345	-0.40643364413517596
Si	4.753685560889103	0.8097872749750478	3.7818516120261036	14	0.06686185096098281	0.07031227430062154	-1.0724761633247475
Si	9.427039803170521	6.728869297226737	6.058846849543063	14	0.15734778893508222	1.2652411851554017	0.8641053035323908
Si	13.275057191992508	8.312373923315517	6.4099967253290995	14	0.8534856101180512	-0.5890204313349597	-0.30973103060749047
Si	10.646954563876628	5.81552111056561	13.488806704554731	14	0.21131117583647815	0.8311663590549098	-0.9100594402509936
Si	9.123313200479666	16.30591939396617	13.932675599084028	14	0.6863334252656483	-0.5612146986291544	0.17920141282474483
Si	7.4637584554079455	3.7889041530873264	5.407946004152816	14	-0.592652117599669	-0.3643011983644414	1.557602085330504
Si	14.272560364101743	13.653090386948897	1.8531907896259299	14	-0.331426274409432	0.027179411449817358	0.9097210827908621
Si	12.489285486057495	16.250379816086213	12.512895811774273	14	-0.017227176976588172	0.5631201447819161	-0.06055441538959554
Si	10.463768241307248	15.19848089805783	12.386579180250708	14	-0.44213344150543205	0.7084462165715819	-0.5481802230981316
Si	13.691447974731831	2.976812873734075	11.499738482258522	14	-0.6116052775776725	0.4732875246696663	-0.17308963836822086
Si	15.726276011643073	7.267140277527339	9.19289249865574	14	1.843993136062754	-0.8270307361474517	0.9402167058826065
Si	9.8022951205078	13.0683683907198	12.43955984262977	14	0.4042176084597403	-1.1651619390107657	1.2867649362324893
Si	10.222954030506601	8.835422134263398	5.013766804046765	14	-1.4452198431184273	-1.4238516439132087	-0.92934093037838
Si	9.419856538456635	2.8014797745984854	0.1510544487445686	14	-1.52732474908044	-1.5769540237436623	0.10566934333170186
Si	11.49935611557448	5.713004354055185	3.876150752920938	14	1.190326632331715	0.35723065873403415	0.5056063185439276
Si	16.357728445608235	8.01489917931332	15.966920281695256	14	-0.1283529200187083	0.650123520599875	-0.047841585134123364
Si	9.042811941123517	10.684884031697088	9.585426214783881	14	-0.08669741428486122	-0.006608769114908622	0.4429600518658596
Si	2.5176035585646597	5.25419701411771	14.118729671783724	14	-0.30522773963925115	-1.8895104419874638	-0.4768487626486034
Si	10.88479317753351	1.3160407646469203	9.980353807801436	14	-1.0381722190328	-1.419239852300459	0.27367179271347775
Si	12.267882103631795	14.901712061780017	2.3755755780365404	14	-0.3692958275593611	-0.389019547801813	0.25341276834337095
Si	1.4066126473951728	16.386749096499642	14.189184818432645	14	2.078898574090635	-0.3757115066647265	0.3479134872748816
Si	6.157039921241626	11.938347383813753	1.0254731316423562	14	-1.0338039110938686	-0.6564013884600804	-0.230008510835127
Si	9.656941857065041	16.01858717136504	4.7637725247377904	14	-0.07302170508699359	-0.5177475920867309	0.39236764114970984
Si	11.939636645838151	9.666672598960217	11.996537383751473	14	0.19998160024324566	0.08843830969713348	0.2976787173087644
Si	9.693461143482386	9.838551325574159	1.0392432344048503	14	-1.357897393130238	0.6448992916998659	0.3195020021556492
Si	0.9755726453291909	15.39082768058764	6.305519114028715	14	0.6861606469881344	0.0994295278302345	-0.6827271929436086
Si	5.973258806052625	0.8270460652180124	14.41058166467571	14	-0.26547279495805753	0.06014201009624378	-0.8245462770765927
Si	12.936368548396668	0.4712898147212278	3.155706558359101	14	-0.9592691105259675	-0.12455488323978556	-0.31190181482929147
Si	1.1960233791361021	5.5941749197379504	12.21645215058246	14	0.7059239622525166	3.0217900008377914	1.6569328827164447
Si	3.8725525843813613	15.225427945008857	9.089555451224847	14	1.1940969011731803	0.1893649921552902	-0.9665304261711299
Si	0.943061672911654	8.752445295734923	10.20562661034599	14	-1.1157586645051847	-0.17232602008813686	-0.40173726315739344
Si	6.814903435181891	3.3804172491972007	9.450852750548927	14	-0.10387419759717446	0.32029930191542716	-0.6238650790757346
Si	10.468057611160285	0.5187539389578678	15.690688131250957	14	-0.7780529795723549	0.37148820906585134	0.6697441395189889
Si	0.40315664695275094	4.4214007422281405	1.1946262700982557	14	-0.5946688926127931	0.17193495496894234	-0.28696363588704726
Si	1.1864772844003135	2.887549861558121	5.022074292173563	14	1.5440819280045053	-0.9828327765640608	-0.06578198672652062
Si	14.524584128118327	1.3710476436422734	15.327144019146713	14	-1.2526880205403106	-1.1428159484522946	0.2467152960949172
Si	10.41005552647327	6.533177623234387	8.296574335845415	14	-0.38369196046793413	1.2794102894642059	-0.7560548595636999
Si	3.3427312541798275	8.932896225872309	4.859372365976632	14	1.5707635734643417	-0.5639320998420189	0.915087493815075
Si	6.857220315594885	0.4625362321297147	7.701551315786395	14	0.6140378003210646	-0.6364658091392482	0.7365226866675989
Si	6.25779027439543	8.253192057663208	0.7232710935506959	14	1.66966525337235	-0.013643827491897796	-0.9237978844186728
Si	9.143008352799157	10.836619877481166	5.653561041097547	14	-1.1482463799989795	-0.29354360862237017	-0.8900582977444975
Si	15.701703233033557	2.4493854204219514	2.1339672210459604	14	0.13247543028903375	1.1172097963478762	-1.0128051797231552
Si	15.407019439015734	6.51672768559228	12.79013943648106	14	0.4619330093548284	1.042307841940258	-2.1030651643263027
Si	1.0387415823877524	3.91068467386345	10.961735485445882	14	-1.8395518087327305	-1.1620298185097613	-1.6764725118179737
Si	7.703608579270195	5.171164618036855	10.627491446040617	14	-1.8349042787560306	0.19380451971158988	0.08862420061178018
Si	12.998414896087978	13.088334794618568	14.11061990318158	14	0.27392993168762053	-1.6008293077465574	1.3280373472736344
Si	2.898658103943245	10.122264137042155	0.9313700762265175	14	-1.0509300436313747	0.2788008907166411	-0.014163447877099722
Si	2.2047638832374665	1.4182715631671434	15.805344212956891	14	-0.1352447678293652	0.1522983951968434	-0.008856172275250058
Si	7.03193411142598	13.173576420429445	3.4697734019756776	14	0.2822109477027535	0.636285831766838	1.6713724673049284
Si	13.878498815283091	0.5448904992623763	6.921011824049259	14	-3.183628225214512	-2.1445478917826364	-1.6606188193034088
Si	13.791804522881982	14.767375534165517	7.581929369324885	14	-0.15546162607222158	0.5737051282744338	-0.04781998784943412
Si	10.739667046437255	8.199744058225875	13.556884314770826	14	1.884953929139097	-0.6678137536446217	-0.2640131784678095
Si	3.4590132113157726	10.700332299350656	12.751231175311277	14	0.37625143878195766	-0.18096364841117432	-0.41801056006020665
Si	9.298180596602641	14.259537020205093	8.634563607899503	14	0.7848658944496831	-0.3052555075767087	-0.20879612061230932
Si	2.2542378836338157	16.001795718180354	10.491288838284337	14	-1.1662153208604304	0.7297036011375021	-0.5870831034762282
Si	1.1464709445481547	1.3491906489168526	6.878472713426735	14	-0.4513156299352768	-0.31633440040122685	0.4880369274492278
Si	15.2244622240248	6.018273495847474	0.27741029736393275	14	-0.4363623385038276	0.4914202449400105	0.2773032218676549
Si	14.731777849499451	8.546939543518825	2.767962230055436	14	-1.0997684462981194	0.05806121456064795	0.3985490925604098
Si	3.769802159341799	8.21567436934864	7.283969313762172	14	0.42918612644476234	0.031119116131880262	-0.9714846890125233
Si	15.597062217167341	15.870972388731197	14.663280289549173	14	-0.9239984306336443	-0.39229436464808565	0.8876386305277062
Si	3.9739990409856003	13.230828478159303	7.687529569992522	14	-0.2055732400935037	-0.3367314931270256	0.23561506309624192
Si	12.414712544349658	13.362099536118833	6.209690506397711	14	-0.9793710403610133	0.44706610706213606	-0.8488033702195297
Si	5.967657297535974	9.081377052705056	7.822184736510392	14	-0.16978139715278634	-0.5400760991290248	-0.43575452920614466
Si	7.891625140805509	6.376268388896129	0.3668023991468925	14	-1.018641331689359	-0.16002713778920855	0.7260307771876706
Si	12.303056570472362	4.747986009632953	14.725380560747206	14	-0.004522317147608456	-0.07777516460288335	-0.17920912614070528
Si	6.27187247987866	12.814803721647438	7.343951861787048	14	-0.038208167720592545	-0.943285062971671	0.2809608762960975
Si	13.056269916665746	0.8509211063314336	10.531662838409614	14	-1.6907200348390425	-0.14314397470445617	0.6390999065397399
Si	10.199703194834651	10.525953482879512	7.600593438833988	14	0.46834920268125785	-0.31609065961687677	1.1207872322903303
Si	14.118177364351219	14.824233786891723	13.13602768524737	14	1.2266352674417822	0.16916201788116264	-0.6960640304602808
Si	15.782145666746008	14.597722377738178	0.36324017961179855	14	0.9272670768271486	-0.07524391141519757	-0.015468540937606889
Si	5.010729113167986	16.18805077849602	1.5951373971302187	14	-0.22502545161414803	0.7713956165668954	0.9794024078459191
Si	10.78493337926348	11.505438033514674	11.065773538464185	14	0.2490940827371182	-0.3135966874563331	-0.44877666343163064
Si	5.207580959577728	8.382649324942026	14.854107409616763	14	1.7816394611701192	-1.0815369955834817	-0.12704448452128494
Si	5.310252950425691	15.434102111756399	12.99252906362678	14	-1.1136380168371263	0.32685022116063245	1.333844188639189
Si	1.2179277611856136	1.1155433623735105	1.7055057430287757	14	0.3144814047969961	3.080491677733688	-0.9134242457834714
Si	3.145524819862234	14.737831988663451	1.7504403645863675	14	-0.04832366738165113	1.0651204881143361	-0.843062349150171
Si	4.530115433920498	4.19854632725787	13.459540946814577	14	0.7068572734837304	0.948352968668215	0.022776393589063776
Si	10.916637459322459	4.484832760637688	0.5436241138771939	14	0.9277933820861829	1.1787281191219952	-1.349578324756367
Si	4.472990831751988	0.2779593367051216	7.27555071053061	14	0.519016946783288	0.5584476750836109	1.9508850399741864
Si	0.6602998760167887	14.403504612929614	9.783402284606536	14	0.51019548442986	-0.17551187669033236	-0.43580132332297133
Si	15.21340953919206	0.5660464884003864	10.119340829359457	14	1.6082194357682589	0.5860163518788987	0.4480552112787971
Si	15.353576341715375	13.2023013090567	4.036684300529306	14	0.13820848093189994	0.5923381856400789	-0.7333136901175221
Si	5.2633345974389245	10.59747892943462	14.159543230191083	14	0.6160982841246313	-0.8892622835373798	-0.7985277196788221
Si	2.559023347911248	12.781941429413369	12.45981874070137	14	-1.318951318182763	-0.028326895754199444	1.2867471956057803
Si	0.6225926384058579	9.783977468678255	6.796226293307521	14	0.23506021856815396	1.1330256936142349	-0.34508270031739857
Si	12.643238731799888	12.523892939054631	9.899051866072718	14	-1.2737664561759487	-2.0719820436689047	-0.7500839816787199
Si	14.341902725657363	10.846255844728162	9.219406523507315	14	-0.4804801918027806	0.8263200826369627	0.11118693534873965
Si	9.712666082104386	4.8548346211835325	11.44371359281805	14	1.9761690325819905	-0.038866884903614486	0.5190940799428925
Si	0.7227955862641307	11.121417695266274	1.4479245897283135	14	1.5390309916030742	0.9044063509835839	-0.571382905949276
Si	1.1057309181954191	12.11403833894851	3.53037525330505	14	-0.6692548581765648	0.08388051129610698	-0.5760679740636497
Si	13.22313048906305	14.640219003173586	9.889084187557089	14	-0.24077244325792693	1.4757704878640228	-0.5533856829293035
Si	5.743275049875192	5.215646608947097	0.6046442808950907	14	1.3734818909177837	-0.8111870709436352	0.8162380073450661
Si	12.167166065436817	3.373542819112733	2.0309390082444874	14	-0.22378283641292043	0.7307101888703401	1.774419540320611
Si	15.614505654569694	11.599730638226875	7.330320652905509	14	-1.101672092677157	-0.17425820573622816	-0.49325164325955206
Si	13.512332059897277	6.683900360710321	1.9374242092656364	14	0.41646429732066964	-0.12011895523093406	-0.18024836691110915
Si	9.171509377171226	8.347156219198093	2.8165930628921023	14	0.14862325725222375	0.2216727302766749	0.7591458423795819
Si	9.47068026056674	15.914016419462133	10.381095335271217	14	1.0121582896246057	0.3455380430695968	-0.5111298241032018
Si	3.145595083825541	13.54152101749149	16.009232259971274	14	0.32838568525782486	-1.0292337713873052	0.24838162945290518
Si	3.212174274172974	4.054106495338099	2.1271597868334826	14	0.12810995056595428	-0.5479287689978212	-0.48474951218688644
Si	0.44038837727711644	12.382574134342214	13.71995880337785	14	1.437105177617508	0.29922703693255753	0.11634534395255272
Si	13.667736338184241	9.757167681562528	4.524852172855113	14	0.24815254396887998	-0.4570895611527334	0.4839074751945379
Si	13.430989267027103	11.581707114615828	1.1602426813563071	14	-0.5004947040569413	-0.469255003085546	0.2987673233013151
Si	8.785809239986094	8.99072183362823	13.101273168140986	14	-3.59432938996007	-0.39818193872069274	-0.771303313885902
Si	16.262854120641677	15.47788309707923	4.193799424620509	14	0.7265190300879667	-1.364284790077082	-0.21052776004542903
Si	14.781016547321006	4.5144351317834515	5.793183706416649	14	0.07981687933761293	0.06446172414462457	0.688877791090467
Si	2.1605024884910944	9.394035348964177	8.44090305266042	14	1.0033008317966956	0.869665318787211	-0.5188981617174973
Si	11.64768007402403	8.705945258436682	8.12191936565802	14	-0.19657000059394117	-1.0038399925823307	-0.365752330207133
Si	6.998398592380688	14.885414090384133	1.9400615589581327	14	-0.37277144773113724	0.38651194878307255	-1.091011004467163
Si	11.088612594630243	8.603037965013922	15.834497221546624	14	1.06119312473781	-0.8212840586463886	0.3676130391273241
Si	5.7559568782292585	3.3798992567235198	15.36629738716524	14	-0.11953222899687628	-0.44748751122410835	-0.04884740153536529
Si	4.590682970291046	15.5500213107562	5.375959560391593	14	0.6766529566247588	1.10276352688556	-0.332345701671917
Si	6.85330350815194	8.621785370851597	3.2061462797395057	14	-0.6065391716548527	-1.6321541123040497	-0.24306355520871084
Si	5.812104321094105	9.086584756218057	10.157093820248821	14	0.12734967472278652	-0.1690967118060309	0.048427797147117126
Si	13.647588555217402	1.8639493462401768	1.2064012031119653	14	0.44679228434554036	-0.8253505188207348	0.845633197359787
Si	4.343177342519661	8.669805070612059	1.8550634059503415	14	-0.6784838407232363	-0.598036269250591	1.290978977852212
Si	7.775669992801224	12.636780983358287	9.344795017096967	14	-0.5394891157844351	-0.06291957517359976	-1.0343618409483406
Si	3.1070054615591283	13.388758991033997	3.5278506527629765	14	0.6214001604053085	-2.402905666988248	-0.2859539628278251
Si	2.3876217626295277	7.531195519725986	11.409008097081415	14	0.1292764610497055	-0.7089488676616709	0.9313505062966078
Si	2.205334165172213	8.788038078264014	13.431430459354843	14	-0.6445653051187789	-0.0067915747031711505	-1.073024580089535
Si	1.2968505324358455	3.6043681088041906	15.38733899310717	14	0.4235453784828895	-0.2613274018503828	0.12167087440217547
Si	7.046249985438346	7.052140720036517	13.67370550697401	14	0.47038757497907124	0.8913826740949058	0.310156805648507
Si	5.39213007622613	4.410714083622858	2.889018868604933	14	-0.269700977657041	1.8698193747825773	-1.3432372077052859
Si	12.969593598766881	5.942458679439329	5.924940075936695	14	-1.3475728626066514	0.3103334405840012	0.011123630057088649
Si	8.744016888229412	5.4028134667400955	14.648737283190302	14	-1.7395226991418375	0.423293153050983	-0.31232116210700767
Si	15.249283377574377	9.867099737270319	1.008717627462148	14	0.08110140355555892	-1.1111946954513896	-0.9600065035317861
Si	4.46579939680981	7.086757977307603	10.397609000693997	14	0.6483363452918399	-0.730324265961786	0.3318319948289513
Si	15.89179830064623	2.45500000130387	11.810172842376698	14	-0.14900429506066967	-1.3978405427208664	1.057637286080045
Si	5.8490125103781265	5.895424309210822	11.968819067249731	14	-0.13529053350406386	-0.2053516108149069	0.7279480504249052
Si	7.642944634205807	10.773521204385913	14.116613582656225	14	-0.5310450916920048	0.1827654790195341	0.17766851983287255
Si	11.026288459177023	4.627357491045931	9.4265038361946	14	0.5467391185661886	-0.0659830471625562	0.09030158972264478
Si	2.6977570923922345	1.9257636594480076	3.2246142637696122	14	-0.06304144556577478	1.3596521725112392	0.9990975888193177
Si	9.27660302368479	6.003544208283557	2.291634652569669	14	-0.14982524898939298	0.509937088345185	0.12402549265436708
Si	8.322364478470364	1.6871031208250014	12.973864994117678	14	-0.4321117871885588	0.9614344954265963	-2.0929499217757765
Si	2.891402941220393	14.05315868760746	5.650580541816807	14	-0.29745400270378347	0.6479342244197688	1.747557146156768
Si	13.26788373155257	10.67849818126445	13.720024165204181	14	0.7419312638190624	0.5876232927039913	-0.20376138217439532
Si	4.6919676563751125	4.647500371875795	9.157046439049612	14	-0.49958350433148085	0.9670808998201736	-0.4500321341594589
Si	6.068755702414994	5.55900535503436	6.200113364794414	14	-0.4788357128400138	0.1294255851582741	0.8366713526558788
Si	8.069422380793815	2.489560066976915	7.414928269000967	14	-0.8139818624266361	0.4965704260067993	0.5489101598985217
Si	16.118741097853565	10.755386565670099	10.644493691115228	14	1.2574435369404566	0.5575909827909376	0.44825781437802475
Si	14.648062422333426	5.287456379446748	14.4388702631122	14	-1.568143874253643	-1.7071144308024346	1.514647400078386
Si	0.09386611879538521	7.26427579548834	3.4834699726835483	14	0.9345764721417976	-1.2144682828457776	0.9988227376605937
Si	11.95511105822225	2.067383128561552	6.674632053736444	14	0.7458480856637759	-1.1268097893922449	0.13057409790478422
Si	5.574752653043396	15.054359705041428	10.727522819104767	14	-0.062349304013590914	-1.5997579281596517	0.022274256720038854
Si	7.472299612063879	10.236925120885067	0.14318488485419584	14	0.6104781050053195	-0.06299850810692831	0.29612062748475465
Si	8.762617229957842	16.23774374101058	2.548421659680198	14	0.5802645321671954	0.07553598897956638	0.027255773277825752
Si	15.60079274340524	8.004972351939147	7.106856738904693	14	-1.1452171037107812	-0.7886449050492368	-1.7447885799480327
Si	15.992176091389938	13.917980626478935	7.632970419507544	14	0.4238276858470417	0.8194765716063245	0.35360257201677325
Si	2.4171211888988178	0.858815180906681	12.432294875632968	14	0.7508954225177588	-0.1357775008516999	-0.6371463807174914
Si	7.3297372986054965	7.236014975828041	7.294311188733552	14	0.0781562024113293	-0.45759066957963024	-0.5403609775984973
Si	15.46763599675603	10.723024291407468	12.85280835556818	14	-0.5357327309116987	-0.7173520111795108	0.507156695051977
Si	4.543361008026678	1.2620404577770805	16.126380261306117	14	-0.1970777938946704	0.021645621469262646	0.2880327014791648
Si	14.585882082898136	0.44369405164385733	4.714945606422127	14	-0.1450406790991294	1.3070255032657883	0.02595556531742687
Si	11.319349645856153	6.803401387793116	1.1202330734128316	14	-0.5568466478007547	-0.04548131045022743	-0.6555248986564419
Si	15.301255833782268	1.6681547273713544	7.925065885202619	14	3.7820977257115485	0.7695706460106544	2.396174256149568
Si	6.428796420627841	1.9034050127054887	11.307576346888101	14	1.4154166186893988	-0.48949962926586005	-0.16309035266763294
Si	11.147064041873293	1.2039779134007067	4.737812441364378	14	0.40693963766218105	-1.2230994834055147	-0.29687447556462204
Si	1.7706878243383628	6.2280914945558274	2.1061508618047196	14	-0.08510975674966978	-0.4418968998159784	0.24631420366497409
Si	13.329521567829305	9.619406194248231	15.980422400969788	14	-0.31724071502657897	0.07397301405544837	-1.1578684845491016
Si	12.264370539512107	10.276531119550942	2.794508935820178	14	-0.21218792275064866	0.8261761007390344	-0.5515247168985802
Si	3.196784832163105	14.522376532433963	13.958114421892441	14	0.014475837173497715	0.902375177780667	-0.6731351703257322
Si	6.494867422775543	2.648188317347704	3.6436456642927477	14	0.5216567006154841	-1.883772249133957	-0.18122410138010533
Si	10.798484519907761	12.431649427597938	14.595008227899742	14	-0.7625934375033685	0.976725115876049	-0.2618120552032307
Si	7.420323887764673	13.523152710246539	16.15020791509545	14	-0.5986654187224313	1.270857250506201	0.8781815909391375
Si	10.61294517159043	11.84845689810501	1.9885959831009594	14	-0.3697673682750762	-0.7381283419400314	-1.1663184221837684
Si	2.1155793052531107	7.822377553898072	0.46774066755140015	14	-0.17447494991471663	0.568711013300578	-0.664155842105647
Si	14.116294943752857	6.89145357213627	10.734019784642168	14	-0.5668479903855989	-0.7733404006310555	-0.072039285744165
Si	8.47867074996071	2.0283539480130566	2.331830541718191	14	0.27162056488906355	0.6404062851529073	-0.2153059021723922
Si	15.320065333354957	2.754187225155967	4.3192859609496566	14	-0.09628763712901356	-0.5440469141854616	1.1244333167448322
Si	3.1129582898923145	2.212976596716082	7.8723630105854685	14	0.5045992165900256	0.14042323105467547	-0.29323996108406075
Si	9.470185144732275	13.261360621284638	0.3127857518204694	14	1.7414312306209832	-0.3555280727910321	-0.5503404657881201
Si	12.325815558401164	1.0398968526681702	14.505091597460465	14	0.8338657625305332	0.018471591951539846	-1.1236033639474883
Si	3.0381239008791496	3.449561891228165	10.248329125534344	14	2.6722603167586647	-1.438059829022879	-0.21135591306904875
Si	6.3746359772834875	12.79717400304004	11.149810872624895	14	-1.6754235008473535	0.14022397039236398	-1.257465134225146
Si	6.7784299020429755	10.662798270579504	6.337716349679857	14	0.05519828878666306	0.619237603720532	0.04206096904283444
Si	11.04606204568811	12.606508653492622	7.930017043547267	14	0.9738969000238861	0.9606402809932026	1.1176900788216797
Si	0.9559771697948571	15.62062352151437	1.9549967362749947	14	-1.2210837368345187	-3.594243515042377	0.7982235579194485
Si	9.310331360117761	12.311256211585711	3.7366081558390927	14	-0.9203356339945614	0.4612979463407518	1.4219171442703293
Si	3.246606884284672	7.251459975390293	14.742106652105564	14	0.1344143008109574	0.7930121845460404	1.0241301273268113
Si	3.1987816359575474	11.458683085093737	9.038383677389524	14	-0.33717603723687917	0.019962575926693715	-0.44377303536809043
Si	13.419711083893516	4.675326535390985	9.899166249268799	14	-0.9884681252047615	0.057451862599772856	-0.1702328832470043
Si	3.523664227786412	7.0409801881903284	3.4501811945326613	14	0.6279582787454104	0.872686367538385	0.32253204977544375
Si	4.700414038382865	11.050918429384579	10.747847079002703	14	0.340628774571306	-0.22367870664745443	0.29826004422164987
Si	8.350566472486964	15.231689607971461	6.68319935512291	14	0.4181740823585681	1.666545988397946	-0.07291320444248332
Si	10.37513433670974	15.309362334293093	0.9622551732140457	14	0.39086560142167937	0.6430673791592606	0.5726134369554988
Si	14.849853988768208	3.873149011046641	8.161412615173472	14	-0.5059616452991722	0.6455955470205621	-0.06931725654172423
Si	7.221849434016239	16.46058998575256	10.163623466699386	14	0.20783838388055415	1.1752131610388208	-1.1638175080388604
Si	5.683098050416978	6.391891499435136	4.12650452227474	14	0.2829023179233413	0.9363109397907694	-1.303047489114455
Si	13.116311290334322	8.942128583841704	9.929083991226612	14	-0.5135572046359536	0.000746648984971002	1.1174393960529652
Si	8.30347981279739	6.981280330064338	9.38932276128564	14	0.670422139991912	0.6715616538698016	0.012442092865260584
Si	15.564124758832987	3.0805159473924264	14.332569056857153	14	1.0578193203367114	0.959327988837799	-1.4479884093271627
Si	7.563464653386094	12.877404010816912	13.027414304385827	14	1.1021289780925476	-0.0394749513118295	0.9228925982354487
Si	3.8090666424650896	5.825403818707008	7.23696762444683	14	0.7494262929378261	-0.8432569818229061	-0.28041065975758583
Si	10.314573336521825	2.6100137426785	8.244489130487104	14	-0.037382328691760974	1.1397169952099204	-0.5562156985551904
Si	8.049661866647993	8.922142571395037	10.835142700206065	14	0.2722975369198586	-0.27038900544071265	-0.6544802585648658
Si	9.332248814532539	4.88281765308192	4.544248294819135	14	-0.13535789646345173	0.6987212678086538	-0.7062713185812687
Si	4.332523364827545	2.4317115825817783	12.07656967200369	14	-1.6324544174054427	-0.2591105948433511	-0.7948564383921826
Si	10.864844748136981	14.06019325416644	4.234758413091456	14	1.1908704211069265	0.2872040342344811	0.750448050192053
Si	5.504364502266466	10.021383060235689	4.470812648889474	14	-0.7422325973625838	-0.04327144542756016	0.06316331595794979
H	0.7820084987839477	8.754566286999397	4.100103246573586	1	-0.27696075063901116	-0.32632160190681	-0.5233289475157084
H	12.177950766781597	12.138281040335048	0.45602292613573087	1	-0.6780693785456283	0.10117248012676289	-0.022302281768028467
H	11.188274673375618	7.208072795071112	3.9760023809626763	1	0.23058752375322433	0.02127795340848147	-0.13307861159714046
H	6.797719811039207	0.4414407026810616	15.61792080999554	1	0.5944603759713291	-0.17810457929516968	0.018563637522001145
H	2.959570423947694	5.409602926450332	4.420537966120558	1	-0.5525307904103542	-0.15028187729425127	0.6131489692118894
H	12.749753998036175	3.1603750268048643	6.110066010702476	1	0.29756250334829365	0.9426314879992895	-0.2374122657150254
H	3.626061698963781	3.825982283119812	0.5796090673642764	1	-0.6679942452380961	0.1684997011506925	0.9398526373692734
H	3.8632368900833933	0.17864367563930583	12.919305843632698	1	-0.08538589346105367	-0.08206248272423025	-0.14843505234278892
H	1.453215629569889	4.396723384696494	8.208317895794973	1	-0.12886996929859007	0.6270326808301571	-0.15475148678279668
H	1.5494200677023016	0.662654535810399	9.724691024103816	1	0.023160002502829867	-0.25680534181330633	-0.09796811156626233
H	3.274205915453359	1.8514096798583828	9.496470403191688	1	-0.27542811475767087	0.11545239907486532	0.0717685483539534
H	11.490458736965037	9.077424296257627	2.238997139778851	1	0.4805370132303558	-0.17128575087560494	0.04901118094425873
H	11.364838208891909	0.30811564932904806	8.01848427548763	1	-0.17322744961338077	-0.8717813384656928	-0.2104686246230656
H	11.542119090452193	16.085645137090356	7.774937940346306	1	-0.2919544084239867	0.2294896617815211	0.1607524466000223
H	13.623867114395859	12.945796991845057	15.561211255424238	1	0.0780106778502089	0.3702682195914411	-0.8498960899805926
H	11.720045420047505	8.844226372270318	4.642666864818544	1	-0.6260636312349932	0.16984670322791806	0.4858327188582648
H	4.6384886100702705	6.0566196453108	0.099104869175895	1	-0.5073081331553336	0.3781352876500302	0.05431665677238429
H	12.16603857393259	5.482966674371027	7.243237457637727	1	0.37789077553408407	0.1607928129535486	-0.7455765769419684
H	11.016624713153838	10.92160659216935	14.65969682742052	1	-0.2097736548550296	-0.009335683417457673	0.08185216630904216
H	16.17556666966661	13.751780208527583	13.473644394891366	1	-0.2449355769923107	-0.1837065035667083	-0.02208476625794394
