234
config_type=amorph sigma="0.01 0.1 1.243734110107721 0" dft_energy=-23371.69166570984 dft_virial="20.784838984999443 -6.5540691029054 13.281782673725115 -6.5540691029054 51.806625090063704 -20.89790980131574 13.281782673725113 -20.89790980131574 67.6849982956238" pbc="T T T" Lattice="16.365857079 0.0 0.0 0.109143900859851 16.44850465724895 0.0 0.012438051380040002 0.077852382124803 16.338444268392678" Properties=species:S:1:pos:R:3:Z:I:1:dft_force:R:3
Si	7.828331150755016	3.4773649414032675	14.691703546175157	14	0.8722379667705512	0.587132468698375	0.436384450009581
Si	7.29236897044626	14.700724406597102	14.46505770124521	14	0.8425681827076386	-0.4754835057236047	-0.12525782343431405
Si	11.834436019738076	2.749701294199646	12.948785591661476	14	0.16203979903382046	0.4010471784894657	0.4218798164564975
Si	10.085217210248981	3.4874430361925155	3.189296398270125	14	0.7069554897069601	-0.09075796091697108	1.3515141099519064
Si	1.6079585506974132	12.568750751258603	10.778271979487643	14	-0.1809939874539521	1.0087274066854002	-1.1913021096901792
Si	1.1618563818523235	12.965973014765842	0.006834381916190401	14	-0.6234616726510034	-0.017710544776776013	-0.1578491544725111
Si	6.595710439478804	14.746717374746217	5.8465469658305	14	0.27046022505808076	0.0066216246415093626	0.5001275502172241
Si	1.5798878326355126	5.276450517412075	6.524281656257509	14	0.8718623282832776	-0.4813335416585377	-1.2133099998990509
Si	15.29613228957391	14.48578014947864	11.542438034320266	14	0.883468554808958	0.8581123141416577	-0.893764803174023
Si	5.255590595979181	12.255722639494277	3.3542004107838372	14	0.2171668682031154	-0.7372030011353101	-0.4699052356210115
Si	0.2697764246759439	5.406130295734655	8.346703307875263	14	0.06373384422849065	-0.7123185582942569	0.2580857522627401
Si	16.291937412331283	8.756322708119844	13.658248769207542	14	-0.0796111909120011	0.6693893269848085	-0.4078492947244495
Si	9.755304443736252	2.696934497805534	11.820142080165278	14	0.9032843206218714	-0.13396075783248326	0.491184474582153
Si	14.241590105760004	12.089453714500177	5.534302778620259	14	-0.1376582643933882	0.3436109996321458	-1.242256017814342
Si	12.93141978071495	5.609402423584374	3.2281980405469084	14	1.903051939487619	1.0555647180814736	0.6955868333128614
Si	4.455645504400448	11.622239590023177	16.197797729241458	14	-1.2396748851834452	0.7390901924402988	1.62330951000274
Si	1.3015946159356568	10.054825813653279	4.61644168678733	14	-0.8174220013449943	0.08141302152036085	0.46084697446759776
Si	16.19071294971196	6.597531959371697	5.545037144278375	14	0.7814062151308919	1.3320906948108477	-0.797938165228912
Si	5.009919442194897	1.1566291271012907	3.8852479242117686	14	-0.39486238464184953	0.022423637939139457	0.21257384565920287
Si	11.03118011527226	5.8564957703488245	5.9145798337079025	14	-0.8497047997447734	0.0033846030434429315	0.5291812974454294
Si	13.11800691727263	8.589682278170052	6.046824141834762	14	-0.5933404024938725	-0.7765779364501858	-0.23335146197238352
Si	10.581441452984217	6.058537185746203	13.219561970204948	14	0.2099284353953025	-1.2474787040511586	-0.4251119529544557
Si	9.035961198271593	16.363634595608673	13.864326004960605	14	-0.6856921915988035	-1.3569491694881675	-0.12338888697709839
Si	7.40843399226482	3.989025460535416	5.581668842178301	14	-0.22679411496387786	-1.0511398458254988	1.1610391716299084
Si	14.27787812066127	13.443471443831287	1.8878736238337976	14	-0.5030197865918586	0.7286425059718771	0.42687855941992947
Si	12.563372930622444	15.638888980722237	13.093102992555515	14	0.003083783720985606	1.1772813581583477	0.2707944687497
Si	10.488992362930654	15.389105087054	12.303073973780949	14	-1.2333332539113	-1.0561133919567933	0.18965295595114676
Si	13.131775512833192	3.118386412718234	11.034801879443842	14	-0.46686516069046846	-1.2307433795223148	-0.32062146141204173
Si	16.005883506204565	7.476388304028244	8.844143533791467	14	-1.4478644820507316	1.2183352252472803	1.23753289734123
Si	9.943009368332426	13.079800823921705	12.845084974866102	14	0.4742588882596182	0.9153561743210307	-0.23983501825820097
Si	11.853258391964633	7.295912178503864	4.338737640942319	14	0.28059140846159225	0.3844116128470436	1.0025377277376757
Si	9.255658100285798	2.5586642811021867	16.30984656973283	14	-0.09936859263414699	0.6009323622832058	0.19327435779457536
Si	9.677841569009928	6.127663292876483	0.31520477075583214	14	1.0086232769199341	-0.33608563147060433	-0.40176400265272305
Si	16.059111819768304	8.425879687837755	15.893004916759285	14	-0.42127509248519873	-0.2247943092458667	0.6525796975122125
Si	9.054236950871713	10.931716618874638	9.625889792298352	14	0.9899819920172646	-0.44662721938398686	-0.9420455330968277
Si	2.3205574264598154	5.295241794510183	13.940103196407788	14	-0.1984199108717877	0.594006832992855	-0.32703225541729897
Si	10.03015101093527	1.613758610446211	9.803619727004877	14	1.4320218452890434	-0.2619231269530611	0.03569439804908376
Si	12.441887536939317	14.980942248089448	2.6155225417660484	14	0.7560751712957291	0.22101735553056917	0.06792500301086406
Si	1.97074541432473	0.1757103879429756	14.390422846622137	14	-1.7443304089799823	-0.06143938984079051	0.297985450173458
Si	6.269185405381427	12.104693600612142	1.1280625235698962	14	0.3550483045382925	-0.8218039361421227	0.924148068963277
Si	9.93785575993825	16.311123106584994	4.998761200838434	14	0.20175951957212804	0.3987928333447599	-1.1285974789213438
Si	11.92518469724113	9.993982466790682	12.006449360566904	14	0.22189307400261163	0.05689650385062088	-0.8950259303335557
Si	8.632793218887551	9.936284637658666	15.862957203162242	14	-0.8318068213901587	-0.03837683222959426	0.9696610040089423
Si	0.9865404110649516	15.658413448217484	6.310363538377899	14	1.3605561731418032	-0.08741809510609873	1.2738633868465183
Si	5.490042954735811	1.3779658879948105	13.888359266081116	14	-0.2106786839277217	0.129008037654282	0.8697745907633174
Si	12.852011005581934	0.8920799571763794	3.0808087682791423	14	-0.12618702089701556	-1.1218226164027536	1.0477043348967172
Si	1.170111320162971	5.9926891597888465	11.886116123222141	14	-0.7063139989295831	-0.03124895695054774	1.3123785445423366
Si	3.993566985874838	14.809992687970754	9.680998542840468	14	0.2895478538443281	0.9734970931466029	0.5593773867673765
Si	1.0182492591555141	9.033979292979327	9.938281272222305	14	-1.458827932246375	0.5867601726480176	-0.4099208342808927
Si	6.522558331507089	3.6341891302770772	9.400811796476573	14	0.3896713230004705	0.19785375348029108	-0.33019831450852927
Si	10.291937624185246	0.6722341258627567	15.557544124696774	14	1.4956834414580376	-0.0035530104419126307	-0.12908979880346275
Si	0.2009138078446356	4.965824913466947	1.1058655116136487	14	1.711757332789558	0.1461814785296791	-0.13153132041547533
Si	1.6375071056535477	3.0143061080386255	5.551328179739542	14	-0.7672029151213299	0.5311682476368398	0.1313983942704237
Si	14.450352978659726	1.578603112854811	15.72236630792509	14	0.15442058552809362	-0.04371881775326592	-1.989131002942985
Si	10.340041787897551	6.77756947992636	7.956002838414003	14	-0.02875061391095985	-0.039262063791321244	0.41714949688848907
Si	3.3815608506485093	9.104563597975346	4.923620641231621	14	-0.12583657924187938	0.38162582023266317	-0.20144995849158223
Si	7.119458780649501	0.8189065735904626	7.913654546636382	14	0.45664296015862366	-0.21103375357243417	1.263926064784146
Si	5.755935761526909	7.037501841569285	0.7996930573797165	14	0.4284006537694571	0.41110225717550086	-0.327624123861997
Si	8.703562458068564	10.857590742406723	5.520072665890068	14	0.4758586299898143	-0.7667388306110431	0.07240875357867028
Si	16.003708483798764	3.068663665740816	2.253855102762935	14	-0.3780612398168099	-0.8661688726623418	-0.7889688643195756
Si	15.300050275758622	6.891287637839791	12.628486129596954	14	0.7488891890364472	-0.06736810159851997	-0.7547140281392426
Si	0.854543227379985	4.389948044328218	10.312087267420912	14	-0.01547933957995151	-0.3225680452499258	0.5606642249801106
Si	7.546743487025157	5.40420894411358	10.498052501409589	14	0.3472581125287758	0.09367102324469885	-0.038991069290577635
Si	13.270937668747345	13.755941479869218	14.027318485367488	14	1.4552944622048956	-1.0509207876522224	0.7247483098539808
Si	3.105544124668343	10.104278523988892	1.3218931884707406	14	-0.22783515550800584	0.5506492555370699	-0.8659477576048089
Si	2.6686772089729325	1.6521905526248266	15.981755323112994	14	-0.7433973080726108	1.7933709005248906	1.313026720193546
Si	6.970467290973701	13.741464242697136	3.8334548963138575	14	0.4599200909996844	-1.1054683296823558	1.5801432227827739
Si	13.857701106015023	1.0514866782972552	6.755683419254614	14	-1.0500070168214415	-0.33607920370730404	0.5738866483100361
Si	13.77210276373473	15.333506997385221	7.390840695904895	14	-0.27874381217853383	-1.2941103270216203	-0.0817436656645319
Si	10.669705793382679	8.330777692351687	13.17379812405494	14	-0.14820339575344355	1.0057971179520275	0.06425629282954476
Si	3.7423559894693117	10.812488076882708	12.751367530888917	14	-0.522124641783751	-0.4800898980151821	0.8898006729914187
Si	9.313514678231478	14.222145830964445	8.360345886336317	14	0.9662699732021988	-0.23751099615931906	0.541222812101811
Si	2.318253113783092	16.333246472184385	10.376657119940399	14	-0.6862444650215712	-0.29470292001122494	-0.34484564440688087
Si	1.1490337328309268	1.544333008131385	7.3752374877657765	14	0.0025772759729164344	-0.5937345529394513	-0.6243301920281494
Si	14.966795601230361	6.167275213350495	0.0225095998264566	14	-0.25869536133414717	1.3339418906413543	-0.6660954839591668
Si	14.649995159409324	8.96528688106164	2.56129591092049	14	-0.7833193745996141	-1.3260578532876524	2.4463401204931055
Si	3.7014200711576093	8.413870421913185	7.083547180461052	14	-0.1167649483408009	-0.5971962891424986	0.18814654534407202
Si	16.086922320702648	16.120660535071007	15.345863219479865	14	0.37738298223335476	0.563499897037702	-0.2700560473017535
Si	3.93593462017114	13.347264752992386	7.87663006816656	14	-0.27909039717568984	0.10197826453409728	-0.16864831103819705
Si	12.557279922031931	13.594600314441605	6.133597552653328	14	0.8229290518302194	0.8984110475980626	-0.9349377124392784
Si	5.778275156439744	9.118693878977355	7.554273417867205	14	0.4823558131338285	0.8916919780649197	0.1444624375126281
Si	7.885837499359206	6.289447973030938	1.6124182467514407	14	-1.5483558763781875	-0.36186610451572915	0.38685673400650444
Si	12.12162244317466	4.59745729257569	14.401484529421834	14	0.15833252227269892	0.5908621140757817	-1.4063699275099257
Si	6.057226280594175	12.883291068217028	7.204711803345429	14	0.9062454626190858	0.08365553958059402	0.22502570872468003
Si	13.676964763363088	16.152154990433836	11.199362208958897	14	0.590030618615246	-1.0265541654226469	-1.3249417364681761
Si	10.314111723941583	10.650940701655898	7.468643980458461	14	-1.7623638845849687	-0.6963152274500594	0.052817445260205945
Si	15.723218969078907	14.460067751421823	13.799217715743216	14	-1.1010992504118282	-0.7580808905559765	-0.27511701101393293
Si	16.11245142116018	14.657633104908095	0.8866955901973885	14	-0.49934799108415523	-0.6439677802423763	-0.9795160507010698
Si	5.0487638039719025	16.407378894995134	1.8988534773480987	14	0.8396348086478815	-0.038490732195276815	-0.3464898662591156
Si	10.707689311077331	11.799241244089686	11.10293294246372	14	0.5701893988596632	-0.40981824717861887	-0.5455070448967737
Si	5.327948959882563	7.907311140432562	14.951223488219691	14	-0.28257553043715056	0.4481919940818289	0.7507848649889923
Si	5.434775455380028	15.548572361846066	13.435098671349671	14	-0.330453882377352	0.38958904763022584	-0.05341805546299254
Si	1.5353579721092614	1.6119272710390709	1.92001125737983	14	0.14034944033198724	0.6069639182537412	-0.784100990616939
Si	3.19563653130253	14.949118838999333	2.0745245872340847	14	0.24571205079899539	-0.5785174661021549	0.10438559044535192
Si	4.518451117526818	4.7760988055215154	13.28880427492049	14	0.2443637631691098	0.049047433529272814	0.38896992546913417
Si	10.93751340545202	4.138737047922692	0.0203345774206575	14	-0.3398983235498519	0.43409848026943726	0.6214693231384206
Si	4.808131697582242	0.830125368618117	7.730630257164801	14	-0.898000184967903	-0.11904089077019597	0.20997574373319325
Si	0.670132749813813	14.572972526238427	9.833763999158686	14	-0.4158256347591449	0.6108779118826027	1.0937114363849145
Si	14.79846785141572	1.5234812696270312	10.54749211905954	14	0.18462515949759722	0.6782845800609247	-0.31826067250708173
Si	15.569613944292538	13.258494707610181	3.921437743970561	14	-1.7209302652402505	1.3066596349787312	0.7583791387731137
Si	5.129321462271864	10.285332364268163	14.574067402077013	14	0.8228838003765848	-1.011502657767968	-1.4602117011296787
Si	2.6292518592696217	12.85671455290644	12.873366812484322	14	0.14837720247308558	0.32276807724383333	0.11802941793724973
Si	0.43206353664272373	10.175882421880933	6.879969011083955	14	-0.34032049904342027	0.9944271760052686	-1.1819116617294023
Si	12.47266189459067	12.638333465801386	9.637080765368971	14	-0.9036869557150065	0.21672952318815822	0.5698847228792256
Si	14.166159870482893	11.083964914109158	9.38445575891182	14	1.1174604791165905	0.21247871476235738	0.041275496367529196
Si	9.74158330916122	4.915481900506235	11.26246240751269	14	-0.3101092402000843	0.7247624509332415	0.7924372853964552
Si	0.9499610839076787	11.252662532293783	1.470180946292144	14	0.6998268430963175	-0.3188000904032488	0.3753968033735404
Si	1.1024172255271032	12.166229223229182	3.565275779288824	14	1.5158385931732103	-0.9281317395463143	0.04501774016100473
Si	12.67845109125914	14.959800833914795	9.369589014341257	14	-0.018213452977396977	0.6069389785321357	1.3361625543063662
Si	4.336451330708384	5.152803194008813	0.724401931887777	14	-0.3362825781381277	0.30196526409851526	-0.6437726333485772
Si	12.058633532449004	4.003168834223088	2.0293973729244503	14	-0.18952954289577967	-1.840850988251001	-1.1561468724267305
Si	15.36784420212267	12.054424234008286	7.495994600808886	14	0.6396629786048524	-1.25593944032817	0.2272715692218294
Si	13.466706051126344	7.1220625885107705	1.5970245215829333	14	0.8612269511264851	-0.1111671378377745	-0.5757062195451049
Si	10.720403945442007	8.731165112618006	2.8696515704887604	14	-1.116391413524473	-1.071454406070521	0.1428159016656053
Si	10.477326780004743	15.721446546757253	10.004353510421643	14	0.1473654725296073	-0.6288795057816193	-1.138598821506188
Si	3.2761761871597046	13.84279508338747	16.306612676374023	14	1.0130219239016434	-0.6238175136273119	-0.07192949954699468
Si	4.463085423028561	4.24773529265454	2.8910548383766765	14	-0.7676256048359622	-0.6606411411330047	-0.4648396439192558
Si	0.747692183096902	12.578023645879563	14.11520313788172	14	-0.9348335826738124	-0.08848124715597995	-0.0863377166505725
Si	13.500049848339097	10.131544041882506	4.4271132691689195	14	0.05895004566982314	1.0881683904252075	-0.43700048684428844
Si	13.290406492328524	11.320554653800308	1.1130566692141612	14	0.42716420922099785	0.8209603564865819	0.6834920967763528
Si	8.38181298106684	8.754096951557102	12.694019931098392	14	0.1085170995842979	1.5376166265664606	0.24121518759405644
Si	16.174554939017863	15.61535815141405	4.416540925495886	14	-0.08334495005792011	-0.3412350412057969	-1.6484574911391086
Si	14.704719312310084	5.064301548682706	4.788895269171586	14	-1.16325469308428	-0.7959931240542201	-0.7899170879616461
Si	2.2446885862129875	9.736107293382585	8.193188295302825	14	-0.11043000194248806	0.41005813130498875	0.18021571387354324
Si	11.596437179752424	8.744583478837079	7.839445204297364	14	0.34309137924694383	0.2712549537125385	0.6305674364242966
Si	7.198985389953486	15.230793241771709	2.270013113457032	14	-0.25191561371544874	1.8153091137795863	-1.8921494244880637
Si	10.730051618190076	9.030751945963347	15.405073253805979	14	0.17342593894409622	0.40717180847259044	0.17384477200074833
Si	5.750841070218216	4.242841901387919	15.277926910159229	14	-1.4388003073550815	0.24936456301679777	-0.3449780563308685
Si	4.756250294056104	16.179796923040268	5.706052629150117	14	0.25389999280153897	0.041242071998367276	-0.07381694796251538
Si	8.406437049627904	9.14562389680085	3.5888033354255944	14	0.5519062689280902	0.5826140082087468	0.31677945873214447
Si	5.797112257937672	9.455292098106854	9.852389981100297	14	0.8955656053402548	-0.5435702312591062	0.1893043140697347
Si	13.793085429095717	2.209803125263391	1.445614158230857	14	0.4277198250806819	1.3188970678605079	1.1725183855527734
Si	4.725853987703277	8.634441260695409	2.2054285316661746	14	-0.33827904141922266	-0.41108914453836803	1.2073200958347017
Si	7.647308405604197	12.643907676722495	9.077194975182135	14	-0.4120147424536214	0.8024067462753295	-0.7066814098798323
Si	3.2035330573431473	13.256959590216171	3.8823560772659094	14	-0.18471077730475813	0.9981115699290407	-0.09531858753384974
Si	2.3547293360407675	7.778236898821904	11.12257197095852	14	1.4911323279308437	-0.17283124228354596	1.9887921312617898
Si	2.25299425868058	8.93264190594616	13.26625703362275	14	0.3733792570288202	-0.4512377254440764	-0.756335881375192
Si	1.443894106651854	3.8535521688068695	15.601560097310745	14	-0.0508754894118981	-0.3314836100580713	0.011347059109409518
Si	7.188165921838559	7.174271309178488	13.778451079695676	14	-0.8760221195807453	-0.1143982458936046	-0.08433302583245304
Si	6.060537093481257	3.3685025332851755	1.1489748157454427	14	0.9588081113420652	-0.09643007636374976	0.3758943122529891
Si	13.050411017779236	4.5593493943672385	6.331961559965055	14	-0.09198232127042559	0.006061895013313125	0.02279927642641309
Si	8.728651316970671	5.701967711223198	14.583119357627407	14	0.11848810312636414	-0.22347584643769475	0.010324016302522596
Si	15.31515432525683	10.18128642788842	0.9033445766038551	14	0.727703281198427	0.37842607966173886	-1.1764503769188759
Si	4.703494953761948	7.558230682108907	10.68280666197442	14	-0.6765179735954511	-0.03554424549838712	0.42888093624326074
Si	16.118534610236445	2.0941848913430876	12.394241617225227	14	-0.19434548027094903	0.2709412788634804	-0.2090961686031706
Si	5.985938243743759	6.169450235756294	12.094235817938662	14	-0.16674080800117919	0.06345025131167832	-0.47372229857930337
Si	7.375985407434287	10.65644944914869	14.057626416092088	14	0.34077995556413077	-0.8483547123411638	-0.6199608556470897
Si	11.142304284838671	5.184296012785933	9.490657078668866	14	-0.09188641904198407	-0.5971284119620468	-1.6143126982664782
Si	3.0257000177370257	2.4692543307081936	3.6704624159069725	14	0.1717956010605903	0.06649186890541349	-0.04928577499245054
Si	7.634960366438091	6.883191448342811	3.8324582156177462	14	0.6161198814093205	0.2314110487872678	0.07694752580032768
Si	7.959650787956911	1.8446579416309905	13.031996155393946	14	-0.7697241409982671	0.5835930851146591	0.3503807199400957
Si	3.1695951795184247	14.563752002360118	6.0001781759881965	14	-1.3826954468325343	-0.32022859651912305	-0.7017487443231282
Si	13.396987499969804	11.322006305323214	13.395200348376775	14	0.08207559536136302	0.45633082797275765	-0.14712661684536554
Si	4.484721086086999	4.893497644692014	9.037656701064977	14	-0.003876455491187259	-0.6407466994972948	0.8005552933342908
Si	5.810925041312348	5.651290834778075	6.337059524445165	14	0.5269194960952952	-0.2436749640538421	-0.6351465749994804
Si	8.194168610141858	2.8683423019224406	7.643072921792152	14	-1.1674875037728396	1.149746619953286	-0.4220525947340115
Si	16.228316779522377	11.028645044010723	10.750628410295503	14	-0.6891426149384421	-0.6727957844234727	0.30156262900538006
Si	14.455964831052116	5.301711217813511	14.186471535703639	14	-0.21219255074022492	-0.4089805810653146	0.974623237276828
Si	0.1456430353174368	8.161823130210923	3.6822916574036735	14	0.8364486949351541	-1.0043395583460355	-0.09481079423312049
Si	12.024813488795251	2.4705521431745585	6.531634835843103	14	0.8610320613432179	0.4355357281434	0.7779979579185037
Si	5.78536157255495	15.128210413014829	11.17675114081855	14	-0.09341596959694015	-0.663459586784951	-0.5461482785636186
Si	8.1691108463682	10.634407912834693	1.7314667643155026	14	0.246660531551598	0.8184483865887974	-0.10620516168042073
Si	9.23065598042621	16.450552025969532	2.591620207502169	14	-0.19853123973215012	-0.7570704461651583	0.7766699820206471
Si	15.288063922033961	8.384794840226634	6.801676387403727	14	0.48532929643657985	-0.6779215399897198	0.5958518581705932
Si	15.95486458334649	14.348909213555546	7.727672946790626	14	0.15193047002553023	0.26865325223908065	0.38229070806845344
Si	1.8841225693912909	1.237834873341581	12.317254988939903	14	0.9711594441895245	-0.2845100300800299	0.2446434994279419
Si	7.213264600254914	7.477821953108364	6.928919289607244	14	-0.277132500474397	-0.7029409658600809	-0.9186980970161591
Si	15.703324633213676	10.935497131859886	13.06678178461536	14	-0.06735961695096347	-0.21847376103734664	-0.22695403771479106
Si	4.983915731882073	1.7747397270180865	16.225965005860125	14	-0.040951022876126515	-0.8728640309160073	0.2877511654466086
Si	14.600123483132489	1.0193474081655152	4.650507218297269	14	0.5173436714409356	-0.24422260948703364	-0.9234104188469265
Si	11.361153435456183	7.686280421066419	0.8793849618401992	14	-0.9910042634925554	0.023774753784877273	-0.3717674311036194
Si	15.293075147471551	2.0150903406659886	8.1843163641803	14	0.7403194378938616	0.2889922379846441	1.2060340289535638
Si	6.320844233251291	2.152949774356653	11.357453115170621	14	-0.3112991477422488	0.56117458938616	-0.8588219392100186
Si	11.183246749493204	1.7622083902526964	4.628434586854822	14	-1.1942624803557977	-0.12558332536784478	-1.9293594891233747
Si	1.58552423381352	6.7512793671146545	2.1386198298982806	14	-0.45894641341494435	0.6183901674070112	0.17660433934086325
Si	12.342085267300162	10.948013739353906	15.438125738762727	14	0.10203354329848047	-0.7885734283213367	-0.5109760720050569
Si	11.793146598913467	10.691271083255678	2.8912168603617587	14	1.0170022520477648	1.1425524101569797	-0.28420663965225246
Si	3.387819154395519	14.77886810097791	14.136426381341765	14	0.09420349915650152	-0.8732733508829749	0.26368253432363836
Si	7.223385246272568	2.040107189796948	4.1490491744681695	14	-1.1681277089975564	0.44824804417780817	1.0545154500003213
Si	10.728140086083249	12.608123730219262	15.019567307381596	14	-1.0288241943098058	-0.397006943589385	0.10287712295402106
Si	7.532200786424758	13.910240416995737	0.38158468706825616	14	-0.1178568967702678	0.1894557521730914	-0.31315882822031194
Si	10.036622070824308	12.185369093083073	2.43530990654064	14	-0.7367723409941852	-1.0160442582054774	-0.697126154068034
Si	1.8477281764190108	8.362311425771503	0.38160432609675093	14	0.8161395340113043	-1.2024722767535627	-0.32407856962551285
Si	14.204708010246769	7.291195538493696	10.528653380975902	14	0.9323789484246671	-1.2233702207957262	-0.49895204086485245
Si	8.499853361834836	2.1838288734933102	2.232189981161755	14	-0.3658813996942044	0.2052811625291349	-1.0545735569805568
Si	15.840948398562402	3.0056878477008246	4.505553185562858	14	0.2453798639916323	0.2432980400139084	0.43096738821056096
Si	2.8910761139908794	1.6957744666119117	8.954086088476773	14	-0.0683548918203928	-1.2302885509911807	-0.8976623417288355
Si	9.850872866149071	13.563364439620626	0.5623717638771375	14	0.39288931841916785	0.8921534914698863	0.22468143772231222
Si	12.446252311022288	1.093929892045934	14.429864562182527	14	-0.3115578009374557	-0.37569685136440173	0.4610842874886475
Si	3.029740747849831	3.4852189162154796	10.261356383647428	14	-0.12611143040060319	1.1044054347430066	0.48869872995863395
Si	6.466312153897983	12.88418464401354	11.058247606295218	14	-0.1972983947311391	0.14020700109725104	0.4155140167943429
Si	6.398492042162606	10.85469398570374	6.099335630858442	14	0.46693843719209266	-0.3543181106273704	0.26327835656731113
Si	11.21262346295001	12.683244650797578	7.639870123561791	14	-0.7314306125810457	0.7831810491333903	1.3280764280745005
Si	1.0227973308377682	15.888502669476853	2.2974291972357728	14	0.3237497252550659	-0.08812052107956317	1.533786193860504
Si	9.18349121691024	12.943631983267302	4.4036839081746235	14	-0.883173391918205	-0.46314168596583	0.07248974339625494
Si	3.028500215883242	7.351777031643031	14.892013453893577	14	-0.060608408601318664	0.4970463376015587	-0.22778064807521872
Si	3.032257816668581	11.692113616821969	9.128793249380806	14	-0.30266846140357573	-0.03613379994829707	0.06538732205987789
Si	13.431095582708148	5.090301985824113	9.82069258910969	14	-0.19009287207142414	0.46150594876115175	0.7938848176916986
Si	3.3337709113921212	7.170480976678991	3.715229581360869	14	0.9451385727969659	-0.553657191651111	-1.0393613552433685
Si	4.668568578169653	11.28735978588697	10.704895659273946	14	1.0989816880701542	-0.10120024806422048	-0.050599095589982185
Si	8.530770102442775	15.736974471953808	6.766499614198124	14	-0.4871771498301702	-0.5248420429966155	-0.13837483144611348
Si	10.881851488940635	15.71365476220194	1.0756181345602407	14	-1.1501541401465294	-0.9296265801794484	-0.05413487962624982
Si	14.65563319717304	4.270516565708508	8.051484521784303	14	-0.4590754829020158	0.14984478938982607	-0.13795625549999338
Si	7.172255035586356	0.2601974885276052	10.347885943195516	14	-0.46466712275227384	-0.46597992912874137	-1.4177334416933842
Si	5.419260622869136	5.92906198063711	4.0425876375835665	14	-0.3240970815838179	1.5288548138564602	0.550808149845855
Si	12.896879639349722	9.091736039196826	9.901829598750247	14	-0.28464192778295355	0.7799340002245752	0.08686273635694673
Si	8.176572040610516	7.059975436510168	8.92995299562808	14	0.5397230863685686	0.312170495335247	0.5975752700666884
Si	15.784368357468884	3.2789600194488426	14.4391603690034	14	-0.608540520036056	0.22463978581612576	0.19328129977893976
Si	7.720953125873989	12.68261292871433	13.095585693074401	14	-0.5445472512807624	0.952017050859958	-0.02177469095633408
Si	3.7235090684571355	6.058871049230614	7.252388818187971	14	-0.9166265574597158	-0.05584157933776412	-1.0503389465182729
Si	10.501181653283092	3.163963688097541	8.138634347315687	14	-0.16131731843885883	0.31219774905164055	0.7660055513737369
Si	8.08319009670345	8.976849359087954	10.406883221379603	14	-0.7007593829959352	-0.15883208803640372	-0.6389996334322542
Si	9.144787601504113	5.171164049065744	4.636178910424605	14	0.4647424561381541	-0.10188467630044389	0.01062586406710798
Si	3.9843841034678116	2.708127107461862	12.40144750409711	14	-0.571383934391404	-0.9038332516077231	-0.15401923598761852
Si	11.04887815311749	14.346971496077392	4.50434374872472	14	0.8497166268292461	0.30470863347511323	0.1302961614196762
Si	5.428639895561111	9.977456224312306	4.147839737630032	14	-0.2741371627764245	0.5189673244506091	-0.6953158388121176
H	7.218981194132608	4.777308242359654	1.6409341161258904	1	0.4288236005946215	0.2861542519322646	0.04843833867892973
H	9.411213935235986	11.727406587612832	15.627357597824375	1	0.5366315893316225	0.15078889926338446	-0.5414035608058173
H	7.427983008545686	8.880066590079872	0.0100519094179218	1	0.5394929724424152	-0.23891584810624797	-0.3438308291370184
H	15.357190029164242	11.899441204055863	15.316764725593405	1	1.705211041533929	-0.5495804470554843	0.3437310702505967
H	14.897705498985653	13.091965565488525	11.162470293931413	1	-0.3578114714258556	-0.24947177810864798	0.2008318647726186
H	14.664397113638847	12.122100326201368	15.298349863208113	1	-1.788690203289561	0.6841713828019358	0.22149018179894442
H	8.569850132561719	1.6517715866836042	9.6252367946009	1	-0.944933141481886	-0.027036972215081154	-0.0652487394831219
H	13.037324878458866	14.010929716088578	15.55698768555609	1	0.07935356615892225	-0.30566996975431665	-0.5356882507896602
H	5.693048319115143	3.207992753397175	2.7943146205969995	1	0.2134876164899835	-0.1904584832479492	0.18852964003677408
H	4.669894212593053	1.5257119359468987	11.415488080958463	1	0.5719071543240541	-0.07141039338285678	-0.41344144879577155
H	8.653528759806646	16.182980082242132	10.73714785381953	1	-0.15073979115176964	0.0038396886851091412	0.312152240487474
H	4.211311441139518	6.576079593912543	9.503302976433812	1	0.5402838444388929	-0.19556675529801937	0.19928045982244125
H	15.941793173297492	3.7936825904404716	11.018185624751535	1	0.7218252202155044	-0.06964430113844705	-0.5027439069910068
H	15.266187680876461	1.0075394422830166	12.928557392311834	1	-0.13416850314235126	-1.048224726613515	0.7289209566780491
H	12.083710935251156	2.0393429042713587	10.246848051346895	1	0.6181621103651141	1.0638048535220161	0.16562803361861914
H	4.03113644738539	15.938344887210947	8.473343946538272	1	0.9731461372704029	0.2505925229177005	-0.21900340873329718
H	12.951143911666563	9.528472028035605	15.834267855702755	1	0.02276610916778318	0.03093631054361773	-0.1546630407597836
H	7.918559394002958	0.9295544967158736	4.9859369152313295	1	-0.2753622944614751	0.4002660766932047	-0.2094959754804536
