233
config_type=amorph sigma="0.01 0.1 1.799604993445292 0" dft_energy=-23353.235363172305 dft_virial="45.42599823314785 -12.02714307542522 9.671810723066168 -12.02714307542522 58.92370902085214 -2.428052733735491 9.671810723066166 -2.428052733735491 67.18151232826536" pbc="T T T" Lattice="16.405915777900002 0.0 0.0 0.1676028355870264 16.440581477938707 0.0 0.07751795205057752 0.0672970665209458 16.313550472070425" Properties=species:S:1:pos:R:3:Z:I:1:dft_force:R:3
Si	7.715544693554904	3.3042203425153276	14.724453782724098	14	-0.08903532035247186	-0.05922823926546317	-0.2707828987757593
Si	7.167057195493418	14.278473727626086	14.186252793855354	14	-0.35567179757842843	0.23788766308872078	-0.05103824037866347
Si	11.553385493253785	2.681957081792203	13.181142723130733	14	-0.039754173349597584	-1.013549514713338	0.8352204779237193
Si	10.310552062315814	3.0713350868648814	3.117650627697471	14	-0.14671652554680192	-0.2509416790201766	0.2659080830887586
Si	1.4814263046875478	12.51977268096783	10.602474005893034	14	0.4537463529049448	-0.012399412516946125	-0.4445040006106085
Si	0.8885886945036645	12.62660308273878	16.07453104451062	14	0.5907685258421285	-0.016951554486268297	-0.32332703554043357
Si	6.515447032626785	14.534962174306198	5.668732797554632	14	0.9564748332640307	0.41378160602962716	-0.2258744305908609
Si	1.4500319442549583	4.80501875255342	6.790013157902564	14	-0.11075498965495478	-0.31087260136963624	0.027861268580720626
Si	15.295402620077107	14.976532319243109	10.868010315124657	14	-0.5945603919682829	-0.18824630423049377	1.0842160873270759
Si	5.140609962748253	12.182834545087628	3.029117743793612	14	0.6251105224928143	-0.9433729947736202	0.42685876190896427
Si	0.1380590624541841	5.020316866489957	8.70538741905661	14	-0.43204442422917094	-0.8985624857014194	0.002876552632181671
Si	16.181776515950755	8.524433449209528	13.918956129860764	14	0.6744094101223976	1.2912232328576263	0.05505225000447865
Si	9.823804947101298	2.6679349455768318	11.699153695532004	14	0.1540881416101985	0.7241165892768203	0.23269865833159792
Si	14.300661088124118	12.172853185928355	5.535533167353862	14	-0.226779459663553	-0.03105998070951686	-0.4108009236319795
Si	13.723166290375726	6.243174454376756	3.3623711109900944	14	0.35461327351812344	-1.5477809772286022	0.6338571656814261
Si	4.905928259320127	11.623138525366683	16.258825258810084	14	-0.9479958421392464	-0.7004464794784732	-0.8867539131870432
Si	1.1682308101211256	10.372349865868006	4.663621086238432	14	-0.8016055898575712	-0.08990615372440601	0.11529196210288807
Si	16.31025124240749	6.187602695862276	5.737217652377899	14	0.37258504259542646	-1.368781396171489	-0.7835008946352165
Si	4.914152544899588	1.0649145555098003	3.5692267406673244	14	-0.15982144936359666	0.3605383857284047	-0.28817385516124094
Si	11.08408278828591	5.369462644300492	6.066115248935349	14	0.5249579998465542	1.8793733450417158	0.5879238549159166
Si	13.31719534208528	8.199248511392618	6.39690444758199	14	0.3348005930315943	0.8472231688897666	-0.5136109407371446
Si	10.345678768587875	5.894355154290202	13.358226537445809	14	-0.8751070631973045	1.6599870987262486	0.9834971501787871
Si	8.794550290126342	15.997587299512272	13.77670207474217	14	-0.7768214201240039	0.7780054141239321	-0.1849203223883502
Si	7.417680527282928	3.7886017246746695	5.591651242863747	14	-0.18665761825317428	1.1771916265826747	-1.5594573949295227
Si	14.346586168161194	13.472831702703905	1.8658136301805892	14	-0.5200556733326279	-0.16638702390912682	0.06012529791166283
Si	12.520412511683167	15.737322211020087	12.59422928913425	14	0.001068037149989512	0.2897969939498504	0.6591514427105108
Si	10.262804285035815	15.170322277594819	12.280290606583089	14	0.7529219677310994	-0.1621549845521631	-0.7782974916883009
Si	13.445862017756617	2.9772602846112473	11.964934452908716	14	0.5373772098744655	0.8882500393728374	-0.5259080232623489
Si	15.882773779123793	7.150269021877892	9.225479558089708	14	1.2024041424625789	-0.0060387550654317935	0.3609901289331547
Si	9.869549562064817	12.922987435407588	12.434373326977548	14	2.006987072280882	-0.38262752286539287	-0.04781124609134562
Si	12.139455663179284	7.163413441599146	4.680049970298422	14	-0.6922783349868947	-1.3248216658497252	1.3285389699215953
Si	9.157867497985826	2.30705073502721	16.171450632560145	14	-0.04973854663932861	-0.16247920093303375	-0.7993224483332797
Si	9.242933811885816	5.97585974387481	0.7699345492315806	14	-0.08998380110507448	-1.1659903491449173	-1.1295415887949023
Si	14.917252823762823	8.365809571327748	16.062215123536152	14	1.6508414199919497	0.09413793597083774	-0.1795096883526306
Si	9.00142232571935	10.93556823570647	9.349609998048454	14	0.547752648283391	-1.2413617873839944	-0.18213478688450177
Si	2.7406541672623734	5.137209016407494	13.830682459426194	14	0.37872741320526027	0.44788963209617955	-0.3079965629585186
Si	10.627245298126084	1.549860301171902	9.889016821726873	14	0.47674771820952155	-0.8435392891870583	-0.4672683100046676
Si	12.385363934774226	14.82467588161971	2.5675258192413506	14	0.28309669348554456	-0.04225971548408189	-1.2494309443207472
Si	1.4791147111544416	16.273495428698684	14.25137607653573	14	0.0052406839740578295	0.7101639720359729	0.5900897540376093
Si	6.646302257462892	11.73642957677097	1.245085963174276	14	0.19853329661640623	-0.23299047878543475	0.549939887579241
Si	9.813721871264201	16.14600013541389	4.646900176877597	14	-0.7621535213830911	0.3289826959131633	0.8896993714418049
Si	12.125796097702604	9.656830458088566	11.915014532379722	14	-0.5162938891387192	-0.0437964651339344	-0.24102441157930146
Si	9.43481412164098	9.970006265556055	0.1497072626564931	14	1.9823633395192912	-0.025498422791504542	0.49328069674966973
Si	0.9688415127144179	15.279006547848674	6.1173886575160195	14	-0.14712533129270547	0.5924582562585298	-0.43568279536771254
Si	5.608006300302735	1.1405655143448528	13.91402943335266	14	-0.19507001775016677	-1.4112797102292807	0.5103386949961921
Si	13.016924427968688	0.487068671163762	3.3058937459246733	14	-1.5512457987580337	-0.06783681409838296	-0.8085743137173006
Si	1.1743223266494598	5.652110323688464	12.056436807568376	14	0.5198888085973502	0.4309787010739696	1.1264382646734836
Si	4.3388380933580795	15.083564513778128	9.179393700078009	14	-0.4941931820277903	0.05337408956201801	0.3213249158276342
Si	1.0206874877557375	8.725248420697337	9.987632781467829	14	-0.5705539815940602	0.6877454763074736	0.4975338191702587
Si	6.6612004695808045	4.145240084220971	9.201139741441615	14	0.13026325127157834	-1.5829321007235386	0.35051441741674333
Si	10.117569275020378	0.34250302251206277	15.33919821224621	14	-0.6430668649381964	-0.028364176781341593	1.6334761746596698
Si	0.1617508454290495	4.451059479053649	0.7456898868949998	14	-1.0829968691842615	1.0147142254233648	-1.0309816087839418
Si	1.6248369768684827	2.7006778722863642	5.607622401873533	14	-1.0619914529397159	-0.02722054913493973	-0.08607340702366127
Si	14.026992366441391	1.4100474463210604	15.36407614293182	14	1.7768759743434808	0.2550497911007092	1.9268562609836786
Si	10.610882037729207	6.8119970850449505	8.195604757498346	14	-0.405357636558694	-0.6481501972666613	-1.7165634999645107
Si	3.2512686087505775	9.643095425399308	5.014412377401491	14	1.4584049854212107	1.697291522926809	1.4759368383782363
Si	7.347348366343072	0.8880784705229718	7.8465771022814135	14	-0.20089717084775038	0.2901669760054197	-0.8538674192580932
Si	6.126500503139065	8.112375906165482	1.2591983319264255	14	-0.04037766638973349	-0.5688411112297775	-0.6620413650903573
Si	9.160149560870533	10.564331892300993	5.401957841681778	14	-0.18354143860515482	-1.1800393828352709	0.05369907727448472
Si	15.789186232568763	2.8986119649635724	2.173357286761525	14	0.3244498372337422	-0.8744809990518484	0.2644770058675642
Si	15.542113140953589	6.677375061946235	12.685503601564596	14	-0.7835764851316289	-0.5110681175755182	0.05504736490437037
Si	0.6993776272455658	3.960493066646039	10.714500161190845	14	0.6093504182119026	-1.6201113120950081	-0.7465618245006491
Si	7.84103354334006	5.58742507895936	10.500302884203006	14	-0.05136734185964243	-0.12166907462845133	0.4394054987607549
Si	13.17412263176937	12.968297293602992	13.526272332758838	14	-0.5192552882464657	0.8682478684242134	-1.0171896856256037
Si	3.607595255897099	10.670825972798498	1.6975561985540246	14	0.7214485532861028	-0.8931415672444192	-0.04690236036067327
Si	1.9974891508055925	1.575791491650451	15.852291587608455	14	0.3995327974558985	-0.47875729412774937	-1.022930706694962
Si	7.013061426452581	13.61861138912317	3.5081655627335584	14	0.6821888034895698	0.1864982097233251	0.7823202430722046
Si	13.813913972909603	0.7625059505673474	7.012903929661113	14	-0.09196303798052448	-0.5332323309878547	0.09169975679574131
Si	13.988113627230923	14.893426512278578	7.564710344484469	14	0.04596570669254333	0.5654313113541972	-1.746913084274071
Si	10.808635665332858	8.193303007514707	13.321209869676133	14	0.2304674531347734	0.17293871448592812	0.34736841294701015
Si	3.42312057652408	10.656456031168634	12.908706085722926	14	0.41175248971096623	-0.2122827965369621	0.9544297760923851
Si	9.67310020476551	14.248980812832157	8.371823980051927	14	-0.8608109462856851	0.5788704788626112	-0.17909445484342668
Si	2.3959347055287163	0.05598518759208376	10.195679480630536	14	-0.18719420793348918	-1.6194803628494436	-0.6688421957726809
Si	1.0812203952014552	0.995957210312131	7.172907545059816	14	0.3820865623060338	0.5365176893659399	0.2277953033755435
Si	14.725313452710859	5.994219604221858	16.212903459956163	14	0.6870147681754876	-0.22930762752485465	2.5631037832812464
Si	15.827541623065915	9.075096371703165	3.6849721170719865	14	1.3988273329427394	-0.5866501293403152	0.29029784526621527
Si	3.6774500046878194	8.24480445832469	6.9027874229598485	14	-0.14013809547467104	1.0533042022839996	0.8964513511230459
Si	15.609815433594248	15.950815674221056	15.076434502781053	14	0.5126280071732521	-0.2964674695924426	-0.6055420970116994
Si	3.948823538753219	13.233092055441453	7.691989079680995	14	0.1258669182846571	-0.010020111653681092	0.7232807229372403
Si	12.482414770149973	13.610373978811088	6.023095656582539	14	1.4389298910632171	0.20321990739397214	-0.08545197086778149
Si	5.755293690381988	9.181798807331049	7.599131596378081	14	0.05000259915570782	-0.5641861250476494	-0.18102638338098595
Si	7.246507764422631	6.09749320345216	1.91930675916601	14	-0.07375369877163973	1.501266339550207	-0.23175172024218738
Si	11.96141374338278	4.723755329930748	14.21586219065131	14	1.0649209703414926	-0.7739700643239597	1.1862843405473784
Si	6.157763616245431	12.762247194390456	7.101633684554307	14	0.6521546938027919	-0.8988113686964097	-0.39347861575854587
Si	12.728411633690117	0.9522091952987829	10.979595151288041	14	-0.7020559914088859	0.41862711111597817	-0.4539361004775718
Si	10.38202771558539	10.489036941838322	7.487318717985381	14	-0.9077259050624271	0.04921301271189035	-0.4499503730102782
Si	15.12822305711715	14.51237779064634	13.286316127408117	14	-0.7155609792134956	-1.0216428400400999	-0.15669292841004048
Si	16.2002840295398	14.456756814384526	0.5081420699804746	14	-0.9278319486659852	0.7434405026419894	1.3313718137633344
Si	4.8845907252593905	16.276532163709174	1.4965837302747496	14	0.49377537741326627	0.902704279261646	0.030462970054178473
Si	10.723905672706316	11.344511935935872	10.908206449372088	14	1.024801957146966	0.46533175347753214	-0.16870050447619606
Si	5.494603688671157	8.013879709609704	15.240370616191719	14	-0.9524561956486393	0.09104952426027586	0.6617973671954752
Si	5.370320673695676	15.351960374129838	13.205515351610382	14	-1.1287820842833305	0.30824236062712473	0.21944718151155476
Si	1.2302763430015655	1.5423480323372016	1.7016018973848548	14	0.24929385762049372	0.3225310213333157	1.2557962297618377
Si	3.1817386970922596	14.783674216907585	1.8503330080525628	14	-0.5860598035588093	-0.3986156841882017	-0.3541962402351954
Si	5.0349837551954	4.33013803622106	13.73028973900649	14	-1.1919328018252116	-0.2879918209045745	-0.7760302910169944
Si	11.153488014984315	3.36954541795977	15.997547925314406	14	0.01725751601936592	0.7065271435606234	-1.2446268340300504
Si	5.123488749042437	1.3920682032200598	7.200477686524577	14	-0.8310689141632761	-0.18546513960568958	-0.8613038271755574
Si	0.9037625260066442	14.627799970510178	9.873030897392889	14	0.3917647169521351	0.5110033257214505	-0.610780724101501
Si	14.982123455340218	0.8255686502260172	10.546241088972703	14	0.1294345840268946	-0.05033144352615476	-0.6270123690981279
Si	15.661208605360098	13.194986034864124	3.926721489017232	14	-0.6338723352028149	0.39438570171549403	-0.9363173675540698
Si	5.292156328563449	10.203426354060861	14.444741121668791	14	0.09274568243997755	0.5102988428637298	-0.43004487562169175
Si	2.225619972063603	12.678294842171788	12.827137513066784	14	0.9057991187355082	0.6265567692353976	-0.21776362174792177
Si	0.3912056240903367	9.778860940827741	6.823504194371568	14	0.06679011712255067	1.1789350931002671	0.42546445149384804
Si	12.596821423827157	12.065366547526287	9.41770275148463	14	-1.2736944652269846	1.6849029090522076	1.0914563199086127
Si	14.334536023022325	10.693200360736398	9.078494036860768	14	0.5500869548035534	-0.2641134515752952	0.5448987213780266
Si	9.854963062346688	5.014038322521754	11.435640235715796	14	-0.6338857049504797	-1.4755712272017114	-1.6362102880571152
Si	1.4173283917432926	10.986200172980226	1.325616041361676	14	-1.4104944946645075	0.2368684769398141	-0.08635931393526174
Si	1.3387030403777067	12.225076497032566	3.3014723516225293	14	-0.5387311539360554	0.2796177308768522	0.4431726822758359
Si	13.38214472205841	14.384874294403657	9.630105221286367	14	-0.10409171310725901	-1.554007937203469	1.1431756460865836
Si	5.7865518817136214	4.38082575360846	1.6584198864658442	14	-1.2648030688088487	-0.6300226192069573	1.3524404791987557
Si	12.035159975396018	3.389350639486851	1.6841624089129472	14	1.7095798636939248	0.299842816656733	0.11575938905009098
Si	15.513980276577646	11.84425581762964	7.424674369179047	14	1.0058395411898098	-0.8318284186748479	-0.20820939437825153
Si	12.830100421456274	5.578419871788871	1.406489003188834	14	0.7134303042346889	-0.7840760508953337	-0.7652013096295947
Si	11.14430890510658	8.333499760794751	3.008529960083925	14	-0.2745688513596774	1.2024820469537794	-0.458437334561555
Si	9.647326511078429	15.895903433520846	10.181813200615055	14	-0.045477710902779224	0.25665133260462947	-0.8584959230554239
Si	3.1038220812882793	13.170879182220078	0.007417114523188591	14	0.2640990533855024	1.6993340089931348	-1.2389364637354987
Si	3.614411913902816	4.411872308626557	3.0548766721564924	14	-0.21048996479722284	1.1611651557905955	-0.5251225505870436
Si	0.2298878948378238	12.614900743014404	13.831596268935025	14	-0.44627600639725457	0.27038900544071265	0.6466679550495958
Si	14.038407602639653	9.930535272786004	4.877002989212111	14	0.39884014168265064	-0.3775840426693904	1.236630953594922
Si	12.89695945002595	11.482098508015653	1.214415103627492	14	0.7046517793401074	-0.13170872668256559	0.27775342240921286
Si	8.60885993239418	8.619271126546835	12.641929489258494	14	-1.648351561599918	0.6181711092337348	0.8956311685259185
Si	16.0849848940443	15.508786163642363	4.090331124703917	14	1.6233156806555087	-1.1420867829835006	0.6203676045087372
Si	14.79248747486347	4.596376518647977	4.798633570132661	14	-0.4722040608877559	2.0051888412199697	-0.2082302203313447
Si	2.2564040324292547	9.547222534776415	8.28846224080126	14	-0.08256384826165915	0.2845370266858915	-0.8690711363477248
Si	11.769636790897017	8.737544654572872	8.03455772585617	14	0.725150430726052	0.019788769207051707	-0.043087611397169566
Si	6.932303306035868	15.146267923881263	1.6663488655613032	14	0.7505411242046423	0.3118817602077944	0.886781681124501
Si	11.369135574926922	8.688929004348221	15.698372926371777	14	-2.111850374094717	1.0635282025895683	-2.506387513913568
Si	5.66447382181869	3.3634735885303693	15.908670517179209	14	-0.34807212447313474	-0.09027150779039904	-0.579493457681683
Si	4.7861519494088345	16.141357261248743	5.469968565539062	14	0.5412377245126678	0.12860103168210257	0.7235216355057381
Si	8.888167367329773	8.845817136340703	3.5576933818754606	14	1.3190413068689681	1.832200761511895	0.7522295690683836
Si	5.57153102775373	8.825941369375775	9.954320569480805	14	0.39834340413479796	0.9156312825902865	0.37928328617547624
Si	13.863448354417816	1.838925974812189	1.5734356021447442	14	-0.7347041438746582	0.05747808787403836	-1.1922256507211766
Si	3.902565418625852	8.33928448669804	2.0714306132165876	14	0.6809600722570709	0.4054843920509773	-0.7777117938963712
Si	7.8496417273487245	12.766699759932578	8.774866472376019	14	-0.6603066403308534	0.8803675446823275	0.07703777159706487
Si	3.341912934015053	13.37561188639565	3.6658198509928663	14	-0.757464853721269	0.8530343811343654	0.9892345717006975
Si	2.407459861362691	7.478551396593671	11.381006895583813	14	-1.0282752633239542	0.42402386118296903	0.5491551862355318
Si	2.2276805550853074	8.645489420551497	13.417786574085897	14	-0.6496650925212926	0.22546228240804117	-0.2727487659035445
Si	2.105551636851464	3.8670072367688317	15.619350551844365	14	-0.21603455342012223	0.17918238664537572	1.1066294408449349
Si	6.883894370350018	7.037822875136166	13.734742304548615	14	1.9785442196767435	0.5064758663632017	-0.19847596096776693
Si	4.29161694597455	5.812898141861351	4.990023343006064	14	0.1759088553517632	-0.7611551611872777	-0.6305265558497063
Si	13.23158107059831	4.353906927000081	6.403658763107752	14	-0.6700135913565404	-0.5985954846577232	0.501252923015853
Si	8.466082528562273	5.554381923991092	14.793443939753322	14	0.3811848756702578	0.5053173263059431	0.09715538517456353
Si	16.17563085990035	9.374056453149104	1.4818348119904177	14	-0.08883040325845606	-0.6974138607533584	-1.0069006363554351
Si	4.450191606108998	6.807592096658584	10.690877283062248	14	1.2475093002044684	0.06609026225440637	-0.4580974344382314
Si	16.24289183340659	2.0200587691412495	12.06912842401416	14	1.516817412968591	1.1193738956958446	-0.3892463192910501
Si	6.086709595011346	5.744890699187222	12.042227643913138	14	-0.7197194849583032	0.18818048393429795	0.454043829790486
Si	7.582714196459135	10.601737380274606	13.752508270744501	14	-0.28998725574354134	-0.6067929397499513	-0.4709167084539577
Si	11.060745373091846	5.036740828775213	9.466577615178572	14	0.7730321251031698	-0.6549885660866591	0.6999284017564633
Si	2.852353844836206	2.2702735936278913	3.648934882474251	14	0.1858230374662542	-0.1787252441194534	-1.0213060252431607
Si	8.312373863047549	6.730254609681563	3.8674059005222348	14	-1.0583155436635001	-1.93219953206001	0.9323648073454062
Si	7.982472224444492	1.8977707135243607	12.777757347166883	14	-1.3368007026468272	-0.5959356762040301	1.3380371471952863
Si	3.090439775788246	14.495706099032837	5.849063342602153	14	0.8679840730183662	-0.3382826409666709	-0.7768641004723184
Si	13.542056464328756	10.725057367993925	13.501181125168118	14	0.8637093533130881	-0.7637339798233861	0.03818297088845509
Si	4.531952127979741	5.139919273694003	9.011397122512312	14	-0.39808089428161086	-0.32200317341108925	0.38841276694625804
Si	4.997844043057389	3.2984159295131064	5.517783607073752	14	0.1405489581048307	-0.4970743626495483	0.20724728676745208
Si	8.137537659194047	3.099613963891248	7.629572773103974	14	-0.7417767403893215	-0.5902442774673503	0.770226277867292
Si	16.106191180778815	10.987817796275927	10.561575698450307	14	0.8569077512991683	-1.240590970009014	0.7354050271849305
Si	14.251633649413442	5.256993529276676	14.208569761088032	14	0.45248008353477187	-0.7729783890019785	-1.875717490386997
Si	0.8744878098925595	7.07047556930892	3.8671450464613657	14	0.6969821721701056	0.6069166099158505	-0.029527601938708598
Si	12.068472187383044	2.2983752867638563	6.3602487099594285	14	0.44859540050656016	0.7567380022472632	2.738082669838712
Si	5.819880499616425	14.824039332087528	10.942366847204832	14	0.6248256440233418	0.6622845916536433	-0.46527158961304066
Si	7.835831227446889	9.740087199478253	1.6964143468158828	14	-1.3927232718021758	-0.6433859391084269	0.02417404644109627
Si	8.994333329511718	16.22568202775557	2.4135415343415585	14	-0.8385536588607594	0.3266435042928926	-0.23173757916292656
Si	15.516403430338041	7.74607282163442	7.136251807437254	14	-0.8323544668233501	1.5454443567136515	-1.085852852973882
Si	16.315542150245864	14.084672285133331	7.7657746858921	14	-0.7616099897184119	-0.09702682990855611	0.41652009030611686
Si	2.0611769158554005	0.9456829220023343	12.318872398717977	14	-0.4802192246127855	0.6725358456756056	0.10790929028661488
Si	6.891793818797077	7.170305566817441	7.430989006161961	14	-0.13704145622708472	0.21308729539163646	-0.3961229975803181
Si	15.883607199645311	10.70364436672061	12.889471790064917	14	-1.543436066348084	-1.263113852613511	0.09665941895830696
Si	4.299682094170966	1.3629805145458431	15.919340924801155	14	1.4847724418109252	-0.19779718916324782	0.1586477397849491
Si	14.623675523283614	0.7666172730612891	4.795060361676234	14	-0.0576886613997585	-0.25645155772125394	1.2408411385566644
Si	11.277224712964394	7.1607327149610365	0.9374471522818284	14	-1.0459413279786915	-1.3771601141887875	2.0416388871226454
Si	15.48401651200089	1.6964028626748384	8.400681985905251	14	0.0799899147256589	-1.1746727147005256	-0.39239386642397533
Si	6.493226860297197	2.3635116941768524	11.007165292752804	14	0.5242884840211876	-0.5975739845140283	-0.9530390652247169
Si	11.210971062686923	1.4788702630093509	4.546817528266096	14	-0.9431611356952401	-1.0893269304824662	-1.8371797069643616
Si	1.4836099320775862	5.584744352321251	2.1625736783207112	14	1.4109169272686077	0.4375607306935487	0.6050060215524483
Si	13.225624082579353	9.868184589872095	15.715713979349015	14	0.7858328871605909	1.6030502285221013	-0.014217441088822832
Si	12.566849456292513	10.265604774859101	3.2852731503834307	14	-1.4251181703939135	-0.09254899288298622	-1.9625691709910673
Si	3.0939522823562946	14.623127565696633	13.985416494677038	14	1.2293187300644208	-1.1996782566021578	0.801497346323593
Si	6.698830718600574	2.8870572784811976	3.333757553281859	14	-0.9372961873494502	-0.6622357406525605	0.13455879692994974
Si	11.033741235721426	12.434265047933414	14.476650627856808	14	-0.42387525129546444	0.8266003331168589	-0.8385950536564137
Si	7.342433153976012	13.536773759448273	0.08174411595496456	14	0.6491498430151348	0.4985373215767126	-0.5411333376366698
Si	10.56932913424694	11.859828312886023	1.1963029726086902	14	-0.32970234829227274	-0.5067196071475517	-1.21419805967663
Si	2.329101926424285	7.286329843790328	0.7441428090371439	14	0.20324716111036573	-0.3838349139237344	0.5381058611221955
Si	14.247228661027075	6.8111472586076545	10.703634523171143	14	-0.7752286203781721	-0.3544587500883825	0.16638419569327467
Si	8.48421270608843	2.128145864060788	2.031282056124911	14	0.4470956747733178	-1.0191833206908463	0.8410008369044762
Si	15.836018559748357	2.637249320705848	4.507141461548823	14	1.4852969472962354	0.6541275029149416	-0.6081378849429208
Si	3.0444523532712147	1.529502200283106	8.47461524535836	14	-0.35152846135500976	0.04959559318352838	-0.0914650148800118
Si	9.712054411188555	13.52602460343059	16.09991427740219	14	1.0891592944155926	0.11102341305037822	0.8795802722332983
Si	12.14038587860389	0.7505854121631251	14.501169268986878	14	-1.0109074468863537	0.11946769425334057	-1.928673004002895
Si	2.9109311671211975	3.5086577402068952	9.650561757669829	14	-0.3971696945561504	0.5138482537581943	1.4073032387411395
Si	6.60951363192253	12.626927919871182	10.741172899062555	14	-1.9721635076037318	-0.35527661869072164	-0.7401646573535886
Si	6.9124685538603865	10.630647885058421	6.058611183058537	14	-0.8846636045617629	1.0049468534226544	1.6272754399590685
Si	11.248543891001468	12.61314366943459	7.582753570657003	14	-0.022148272559351596	-0.06194229804141148	0.8887683742053792
Si	1.046676098939509	15.801078880916164	2.1923618995986445	14	-0.3403274410277846	-1.0726607686867342	-0.546919867270195
Si	9.301929485023145	12.584746669814622	4.285815814155486	14	-0.9259069621127902	0.6419291508340309	-1.1942539957082414
Si	3.183495770672073	7.231368385342785	14.912255581816874	14	1.1579805847410602	-0.24469055065530057	0.1513941374557473
Si	3.127996198187015	11.569825861454818	9.197371302587431	14	-0.880481701758542	0.16029710384782409	-0.7839855479880645
Si	13.26421407767213	4.685124320048526	10.103639011933362	14	0.7849437989408836	-0.7041522135764027	0.726662754875363
Si	3.27352979586961	7.701292874518642	4.152322518062291	14	-1.4434514368792295	-2.2088656340293324	-1.0002630708609408
Si	4.461728246084018	10.784807713257036	10.867961097377322	14	2.143127870314318	0.08414584936514626	-0.8031086580277298
Si	8.46960980045452	15.565407900766628	6.66123328141236	14	0.4856730532178836	-0.1786864204291192	-1.0330644612037938
Si	10.548588775520521	15.337838161828223	0.9060839630892171	14	0.5509364480013303	-0.22835940388278403	0.405879570938684
Si	14.57221836844623	3.760324488239881	8.31415554550103	14	-0.3923100483905385	1.9620341239739447	0.25554627153802983
Si	7.224310560375133	0.17916408443571255	9.964124744749677	14	-0.4278905464739397	-0.3542504905574505	1.884659280469408
Si	6.556832595768115	6.1504695460905765	5.364076582150608	14	1.2203216612176266	-0.568624624161821	0.11520711562732318
Si	13.161860850316968	8.77617238327194	9.90208413364397	14	-0.013410114018296336	0.34877609310979124	0.9183347998344221
Si	8.517257501648277	7.232027903157056	9.041936734732875	14	-0.14825713185463466	0.7366939222819208	0.17313206160600328
Si	15.011052006631388	2.9614187323361074	13.855757261101138	14	-0.42142421659376733	0.4311216545297698	-0.41494451696593004
Si	7.70963856387486	12.658240250724882	12.63649749054443	14	-0.19678365944604545	-0.8164652930553671	1.6997307305440335
Si	3.4322127350481924	5.871101409266607	7.167165474537551	14	0.18886079840200917	0.5907230172779618	-0.9469648289058672
Si	10.352085278699144	3.2156119913988896	8.185621757747494	14	1.4433588770877042	-1.1267367700011528	-0.44808837853742706
Si	7.952108155522755	9.154924276695272	10.394427306730327	14	-0.35048664947928576	-1.0437312058454922	-0.11386217043435372
Si	9.499184372787147	4.688174179791638	4.505952032654926	14	-0.6448656102201721	0.8211061381582343	0.5094184964021112
Si	4.0933727814891405	2.2540054875425257	12.638210268151644	14	-0.16815722992204876	0.9740182561949973	-0.25903886100491896
Si	10.989409170106383	14.226975557999257	4.364398510140048	14	0.6829092272002751	-0.36234433010527667	-0.04221266425672318
Si	5.436744945497237	10.345345728497586	4.402475000068977	14	-0.7266712395229196	-0.04654780493702485	-0.2864792396447313
H	3.174175569918648	4.182917910396497	0.35628727294865437	1	-0.6481499401561291	-0.31310020701901253	-0.5505898630041745
H	5.917595774581175	6.388453760364794	8.26312658506545	1	-0.3408146654859527	-0.22863785458895608	0.2166076527959832
H	10.811416468057212	10.909602592804788	14.441560014599457	1	0.1684459650495014	0.30269365823571315	0.27615676600540084
H	14.639123333580084	7.322301454724951	2.9876649163975912	1	0.6175627857149876	0.6376734573081217	-0.24558709508043622
H	12.235727217555578	15.124508757785033	10.233119421027281	1	-0.39406302799781545	0.17430859940050303	-0.030671486695642475
H	9.811639960551986	4.583196005912012	1.3203776324537926	1	-0.39610628539573717	0.6556310853061641	-0.40903868804554994
H	6.011878931965189	9.231270846359308	3.558687580371601	1	-0.09065820203054932	-0.18386848320187765	-0.021004902023481747
H	12.653411989711445	12.73827487025579	12.0309879510137	1	0.3204144874337698	0.5341419880501231	0.6213145425981477
H	4.8575029177185	16.186037132278276	8.195033831629276	1	0.1525745319082273	-0.5902460772410743	0.2977280825309112
H	3.795825249391679	3.4196736936191434	11.09548654034313	1	-0.503979065986806	-0.40871550010680735	-0.3236345397367233
H	8.566782039607023	10.530265008188184	15.361318308489555	1	-0.5704845617504163	0.44821693380343436	-1.1452217317003575
H	11.574291551729562	11.216739382674431	3.8983523794540873	1	-0.17884094385886007	0.18646761357001532	0.3083076667022565
H	0.4681214790318653	6.4496461856247835	14.891129684069673	1	0.04907288747194228	0.07607977775477771	0.02019294696337898
H	5.027838978874124	1.7300415523858443	11.278770150230672	1	0.08247128847013381	-0.014691038688794109	-0.10636097066282169
H	9.829246789364829	12.061721153040438	2.5436584929676616	1	-0.24962938686477307	-0.02108589184106641	0.9700363853856838
H	0.8775261854946265	5.89448312043327	15.27844546552907	1	-0.19074541860167768	0.22303130232784116	-0.19323450566211306
H	1.0263278416001795	8.099840145919588	1.1060212180829065	1	-0.43638496423064493	0.4770053429626004	-0.14323936271183363
