231
config_type=amorph sigma="0.01 0.1 1.4103284104971139 0" dft_energy=-23320.337738079277 dft_virial="65.88515664560629 -1.2919449798758509 -9.043614859130956 -1.2919449798758507 38.633192226350054 -8.958830969826604 -9.043614859130955 -8.958830969826604 60.99998969045072" pbc="T T T" Lattice="16.3502463575 0.0 0.0 0.15550719310618252 16.504478231390298 0.0 0.101796633821795 0.0621309361585 16.294851722840793" Properties=species:S:1:pos:R:3:Z:I:1:dft_force:R:3
Si	7.848701955394963	3.297225015970801	14.678126282814105	14	0.9362628601212826	0.2098297049510088	-1.1436968091349775
Si	7.3711161643662955	14.688050882353107	14.447357270699715	14	-2.217413273666165	0.06656334563331362	0.5226499186006573
Si	12.14453625292107	2.457677471079798	13.246035999779489	14	-1.7906630124017107	1.373992255323833	-1.0454780148000007
Si	10.530575639553438	3.0014490593636256	3.2713213206666136	14	-0.8139186132357605	0.7826267188263661	0.3680233875364197
Si	1.310825410874947	12.635535786061432	10.581307183951488	14	1.4800431506850449	-1.6714634844332614	0.4538615384232875
Si	0.9976495220941206	13.08985354149874	15.94910777834046	14	0.04057307039406474	-0.4648478714562802	0.4287030157551065
Si	6.745738861487549	14.152438067001672	5.89917706090918	14	-0.8439879470654242	-0.38509475553060696	0.13144081750820613
Si	1.584922575836713	5.143038662786327	6.388657656162929	14	-0.2598078786061752	-1.4055363751651337	0.9426039771723639
Si	15.20998835165113	15.154888021426354	11.021087935352345	14	-0.011515980728943246	-1.143619161754309	0.17390287898098367
Si	4.965947509463609	11.874489043982058	3.396987679145723	14	-0.08007604675388387	-0.01847442016739201	-0.3895090862547692
Si	0.31322657454453473	5.249215527607296	8.43268370454579	14	-0.8291323576361407	-0.912444140435431	-0.020769902997220212
Si	16.223414226455603	8.852263726571957	13.585506354752445	14	1.233401388202284	-0.27122949976986904	-1.6948248044826588
Si	10.084827048232093	2.421119955249064	11.847645209512313	14	1.7470406110979504	1.9366118058999162	1.0756183111365005
Si	14.2259765700438	12.192054973909872	5.324261523363585	14	-0.9937003245312627	-0.9924399687033262	-0.48439110010525777
Si	13.229993138053509	5.67143120934629	3.155188790838563	14	0.18818254081855412	0.5502324793646738	0.20355440819612342
Si	4.397827134304192	11.423093077568833	16.254912976063327	14	0.9868385586528514	-0.9638122536266693	-0.6440577689285816
Si	0.9435514619710603	9.875865994709336	4.3543747195845	14	0.11641836334364496	-0.5711867306133486	0.7328650322391562
Si	16.19581991567805	6.1991517607809605	5.499008051358638	14	-0.9826330016806852	2.1024781809817132	-0.5064411564413798
Si	4.906367211736878	0.9151363688263611	3.934865003617672	14	-0.23821547901703968	0.4427029413338448	1.0088413066510826
Si	11.044800697644627	5.4997830530359835	6.306450252502054	14	0.541467581328289	-0.31793748456833915	-2.307887898776855
Si	12.969805127668069	8.733181612301012	6.06996192421181	14	1.253719547994754	-0.8740601091109402	-0.9732929473841834
Si	10.618652781656655	6.003771221882743	13.282194569599099	14	-0.21688481794949518	-1.6500716310590975	-0.5110082108215587
Si	8.889004365161894	16.31426110029178	13.891133334790014	14	0.7118454749153497	0.5197823648370962	0.12500765488666365
Si	7.715906889503984	3.5909670019311033	5.468943218356467	14	-0.15472114774001894	0.9299981048982098	1.2124749048910668
Si	14.183346572715891	13.7122632746636	1.7432403762917497	14	-0.27955859545448875	-0.3440768839161566	-0.2700393351171725
Si	12.662351825112367	15.60404890916251	12.728885882614941	14	-1.3272158791238469	-0.7733887374110742	-1.4713857248510425
Si	10.219335619941338	15.142537045327899	12.400528790091176	14	1.1599312823474563	1.7910880161111313	-1.1044959376502759
Si	13.844244098285976	3.003227966167322	11.828840791176553	14	0.4867647445368185	-0.5963131144650278	0.40618707513497376
Si	15.822746534391158	7.426489543705241	8.879521222274544	14	0.24758432969312724	-1.2674587634940295	1.6406796404351285
Si	9.805007297045204	13.050047231716771	12.811273138985747	14	-0.927309757175463	-1.7087208574064634	-1.3355501170191069
Si	11.902031033971266	7.125960570481941	4.598114382134295	14	-0.05851501464965409	-0.00415027820778303	-0.21692981229259775
Si	9.484383871048534	2.5836724695106934	16.150544448489498	14	0.41172112222606044	-0.603366684800322	0.08771557199163985
Si	9.606373059121843	5.923622314238277	0.3460725844521165	14	-0.41956556455783234	-0.3045615662508008	-0.6500011359866359
Si	15.853939534391996	8.581433340832419	15.721973425991342	14	0.47170989444522343	-1.0424333118798814	1.1995183338512445
Si	9.327133741680642	10.638439849798502	9.545362114838833	14	-2.038701399294376	1.2488691578082947	0.8695110524680022
Si	2.6615617731085517	5.308743504545682	13.92092021360411	14	0.018672652387575425	-0.5969270944154791	-0.5841425303215747
Si	10.675857388587639	1.309314648111514	10.054346918972442	14	0.690649796877113	-1.4220325868992039	-1.2814738585941565
Si	12.341244431823519	15.109673050149325	2.187306527262907	14	0.6645620767462305	1.236507540539555	-0.5666687843447844
Si	1.513038717725964	0.14604040046519	14.636671868199299	14	0.6810323203165671	0.5480089874838098	0.5474014352966587
Si	6.253277616322828	11.58279901393962	1.308752199636816	14	-1.3315260800825433	0.40884816914132704	0.08461867563352149
Si	9.768224147814735	15.815240136288429	4.823862233592298	14	0.3426008123518596	0.08352287054607438	-0.5928729755466697
Si	12.215609138812487	9.71688273922755	11.871174849045392	14	-2.205246546180692	-0.25793200016459517	0.6606977054500479
Si	8.770025257443004	10.308313660618854	16.094572650133866	14	1.0229710730484887	-0.38349887045839104	-0.46906448418132307
Si	1.1033227993272787	15.279494883941497	6.388217834535912	14	0.24401897794567792	-0.5310525478974332	-0.9042556842118232
Si	4.545021862162222	0.3358389652569573	12.05227508277497	14	0.8167118620555693	0.8655731475596634	0.7894658589779601
Si	12.83769023202556	0.697462269019692	3.077608506896861	14	-0.2176738901722486	-0.8533971640950382	0.7715627384127051
Si	1.226798224794483	5.815380413302355	12.05481754608356	14	-0.0854332017989444	-1.6416805717362624	-0.051249585235979646
Si	4.441364570304943	15.004025933310338	9.160900786963941	14	0.3752625916758287	1.4713047350334576	0.37183607961566734
Si	0.9991014239706666	8.90241320219968	9.834774555563667	14	-1.015638280675426	0.027267343251766423	1.2680506319387277
Si	6.750728956675858	3.527377623797514	9.48694431962812	14	-0.26854783692095463	-0.595310897611234	-0.1456919400767229
Si	10.332026422911136	0.4492508140911203	15.59720469603726	14	-0.9373681782984142	0.47876655010690183	-0.6379027999026791
Si	0.19436682362405275	4.856371428424915	0.9335810817422568	14	1.0900239571347583	-0.34805078429897746	0.6428676042758851
Si	1.6884343505014097	3.0976310185862554	5.2004362026243305	14	-1.1284738087554447	0.7382000757784636	0.21576844401948686
Si	14.121439634932488	1.596367748286963	15.441489854802338	14	0.7611140235021553	-0.9066735516548905	-0.7342953381287547
Si	10.601795677662071	6.724758225361605	8.084413646983226	14	-1.2693408125883776	-0.242683031621329	2.0317524729456116
Si	3.062925985667826	9.006523395881063	4.912474028751405	14	0.7377447330262653	0.6770856736501398	0.6256016036089627
Si	7.273380931739704	0.5761467110963135	7.545722080242674	14	-0.6450407024924742	-0.40418392698004635	1.164248168179985
Si	6.276826876151536	7.645927835093884	1.176794266359341	14	-0.013660796787010772	1.2979880680654676	-1.046821160219246
Si	8.73641078595662	10.22427502936594	5.557913083910804	14	-0.21774948066866096	0.14154449008479206	-0.21487909868924765
Si	16.036285656894016	2.6465718672479954	2.14205558544389	14	-0.5436705043665919	1.24194954206018	-0.719925430494447
Si	15.465943283254614	6.766704782391772	12.39844249865596	14	0.0763176049968914	0.6148924357294818	1.2617020586822179
Si	1.113523718029723	4.0476473679670715	10.335155860063962	14	-0.8163089698519022	0.9308087744056526	0.7180022437149763
Si	7.806699807527182	5.156936372190202	10.769967771596773	14	-1.003152479019723	0.6110167515698907	0.11450417543279469
Si	13.111215138364814	13.551161027253881	13.942445312933756	14	-1.193030920907447	0.13655834553742888	0.33592879404607534
Si	2.9734639776981293	9.723238079986709	1.083151500396031	14	-0.23375435417605075	0.6531535682196694	-0.6446462949363635
Si	2.545421068157322	1.7766439296001222	16.16123423955803	14	-0.7535781138088012	-1.266636524012646	-0.0609408525192138
Si	6.63793514715401	13.331480752219147	3.797596510323281	14	0.506236239347364	0.9556716199620164	-0.8161459617746046
Si	13.800845639379263	0.8295869748100138	6.893684065653388	14	-0.11890719329354829	-1.57441300035576	0.7861259931670879
Si	13.981246082564741	14.914196044797597	7.352220184650934	14	-0.24835977505768392	1.1182132987543298	-1.0817498831039898
Si	10.642347558677944	8.268084139440202	13.312063199644982	14	1.3473502048859265	1.3605273767622177	-0.1024523763551326
Si	3.927342255268586	10.681104182643761	12.896088406940645	14	-0.9295234788561105	2.2132280284260277	-1.2023810025146973
Si	9.536709564466443	14.201626148143575	8.56755688674881	14	-0.5043675600006804	-1.226785677103011	-1.0825091305050296
Si	2.520725656058954	16.15302478086193	10.35720416727705	14	-0.5166242761723582	-0.07151915113789904	-0.1848231346072486
Si	1.1365317847039973	0.9338721161274203	7.361167039457757	14	-1.511990676951077	-0.20376523883237557	0.08613485644081281
Si	15.080456794933108	6.320696222153344	16.050185001322525	14	0.09121433211129736	0.8264905469196885	1.4159902322863238
Si	14.664029100404669	8.878301493896275	2.7481265174236995	14	-0.4205487552322569	0.09487532897665621	-0.6219331505381753
Si	3.358257215574077	8.183280316657758	7.150621647062958	14	0.4820015148207122	-0.17518431787254546	-0.5437985454115353
Si	15.78692150959724	16.14415313718835	14.948278133329806	14	-0.5563406542737497	0.6309237916216691	1.5806037077456125
Si	4.146711875622528	13.263872483530884	7.895898576530524	14	0.0847369464782483	-1.691802470178825	-1.8141878547494696
Si	12.552981757177777	13.575166458955962	5.89200584285678	14	-0.8565593665282881	-0.17520051583606241	1.5284994871012156
Si	5.507969621387184	8.583658609361676	7.872483388721947	14	1.1630590319694167	-0.3927216823522942	-0.04851007251736187
Si	7.74589651137291	5.848203532865037	1.6769515724845374	14	-0.7095145108321035	-0.5636863021734128	0.9686940112980346
Si	12.197401504468775	4.557909126341203	14.393911585406318	14	-0.05467249774869278	0.4422671389820797	-0.4532030783507976
Si	6.3146090254344465	12.275436325259214	7.255380945524732	14	-0.5080768936460579	0.7746130977645286	0.40671106639921994
Si	12.729754080696525	0.05441361987776	10.482983342456027	14	-1.112222880468917	0.09948917747366193	0.5052347938251662
Si	10.139018304759391	10.409057338575227	7.496983630875602	14	0.4516434458635958	0.4810355505519325	-0.9444166064230683
Si	15.163666468695697	14.546877950228545	13.414607039725313	14	0.7504341662233242	-0.6872456534332368	-0.9709247022737949
Si	15.995712520557879	14.720368779303342	0.6729745050500643	14	0.2025192811942318	0.5809535883929952	-0.6738121423565272
Si	4.842434478429783	16.178663602175124	2.069104056245996	14	0.5775538158281633	0.5481838226455799	-0.5842096361704306
Si	10.757011836383091	11.518951301913585	11.155325092972056	14	0.8754058256355058	0.20355183709080324	0.2929627959305488
Si	5.380749989504112	8.144253913627042	15.204694141880571	14	-0.5695227112501487	0.3241927267017274	0.9211200782277384
Si	5.145890145751076	16.145466061970858	14.275463860694046	14	2.233321473613517	0.3698869246724631	0.7267650848671049
Si	1.6394195819708963	1.3738834060019174	2.093578740018538	14	-0.5521690358918093	0.1584173687482638	-0.9338061689878812
Si	3.117954374808628	14.730582778202873	2.1486888803911275	14	-0.7285633159280165	-2.160377415907192	-0.2732462747829932
Si	4.821733431516551	4.339010393082357	13.376916451822005	14	-1.3136617832076225	-1.2651715082012256	-0.04710136391245273
Si	11.039727216199894	4.142076580780177	0.1938779512579635	14	-0.0708984863136153	-0.14424672177626768	-0.2671445276372178
Si	4.864319283179295	0.1829151110752598	7.592243436203669	14	0.17304233003033012	0.9755519205184656	1.3630799701240606
Si	0.7955097913517123	14.561836790621022	9.784064266485881	14	-0.4633414608492055	2.3253109939788383	0.41441255527519155
Si	14.91779963909479	0.9294003237486441	10.665257523874073	14	-0.5824219466413317	0.2854597963852926	-0.9078210359592727
Si	15.358312881532463	13.271792542866457	3.752167350818967	14	-0.5356990494320049	0.39222031681486536	-0.4095230842878658
Si	5.549811536840662	10.370338320176032	14.30239925654339	14	0.22961538883167637	-0.7180912039590535	2.533371264248522
Si	2.5396363509960382	13.86745981308899	12.480618836848754	14	-0.9842129458999164	-0.26357609056338427	0.4520959603999418
Si	0.20726389795084876	9.933412321789195	6.587340944825361	14	0.2402895896788031	0.5934753855231802	0.44201825598708944
Si	12.478571786004796	12.483993527696942	9.71145445743686	14	-1.552222047448094	-0.9942451417486021	0.7820626183191257
Si	14.171857254600475	10.991353377326595	9.401983534480642	14	0.6739340127487022	-0.10170649870175763	-0.9615275694391857
Si	9.979125975580128	4.767499664348724	11.302989072900544	14	0.33349858529747134	-0.7039421542717464	1.0450203580530144
Si	1.2545069872965384	11.368963951977694	1.269009655815641	14	-1.2474784469406266	-0.6539680943850923	1.0234955785337987
Si	0.8794748464960179	12.052798290658409	3.5862695761525933	14	1.021746712695034	-0.9344222058225887	-1.6111998610553746
Si	13.300761909362677	14.506290098670688	9.439543320413092	14	0.6166513288789951	1.6440138498142967	1.68501938012321
Si	6.838492174049011	3.535587082493615	2.2763744942953883	14	-0.3625487329782284	1.3749006268334414	-0.2694410389091741
Si	12.297826352621176	3.7839816601813903	2.0949963063777335	14	0.5162355250479518	0.44643361515337965	-0.5192223780983678
Si	15.185171947729717	11.788084532081212	7.283570405269698	14	1.4690439621254514	-0.641651471459455	1.4332824582275119
Si	13.443170920111864	7.376343338126788	1.3195139317893225	14	0.5402265087902536	-1.7454627237629752	0.5617518025305333
Si	10.80524342811308	8.671729211366348	2.8039037478476754	14	2.5178304752514187	-0.2087300432055815	0.3440599146210436
Si	9.62194339872809	15.758050244579165	10.186922891562231	14	1.1523503783109998	0.7392627136072808	1.1402710684064121
Si	3.2450252194498463	13.47019460729154	16.285563147885096	14	0.3059995854563596	0.9538368792055588	0.6343171364232005
Si	4.203996598760665	4.666677505209836	0.24766372167559553	14	0.5819959144897832	-0.42280438592962283	1.1466589795743203
Si	0.4820494082842653	12.797609238104785	13.702405711134663	14	0.7568007372170749	1.5217444220935905	0.33077321365811435
Si	13.484762676796073	10.248558415256099	4.230452932391736	14	-0.05738732785623714	-0.08233630544082603	1.1135711680988025
Si	13.641481423157346	11.48202427051517	1.1144115364069354	14	-0.5144120971549029	0.8778023529044157	-1.0478760847321027
Si	8.489965157634657	8.829030026497948	12.842493934405395	14	-1.3488414459716125	-0.40333109134535333	-0.6394431490999798
Si	16.190870696105634	15.271347556181556	4.320645796373613	14	0.4603816044046509	1.3179341889181126	1.383330252736079
Si	14.651419790413765	4.633445629488217	4.8906399097656	14	-0.4744823173119391	-0.21273813928916036	-1.2355927412666463
Si	2.038615751863166	9.82880671564318	8.132581472752422	14	0.24395727141799434	0.5520479368312304	-0.8674513399960315
Si	11.660068643200532	8.746650945250321	7.9792145268944354	14	0.6909871258951163	0.23148612506261612	0.2759263949687155
Si	6.817774776889423	15.088507656239539	2.1462608688070386	14	1.3659102428604795	-1.3038571301797697	-0.25309112306782044
Si	10.683908249894072	9.145348432628687	15.537711054616226	14	1.1816905466718697	-0.12407460076598188	-0.23131977454840252
Si	5.657688827282812	3.182341644964463	15.315808781101506	14	-0.7572046578628701	-0.09572096551645291	1.0836368172984463
Si	4.9480930404412184	15.697366305223305	5.590095273816271	14	-0.10808463966944896	-0.08296211247575007	-0.45125623740238147
Si	8.770898360598494	8.8951880283343	3.5023993524371613	14	-1.23736448994276	0.031391653295815954	1.8815112191154186
Si	5.6335378783881485	9.05281584839305	10.206279948224875	14	0.9576889091962046	0.5584191358145574	-0.9328134652237722
Si	13.766923783261358	2.0676668695911715	1.446506295248025	14	1.0847035688957758	0.3905146455454791	0.1585127567556413
Si	4.569468750515956	8.630058973499624	2.458648675713434	14	1.2209477253630827	0.5218947849681298	0.38013663603123343
Si	7.798266350455983	12.578496316618656	9.104927353583674	14	0.08860800264826324	-0.1457893849683565	0.5633584862450938
Si	2.9641557824468046	12.983522984362011	3.8814013330532826	14	0.5956950207460642	1.0216454111454203	-0.16255222032412595
Si	2.300945644521439	7.633290729684173	11.316823016343626	14	1.24691228954913	1.0230487204291572	-0.08010432891240549
Si	2.46293571030837	9.046001065711245	13.236910927287367	14	-2.1337585054171666	-1.828694802297341	0.032085851732255935
Si	2.172352591944337	4.003212303441294	15.797125698348955	14	-0.7894761433992407	1.4228692245703802	0.4671770357658024
Si	6.882474336750686	7.179824822082089	13.830401979719715	14	2.0626512453515553	-0.09740555372221393	-0.3084511343791208
Si	4.675956270017717	4.182038217902543	2.6326120269079625	14	-1.619005479696812	-0.14368313549009123	0.42974791295721465
Si	13.1815457230716	4.21133131927664	6.58867675995277	14	-1.2603463148469036	0.29439181626748706	-0.5131895365751724
Si	8.628324212361093	5.608000428602369	14.496373674254864	14	-0.3306377164077426	0.31982750408918004	0.3289808961394392
Si	15.504549484953943	10.194239626807212	0.9655261930755403	14	1.147506930108905	-0.08556664216506009	0.9921394064914008
Si	4.649450885647574	7.105064955637055	10.884031995260601	14	-1.9044539632186963	0.6007374724999386	-0.7368813558597597
Si	16.332504705177477	2.357201937163689	11.718769297673228	14	0.9131717632410328	0.8842671401213961	1.1721941691719029
Si	5.9810607296921745	5.9145364823374145	12.17108087788247	14	1.4944266851775494	-1.0348156410373466	0.09014449518758375
Si	7.792094132456026	10.66450050746772	14.073521967932564	14	-0.6626388899667597	1.3452287858862724	-1.0299235989447009
Si	11.039719041076715	4.681698476538471	9.269669165832575	14	1.6562029459160548	1.4201140281093094	0.9075379572635244
Si	3.132885419782297	2.5004219201322107	3.5697623674300614	14	1.1078771982568025	-0.32739838081488803	-0.8602183065093911
Si	8.263942622037847	6.574049829561349	3.827628642832737	14	0.49466909362254974	0.1570747375500825	-0.3025926137966314
Si	8.157062696623505	1.7717830013580373	12.626636346969043	14	-2.120570020677467	-0.014298688016939511	2.021250021933871
Si	3.1922286389368435	14.247388852673582	5.882050177849698	14	-0.27069419564221425	-0.45762177995400405	0.18692115654848943
Si	13.387192581657692	11.122495433310831	13.206896780048904	14	0.34426868837303964	0.05233973389172243	1.7029698090263559
Si	4.747496772954959	4.587151541951592	8.661170222268675	14	-0.036705099550433974	0.24390816330637954	0.1432229076377847
Si	4.501178676554585	5.598030048373566	4.621317016740224	14	0.07846782037613123	0.1550661900739828	-0.08483927646999019
Si	8.122951177647854	2.674306790144223	7.736943116467544	14	0.2948708131886307	0.8407655807676827	-0.743886075193971
Si	16.08884679385947	10.907577985040037	10.688038322123976	14	0.7205370964501103	-0.5109004815086445	0.6869633460690846
Si	14.463254615233112	5.378776514768762	14.078312590115312	14	-0.49033343872118407	-0.34760444041539973	-0.37772442501987047
Si	16.35597875387294	7.738087633712568	3.6870034439611508	14	0.522021797570945	0.05766937810985738	0.151041124695291
Si	11.952278611077135	2.2157199853829703	6.561285192230049	14	0.3897158031225091	-0.8005830612717485	-1.1798740607631852
Si	4.5996578453904435	14.649707919620134	11.442262106398367	14	0.2290309765924067	-0.7993849261925594	-0.6654637633820064
Si	7.642845813655495	9.745337072963506	1.7021440320721735	14	-1.7498467154443598	-1.018413788868526	-0.04695018291962803
Si	8.795978003486262	16.38827212545364	2.7706784122245995	14	-1.2465155679982312	0.4016932972564189	-0.11159676953677125
Si	15.234778595178371	7.999444686712571	6.849752588715422	14	-0.7923652944474912	0.3467662600810315	-1.8806894938550995
Si	16.12855663718793	14.033645352091257	7.853499117676254	14	-0.605623086829284	-0.6022973620976724	-1.5805893095558197
Si	1.78145744212777	0.8750766302258502	12.43279273122843	14	0.5002167675718333	0.9881328530710142	-0.8411473899077246
Si	7.203658576197416	6.811234678346422	7.416113677366771	14	-1.0919756831832828	0.7529438221263207	0.72435261674521
Si	15.704393641107758	11.005942702151392	13.051230989553053	14	-0.8814679777593509	-0.7655504657320708	-1.4268868337436433
Si	4.613254710261341	0.9320065530180296	0.0946450360650245	14	0.5472890779941683	0.6148698100026645	-2.367802366052266
Si	14.552430493891553	0.5647080787446065	4.728162606637214	14	0.6478493779442039	0.6258851965257749	-0.593625538073877
Si	11.172010519379883	7.524095609385609	0.8618198504791893	14	-0.348025073245776	0.5249829395681597	-0.3682833262842868
Si	15.376983227848092	1.6593390871082383	8.442199547925856	14	0.34413113423841174	-1.0198512938530206	-0.7230992029016379
Si	6.309012336106274	1.7145898395995023	11.057784428277118	14	0.8620376206339277	-0.5590858234240718	0.17320250989177535
Si	10.880771756136916	1.240211966906176	4.598748771692966	14	1.6724181358386325	0.044581937809239636	0.7572272835896874
Si	1.3596701368433426	6.781894161257889	2.0968046436248726	14	-0.10255187813102232	-1.730731832941719	0.9419198060466725
Si	12.653243102866604	10.565015798480875	15.581528079829688	14	-0.5565779672947994	0.5022119453002681	-1.559444796513454
Si	11.98403896462658	10.850755973873818	2.5587808544560353	14	-0.6765022898529981	-0.9358838791970928	0.3256819109031571
Si	3.3013338328804407	14.973274389961153	14.52366714049944	14	-0.9287454623862338	-1.2033014582193104	0.07854315376201158
Si	7.07786795584599	1.8339956887483249	4.169379857172566	14	-0.0808820882717503	-0.42201325682261326	-0.4913096874112443
Si	10.761733787531137	13.118371641195493	14.835909430213253	14	1.1031867308212562	0.042946714825625454	1.2478581991964124
Si	7.286403902963452	13.504888195037521	0.29404937059182307	14	0.40787243467233086	1.0387041807235387	0.9505682330120547
Si	10.341239786733587	12.550933071309183	2.771265386068834	14	0.38911339314599835	-0.28959721906647495	-0.02926612052764954
Si	1.540526751902193	7.961405838561847	0.2532800312993968	14	1.2246866267196421	1.0778595436440737	-1.4772535014126842
Si	14.229885913947879	6.774605221431716	10.483912036449132	14	-0.5548638113778566	0.5321748353696778	-1.0223640350824015
Si	8.683534089236463	2.270660083193442	2.1101022989874276	14	1.196108276865132	-1.4390054815596294	-0.18363656950200027
Si	15.860252364510627	2.6155243844397393	4.431108060764884	14	-0.6700367313044217	0.4428543794372016	-0.11734061882198206
Si	2.883876072831479	1.1962183590320508	8.68437449189924	14	1.8611562925168708	0.5693113663928326	0.4010759748690514
Si	9.63589342892031	13.42441882256445	0.7069993677200218	14	-0.487155038324417	0.01441567330900625	-0.6389960338848061
Si	12.282957438583665	0.5760355294210825	14.368295654438024	14	0.3522941365193499	-0.0362227601923742	1.6940527015550184
Si	3.190516768143213	3.2349943433095203	9.918154271888374	14	0.3879216858301098	-0.5158994815826086	0.09654526188209239
Si	6.278282048077354	12.946520741830351	11.016070044745229	14	-0.3725606170948851	-0.9049874207859374	-0.9534365581072118
Si	6.591351660256856	10.08097329516563	6.429981268806873	14	-0.1863539707148648	0.23882071720940257	0.5348611262081686
Si	11.106274353899556	12.579261508148187	7.820762654419267	14	0.9348099285048671	0.4102861883468858	-1.379238338619063
Si	1.0173891745215304	15.66012044402092	2.4051850051490447	14	0.23923749338179856	0.7108237176611228	-0.862198057605905
Si	8.576426895397752	12.202087485074834	4.185103889094575	14	0.01350344514141771	-0.7976507156541195	0.09291254717525517
Si	3.128152023461801	7.399581943274703	14.761522349385169	14	0.27598141662256676	0.8749805648155533	0.8509111623609869
Si	3.079537835967046	11.737509950048194	9.204327041289462	14	-1.475370938097272	-0.30119444672353485	-0.5494017552357341
Si	13.37149307510522	4.477725883179388	10.150324500115602	14	-0.8681604508433284	1.2214344356001867	-0.4186895889752578
Si	3.2471883570429436	7.224830510205743	3.5182378360836717	14	-0.7797717634788738	-1.7881592700409503	0.03383780289740484
Si	4.585310504211737	11.086287812752149	10.744304424914043	14	1.5061097877523022	0.05165530565549901	0.3805842654674712
Si	8.529710971505104	15.221722923461908	6.685206979422813	14	0.8732468684981773	0.8106774778691818	0.4276156953152159
Si	10.238677961382262	15.568523093876934	1.1504916250440305	14	1.1625710361796526	-0.09757576089440774	0.014732176373916479
Si	14.619551525238363	3.7922990305034507	8.3461582008219	14	1.1811447010124025	1.7143418078573711	0.040421632290708026
Si	7.481145147229092	16.371235168749127	9.91285842709318	14	-1.0247461641615188	0.11313043386023958	-1.2193847504389648
Si	6.685316526073408	5.865631260457496	5.308781110112305	14	0.02738047188585294	-0.64680885162114	0.297950483141104
Si	13.064392937870842	8.94728645332784	9.907498816337192	14	0.4038563681622595	-0.81509000881962	-0.432738879776143
Si	8.525360170949371	7.011922507212286	9.509381762704518	14	-0.14828541401315626	-0.7924642820023169	-1.3946953095827295
Si	15.270163798345273	3.167502161370396	13.877706512481236	14	0.14853712522399876	-0.18415876099252235	-0.4436493652021913
Si	7.444556565930278	12.899703446410287	12.96589578376399	14	1.205707498577905	-0.9942945069707488	0.9518162475344545
Si	3.6370060256245513	5.794197034121579	6.901342521047241	14	0.3625145372774705	0.1443202553884239	-0.49783386716112005
Si	10.507042729971088	2.768301086404219	8.217918313566122	14	-1.1717948765156838	-1.0081049420873924	0.14702454396415565
Si	8.00180729731123	9.044693046002644	10.508517522192534	14	-0.48251239344782554	-0.44996888496858334	0.6323484410795631
Si	9.57791709036125	4.707966782336431	4.545188634675068	14	0.4513431407622025	0.25588180078230915	0.7379432223569807
Si	3.677446724965192	2.565523696053868	12.14769839056661	14	-0.3951058683156675	0.23322393514850417	-0.4628740339020025
Si	11.405294199384059	14.301192608362207	4.011743861990637	14	-1.0356157690129768	-0.4138188870567693	1.1634598672888277
Si	5.4054650218981095	9.94710892316287	4.500148611034063	14	-1.843733968646483	-0.9203950265274567	-1.1785036616275462
H	5.989893132774496	5.416965785185974	8.077374865926323	1	0.5747250857549365	0.590466163856479	-0.009942207162480607
H	4.872695514388243	6.045999003150258	0.16771101698742052	1	-0.3831836529461409	-0.16630937652845834	-0.12071648010733649
H	11.248024449720537	11.668106424309878	14.961688605392228	1	-0.14662910796591688	0.1502006303661346	0.09422818176757493
H	1.56765017558465	1.706293724597707	5.955312361728384	1	0.24453731277821977	-0.2759477351428728	0.42578044033769413
H	4.5492124303036485	6.1294212301154944	9.577104483117282	1	0.038743986069311405	-0.24103623866377416	-0.040217486528288264
H	1.7420451732830164	15.27847462856879	12.34579470538481	1	-0.08752145353996867	-0.7953241224499176	-0.20702000105715102
H	12.481088088919215	12.536244009981605	12.754029291463505	1	0.41331109375604	0.12828272884346825	-0.17587260276674913
H	11.24243757054018	10.869277532947592	4.364902643214094	1	-0.5215582272817224	0.3666604446062093	1.265715039865905
H	6.6985177149824535	14.998255931370776	9.664851350244076	1	0.28400326522142877	0.7435150646962736	0.35182131025097463
H	13.70457702385094	9.538200706934246	15.493406792061307	1	0.6265912220466876	-1.1755808290996017	-0.01258453209999679
H	3.404657579712026	12.235113347692348	13.176684794829516	1	0.10194432594387133	-0.8402814416358987	-0.018013935204553487
H	6.694196344870166	3.033207777888434	0.8394690637084867	1	-0.37054692740814504	-0.22462333074207683	-0.020584269193105523
H	8.268798645206026	7.693583898152089	6.815273189196725	1	0.41021805405590184	0.4435524345316218	-0.46400377757967565
H	10.768102208487383	11.251557737958393	4.919954266459961	1	0.27258292961039504	-0.3755855225040393	-0.0314479605023272
H	9.454941982432585	11.455401164371253	0.1659909710706115	1	0.28445320865245466	0.5079126000161004	0.08250214173397559
