233
config_type=amorph sigma="0.01 0.1 1.862449767474312 0" dft_energy=-23350.75982506101 dft_virial="50.0679825776771 -6.116592077995897 13.170469071510317 -6.116592077995897 54.61300641370443 1.9270901064755892 13.170469071510317 1.9270901064755892 44.977555881326495" pbc="T T T" Lattice="16.405915777900002 0.0 0.0 0.1676028355870264 16.440581477938707 0.0 0.07751795205057752 0.0672970665209458 16.313550472070425" Properties=species:S:1:pos:R:3:Z:I:1:dft_force:R:3
Si	7.8568816579815115	3.3160686948901272	14.946171531504527	14	-0.17949708993656188	1.3790406206199437	1.4744733652300082
Si	7.416430396500653	14.303968520744943	14.400139999034993	14	-0.032958999098978224	-0.887930450981543	-0.0431333770718682
Si	11.632491537951664	2.381986395934346	13.512976978612429	14	-1.542393740251296	-0.39945129341724983	-0.2416214222346398
Si	10.417997685928437	3.3557595269316005	2.990535951658724	14	0.10655148956704467	-0.18744874736018383	-0.33732387579278766
Si	1.5466381793131225	12.636696002125342	10.430937031702467	14	-0.5580884916703863	-0.2902032285904338	-0.4044742047706911
Si	1.0387520416187832	12.936796294717848	15.996993405361112	14	-0.680823803675103	1.107989812669825	-0.0911456835992494
Si	6.80645844787833	14.660849687844758	5.744998978231356	14	-0.4848916943110907	-1.6314745691679342	-0.6167662572868058
Si	1.3177920601271953	4.826728700902315	6.7802401538736685	14	0.853899558074595	0.3262555245000822	-0.6736733026692393
Si	15.064961845877567	14.929790224600294	11.059139233937191	14	0.21555632783057466	-0.25105249365947496	0.09053838852263044
Si	5.095600332811585	12.161406778490115	3.226968166300352	14	1.4743545801642173	0.34946952021463523	-0.7579885878749832
Si	16.405876403702138	4.983459336103327	8.641862072573005	14	-0.3031189190556657	-0.26375221127781445	-0.17302536073521713
Si	16.10033755002926	8.747032195667233	13.642669024019883	14	0.09874587092560712	-0.47566425442761123	0.6084821559452886
Si	9.620233781762805	2.1879142558312554	11.952877745403537	14	1.6623124063777905	-0.08022979885202872	0.6163299407139766
Si	14.369677494618589	12.262011135223354	5.432152929671003	14	-0.00563380597750847	-0.21468420890598042	-0.4618949569960901
Si	13.905667338080665	6.657459920783443	3.5774165738236516	14	-2.204817685813291	-1.1428637710112497	-0.8035696572116324
Si	4.617020082471308	11.397370155980688	15.946453341215712	14	-0.5792054938858265	1.7722873226786122	0.9767991637092693
Si	1.0926143037092066	10.785641133778553	4.685155491288504	14	1.0783871344557683	-1.9328428226111112	0.787104812962468
Si	16.4446222549948	6.392776719172271	5.604523324383087	14	-1.0137911986134318	-0.6327413059724818	1.0984988344910305
Si	4.953210108592035	1.3135609744480752	3.799834855207798	14	-0.9465745351182685	-1.1611139907947248	-0.6711194237547361
Si	11.248158351980688	5.769645585504495	5.987140451563693	14	-0.2468075987759105	-0.10339314379177476	-0.8443214194254476
Si	13.303560385482267	8.946127827181517	6.364832522827774	14	-0.2920302560309311	-0.9164473514189014	2.11124590723395
Si	10.325968701372307	5.718283584978623	12.98529874412363	14	-0.8642621409569199	0.8060039797287486	0.43000605193135755
Si	8.857844313197479	16.109347678974483	14.071112795742897	14	0.4647439988013462	-0.09898266972559276	-1.271411066592161
Si	7.475729579079872	3.9774518617856542	5.264336817178864	14	0.5563859057273843	-1.6417505058009703	0.884335531522912
Si	14.265170170521786	13.42857018252671	1.841262177218962	14	-0.46497848360654376	0.6143854137603486	-0.15551124840490044
Si	12.592275344565103	15.937056032658132	12.657428157893877	14	-0.35633437141943053	-0.07890542250162044	-1.2728917661460344
Si	10.338909687737914	15.12918772496489	12.323881124804968	14	0.0643264840047848	0.6028257242409629	0.9569096071736678
Si	13.333604539046336	3.3294378756575376	12.252802494697217	14	0.9988379071819826	-0.16258641602488394	-0.038283243995940866
Si	15.797508953642891	7.126063733739178	9.148463627061934	14	0.08713655907354251	0.3831466290295308	-0.6432170174888932
Si	10.017022338992362	12.857978994137659	12.557409492353909	14	0.7129924449986678	-0.23861220056793853	0.7279405942194767
Si	12.22613631919182	7.675466681901072	4.834391904162172	14	-0.9216121877860148	-1.6752242401850421	-0.752063732775234
Si	9.513943134620945	2.1505776727039105	16.193359092489953	14	-1.0448830610289186	2.3665954892149887	0.1909050842420589
Si	9.168820087359151	5.860250536571104	0.7224558289703379	14	-2.254892533028495	-0.6855186419896935	-1.4833840449380455
Si	15.170742269038733	8.544958890439261	15.92186907642253	14	0.5066093067293175	0.1552795918155551	-0.39325647225888505
Si	9.162731852013973	10.777052636868824	9.310962582250456	14	-0.7042612284419768	-0.5753840600484904	-0.5135682603888302
Si	2.471930188595105	5.105425835770968	13.781953608382677	14	1.4283852739242258	0.8740634515478564	-0.32204533953833975
Si	10.636962522041335	1.2775860823302958	10.009199998349457	14	1.0269699131529146	-0.6619634605991568	0.7886446479387048
Si	12.628163285329258	15.046848074267189	2.5304615743159187	14	-1.2297686734954467	-0.8130128128314722	0.013329124200711672
Si	1.6476953393218308	16.214045311694306	14.334739456377973	14	0.3057663862038222	0.2489187333542841	0.08962616035504188
Si	6.24357968049647	11.60020797688391	1.158749831393077	14	0.08048099584180718	0.8577500454020488	0.26168658526360744
Si	9.959695147489644	16.212555654541674	4.870852411386977	14	-0.09582920905043114	0.10904623305918437	-0.27573664739608866
Si	12.085517933876282	9.603801616519661	12.008556142370574	14	-1.7606584704261143	0.014323884849076964	-0.09265955041175258
Si	9.558499961282143	10.034671823186226	0.08676268559142417	14	0.37019160065290063	0.002308852577492975	-1.6178559385081743
Si	1.1210916923164855	15.391687299186025	6.152592471592237	14	1.4364364331237374	-0.9843425296080518	0.028933419499222377
Si	5.683343906146431	0.8256818510448847	13.909786863532496	14	-1.3039365773341622	-0.0729317164007884	0.4602013699217086
Si	13.231489197469953	0.6770655817876219	3.3072964517236842	14	-1.792060408143211	-0.08258210310943219	-0.7620005406165423
Si	1.1484059014951113	5.806873889587705	11.979127210648178	14	0.8095215089172433	-0.07067737125608255	-0.04427906160252618
Si	4.133480323791373	14.83586307558866	9.568113827927995	14	0.4959070808342011	-0.2863720245528812	0.29276790614728154
Si	0.8864575660441152	8.64062506652335	10.014664808895075	14	1.0112324345988206	0.963701181876839	0.6731104877146588
Si	7.059846176476419	3.2555833646001653	9.179280499259141	14	-1.0672861301254968	0.2631600857225843	1.0239475788490808
Si	10.346968273568018	0.1987429043250584	15.60386828912476	14	0.02284992720122001	-1.1846812563802662	0.46299770406790164
Si	0.20671289820996225	4.783172635103568	0.6212477345364728	14	-0.5596931185006907	0.06188264839798404	1.0579411907288867
Si	1.2142559662444463	2.8224294544573163	5.426314064245648	14	0.6139879208778537	-0.3350605317794613	-0.45545382394805517
Si	14.419800848503227	1.6132002608072185	15.464372068448432	14	-0.45972802943226937	-0.7739474385971423	-0.7474614542521689
Si	10.3906916797077	6.600598657288819	7.955225279520556	14	0.23868881950647894	0.5127007694538123	1.164438687084208
Si	3.2919519986966144	9.606721869528126	5.148133715723998	14	-1.2403238321662506	1.1682122983625896	0.09002493879019685
Si	7.241374353375726	0.527028560223993	7.856658537526932	14	1.002315584238015	0.3239163328798115	0.09773825475064109
Si	6.200379623070104	8.085448876599214	0.977098610125435	14	0.03937647797806783	-0.017077538646955555	-0.3832319897261597
Si	8.905091710046253	10.508522248007733	5.447259496919293	14	-1.0695322477331781	-0.5537602929744491	-0.8779044257856257
Si	15.930849674719353	2.864171025971027	1.7355342529882853	14	2.5424197552017187	0.5946130996273459	-0.6338831338451595
Si	15.46273967982853	6.636320898303619	12.701197500597734	14	-0.8443504729155651	0.688740236955839	-0.4349698278624355
Si	0.6615636319690842	4.041454620418398	10.600648027466953	14	0.9957667218770656	-0.953127768358262	0.20125249760299485
Si	7.490498184463138	4.973245012940007	10.657663506569888	14	-0.3713802226424051	0.8400125040194112	-0.02327724490542862
Si	13.027135469948853	13.333555321299002	13.688836911610471	14	-0.20962530207805705	-0.18462361683440512	-1.850699607179828
Si	3.0696879329207807	10.279354572872558	0.9553476469870952	14	0.6040585692419739	-1.514474621800872	0.9966103015326064
Si	2.5311965593427685	1.5535516322219296	15.685925758071082	14	-0.6884772128815878	-0.045605237726658567	-0.9903843699998677
Si	7.236229458187776	13.370852530228479	3.7515965410460383	14	-1.6655224313699952	0.5656984491969607	0.31312000452997774
Si	13.787393810054628	0.7192665189431142	6.815673650770776	14	0.11245860404008487	-0.35237975432651075	0.12630117797323012
Si	14.016610702937136	14.787824913599392	7.284607222633649	14	0.29925069110150293	0.6343341057183135	0.7201930825582745
Si	10.54556844642581	8.089309188581755	13.24360660686351	14	2.3500188018843975	-0.7790572533104047	-1.3016637202311512
Si	3.5543154038167906	10.482773163194318	12.656612783879714	14	-0.6791952655653213	1.9532322020209496	-0.8396996005019494
Si	9.583569841182353	13.972664176342874	8.387583502748177	14	1.3999686465943533	0.0960228132810383	0.6270457934672897
Si	2.256579575728078	16.06009383862607	10.161747125027105	14	0.7404251103225197	0.6912514355220276	-0.025883317257930707
Si	1.0584768741585524	1.0622863278021806	7.039414248966621	14	-0.7130397533365584	1.4285925050130297	0.7319227221393221
Si	14.805320182184944	6.26831487971481	0.3062968069818153	14	-0.20180271414150655	-0.3603841194091958	-0.774028428414727
Si	15.983701332397857	9.335871684176041	3.5122932911432776	14	1.3780926540884053	-0.9925322713843195	1.375227928540696
Si	3.372275362345212	8.34183724719308	7.07419479041577	14	0.7825963797835885	0.7111373925101809	-0.08933408279067306
Si	15.663062473843002	15.945122821446125	14.867915313243945	14	0.90371292387874	0.5186364231959061	0.8031760209871178
Si	3.9660464691368587	13.353716551198465	7.715920389026217	14	-0.42568993743042494	0.09463441640815833	-0.38264500638156984
Si	12.521802092749553	13.362774257299442	6.189167820227487	14	-0.11680222936794306	0.863204645338743	-1.477303380855895
Si	5.653298111990783	8.799901899853092	7.631482421700521	14	-0.6018361058032379	-0.12480582311903199	0.401538002495082
Si	7.122191937615594	6.139392271757338	1.9731411311996112	14	-0.5719706606254619	0.10746063240824903	-1.7489262597397466
Si	12.207180924102033	4.836403269436543	13.820225328709363	14	0.3653257838345204	-0.030131554578411383	0.7484446449265936
Si	6.07791766474597	12.761339947247938	7.124766025801146	14	1.5900435209285362	-0.3342467769456345	-0.07381103442027903
Si	13.039453031514899	1.2998899248303508	11.000639019456356	14	-2.489130512115266	-0.37956276532377636	0.572268137511003
Si	10.241927757208437	10.2520649725676	7.22473547359378	14	-0.008259161619911673	2.4551826659101588	1.4554777820142222
Si	15.095058498372126	14.294051144657203	13.36698565587963	14	0.2036325697978559	0.1424083814723618	-0.34343899268622785
Si	15.876178600981078	14.629269940563878	0.5686618526935698	14	0.43903577381571757	-0.734457574874456	-0.7387196961636654
Si	5.2577399984445705	16.337557248628226	1.8548183854262408	14	-0.8410363181578941	0.5112300972106876	-0.627048878793674
Si	10.739655351853099	11.286910765639666	10.949447640454574	14	1.4441842018954716	0.41997051364575555	0.12900006722778956
Si	5.364247203674697	7.974667930308945	15.012877985057468	14	0.14185173717054975	-0.08763869594256742	0.32215024063540176
Si	5.595421322309509	15.10572234362776	13.31940029716583	14	-1.6424830137066802	-0.0003956931087707894	-0.16655183176014832
Si	1.5358398055481088	1.5622385646263277	1.4613208549017311	14	-1.1229785853546923	-0.6539840352380771	1.6283457911038461
Si	3.3331685809054323	14.961456923234795	1.5742690226662617	14	-0.6025904681041693	-0.5259116228097972	0.2799206070835656
Si	4.6855754827324185	3.9873938467470618	13.80800620263798	14	-1.143944149466776	0.3582447026723006	-0.1558943430976025
Si	11.319184483157951	3.687856277065741	15.65967793341802	14	-0.45594001996409517	-0.4174816836958522	0.3907468163558885
Si	4.933769098395223	0.8541493961026968	7.74099519070116	14	-0.49788168972007474	-0.0658007557953577	-0.7766239592354166
Si	0.5891626850496338	14.62836925578767	9.720188464231237	14	-0.9920604735580721	-1.2074962165491319	-0.29764066495002617
Si	15.153033723548068	0.7165480586987161	10.557743276524588	14	0.5356252587093165	0.6693404759837257	-0.683167109063886
Si	15.581356091494326	13.453759825612098	3.8427396061501615	14	-0.38832354959164894	0.17241138078476578	-0.36273256700861906
Si	5.19082518976125	10.176897988247996	14.239191402887483	14	0.38232284688495527	-1.0205256947784958	-0.9941173578141906
Si	2.1271516655646474	12.865570011368094	12.624066728159516	14	0.801445152885594	-1.6533952989064529	0.42918458378157026
Si	0.3553652604819364	10.106989099935209	6.865217875828457	14	0.7186655888875745	-0.1822219473548548	-1.1969955653111153
Si	12.809320688531987	11.995418285015633	9.630431699010346	14	-0.9749623660685555	-0.8444808279552967	0.8614832903269038
Si	14.478809646373179	10.384127672804963	9.120714661115194	14	-1.1855130089513337	0.28129949086676104	0.19713641509596977
Si	9.621836639734305	4.346575123238938	11.250465023739062	14	-0.6231186872012957	0.8850415570438246	0.6740211732190552
Si	0.9942690415785851	11.13312991409552	1.070549987579509	14	-0.25367887774400627	0.3346360422911049	1.044806184979846
Si	1.1289402824246328	12.39560614799437	3.1083205833945793	14	-0.5077246522171978	-0.2507542454423378	-0.24899560940335652
Si	13.441671946866942	14.155122568666789	9.57153938314242	14	-0.7155933751405296	1.830463979868135	-0.48784975098192096
Si	5.487622971507661	4.404996589324039	2.0177914715807437	14	0.7079353379444685	0.07665981911500311	-0.880810031907925
Si	12.24883554426212	3.606261454944356	1.4874062609885923	14	0.018008278772849162	1.2829234477736562	-0.3192960566195054
Si	15.417933483247507	11.762454280969454	7.398426544525985	14	-0.23042631544965106	0.9798400099714084	0.4743835868676454
Si	12.891757134132778	5.929798494736778	1.5243753516025123	14	-0.5660913140898792	-0.09410065494369559	0.5555590382564246
Si	10.962957912097675	8.468449902209024	2.8943021308887182	14	0.3745768778869452	0.24757378816131467	0.7154547925637735
Si	9.903476995893515	15.56720434854431	10.173460948892526	14	-1.012615175039996	0.44746437127622696	-1.2241526081446472
Si	3.3070651283112156	13.520533543419727	15.964430943725135	14	0.540981642422781	-0.29877709350153164	0.21863754044624012
Si	3.3804471489941843	4.555404384584249	2.956848044200384	14	-0.21000171189692673	-1.136202808458342	-0.06365722528995023
Si	0.19850829972943446	12.548538813692799	13.87761650328361	14	-0.06707165315510688	-0.6704509363714977	-0.7926324322902545
Si	14.047406247443831	10.126582685148755	4.656476309917157	14	1.0035517716759421	0.5316683276216086	-1.1589761167210215
Si	13.373674347742279	11.36912409078588	0.7570575459375068	14	0.6041804396341489	-0.1033936580128388	1.7789315730469388
Si	8.546737291709585	8.577793690277149	12.642403620224476	14	-3.232918371086007	1.4049578764681006	0.15955945373147357
Si	16.367660463489095	15.628843014713457	4.255766738816683	14	0.9522775038288891	-0.9986903257366061	-2.16010025075368
Si	14.822513581920184	4.885448754654575	4.626509264157245	14	-0.8388552495148126	0.2547643984101728	1.8165339883541047
Si	2.0445035836503207	9.70121994440883	8.296161537075829	14	0.027822702000918405	-0.2699424044466029	0.5716703555240685
Si	11.59933354157295	8.799134102994687	8.090936655426923	14	0.8294411473850904	-2.269978493494464	-0.39498656902881263
Si	7.154596902460102	15.039137293851574	2.1198165806203484	14	0.37165275980634077	-0.3382839265193309	-0.7454176826331832
Si	11.257657377216091	8.595472705119414	15.273927276323835	14	-1.0604727010271042	0.3923828106710987	2.132439271277399
Si	5.697904156399316	3.5463634564392423	16.06900061030189	14	0.037535566568841806	-0.5549453154165053	-0.683738665776555
Si	5.063347942983811	16.260902247747566	5.567034166239008	14	-0.5677329648367937	-0.9173040437115748	0.7197223131741552
Si	8.807822675990662	8.827788675492368	3.654873823985851	14	-0.08572142270533299	1.5906179058570573	-0.3630184739202195
Si	5.835872986316723	9.045419710652522	9.937729266854614	14	-0.11229919551023572	0.31852343947080086	0.20673640814033867
Si	13.940552877390791	2.038310350444163	1.5001093615754202	14	-1.417655537202184	-1.1981016548198429	-1.0242465983978142
Si	4.088875919974418	8.325600312347692	1.9067283435390943	14	-0.192331019252613	1.1224083141946835	0.29112574117930295
Si	7.790319576487416	12.667063352230237	8.840870752733665	14	-1.2150280124739736	-0.8907527532914696	1.1540596491278343
Si	3.0956158422161737	13.432840642403697	3.3824699984095994	14	1.5727407534555355	0.93475670662474	0.5102502489731792
Si	2.6461314835080025	7.600202902678378	11.350810167003008	14	-3.3259954690017515	0.2597844815477619	-0.04556641403632433
Si	2.0030064602817004	8.831296260285683	13.225482991703664	14	0.7304438223591728	-0.0025803612993006123	-0.05859189069872652
Si	1.8299240488248552	3.8918917298207503	15.518303235385122	14	0.8168748701328666	-1.027267647148988	1.1502125042372968
Si	7.01221652179002	7.069286140415023	13.634251148634243	14	0.18424515013127932	-0.8816189016416436	-0.007906405969987358
Si	4.267232833353858	5.73713398220743	4.717570299682479	14	-0.3536876756028701	1.0102800971882375	0.34157468421858844
Si	13.172388526471645	4.395815838854727	6.396220320894052	14	0.7223898349438089	-0.1446827812385648	0.2667236376963096
Si	8.597886015330344	5.566292618845847	14.655790103418854	14	0.21481996326688424	0.09259938654726113	0.33173840659529796
Si	15.518472216317635	9.937739110404081	1.4142440795770472	14	-1.224717479983484	0.43267434503260727	-1.3432960860171173
Si	4.669166285771363	7.108806350932405	10.656472437084412	14	1.4705768551173237	-1.1473050983412734	0.19946300830017177
Si	16.378816486218067	2.1605951248778967	11.974069266813851	14	0.6227674742145634	0.5337043859246339	-0.3811689348172729
Si	5.699854819785308	5.546868014564813	12.365921283985838	14	1.1487636863893933	0.8282836357699598	-1.4590914705416902
Si	7.459356475133528	10.392870385323004	14.030148864637058	14	1.3122011382752463	-0.12207273816371461	-0.7813416803873562
Si	10.944660394230583	4.890921768158082	9.532240652488039	14	1.124763189557407	-0.6553235811098743	-1.2786279021152847
Si	2.777298420743891	2.192840952339359	3.541917453263432	14	-0.4505833791400987	1.2918243572814767	-0.23859651682548563
Si	8.239631673079918	6.617826509447191	3.8217285498134053	14	-0.5394333227989878	0.18317274210224557	1.434084385976866
Si	7.672730175149318	1.8876302169820407	13.280703663620496	14	0.17707716560923847	-1.5220498694056241	-0.6723723233772443
Si	3.304942202809555	14.52359451526369	5.599596627874984	14	-0.1781932824287148	0.3163326006275027	0.2006531729528683
Si	13.297431135347644	10.967702502940643	13.4331211835635	14	-0.21119676164973153	0.14859086132518987	0.04380263578670275
Si	4.154153418263104	5.610596794404066	8.879990658906067	14	0.6430552949642558	-1.3783618488154248	0.6693566739472426
Si	4.845488865594343	3.2341441138616056	8.246372863873058	14	0.6302475909224702	0.42894212854988023	-0.1334943593274084
Si	8.27498806217287	2.705852298122714	7.30829408383378	14	0.30414813251532097	-0.39116102142296433	0.14743334971005922
Si	16.269672850322433	10.890824381605404	10.467610815832384	14	0.4038350279881023	-0.8891810366092631	1.3860885345235339
Si	14.361403991291793	5.449008367541218	14.489048578410165	14	0.18020825766811482	0.19528496215493116	-0.770258930904858
Si	0.9190708860190027	7.165032705486424	3.717419737297517	14	0.6162201545168063	1.1934911487597535	-1.2061407298243498
Si	12.071374393884154	2.3494780738204373	6.521034887540738	14	0.47637182261171596	-0.5612342390295875	-0.8197018004323696
Si	6.003531602017393	14.863592354436467	11.049254669681007	14	-0.13986375853701122	-1.4502453255771888	-0.145311673599873
Si	7.795210179980808	9.866535795336418	1.5620548183696152	14	-0.8835688279164439	-1.2957321802575696	0.4370251694553618
Si	8.723471660018589	0.017670811884376095	2.728018330930235	14	0.8035130928945892	-0.43736044158910914	-0.14846384872237456
Si	15.43983209962785	8.192167718142876	7.071763433697485	14	-0.015670372705238512	-0.8968560431004372	-0.8343696991732823
Si	16.310523580609402	13.981785865515386	7.549979472707492	14	-0.7751016077753567	0.43257330059352544	0.3185442654238941
Si	1.869564022527417	0.7112473073108766	12.21123646648233	14	0.14488307034300432	0.9768562422473767	0.7511227082280598
Si	6.682780811195054	6.773348028655373	7.554694532902061	14	-0.5147995627266491	-0.4650813278193497	-1.1418713243576724
Si	15.399724557325618	10.71223286363034	12.743824991563454	14	1.5814339176534882	0.8713853882463901	-0.469306682302481
Si	4.815635020653299	1.3125241205709115	16.03268611572751	14	0.9450195306206429	0.07333435149392359	0.8018146207200993
Si	14.908447768764825	0.9173449836791676	4.7194963541948045	14	-0.5164674387478292	1.0071484909082973	0.9866637234910814
Si	10.87599507433376	7.252538579062587	0.8978728022423781	14	2.2839313678458435	-0.043873084072474804	0.41958484784773337
Si	15.285992186786904	1.657171396275146	8.334776141042273	14	0.8235707997181284	-0.7132665248257956	-0.0732808725032645
Si	6.835245908293811	1.7351126209527934	11.09713369428723	14	-0.49970794582897593	2.390267141676528	0.013994526257565993
Si	11.258146273506274	1.750379966175707	4.372033823343083	14	0.4300245638896626	-1.5913167322830735	0.9687626598100825
Si	1.8142974140464057	5.923001523829994	1.8934822071400177	14	-1.127849287273181	0.3768376507949514	0.09936936396574303
Si	13.208025456724402	9.753277555763685	15.411743531224506	14	0.47848064319530137	0.0034005438964278493	-0.036880963154332105
Si	12.401904379061506	10.30476405522937	3.029721481494238	14	-0.004173418155664362	-0.2207473894719536	-1.4584471515484612
Si	3.2524498346865864	14.456189169698611	13.841874575169879	14	0.7718689570563346	0.8003809723935847	0.3565950814988936
Si	6.551152867725807	2.84007237628487	3.4023227970924363	14	1.2168851218467167	0.687281648907719	-0.5145866752061409
Si	11.129623969893784	12.867144979282772	14.822971306970388	14	-1.3059849769427243	0.36488226816679487	-0.8590451111518074
Si	7.464824566862302	13.502913589874264	0.2705745659670158	14	0.12238409901798453	0.06110386059651118	0.9940229982489412
Si	10.803412021749175	11.387219815888901	1.5092130042405771	14	0.30586691642184	0.75810557316705	-0.2909475635806167
Si	2.3634345863726964	7.757980235306019	0.45379255219144743	14	-1.398297685246789	-0.08658557120343477	-1.0892778223708515
Si	14.112965927483899	6.793304184607611	10.662752621644193	14	0.05928351802984634	0.052560848949255154	0.46589662531636866
Si	8.542683389920866	2.2860987399872537	2.121120850924691	14	0.1265472327523683	-0.8166457846488415	-0.23346973281711034
Si	15.78686643607777	2.9594303353438254	3.9282882539740216	14	0.48010969552614724	-0.21816908505690916	1.9306980065530437
Si	2.780007037438822	1.295795008252187	8.625613653586571	14	-0.512452400679886	-0.21490558107404517	-0.015333043687235082
Si	9.858511661929446	13.296559981219836	0.42432260567960567	14	0.13374144254867465	0.49163287534998684	0.6977195651759242
Si	12.383905448861572	0.516435260406203	14.636522995929287	14	1.0017304006671492	0.8540983045158426	0.7358151184834941
Si	2.9082209098346885	3.3598445999602977	9.728214238229787	14	-0.09614519789427733	0.8097629357068051	0.8067210610025378
Si	6.6884703827868295	12.514074906418163	11.05070659322735	14	-1.2907221244307292	0.6696346104323506	-1.9293057530221835
Si	6.671844627737506	10.46489727736272	6.3862192746358435	14	-0.29953891200789146	1.2371454317694837	-0.9702238189635225
Si	11.423048695356258	12.39701705675127	7.858190850060589	14	-1.5504225308345225	-0.8942162892682411	-0.17746488829151683
Si	0.9995287781769798	15.74060175358409	1.9110841141781265	14	0.7502382479979288	0.792258850687237	1.055502754443258
Si	9.327476777072489	12.443729620745684	4.12490002983953	14	0.37378806277472376	-0.03320094010960416	-0.4001403496430495
Si	3.1134064172857285	7.306966845247349	14.538935687107605	14	0.25745043213813146	-0.47417507022618144	1.2490874446499751
Si	3.105034478464266	11.631287343733565	9.02746507642519	14	-0.618679159644996	0.34521691201511023	-0.6078890019479305
Si	13.174194817798792	4.6861562521509565	10.369744606442476	14	-0.3801777737163558	-0.07749080035447498	-0.5030282712394152
Si	3.1907701537279936	7.736211225660324	3.9564621331394094	14	0.05592436892907288	-0.8315486824160159	-0.18438913202920765
Si	4.683278654523513	11.04530904693642	10.517448706782488	14	1.3867061140214332	-0.5923271298872022	1.743506883945939
Si	8.708614462690123	15.282351714075787	6.7450199338816725	14	0.4501529761095059	1.6381242188574334	-0.6518983546023731
Si	10.566136543036563	15.37938122176102	1.2883204730237758	14	0.1010652650349127	-0.10294011503436468	0.5959004520611441
Si	14.398509251006669	3.839911226270052	8.548597722558798	14	-0.19650700851359754	0.5260687173448582	-0.9960703694153752
Si	7.5312143862407295	16.353858166545148	10.114977140327468	14	1.687217932282469	-2.271018762706996	-0.7550652411259747
Si	6.455467004542783	5.990127968826849	5.3048430232345	14	0.9964177257441273	0.9426412581995061	0.43117899017840905
Si	12.78684622450784	8.624143683532873	10.044599042823434	14	1.2783281112349554	0.807919967413323	0.39647755300396653
Si	8.284047408865428	6.742547562373943	9.147174122081791	14	0.5227951860512456	0.3483320632210017	0.5116818404154375
Si	15.259713190893864	3.3466329159843546	13.794727254407348	14	-0.7612441214313548	-1.2261745253684118	0.1713947657411792
Si	7.820470368504041	12.421712881771743	12.980093147047302	14	0.4412456388383849	0.06638953891367161	1.0004127091905732
Si	3.397612658672601	6.057579250956107	6.854091383747885	14	-1.8237711356092576	-0.6167204916121071	-0.717284391109591
Si	10.658255760129473	2.7613928853972167	8.305575251549188	14	-1.2724096838985066	1.014763590645512	-0.7030042150509564
Si	8.142556228830507	8.885611325651576	10.358864203098573	14	-0.14636814077592186	-0.2861221131157628	-0.6436091110502158
Si	9.509644784687136	4.792184404640369	4.519670659428406	14	1.2442247131579793	0.8862468912179101	0.5512357246605957
Si	3.928494968512823	1.951751098208385	12.735553128828235	14	0.5064866650055464	0.05678183255334227	0.01491626751483908
Si	11.098022894922392	14.182285843420258	4.431039340029878	14	0.7980790618004563	0.019078887028158818	-0.3536755914078654
Si	5.337628605325055	10.269645551915199	4.432164785852242	14	0.7872891612139227	-1.2164032967097211	0.2794112711196443
H	2.8697293502365797	4.069377489072384	0.37545102316881934	1	-0.4380422987200124	-0.03197118043497733	-0.8398088724780556
H	5.718706857605693	5.5013022240832745	7.804290854363876	1	0.2200159100083715	0.5466218761635899	0.5505168436130822
H	11.386696467175588	11.430264017115379	14.953121077428046	1	0.13597290485603114	-0.8168766699065908	0.23627969382150016
H	15.091931530824858	7.436214290337222	3.285501192612744	1	0.5113974761670291	0.7211970991857923	-0.5391214477236539
H	12.10547408982852	15.079715685936634	9.597168704770654	1	0.7082459274671423	-0.614392098634181	0.3834585041048647
H	9.406533604023034	4.404456834694947	0.8828056091919547	1	0.43023102364687055	-0.34241132188976464	0.4066010230915175
H	5.7369042993865405	8.932635602045771	3.624383429512624	1	0.03109649040506296	0.9442821376148246	0.3944504935695618
H	12.400291677540539	13.410392427844798	12.173225600216512	1	0.5948987494284144	-0.04542397480158813	0.973980203836259
H	5.183604946227396	15.815432416630248	8.95593036185881	1	-0.15474197369311216	0.5535895715811912	-0.6802283356829567
H	3.6563191851658843	3.085506516913832	11.12421493946181	1	-0.07030944608476936	-0.06613139993952874	-0.21821613628426784
H	9.16019549743471	11.054186287963843	15.100628306778722	1	-0.15161756650806815	-0.5407600131441843	0.8149748233012774
H	12.033678521201274	10.66167967475232	4.442328250676652	1	-1.0221912568048876	0.7274731672722737	0.594148243785463
H	0.2365962737994071	6.28145437766133	14.399846333142568	1	0.5130219005082988	0.32485092966368534	-0.3226649759204954
H	5.269739285244526	1.7196746542057892	11.519525323679776	1	-0.3643973577034149	0.06778282088665985	-0.1872713410930936
H	9.577028802561705	11.429071307038324	2.6117348404880576	1	-0.18457759404917448	0.4393242518326383	1.024960851455751
H	16.503865657460377	5.919771199013325	15.075537099188002	1	0.33554852756922543	-0.055446143339525335	0.36295162518189567
H	0.8659747801954071	8.618011152215093	0.3997531062106226	1	1.2637342603272628	-0.9874653941299036	0.15479416713111113
