72
config_type=amorph sigma="0.01 0.1 0.5011664850857119 0" dft_energy=-6964.281920264086 dft_virial="-8.419295092430374 -3.229870002593546 5.127795950379239 -3.2298700025935463 8.84692585601363 15.497841967273239 5.12779595037924 15.497841967273239 9.885817064012958" pbc="T T T" Lattice="11.105996452100001 0.0 0.0 0.0 11.105996452100001 0.0 0.0 0.0 11.105996452100001" Properties=species:S:1:pos:R:3:Z:I:1:dft_force:R:3
Si	11.028498808857247	8.141917058999033	6.224722209462365	14	-2.8300657624407335	-0.25113348347705966	0.6807428138575184
Si	10.901512845423936	4.706654660421268	1.6811591069401857	14	1.5349025677905124	-0.31583946262709833	-0.3189556422751178
Si	10.132922360956355	6.0854752259459355	7.071398954984661	14	-0.15029010483127572	0.8493088495254707	1.7109155529077413
Si	5.054938709159124	4.082397705845179	0.44798813188658376	14	-0.31242837719885785	0.47281032752224683	1.346471143976968
Si	1.3312757947132272	2.8888140551450876	0.792137418145323	14	-0.5314287006057709	0.9335685988562995	-1.0176712536520673
Si	3.778970776777355	7.791789414850127	0.7269607673665289	14	-0.6571917462354939	-0.8902459884328685	-0.730288013376772
Si	1.5762851824430053	0.0938678820131492	3.3566874736791563	14	-0.8209307887754004	2.7957911287494355	-0.4028564653032539
Si	4.810884437124226	2.540596642385944	4.707909638020355	14	0.01373818705714723	-0.4435748031479071	-0.5072875643127724
Si	9.788725318912872	2.5014813228816477	8.290815153432336	14	0.8524517686688198	-0.08826450297749147	0.154739659698324
Si	2.502925102420421	10.747095070753938	7.04183479242917	14	0.49351029645475897	-1.0860122615037313	-0.5433653141650904
Si	4.167802818561828	5.81869808517004	2.0151830562335453	14	0.7621242107824414	-0.03157523021567453	-0.9178246925389048
Si	2.018392689208202	8.32061254191332	6.706489229558011	14	1.9663895763862755	0.3786641640143846	0.9165388827682986
Si	9.857093833072	9.897486342168287	9.959235682441964	14	-1.51475384383864	-1.1139928293713068	0.09549367980615182
Si	4.860805891176416	10.48865853331357	6.729856246093229	14	-1.1713315633369932	-0.07642841963618979	-0.32450665866131745
Si	5.39338284504042	9.169810348630243	8.557836626130177	14	1.035344517401701	-0.7531564525362968	0.039138650735954135
Si	9.668636179276314	9.564706264477563	7.669556817898315	14	0.3531089197953048	-0.04005396422992685	-0.54099809749683
Si	0.4613619728142026	5.827993804200449	9.087392748959209	14	-0.17745151854385205	-0.6612150118404617	-0.4347242873043613
Si	0.5063612492388214	3.4917252845402404	9.503412270058424	14	0.5184006528380486	-0.4130311003866759	0.3253006159841792
Si	7.462452196059554	6.254652869900774	10.184365336522482	14	1.0874104285768276	-0.7869299778006982	0.278416510471279
Si	10.149936747520973	0.6345599874847021	6.804532966237149	14	-0.3961286540120224	0.4779024016088	-0.06817131490053424
Si	10.662245257859894	8.065952043266668	3.948448282636401	14	0.8645308214628754	-0.5248469280967238	-0.20198243440338484
Si	10.2325875731175	4.531346506424869	5.4288109737226184	14	0.03230773812138472	-0.8863181108352781	-0.04804315979122297
Si	8.513579230268558	8.852456500011487	3.6036070927986956	14	0.9207084442659829	0.269336137812112	-0.005435830867857068
Si	5.892641809548123	1.429963679186588	6.509157884597098	14	1.094828838757051	-0.7757862931221123	-1.3108291964764154
Si	5.162766828712563	10.59564259713665	2.715393920545546	14	0.6069862868700264	-0.03454459974991354	2.2673531378520604
Si	2.876175431182598	5.6875362670707394	3.947681968881206	14	-1.482424251322034	0.5356196022776122	-0.48134691140620245
Si	7.596046227381865	8.489001660120062	7.639137493616013	14	-1.3798695449751597	1.5929349859715747	-0.7252620166969463
Si	3.6583374433146445	1.294948080318408	2.9742302738581885	14	0.6237419231308995	-0.8388724759204575	0.045649974959229137
Si	2.208949376333334	0.6051302074862823	9.073676843340866	14	-0.6081198872056797	-1.609975757812452	0.7926812832913372
Si	7.841122251090356	6.289781136678767	7.883602687519638	14	0.04799456590067218	-1.9031540123688293	-0.6402898140819046
Si	7.094599381573098	7.958845813482616	5.08046028900605	14	-1.389496020404326	-0.178944045182198	0.9136301913196152
Si	4.060529998830994	5.352157386210224	7.060315170525465	14	1.1604182496950926	-0.20489832494696483	-1.3937779392045007
Si	5.881424753131502	2.673502101928225	8.375320680436365	14	0.4812155279243429	-0.43563522991928977	1.260313404698806
Si	7.932102574025959	2.309269842285153	9.60779753071171	14	-0.8600283018262321	0.5662394097563198	-0.390494590923982
Si	1.172460045448197	0.9736593771566715	5.6118489012496795	14	-0.7326164063546979	-0.7141499566137984	-0.404349249052132
Si	8.921091558085463	3.588958283478376	1.7935740030283418	14	-0.39945437874363393	-1.9478277386379983	1.5338101051399815
Si	4.315879069257678	7.1826144034559904	9.533154128557147	14	0.023389859318451105	1.4050586637966505	0.7184632428988788
Si	7.54424785992927	7.938355250028491	1.7932075051454224	14	-0.6888343394105564	0.19208187914709066	0.07532515834331424
Si	1.3871722748566464	8.338160016307638	0.9333246192419347	14	0.9917645393357233	0.08324699094522248	-1.0209031330394933
Si	3.7501396099877033	2.239757410491459	0.8506848996418586	14	-1.1990203107507318	0.7183485716016001	0.6247983903069483
Si	5.027951137780521	9.230948859099055	4.789261062031988	14	0.1615895984922625	-0.32726314067504825	-1.157405428480943
Si	8.92610036248536	1.0760000238631278	1.4668355874075598	14	0.9449285134923099	1.0398884318339987	1.111309109638136
Si	8.258752141675124	1.2925713970776587	5.475556112789508	14	-0.6051137508653627	-0.2640242342206861	-0.10030678896546902
Si	6.362525413440022	6.080166559641832	2.8214117626772928	14	-1.0266233281557589	0.8344445183380986	1.34053497601381
Si	5.620866970368783	9.137991668794976	1.0504173610357155	14	0.093621658022552	0.45940818393044297	-0.29226011284655223
Si	1.016049855014692	3.280311536078065	6.018872565222691	14	1.2344051477192697	-0.9297535927822638	0.11614376929545314
Si	1.629793873349223	9.012871512765619	3.1380548275231157	14	-0.7796784323557524	-1.6267367933944974	0.48660662155962936
Si	10.99767966870267	6.530048263923499	0.18193732327865703	14	0.6692111493861223	0.3072599412842962	0.20172969475041433
Si	3.1873765577668918	3.964207691601931	5.403189439907624	14	-0.8087607188530114	0.18897598392035178	0.3199612015658277
Si	3.059690916557098	7.916654132961088	4.676157594163801	14	0.37209036193183004	-0.026607597626616426	-0.2756942241583062
Si	0.213922593060705	0.9110748659497975	1.2314884165911086	14	0.37045051095863957	-0.42256270202952895	1.2215930727984396
Si	8.520376100097243	3.330577276020269	4.321720823391481	14	-0.2964445867550933	0.48512489356362803	-0.441039179081177
Si	8.085254265100417	0.2292932921504114	10.668975491709865	14	0.0034990172301895208	-0.19490315301488917	-1.1193669537114803
Si	4.193524306344892	1.2839753558237332	9.940510972423724	14	1.9784578305379863	-0.6138439389799254	-0.1840032091206534
Si	9.052086786237982	7.7394690655642835	0.0636473550673399	14	-0.306805369863694	0.5834475605535389	-0.9355275239997204
Si	5.895462732646956	10.600962369437205	10.315105126756604	14	-0.5782968652656861	0.06739844064129771	0.2897995650551706
Si	7.44175061867284	3.9996025022947737	0.12887065103123277	14	-0.6368404191843939	0.6557167031133251	-1.2472886993679997
Si	0.23933977654098107	5.659660215975968	3.782891193524946	14	1.1967932193224196	1.2369739390446297	-0.7832155019446801
Si	6.367201037946356	4.34757558313197	4.601458662026977	14	0.6333699412232581	-0.014734490368704611	0.025969706396687685
Si	6.268268821551049	4.575237404403569	6.9910470706537176	14	0.33559043658594384	0.8424128879463015	0.7750789820485395
Si	0.7832426255868361	10.368935891559932	10.792973942097563	14	1.2189769731351892	0.541260350239485	0.14822242193281265
Si	8.70306974173429	11.09208063854552	3.5291191745944612	14	1.15807880096429	1.6770147579299932	0.4385539486787218
Si	2.5833547287265293	6.457792651006136	8.242959414720238	14	-1.6997921799611853	1.4882907423310159	0.5531591685505984
Si	2.220855004529985	2.596870726408735	8.00329201128392	14	-2.568220539978873	0.6605658077471243	-0.013348150380080767
H	3.408363675170778	3.401822243260491	8.198579852897646	1	1.0103880836116839	0.6513764202223831	0.22411116656230337
H	4.208872793441694	4.435290743110657	10.392169636137725	1	0.10398861178392108	0.3559965281803631	-0.7962366077280381
H	6.890593332744472	9.269408924812677	6.231852259184613	1	0.6103770605662378	-0.5067805423436392	0.08983853365448613
H	7.2385108835994085	5.149728388877798	2.1606049737773425	1	0.7282545261790667	-1.0686922676250858	-0.6645579629777182
H	10.304487794148395	0.47201706581034736	3.7518610394377787	1	-1.1158784780131032	-0.7151133497772579	0.09370753294024495
H	6.5705185149949505	11.029020790690495	3.3110418282610254	1	-0.33806975344616264	0.15929771520988253	-0.5174136055056437
H	4.473528688895237	6.611221991991897	6.288870444969694	1	-0.052286769122127374	0.08242320880064705	-0.04816040219382172
H	6.013175189042764	6.683222166990862	10.496710380741343	1	-0.17466392615574752	0.1292350662540511	-0.2109136829539833
