231
config_type=amorph sigma="0.01 0.1 1.1305415757927497 0" dft_energy=-23326.69175265361 dft_virial="46.60287782095921 4.836719018410217 -15.616384944249349 4.836719018410217 24.922426127417584 -5.034548093453706 -15.616384944249347 -5.034548093453706 61.85186591155636" pbc="T T T" Lattice="16.3502463575 0.0 0.0 0.15550719310618252 16.504478231390298 0.0 0.101796633821795 0.0621309361585 16.294851722840793" Properties=species:S:1:pos:R:3:Z:I:1:dft_force:R:3
Si	7.764378829855429	3.4740251349083557	14.80916860229556	14	-0.5544408645526923	0.21435305054074538	-1.2607620625771716
Si	7.147985987350129	14.447659750257328	14.533281085357647	14	-0.023378289344510438	0.7396077559412445	-0.5016352463769589
Si	11.802632981290115	2.821203943518546	13.154670823133777	14	0.6751313764962952	-0.8789182126133599	0.5039674960128652
Si	10.212035234942714	3.155656407884387	3.2208726355305477	14	0.0828304718833585	0.19853149684268212	1.263597734634763
Si	1.907413199967407	12.837315811383975	10.7750363479676	14	-0.6700989520531695	-1.0337419474556528	-1.262191854245706
Si	1.1182146037096898	12.927816059997374	16.12307112953499	14	0.067316679492117	-0.8182704661006431	0.3979284277361261
Si	6.714155090598767	14.488458519993198	5.792885744363708	14	-0.5163172861971326	0.11558532521991698	0.6404595070330343
Si	1.407090756354	5.086622137729773	6.7206494084519655	14	0.4466408462421836	-0.37480082116033014	-1.0742695092855508
Si	15.388810996063109	15.383780025258904	11.079276827114052	14	-1.1780979412080268	-0.7932225009612285	0.42704928081318727
Si	5.401380730358006	11.88404412795338	3.8684143323715205	14	0.30852801042819317	-0.8088468508812363	-0.1490377194298316
Si	16.45189910915385	5.298200865694366	8.619112483563278	14	0.10003836557004556	-1.6621023470731342	0.04915413440005896
Si	0.1717004770986505	8.728085240511378	13.646499313764464	14	-0.25496674439886846	-0.1399547756653445	0.4125065949013657
Si	9.897453224975145	2.47069553722964	11.98054491697998	14	-0.05457608129918723	-1.3822506456121488	-0.2780730108005072
Si	14.088282970344114	12.144693215286104	5.494819118241847	14	-1.3565365070842836	-0.7369888280621417	-0.4154322556451622
Si	13.194936574838394	5.421942800177198	3.196545103975223	14	-0.46638179289028053	-0.3039797251168513	-0.5230227288720787
Si	4.358313493932021	11.233835705931499	0.29752216291815603	14	1.1444622271887857	0.14636788366538983	-1.3303107185977092
Si	1.1294243326123918	9.729702967396465	4.406518925267839	14	0.45141616015329467	-1.0118723827130054	-0.587080275260376
Si	16.048803405505318	6.2861792170680255	5.433584175583738	14	0.7548677802373874	0.4353701489607825	0.35934693552304803
Si	4.707185240560542	1.128186618963129	3.932289839816366	14	0.5349783686107673	-0.24280541623456803	-0.6853576907966521
Si	11.022256977966906	5.461193201583012	6.3706511298494135	14	0.2895931052979627	1.0020831563170733	-0.5256275156719207
Si	13.200387746973984	8.476141024339391	6.0959359255753345	14	-0.5462428952394001	-1.4169384559283946	0.7408398296106595
Si	10.524035541010436	5.923849582662647	13.111538873242694	14	-0.24777716259213833	-0.10648464082872082	-0.8064891473026604
Si	8.79284366125953	16.147681520352297	14.10335789748573	14	-0.5342923977113518	0.5904131990868839	-0.8783723669538925
Si	7.444514055289749	4.014984480818693	5.629545148227646	14	-0.428138915247866	-0.19396212846771496	1.071996395072008
Si	14.400786863999647	13.47838935076592	1.7765458281219773	14	-1.2870233323171643	-0.08308989641016143	0.13865148237856145
Si	12.166543684518265	15.986762395701785	12.553294046883206	14	-0.25890799174412343	-1.2278948519381228	0.46367570454082474
Si	9.904982513422773	15.25398032450062	12.25449492972453	14	0.5667235488881035	1.1216269552878904	-0.525078584686069
Si	13.661484314551112	2.8875434330894665	11.702245738704338	14	0.03487601522568064	-0.4349163488717763	1.4222974107471793
Si	15.839078795477665	7.372532095700855	9.116269519481873	14	-1.150025841991054	0.692300960713712	-0.5425703284001006
Si	9.72557616521583	13.053384316998336	12.60853335420202	14	0.7322050295034742	-0.37303704291070855	-0.46760769590692713
Si	12.084239814403881	6.917452418783286	4.622360162457832	14	-0.21017089062699248	-0.07910931115350818	0.28226699779873277
Si	9.233589077195479	2.50746233621375	16.23490354457102	14	0.7212696043558204	-0.7141530419401826	0.7119274931750624
Si	9.320914107966251	5.781180602996374	0.3961746443654038	14	0.5846621507067769	0.8703667163185475	-0.8339904611385605
Si	16.088922004992714	8.356473571248847	15.894308292648663	14	0.36854249370055764	-0.21644567316081387	-0.40592790771870285
Si	8.851490359919246	10.855834360392455	9.679028648860665	14	0.8041077895551394	-0.18129557810800545	-0.8035897118331297
Si	2.6509766236167063	5.023838826741609	13.941418517462505	14	0.7054336524679644	1.063417645060802	0.3781190896865132
Si	10.585536992684174	1.3294957571905763	9.955128719001225	14	-0.4787565227961532	0.12261755538105398	0.6730570087239998
Si	12.528193148675172	14.99227174120393	2.489104279603549	14	0.17556766967577958	-0.4333384615368015	-0.4967848561904996
Si	1.8735780001551967	16.469001466843793	14.56929250296004	14	-1.2517770779253823	-1.0759422704068393	-0.9621376927316567
Si	6.093063187290322	11.03260014381266	1.8225145457560885	14	0.17253222273481275	0.2994237264895489	-0.14910662505241157
Si	9.875231605150665	16.11470797852313	4.679213239092131	14	-0.04990952514311847	0.8475748960975628	0.37595421900694853
Si	11.968941147140063	9.82704088903657	11.821100584550912	14	-0.8791624676187741	0.11848784601583215	-0.7995499911541128
Si	9.08721349667996	10.179714067943209	15.943746532559835	14	0.5384948693571338	0.14794140012132045	0.2235388385180384
Si	1.1866518298882776	15.40978836213978	6.147525857907154	14	0.4457211618691666	-0.529782164758748	-0.2774849990137893
Si	5.07220449049173	0.3192074946621083	12.025274285940194	14	0.02800036537854064	0.0008770040247025097	0.15820499544881958
Si	12.982082527657916	0.660281808802737	3.0687761038145394	14	0.5574909667939838	-0.6218719582315557	0.8669916263647891
Si	1.1223201505700582	5.717869179050862	12.331439189082923	14	-1.133896012765105	-0.03211541944343764	-0.5670909598383527
Si	4.102871960064164	15.12536765162789	8.740933264099104	14	-0.14628663673727316	0.7338996450199838	-2.066604834002347
Si	0.9296226870991061	8.865150990750939	9.97890197720503	14	1.3037851392308055	0.2873145917632475	0.24301470420762805
Si	6.4444659520549825	3.6486997218194355	9.51233134714741	14	-0.3947266302809457	0.24906451502593652	-0.11356083689083236
Si	10.266772589698354	0.3947652531293873	15.642895459483293	14	-1.0177458157063517	0.33194075258399364	0.3208361487062741
Si	0.47062058608037277	4.63799590304951	0.9758481036010301	14	-0.8274457125461235	0.8559165901982512	0.3698732978142663
Si	1.3716188968814036	2.8699162324914456	5.56345418240136	14	0.11722337641938331	0.7759948097635763	-0.056487955215249346
Si	14.17669856254693	1.4405744258695241	15.42174202725175	14	0.5732865523283136	-0.26801973188819617	-0.9637806290312316
Si	10.546664281969218	6.720410694855146	8.325398293021783	14	0.08468089638226907	-0.224764998645217	-0.4325391048927675
Si	3.251676499668078	8.754533399019271	4.981939685425879	14	-0.19073179174348093	-0.39658039721677246	-1.3956962408838631
Si	7.118665090557224	0.9536313888504591	7.4849743749260185	14	0.39880851708721277	-0.0527559958430544	0.59388624815334
Si	6.268499695681661	7.752459500260811	1.0195964577797927	14	0.07047039727781064	-0.3369811474536119	0.18097033328500672
Si	9.227003197962677	10.496280997818582	5.327520127462635	14	-0.4924983094007488	-0.18637273978370186	0.22742249310412208
Si	15.906453255643015	2.7143959591881774	1.9662838970022216	14	1.3709665785830827	0.3724678001928277	0.8639114421912516
Si	15.246583473048487	6.964611434352223	12.771285341469211	14	1.168548598938465	-0.521307030291944	-0.5325533020728036
Si	0.8011228309262421	4.096516619305003	10.603564774317952	14	0.9584468710445841	0.7524715100790096	-0.22805447079181446
Si	7.759024124173347	5.162874781667245	10.561003448024746	14	0.5252313083420859	1.3750788044321276	-0.28334531937000285
Si	13.008357373554418	13.942688931604485	13.619938338556704	14	-0.046553718479261194	0.7452873275934516	-0.13199874736267828
Si	2.9607091505146435	9.736292116678538	1.1737531205368457	14	-0.49809252035632695	-1.863111618112843	0.35417875671901844
Si	2.518869903097378	1.4775243476128386	15.972866321322543	14	1.5769514526383424	0.5352557908748112	1.2657867737043371
Si	7.295074438606835	13.29312797933836	3.980539416817348	14	0.09352189913613025	0.6100638999382437	-1.2510437986880758
Si	13.704560673604583	0.5671524405750529	6.876133711213248	14	1.0309785234575575	1.1772705595160031	0.7531327983673516
Si	14.037454959492553	14.938925792413317	7.5618548683236195	14	-0.10385774252312553	-0.4557078491536858	-0.5409351054164864
Si	10.743607904419212	8.256073248465984	12.988691297235617	14	-0.8090116587322578	-0.25784098303626196	0.7799090605029697
Si	3.465711034635567	10.800035874648216	12.974108512509362	14	2.0674250165994743	0.19418092953045954	0.03488887075228137
Si	9.340052071327703	14.338683723259955	8.399605521139932	14	0.6887078410288051	-0.7253831157575255	-0.8219800568565527
Si	2.3001641027455504	16.43704981541197	10.340044583724854	14	-0.34327572749839846	-0.9176591133562871	0.07170838448946194
Si	0.9142011347347121	1.154924176831549	7.073970057114362	14	1.151738455244805	0.0035118727567902608	0.6845794172162434
Si	15.253051630507512	6.176939951104297	16.265928137034376	14	1.0505919432817754	-0.2931301748868904	0.03448546432755014
Si	14.52882564322523	8.47417899477649	2.4338813225310925	14	-0.277184179691332	-1.5321134327392159	0.2444558087395711
Si	3.617148651423368	8.324404198043247	7.144755178669887	14	-0.6654105415018794	-0.7301833693902419	1.2883232831670313
Si	15.90694703308301	16.069690845227022	15.166336463925877	14	0.02414370739831852	0.0029287460701806767	-0.5899570850030896
Si	4.2464532834771855	13.086923577351477	7.49651110875587	14	0.3726534339969424	0.13232167819088886	0.7624869937431142
Si	12.510132666548678	13.723307866078091	6.181452619098966	14	0.5066069927345292	0.3346093027957753	-1.3442612789543007
Si	5.635625804848002	9.167328068807073	7.730994896842685	14	0.060752647609778956	-0.4193297941999746	-0.1275651333486149
Si	7.502559064883509	5.829981183299604	1.8496772100298031	14	-0.18478611069063847	0.7074817949659944	-0.29412904930376793
Si	12.154282634774775	4.8231509978757465	14.320095128176114	14	-0.8090409693329075	-0.2718272817568035	0.2498628432278425
Si	6.5260863818716235	12.697254696011722	7.419014211070592	14	-0.9401735113132279	0.5937921456986226	-1.6305975651432316
Si	12.52435084078116	0.18321268555896628	10.409641042370188	14	0.26068951062045403	-0.3200231652040432	-0.02729022608911574
Si	10.173433938317293	10.576622838370065	7.582107918486654	14	-0.007928774586272646	0.09179308791886268	0.10920589869956555
Si	15.398563918015357	14.533828818610624	13.372761854222563	14	-0.9675760947048342	0.49224634107937415	0.44608445905090355
Si	16.14848104739918	14.619644721642599	0.7299240481378726	14	0.22059466581593684	0.7018186783878362	0.0035216429570068242
Si	5.091909807401789	16.149856103117845	2.050039668993151	14	0.1719146432369132	0.5482635269105044	-0.5162843760490347
Si	10.726103330668874	11.656803499002939	10.992587820926587	14	-0.21480479374549538	-0.19227368360397373	0.2728233279578289
Si	5.4976133753443435	8.103770703645871	15.135815459050331	14	0.13077387278815972	-0.2518906739938433	0.22215866918218288
Si	5.226171490391035	15.759973033550809	14.163093522552854	14	0.48391261740517827	0.3049328338590302	0.05479642502512392
Si	1.6484318377631502	1.5578890785092223	1.9220761009008132	14	-0.5780425829495235	-0.05426240645012917	-0.016454045606819644
Si	3.303251716778176	14.605622750366408	2.1039104606918424	14	-0.6487937449282943	0.04149635431452992	0.48867687556341266
Si	4.768869814993482	4.333389178384649	13.079698403486097	14	-0.7950011916217069	-0.7312763462618369	0.11502970936023298
Si	10.931181200681724	4.151803342338254	16.26951374606057	14	0.6047355412727687	-0.1026436665909516	0.9123562086334818
Si	4.768480679130174	0.7930425391763656	7.696938968704648	14	-0.6009279914041615	-1.787471499367811	-0.7546142692528209
Si	0.747853728293507	14.61044607304187	9.806616161286781	14	0.6943892124547363	0.491322028716781	-0.22188510357611915
Si	14.700078123573686	1.1219326497313855	10.472945926217157	14	0.6363670786949547	0.043276073417136414	-0.05745340526296494
Si	15.470625993811401	13.06788698551744	3.901361713806519	14	-0.1367185253988741	0.23072302100359612	-0.5598232164298902
Si	5.4000383751320555	10.380468932819136	14.578532027176665	14	-2.333235140575535	-0.1557555034103145	0.38146744014494205
Si	2.386915239869174	12.824493948190423	13.026821706765944	14	-0.14612285732837973	0.54652108883504	0.243343034357011
Si	0.339130269848722	9.996996794848876	6.4987945506516835	14	-0.5850516731627792	0.5294569199357493	1.324194830372673
Si	12.47904267309989	12.594410011398413	9.664395178370702	14	-0.7962142391117528	-1.2972871847551952	0.047572647517635874
Si	14.434010564598088	11.177746185802095	9.460252542449501	14	-0.527872861948006	-0.7885204635517418	-0.13930171491402688
Si	9.89763961778362	4.5407348275672845	11.252720240474412	14	-0.31294259826288745	1.8877541199432704	-0.033719017831614
Si	1.0793533381671838	11.041066301376574	1.3979575087387004	14	-0.2831933670455821	0.7183765966495899	-0.3419549506954384
Si	1.1106051990549093	11.874041047231861	3.513283711437349	14	0.3670394255303991	-0.01815894554460984	0.04047202595498293
Si	13.452212606347564	14.562090219439563	9.720434012736398	14	0.5411271669839014	1.9003839034969021	1.3398816581519606
Si	6.135044079837839	3.974491460689709	2.1511152569505807	14	0.46084003248323335	-0.24407040005208092	-0.4683777419503115
Si	12.111395938579054	3.6340760614772876	2.005537568457308	14	0.1053155592396495	0.6723342710185061	-0.9322347094162067
Si	15.335971904909574	11.83652050189067	7.34739686197547	14	1.0946635166849654	-0.3672600263668678	0.13168404407149215
Si	13.374351098168512	6.632300852259214	1.2317866849581565	14	-0.18453388525873196	0.80793873648216	1.0899136567165242
Si	11.33602638069051	8.380451207532122	2.841236265355755	14	-0.6745703613154389	-0.46541839972682114	0.5806370853280849
Si	9.429399627572899	15.90589734726686	10.022604550693991	14	1.6198619148789537	-0.20067785556394174	1.2200367827481544
Si	3.345373221444367	13.333759976561383	0.16147993810057726	14	-0.4898585555685527	-0.07843336756484126	0.09806915600534415
Si	4.214553952833703	4.494259252296091	0.7376152040244406	14	-0.8882978619317922	-0.05557469860553275	-0.6231130307695912
Si	0.24645543846977627	12.612024131799346	13.907998613907777	14	0.6303200960924983	-0.05762361243515875	0.5986507634221063
Si	12.808320284493584	10.182366077902396	4.738868747952106	14	0.9132869487593753	2.560170152110957	-0.09505247813321441
Si	13.433453968701604	11.319893592609565	0.809461456568567	14	0.9815024866714162	-0.06368679300113195	0.8539435239755696
Si	8.433322999178369	8.802428175674295	12.821474057688192	14	-0.3122136899046255	-0.5622287425674207	-0.6304566217849982
Si	16.194225766658196	15.272106207612545	4.212088335682992	14	0.9355969438433643	0.3275284787440875	0.26412527865976787
Si	14.526037926221276	4.6270706684334275	4.867517391366823	14	0.4587301834575199	-0.7684401310013852	-0.4928551788191852
Si	2.010060046599792	9.789479468079485	8.098834564270541	14	0.8185430032645787	0.14731250776001226	0.8234113911882791
Si	11.64591096487957	8.706303442313917	7.91181881140882	14	0.40330358051842763	0.570029218998218	-0.1786679084708141
Si	7.152892696282015	15.027671659592555	2.0942474650945595	14	-0.41638973526638534	-0.8104267951004674	1.2567879050838189
Si	10.965408806406515	8.79469777919647	15.300555636274595	14	-0.790522583264541	1.6164428590242208	-0.9366130446658869
Si	5.420178608595223	3.650154893745253	15.218626186801798	14	1.127833346420196	0.38920929537443993	-0.5282356449086789
Si	4.789077084466716	15.98334355918843	5.56532792063393	14	0.45738575248561447	-0.2929471121880959	1.2095428163839697
Si	9.171147486356187	8.903276495207356	3.489428702001757	14	-0.30083603464190617	0.1909724472014468	-0.05260712884501783
Si	5.568370701481061	8.936832105806854	10.048594902303872	14	1.187930105062805	0.7213760481160746	-0.5163993044568453
Si	13.847973589480123	2.0208299538754777	1.3651540094716481	14	-1.0837769425383945	0.20113834052678026	0.007107563547017349
Si	4.573273452843345	8.402306581838191	2.534860444035013	14	-0.24364462501106438	0.4320421102343828	-0.7883744247695572
Si	7.69732319949405	12.874213412338944	9.336167252793162	14	0.10620721856467684	-0.18550036374857565	0.5470445658782223
Si	3.2343795740464785	12.905337741305082	3.824239236762827	14	0.15223566022703178	0.3437935481098763	-0.8156132287522699
Si	2.3599569536749283	7.4374899894545665	11.401067660700646	14	-0.017080109752275703	0.8070216232144632	-0.850026187909792
Si	2.4935417364649743	8.807696225050684	13.216347222443538	14	-0.7246909742053416	-1.2680881700764017	0.6477889569691804
Si	2.135664274142743	3.747666127996747	15.855917914201253	14	1.1266917756580501	0.6364244143435939	-0.1770949062359475
Si	6.948925007996838	7.102277238633102	13.611823711289476	14	0.7772790768709902	1.44481823646742	1.2906732734296462
Si	4.2504116781203365	4.570126030419527	3.334300834611068	14	-0.2600955852914998	0.538393310696988	1.4045714393384823
Si	12.960071826011449	4.068727740595796	6.453218238930153	14	-0.16365342473274538	0.9559248738360512	-0.21851669849619315
Si	8.5662439619663	5.685745850032282	14.360342894609737	14	0.495540955436612	-0.48498913920272424	1.4444477401907867
Si	15.442013062685778	9.9729962682207	1.0909832684012737	14	-0.53068333717346	0.8444445753702826	-0.8200473569873974
Si	4.566499545777433	7.0274912117938975	10.632261091700002	14	-1.642199420789868	-1.55562490533931	-0.21880466229204973
Si	16.370836222738003	2.508332169319969	12.064447841188127	14	-0.06475714414590959	-0.9147709907501648	-0.07508475999588039
Si	6.089507008707565	5.983552507237058	11.95771670301564	14	-0.23047825177711806	-1.2277953501622332	-0.3453966322769886
Si	7.544497446790498	10.507735980416646	14.0896040702498	14	1.4938070487953936	1.6987665660489781	-0.17986218689202288
Si	11.284650636585974	4.8336135205199104	9.418945280051913	14	-0.5863135716539079	-0.7805844898705726	0.1848192779492684
Si	2.9302617217477067	2.6701620026925967	3.7448996663130583	14	-0.3851145530415721	-0.6970276807342722	-0.08308269731526502
Si	8.373963429777467	6.732552387800226	3.808433453609032	14	-0.1652706499791185	-0.040902428985575716	0.03840125773013567
Si	7.896058808944826	1.8443764601607016	12.978962900652904	14	0.46254056154197937	-0.2744505805149506	1.238353594159421
Si	3.2452508528495803	14.190189150816504	5.697282583862133	14	-0.498893933884617	0.955592429918156	0.48326161353811675
Si	13.470300883892865	10.893822522779471	13.106259378693856	14	0.061230873199326505	0.7568398180179411	0.130639661090448
Si	4.494829875893968	4.957806721802209	9.206168079029315	14	-0.27321130775063923	0.8650591836061658	-0.6255841200927856
Si	5.259104156604312	5.278909210017152	5.493939474987813	14	0.03549925115528453	-0.3433934841220612	-0.6419016400071054
Si	7.990213337619125	3.0630240871459713	7.941362071552187	14	0.39250519528433775	-0.24263443773077814	-1.9759461177507338
Si	16.496610492843068	11.000046803314879	10.717058374383903	14	-0.23240760920935719	0.3324210350577973	0.3454812216420215
Si	14.396666601917557	5.425629780730814	14.29804845598766	14	0.1504788239617746	-0.36183242303603524	-0.4264502132735927
Si	16.41432460799968	7.617584683033158	3.499938640360358	14	0.07664284981989014	0.6091776399343887	0.5292237206832119
Si	11.952986576744415	2.0486335478064066	6.536370686830491	14	-0.32572099170402347	-0.3114359305452807	0.7366494421598823
Si	4.82157646915152	14.803928348337983	10.849699747959122	14	-0.34568048230433296	0.2652537367847809	1.147337494268307
Si	7.840190017141249	9.450022193303614	1.5203472778477667	14	-0.3563089174767611	-0.14733924725534178	0.4674007219286553
Si	9.026915423138137	16.277540081997472	2.531698306389472	14	-1.1741011579878566	1.554098954331802	0.6700449588414463
Si	15.391687004397392	8.076815687500897	6.844929266039959	14	-0.11320756701984402	-0.32920792473920824	0.4998673543588252
Si	16.265391848953847	14.132193191961816	7.559197953290526	14	-0.3879288849250062	-0.5459019666739484	0.8218566438011856
Si	1.8994669802376623	1.036862317933313	12.417915642067742	14	-0.30443635342170955	0.21937930433110284	0.33536109399138664
Si	7.000799434615278	7.319807456271826	7.252480411820912	14	-0.6425480158845907	-0.11210327728484043	0.6149384585147124
Si	15.709820287873812	10.707101074352186	12.92266573239476	14	0.4380471838201207	0.6947270556938038	-0.3821400412966928
Si	4.896017505792581	0.7137961651308345	16.03921889109055	14	-1.286327334107	-0.3221093600608114	0.6185513757105846
Si	14.699742943523358	0.5627869247976003	4.76220381955353	14	-0.6800092775096801	0.530042103506615	-0.7286774730042311
Si	11.187487662581894	7.464034614415968	0.770201245014938	14	-0.5867180065207671	-2.215840014320766	0.43601523928560765
Si	15.347171823664462	1.8645412189934065	8.272179876152757	14	-1.1581551627922981	-0.7157291295014334	-0.3982462163536964
Si	6.6394589901145284	1.8636092549510288	11.027866747492165	14	-0.3231064347039648	-0.1810479806656752	0.7370294515262001
Si	11.257455271819543	1.44483857011956	4.486803539957071	14	-1.2151848498985027	-0.27544971204236013	-0.8523900621411362
Si	1.508591450716724	6.51058798334935	2.0908417087782922	14	-0.1351005288209049	-0.40964032669046463	0.07329604202465338
Si	12.684893909765453	10.330494404827437	15.12869492676164	14	0.8485740276249724	-0.4151710313446352	0.4292594029463865
Si	11.985935593204049	10.52296132982475	2.6109561256074536	14	0.5249968235368885	0.8321642050296593	-1.2409948906548094
Si	3.3013289278065336	14.502814036295083	14.489024238517167	14	-0.2087891786279449	0.613454416523923	-0.8358593975957761
Si	6.64920700699287	2.5530026773932946	3.967161645247642	14	0.2592949430948057	-0.6334614725726553	-0.5330371840940555
Si	10.930126609791664	12.929903986457225	14.57976974082593	14	0.5006607974606229	1.6696310576715918	-0.14476711349306565
Si	7.712689161020828	13.72981362910374	0.30336247091705504	14	-0.47955202278220704	-1.01240511573534	0.2644530945880868
Si	10.022002861628037	11.43471973775365	1.758719154518395	14	-0.34682950927190714	0.7043602159968025	-0.05934805277338206
Si	1.8191382198832646	7.783878133661384	0.22137743060664278	14	0.465469050501628	1.134230770677788	0.2607386187320689
Si	14.172965801303514	7.011745924551625	10.69708164338431	14	-0.8401194620007294	-0.233967241696559	-0.7975442718938655
Si	8.355901312626335	2.242771467981454	2.2409009997981557	14	0.2313832808498102	-1.5235315974016257	-0.1845451981221406
Si	15.756756940092288	2.637029863473759	4.314355856599883	14	-0.2542866870416893	0.5824790251794391	0.05203197258490071
Si	2.700857955204167	1.4661527512711972	8.718299618066416	14	0.12071030945456812	0.5317166644016275	-0.7390272003599553
Si	10.044917731898071	13.374028998315268	0.39478814347428776	14	-0.5899552852293656	-0.7569879136843816	0.1570302574280439
Si	12.135033489738092	0.8575524361798819	14.44593970434052	14	0.47133322751582174	0.4929796203166804	-0.7741909222709604
Si	3.0637385929117937	3.3773919088862594	10.06031148884366	14	-0.9931053707601805	-0.5468987842065698	0.4600794995295336
Si	6.134213487322877	12.803899177878517	11.144309932001008	14	0.22478376771405406	-0.27515429204107505	-0.2853070727292758
Si	6.9218849705708045	10.62654831562269	6.478425413739511	14	0.14797276760622627	0.34082546412829734	-1.426063051599068
Si	11.181678420051073	12.754305610626947	7.673082324244421	14	-0.9120921561171026	-0.4631571125977509	1.3973713159999397
Si	1.1617847402031558	15.851181247831486	2.3285186999787273	14	0.2834813308414387	-1.0889680041797736	-0.07406377407324959
Si	9.538475391073053	12.3724668622678	3.9871547264935927	14	-0.3503722352925392	0.5007613276786406	-0.7598395265949579
Si	3.3595766804551275	7.295699018017691	14.838092188101978	14	-0.6457822092668049	-0.8800317583275162	-0.6573192730593733
Si	3.356687591923757	11.715718341702917	9.155181470788087	14	-1.3960104299539853	-0.6494354928162033	0.005143239082424217
Si	13.383381339231759	4.585068520565646	10.266767684624448	14	0.921681864740191	1.7261596363508995	-0.9518195899713706
Si	3.346251229673765	6.686686676718167	3.4969400051783923	14	-0.4030225587069355	0.5415105187871354	0.33317205492181257
Si	4.670887693646892	10.780605241876962	10.908115908145199	14	-0.45464006911422833	2.0635102516390167	0.3227467370696761
Si	8.487448854720236	15.66896102222642	6.533795523029184	14	0.4157667564473134	0.3762383261448249	0.4232720699873577
Si	10.585339154703247	15.411668640470893	1.1863984010697364	14	1.4264538596077303	0.24325381700240184	-0.45124415320737676
Si	14.4653899574074	4.0691822774445345	8.174214105052524	14	0.692525675318693	0.13448474909672944	1.3002879217743402
Si	7.248294748753391	0.14032435433860801	9.70148244218342	14	-0.956741971106794	0.28990832281021284	-0.9722935587462418
Si	6.432656169110961	7.23716186600857	4.973465352738787	14	0.4242961412363727	-0.12648784021947287	0.13526842199831057
Si	12.858827830516537	9.058530259494997	9.860910424366132	14	1.9182073197972322	-0.15877526660882843	0.14562174890148288
Si	8.398233735470539	7.109669185011327	9.113205483314477	14	-0.1729672537549818	-0.9527220479387425	0.30479579394546624
Si	14.960957749380048	3.206670811544423	13.761979468762851	14	-0.09292823091770806	-0.2880666400693908	0.33080046737450797
Si	7.543518067033683	12.69490516561015	13.040997370357895	14	-0.48007061472528095	-0.6631672521100501	0.2976522349239668
Si	3.6448099982109863	5.9192012076232094	7.09163322825437	14	-0.28175869027693945	-0.46448868804305554	0.43306309615701366
Si	10.455668620891187	2.8568736409720676	8.246416792967244	14	-0.348390427311769	0.4133817991523441	-0.23129714882158522
Si	7.794872039312166	8.855075968945446	10.539574815148605	14	1.2806086816539268	0.83957078812541	0.07366293875383852
Si	9.469093120655	4.891656895089036	4.777747998765605	14	-0.28590228361089015	-0.4310180389853679	-0.5671184706652784
Si	3.8623925366380534	2.3488436912257353	12.093387777240903	14	-0.4267942271654286	0.33212535794598025	-0.44702882603499394
Si	11.13214044363712	14.28658039319251	4.269837405817682	14	0.7132302722407814	-1.0679247926870215	0.5246913762248548
Si	5.5221240296588725	9.39076563045476	4.501680629117761	14	-0.4856350008591454	0.925070581552146	-0.15655177472796436
H	6.1053405872801685	6.1928536458840515	7.721446352969905	1	-0.2736671647239014	-0.21568436887551803	0.14500288385092322
H	4.012903094457384	6.007062526474507	0.3401423500982513	1	0.4274519159063224	-0.5745646487829593	0.34834800407398653
H	11.094709824650897	11.493886374247538	14.62863899216386	1	0.21573707653458105	-1.1776282002660357	0.22975731384534856
H	14.005235164020464	9.315111405533973	3.657949056183873	1	-0.22650486561536123	0.3096220157419162	0.44560674768242003
H	4.355435850573102	7.79067329604756	9.151008887917653	1	-0.1814547295273226	-0.07608774818127016	-0.4496109871080187
H	3.576338436515048	14.525539243707373	11.653181919434752	1	-0.1915249777347466	-0.23301953227555242	0.14404797533502023
H	13.071596856415956	12.598332435499575	12.723509921612596	1	0.08065557389304524	-0.5453049560186101	-0.45059006401393104
H	8.855952342150207	7.940570719628484	6.035059053312454	1	0.5789558395592401	0.11668550118640833	0.36625600973934996
H	6.216862347635405	15.670916511690777	9.769676049691281	1	0.6166274175995178	-0.30843519352613585	-0.0871226751048137
H	13.74277119934206	9.150712948458581	14.667712810909014	1	-0.2083497767287316	0.2934667325732978	0.4809427336498751
H	2.6645914737585965	15.164209296874766	8.011104047390104	1	0.4398904092241348	0.24720020655829714	0.6750329031625335
H	5.713135782730365	2.031488679475932	15.632905458958861	1	0.1658905434718062	-0.12004362184505372	0.1321018486860162
H	7.730731657876329	9.960748298674298	7.514875705464614	1	0.7661814149776351	-0.292099675874575	1.0316161575769545
H	9.462320848613725	8.178331097085342	6.501744135094578	1	-0.28448380480576446	-0.20009472887733215	-0.40587545717017176
H	6.801936293242913	12.345011528584285	0.5776934444017331	1	0.4527467071564713	0.3761071997734973	0.20911776588785985
