236
config_type=amorph sigma="0.01 0.1 1.1456982553613548 0" dft_energy=-23397.456270424704 dft_virial="41.11671057516277 -0.23423722751787057 -23.811425749058014 -0.23423722751787057 54.47630968945787 -1.6033134366309418 -23.811425749058014 -1.6033134366309418 58.81777554431494" pbc="T T T" Lattice="16.340456583 0.0 0.0 0.08532986427642601 16.528061365029426 0.0 0.14668827874559104 -0.063629737934202 16.286336990797107" Properties=species:S:1:pos:R:3:Z:I:1:dft_force:R:3
Si	7.76515817708138	3.5427417108470642	14.742252082169154	14	-0.09582098151340666	1.1313048528234597	1.4594709656869442
Si	6.98280652870919	14.470065828774805	14.02993726475736	14	0.035222343112304585	0.4825879839442379	-0.32042785718143457
Si	12.202981078175435	2.747727842668707	13.079074657872981	14	-0.610503816058521	1.3375344961051974	-0.3908290917261332
Si	10.175859200588738	3.018615029764706	3.5505704235959796	14	0.23835971802549996	-0.8055962024249731	-1.0657028434693496
Si	1.3582922832335838	12.283356516015896	10.492200635761668	14	1.7379964910237973	-0.018154574665565585	-0.07272551375411251
Si	0.637969008050461	12.966287924400142	0.10901535609348452	14	-1.4786652953439776	-0.8386570172946293	-0.8931842475927337
Si	7.002330106234559	14.514590304872163	5.637616023563855	14	-0.19631443272511842	-1.019851550963553	0.06972117718751948
Si	1.6380719468020513	4.870567212781644	6.520253956122892	14	0.018679594371939827	0.8077255918511198	0.15995823216662858
Si	15.251508947760982	14.182682950758268	11.23184486680853	14	-0.08677120500754945	-0.4310607193336823	-0.6725805829081762
Si	4.997122414971321	12.125834514555777	3.39203858191903	14	0.3156877674132096	0.8086709872773381	-0.31156602847448017
Si	0.5610250660924306	5.261774083835247	8.634418177835915	14	0.2124578888092642	-1.6686008157698085	-1.445284120751431
Si	16.462322074150357	8.333953130279028	13.501607818241853	14	0.489984796839772	1.5905819103825751	0.4137600087449379
Si	10.107051171963382	2.6433204953316287	12.008817236873597	14	1.109605752363538	-0.3638026610428647	-0.43342407934396243
Si	14.186594856064238	12.064515317182412	5.410176476476396	14	-0.47876680721743387	0.6637938304765701	0.11104243922974731
Si	13.251781845635684	5.144178353990029	3.083900055950766	14	-0.9439178119909596	0.34458750543273803	-0.5152050260356364
Si	4.165716715936965	11.352520772719643	0.19369813828922372	14	-1.0040927322353013	-0.020906942910784106	-0.9339882032445476
Si	1.0897254409723707	10.277470695804466	4.8635914718663615	14	0.09828975684181286	0.16949549024118582	-0.9000534696765733
Si	0.12823826921772571	6.5380879304375785	5.4575866772063115	14	0.143488759927888	-1.538870297520565	1.1003490018794089
Si	4.800340832524885	0.8610848703260596	3.794441933823305	14	-0.3915163481782088	1.0302498722098277	-1.7636023860176842
Si	10.99511086801666	5.906449215267371	6.101077125536168	14	0.13940661601108892	-0.9795461326333155	-0.9924687650829118
Si	13.48453040706696	8.632061883996647	6.366934720095919	14	-0.7020143395026995	0.32151132096334495	1.3626202564928183
Si	10.634012922262892	6.053235536752461	13.097657025099169	14	0.9081807335935613	-1.1945568719149549	0.32158716857028935
Si	8.589097921502965	16.439795120705032	14.043063553530482	14	0.440205369625853	-0.5242833418105474	-0.8014551801963427
Si	7.381724461224311	3.7436966459047984	5.666621968044339	14	0.4480559826103931	-0.7694120088124012	0.738970121821848
Si	13.79573113459888	13.703881428145836	1.8533215132785938	14	0.6157558128959875	-1.0518684970732288	-0.26381726024241414
Si	12.33040395860967	15.930538255113206	12.590581610461172	14	0.22840979754705892	1.024523506440794	0.09875666956795175
Si	10.007498574277113	15.336172121408822	12.413207588298365	14	0.9244560873806308	-0.5381120317749637	-0.26662979235212414
Si	13.706981212759631	2.7256812986469234	11.268083097372648	14	0.37662322061125103	-0.12041411812168708	0.3956046627477763
Si	15.947744755895103	7.169649845461845	9.093692854831662	14	-1.202509814891237	0.519969541304403	0.5819185242196467
Si	9.965913746319037	12.954516259477748	12.365341488829783	14	1.0467411988437896	0.31876460914983074	0.5293378777594264
Si	12.121130097105532	7.578903116765714	4.8965714153878315	14	-0.47514463404240925	-1.229152636660739	-1.0619713983182186
Si	8.989942393849221	2.7596906909331214	0.17351440631790213	14	0.26345550572386933	-0.23060886392738159	-0.2764053918898592
Si	9.579857387180395	6.169094276062906	0.24285513382786264	14	-0.4983604295306864	-0.18407057208004127	0.15846313442296245
Si	16.477136332088506	8.00797736190476	15.817834857968936	14	-0.06745423362674492	0.4210591196383063	0.30900623601774074
Si	8.963617918294009	10.67904722060564	9.323590006589205	14	0.3533865991698808	1.0188665605154041	0.3092831440607207
Si	2.580040443168303	4.950589696759912	13.798198543542913	14	-0.031673189328372174	0.7514849769676687	0.13883968728799628
Si	10.63880231008737	1.2566791539721982	10.121002653793948	14	0.8526631135261359	0.5434864132256693	-0.22864145413640427
Si	12.139944498815197	15.095991920323597	2.4917611264786452	14	0.15237861368283204	0.4423879809321267	0.16723574577530773
Si	1.5338067614372448	16.193475810081573	14.449587968584991	14	-1.2680488321650034	0.8088453082180443	0.04074173490306646
Si	6.032898204489259	11.341981178223609	1.4277915131723993	14	0.8817693113028722	0.0038576864223501773	1.0521562037585535
Si	9.694350064320501	16.032050073543775	4.528646426873686	14	0.42052021596320327	0.20850455726900452	2.2650013478157214
Si	12.021244154104968	9.785353335122545	11.994225209144979	14	-0.610295556527589	0.2521099892776519	-0.15855826531980793
Si	9.175104277619486	10.307148233050508	15.974185248692057	14	0.3246940922391563	0.11792914482976395	1.5706730705570724
Si	1.3872344999333934	15.321501659488604	6.307164598006622	14	-0.07570233949377997	0.1307368488715496	-0.7034999241566811
Si	4.933169135996775	0.8821689614551045	13.89710569319415	14	0.07383597414188448	-0.6322211713662158	-1.047877113174231
Si	13.162281896839275	0.5109840518526514	3.2423501953448004	14	-0.11511327028313777	0.06999448568305124	0.3415212052279294
Si	1.1543208998906278	5.287755409802218	11.90065975475072	14	0.45479279277024515	1.3386683535513826	0.4428263543892119
Si	4.30073137249966	15.08803902010465	8.913923321733789	14	-0.10855772304835622	-0.2754970203802508	-0.4066462745451522
Si	1.0562373092511703	8.540324926694026	10.070303119153873	14	0.8105715483299918	0.4892954835034403	1.8167810715753707
Si	6.884474563129671	3.5168420871630093	9.535068195686392	14	-0.015641062104588824	0.9520623023135926	-0.6012439802480077
Si	10.158749108500679	0.7658216424928279	15.571080891200372	14	0.18609094664061365	-0.4829091149987244	0.2427444810384805
Si	0.36633179399730215	4.7641287466912985	0.6439038618814066	14	0.01766709309686551	-0.2542954287997778	1.5198011806926226
Si	1.5612080730812776	2.7082542017011537	5.609734302496283	14	-0.10790337674437854	-0.17810432218463765	-1.2165120544647632
Si	14.240866414513357	1.2790982604040741	15.53925785200498	14	0.4466812125957099	-0.9521769736108713	0.0009173703782288346
Si	10.613768730602214	6.703999122307411	8.176934414881664	14	-0.5465827953627236	0.03533598596745512	0.3806763110379325
Si	3.0095052252196837	9.056657209986293	5.138619330660493	14	1.030741981768104	0.3004202869116383	0.48340482410444896
Si	7.222952414835591	0.6304001085612153	7.891450297920072	14	-0.5997128870298596	0.36617039193218903	1.3425064995732996
Si	6.281421842705765	8.094019670088205	0.9955815344150742	14	0.3914240454972155	-0.34476388325770013	0.6986549332913939
Si	8.893893190054348	10.56994035795529	5.179383867698103	14	-0.40082040700022864	-1.8676707020665295	1.3775537504133022
Si	15.754765597695533	3.0490867132006843	2.0629091115491267	14	-0.0183162971902029	0.2950749589510504	-1.0012532035197297
Si	15.420201285341241	6.518829068308855	12.505975628411372	14	0.7902032519837785	-0.7890578245636526	0.11142810502776954
Si	1.028914431798736	3.6747350169875634	10.186424939815305	14	0.7656468821815763	-0.3407020510729302	0.8258282301892184
Si	7.864333310220582	5.373024814389286	10.508503509294528	14	-0.14915136228498216	-0.6433041779592461	1.278805308382375
Si	12.990811681639906	13.18450001565518	14.274052247787772	14	-0.10797562480387468	0.06326333195490356	-1.1454125077151125
Si	2.805071406955429	9.797190361871271	1.3375072224600075	14	0.5940466851253172	1.076332564194438	0.6537150976215897
Si	2.1633686045757523	1.2970221072299668	15.981009023361118	14	0.5899041202334947	1.0404926415842337	-0.5440417719748213
Si	7.032968462327683	13.389201817407397	3.4230478663765895	14	-1.1568395281999784	0.9702670135329011	0.881470034643607
Si	13.97961682871001	0.6689161987730047	6.944497962296004	14	-0.17126492492251175	1.1892588522922578	-0.3775264499102191
Si	14.084939241615738	15.034656382493647	7.424016830952431	14	-0.09488278518208462	-1.7978145418497025	0.6537832319125737
Si	10.626069826317895	8.299927397536248	13.271579942831645	14	1.3509402392444494	1.094894144832183	0.10542688810001191
Si	3.606025031101707	10.658414126078286	12.798396269192448	14	1.5963139325833133	0.32854329401394994	0.34716503851618646
Si	9.380342046347623	14.305089311021522	8.266558551148103	14	1.1078234621556113	-0.7472449671842125	0.10738092814332445
Si	1.8829778079310806	16.414722324124078	10.679900192439273	14	0.6174339733384482	-1.3812268314736658	0.023035303894802683
Si	1.4270104393477319	1.0867514778742646	7.261950548516579	14	-0.888171620660573	-0.9246368360846371	-0.014440613030611685
Si	15.219491457132252	6.109570894868011	16.251638031243104	14	-0.4169456082366014	0.02783452908539109	-1.1502276737586856
Si	14.45491332338539	8.153819204999351	2.577329561421183	14	0.2274595170207322	0.7133657694911533	0.07983924795389823
Si	3.6368300598519787	7.971351862519625	7.170975056490727	14	0.21061312074205799	0.966308025560937	-0.22038692050606884
Si	15.57415779917495	15.718537171405362	14.848782054816363	14	-0.2036302558030678	1.4602273848721317	-0.0633438075514242
Si	4.051016514998254	13.107129587780333	7.637449338656944	14	0.8085408893481387	-0.05056541411028825	-0.08943975521933115
Si	12.521353632101633	13.678522673574678	6.1269228257135	14	-0.40936341864748466	-0.8891234438500918	-1.1060437430530052
Si	5.802344166377078	8.853143359427662	7.415563912762045	14	-0.8301595142115397	-1.4161753518693747	2.4371592176159207
Si	7.65565914347304	6.262046963335301	1.457361203404996	14	-0.09545896988432982	-0.7557848935050844	-0.627849263879836
Si	12.20200555291743	4.737768322131603	14.43413153070313	14	0.26842468097611955	0.11276148024679833	-1.5988531561974917
Si	6.422840324203338	12.633952450323768	7.191936594195399	14	-0.5734709005797682	0.39502796382446703	-0.5657688974827326
Si	13.061144274864455	0.4480781961450762	10.512868045247846	14	-1.6771376567642964	-0.5114769233214218	0.4349605718832829
Si	10.267251374257457	10.300143079313377	7.445189160547025	14	-1.647010473064929	1.500012411485571	-1.5380969090402645
Si	14.290582253667134	14.773447647831759	13.164626752358936	14	-0.6392811694648105	0.4066827842406983	0.6352913282290047
Si	15.501576759124582	14.75888503292499	0.5585462188287894	14	0.2794917467161649	-1.0096902856277956	1.2440241669430077
Si	4.767132122611255	16.265664679173952	1.5658716393900658	14	0.4049246624227811	1.3594626820491442	0.9031871328407696
Si	10.86089689382653	11.42151835064136	10.682571857090593	14	-0.5111596489249155	0.2019636653345478	1.1185087187556149
Si	5.705512254711879	8.109737555275393	15.162912626213613	14	-1.744902994134779	0.4462670075286341	-0.27956939409683335
Si	4.838685347942554	15.23124024541543	13.025427304865334	14	0.5103222399221432	0.3162318132989529	2.0143818282921595
Si	0.9823359603088945	1.4566340530870525	1.6907666511909099	14	0.5772871922064641	-1.190514323020086	1.5182742012429868
Si	2.9778586629553874	14.84919873645923	1.7631107546208256	14	-0.9365099433425489	-0.9106284258583424	-0.6096275833654146
Si	4.725606120296876	4.21036864759567	13.263795349315505	14	0.039654928684239865	-0.7622021152736419	0.4661545071799794
Si	10.829995456382418	4.272109428748878	0.029282098196736002	14	0.27454031209062374	-0.8552547876888452	1.7425661165092965
Si	4.823377608215599	0.326269896592761	7.535545349268381	14	1.1500027020431727	0.3295845916686099	0.34852103946203256
Si	0.8002934697003247	14.41185131815221	9.88494841799593	14	-0.44081677847098416	0.28987438421998685	-0.4962469809575246
Si	15.431729477460546	0.6636251589314293	10.799703517968853	14	-0.23400426561316914	0.08316600112763783	-0.43940189921330675
Si	15.281738792439532	13.40144408747938	3.7756144597483723	14	-0.07128955143280981	-0.06494226372896025	0.47732853090134303
Si	5.4042432566911085	10.414287704728267	14.648704602277137	14	-0.528513581393787	-0.5711435360439702	-1.2422655309040267
Si	2.3332407231213037	12.64531396978593	12.673007775602798	14	-1.087189827740359	-1.0748348953454516	-0.010599895903374484
Si	0.3944177707721625	9.988264222833266	6.974025167341486	14	0.6269475772440601	0.12645313029765087	1.2108245123860637
Si	12.419701285744448	12.493145101902401	9.33373743012725	14	1.0404908418105094	-0.4715959944795409	1.3227624675988183
Si	14.265004536977765	10.564226100288215	9.30282455436353	14	-0.5359543601902954	1.8709360058231175	-0.5858086065690307
Si	9.991015955721842	4.803491272554087	11.27650170060421	14	-0.4452745608750569	0.02634431644183326	-0.41901843334570477
Si	0.7494125559921793	11.02215595770718	1.433623422126872	14	-0.7345280231602281	-0.2040544881808922	-0.4657493009815241
Si	0.9440241258043928	12.142398835393964	3.425051206353665	14	-0.6040917365006039	-0.3123730984344747	0.3229395699686872
Si	13.542619096173867	14.564448305998214	9.73861472715819	14	-0.8777720138616381	0.5656562830697102	-0.7631320840679395
Si	5.498302192874172	5.372260081021202	0.940823030359783	14	0.5219701183540101	-0.38921983690625256	-0.7020487923139894
Si	12.005005008352784	3.5346450146101875	2.051248561731498	14	-1.0069746841886553	-0.030270908486763407	-0.9085571434124311
Si	15.283593434261704	11.778678246358623	7.470399216963277	14	0.5354504235475465	-0.5113995330512853	-0.34372489959782837
Si	13.23818331766731	6.599299280797497	1.2846458454140028	14	0.40354732130277776	0.08510564298115754	0.3706783108900047
Si	10.930419000404562	8.661402807837081	3.02855983164112	14	1.402916418843903	-0.7408984508119589	-0.44071496270030636
Si	9.710499337561481	15.715171037349267	10.126311668137765	14	-0.6442315756482235	0.12923789446990328	0.3726094680959679
Si	2.958683137155237	13.276034351296172	16.071414233452224	14	1.5744991323839852	0.8743254471799794	0.6532939505701495
Si	2.957691271440649	4.188970819700232	2.6441701990739443	14	-0.42927482957830737	-0.034209327616166234	0.5112879470803908
Si	0.5140789343294716	11.986680820340608	14.066288244471902	14	1.0265518514278587	0.30401752036505747	1.384459482192688
Si	14.05935989088071	9.740993897636676	4.493386989658888	14	-0.6119585474486609	0.812972446477946	-0.5989063312909291
Si	12.356421233581123	11.709054828949778	1.3892035249516448	14	0.14673272351031885	0.33732618978757584	-0.26363959686479194
Si	8.5489036664001	8.937401289752243	12.6827140068131	14	-0.9148532661204096	0.30938804515778273	0.6730744922401767
Si	16.36028899515479	15.461320410286701	4.329756925528043	14	0.28191707036466057	-0.517610552173167	0.20200608857233024
Si	14.799857093761203	4.944867268864546	4.775905313750667	14	-0.15387679675288232	-0.6835229500401945	0.2877318821567075
Si	2.3150750375379827	9.36533170293048	8.43103341688429	14	-0.15919512810760858	1.4264566878235827	-0.9766099303577064
Si	11.728816977141259	8.722122310453852	7.9703747032159615	14	1.412364973784915	-0.7614310407881295	0.3151537488382148
Si	6.73940072149448	15.121089227589426	1.7580288726235127	14	1.072149890059621	-0.814483485074597	0.3322289734903822
Si	11.091503221399776	9.139522933410003	15.474959789396532	14	-0.43561491818726056	-0.7485994254668664	-0.6278922013386826
Si	5.505392316985536	3.5192343300067606	15.509372790960331	14	0.12810609390797406	0.8201795118008529	-0.1332403341217778
Si	5.127671224749883	15.895221626300367	5.461724080813126	14	-0.9051913094378251	-1.2187085497397656	0.4490635987853592
Si	8.758973308139831	8.744840447241195	3.5010261592363237	14	-0.5787599213338449	0.7213055998303025	1.609298014450061
Si	5.764568298848499	8.880253810944518	9.901917982157375	14	0.3230676110136306	-0.42489212344958305	-0.5513596519370267
Si	13.681419836526844	2.0339750650776085	1.493718719302171	14	0.29165641731738157	-0.3355958359071161	-0.018149175344393274
Si	5.0011699460669305	8.62629043473153	2.8441332684170906	14	-0.3518742750205697	0.6352046819797157	-1.0714865448870226
Si	7.847197073401991	12.820349672611709	9.084784037902612	14	-0.07092882535639304	-1.3028353729255429	-1.0943195027931296
Si	2.9354943952183015	13.296670713914843	3.5603093357194475	14	1.0747263947009411	0.2866435332746888	-0.14155451739554062
Si	2.6802564633918418	7.165424203389482	11.47809554751434	14	-1.5637778803094993	0.710479189548223	-0.30622995649304485
Si	2.5863903445964564	8.631720368454063	13.366594795724817	14	-1.010220190434278	-0.6782339292861179	-0.9035548009015509
Si	1.376611569108785	3.443345981543992	15.155763676458552	14	0.507034053328206	-0.509521340614917	0.48909185196208455
Si	7.222651750434465	7.354012680905201	13.73173373639156	14	0.7081765076234984	-0.9228023524387114	-0.4917038378568229
Si	5.191688231505102	4.448926241342204	3.0289176876402877	14	0.5578372946806078	0.22595182086099738	-0.039253322033232736
Si	13.17032140147811	4.521932133263731	6.417014951431498	14	0.24765606353155936	2.5498049981233124	-0.09796656890307025
Si	8.784618020701194	5.763190798358552	14.433039988203385	14	-0.7364303839866057	-0.26856789154245175	0.28021422731112655
Si	15.082844388956914	9.623844262256174	0.8423472687623335	14	0.5194548060193093	0.07131989047558757	-0.28620104604909136
Si	4.75902398805477	6.695482476336352	10.619005846937064	14	0.41073921710429584	-0.1829284870968315	-0.22065508679096033
Si	16.087264476337733	2.726156805933489	11.962988792340916	14	-0.5176154372732753	-0.5152520772629952	0.4365947664247691
Si	6.243962980034895	5.848697139566075	12.290881296272367	14	-0.4750986112571786	0.045460227386602214	-1.0733871059396762
Si	7.765256219820879	10.639648745738368	14.191807461714216	14	-0.8934845526941271	1.1288571605586788	-1.5116520623804135
Si	11.143732222776018	4.7430871407493695	9.274112738101541	14	1.147733958708674	0.7573869492300686	0.7550721831103393
Si	2.6395507519979304	1.9748324165210984	3.53846868145061	14	-0.3110903739902528	0.46610154241038443	0.30605434999967873
Si	7.916266549332673	6.570226340445022	3.6788740546400374	14	1.6311925189143142	-0.11571902269656467	0.4225393049711155
Si	8.201010443611056	2.122814859428063	13.105637704094306	14	-0.4981722246212515	-1.5409570065983973	-1.0141344411736715
Si	3.391883347581492	14.260066450998382	5.664798373089677	14	-0.24604526604848662	0.3448196762431474	0.05196435251498081
Si	13.309762687729142	11.010742148783956	13.602371243760924	14	0.8015497968721241	-0.9679249936967783	-0.2083526049445838
Si	4.699812709580611	4.6363496443035555	9.112943546732096	14	1.1544725686422501	0.797521389056516	1.3889494034132626
Si	5.663915988434194	5.23365706019288	6.0761089078773445	14	0.3127986163649592	1.2436585557664828	-0.16706785259790202
Si	8.22634305345168	2.7984290113544397	7.750948516036804	14	-1.7155821090638104	-0.3548816969135469	-0.638421391845753
Si	16.125664549307785	10.578329548365002	10.625667851085954	14	0.41337845671542794	-0.33180731221787796	1.040481842941889
Si	14.577414458296825	5.072982984657899	14.182279341480669	14	-0.757775186133411	0.4706529130481106	1.035706271920246
Si	0.20712182337215823	7.475765422905133	3.4715479755605916	14	0.024481293526853964	1.0745531022023633	-1.3477662097267267
Si	11.805644901857551	1.7858975213258192	6.665349040351641	14	0.8445679884256496	-0.3118115690325543	0.538340345927393
Si	5.491254553949925	14.95092461487104	10.897372061011103	14	0.7692230325713703	-0.21166444570746654	-0.9889779753897466
Si	7.898375383419946	9.803827855335285	1.6650189937530766	14	-1.1020916970654053	0.3124715717682363	-1.2472293068351044
Si	8.703175551045861	16.23820617593188	2.5866942770889003	14	-1.105974837430425	0.4970553364701792	-2.0686213519049392
Si	15.568825908191917	7.960972404498103	7.010196402033615	14	-0.17904200429489567	0.22927291760303264	-0.12116693775942643
Si	16.2903420367056	13.998202464027514	7.634321775266958	14	-0.5698494987363396	0.5622529109574301	0.6083942241433395
Si	1.485233120198619	1.1446375453195419	12.63129876017469	14	0.0774373213638159	0.9516393554884283	-0.46444857880006124
Si	6.889795015793096	6.852296936026427	7.375287955376267	14	0.2694374393617258	-0.39522645315518246	-0.07689790346764883
Si	15.524989365316703	10.573277079189538	12.9383931309673	14	-0.33689630097804707	-1.3445464145343051	-0.20132731676781115
Si	4.512149101907489	1.3619264007776428	16.10170617186579	14	-0.14276370822760628	0.04364939790962192	0.2630431004305176
Si	14.96260313919091	0.7624587765280465	4.76888545360261	14	-1.085277182492701	0.1832203075506683	0.037818131043526076
Si	11.198641059031873	7.651358335300394	0.794363518006354	14	0.3158083522527246	-0.13029641853020826	1.42887455526665
Si	15.68702296683939	1.3082904860896036	8.431554677449286	14	0.2629052891853576	-1.5424811578321809	0.21535475317347505
Si	6.777392283049955	1.9047253215973952	11.189794335837838	14	2.020122335140454	-0.329655297064914	-0.027223634461323903
Si	11.280544329562845	1.136810466616285	4.53494894097775	14	-0.4564275015327953	0.7409742984189034	-0.47732081758538264
Si	1.6585596112658167	6.257190579638833	2.188461009704607	14	0.8453925419018212	-0.729682003852813	-1.169977619275403
Si	13.086007913601149	10.128238207968902	15.862313580787863	14	1.498763368521043	1.2169463141533363	0.34176983111238773
Si	12.171063264331861	10.587460595503584	3.4109951456009684	14	-0.24062923269159464	0.5684641871898438	0.11989218374169701
Si	2.858707321643468	14.431518691695508	14.005295856230195	14	1.5733148812735247	-0.7967467150235554	-0.21581729502056968
Si	6.541040650942127	2.57737041256264	3.777715842464946	14	-0.7093178212751121	0.09813497630153994	-0.31583406330592595
Si	10.745051226881353	12.837495713704252	14.692204531746741	14	-0.07318625582748306	0.5086816176173568	-1.3946312890602577
Si	7.595532799430233	13.823846524195588	16.179864209747937	14	-1.9874358732054116	1.2967845336651063	-0.3135336953759895
Si	9.876163788536909	11.760862246546179	1.657688664929943	14	0.5823486701397075	0.6678029550022772	-1.1678819113289505
Si	2.2230341477429185	7.8641797099287025	0.4203075901822677	14	-1.1202966653952457	-1.396702828616701	-0.18882583136965514
Si	14.16601405099795	6.938172571552726	10.600016602341961	14	-0.20126278202427544	-1.263369934703398	-0.6853839160709178
Si	8.316259683890955	2.0003676480233525	2.3582628642868517	14	0.7399728528967058	0.8139893186320645	-0.03490172627888211
Si	15.896139959960333	2.8720721810827037	4.308927745521693	14	-0.07006647663201537	0.26912659272851996	1.3209212990790604
Si	2.9760987957813985	0.9323766483520304	8.947653292212417	14	0.48098695666138175	0.38579898127779555	-0.6721396383457708
Si	9.569352107643184	13.754170817325676	0.3020173909322724	14	1.9742234771862344	-0.49341953643695774	0.40839771148923704
Si	12.24010822957767	1.0013938348216473	14.405565144504731	14	-0.40000330972948556	-1.4377556672635052	0.2608221796549736
Si	3.3208530168608488	3.036120560902074	9.908107747111016	14	-1.1135346584032564	-0.9007854633612195	1.3945793527327908
Si	6.424317501478441	12.821666713412299	10.803399729247928	14	-0.8283098610442252	-1.0163677032547522	1.155842196446293
Si	6.681833292952571	10.421899089404628	6.203012161792239	14	0.742065475516774	2.1600447148787647	-1.2402757524967638
Si	11.061353444958483	12.503460832143249	7.552353142909656	14	-0.11789777734485815	1.2095137628938522	-0.4561189688943775
Si	0.746742525386517	15.68407024633484	2.1001571823300753	14	0.12468343850579296	0.6730873477667775	-0.143384630162422
Si	9.094872635796957	12.402458835958067	3.8081221640745926	14	0.7482399849431097	0.5845153405929963	-0.6403008698347812
Si	3.5456535802101548	7.133720449527145	14.86729906021622	14	-0.14673118084712675	-0.46790465857140423	-0.14847284759099508
Si	3.229013114681756	11.498790735776709	9.12053205476924	14	-0.5729134849463601	-0.689121017653753	0.6267138637704587
Si	13.390298262044116	4.642908703575972	9.98106951979977	14	0.3547613691845639	0.5719953432365352	-0.430118409233848
Si	3.5331302542849436	7.233054085095202	3.885611877282495	14	-0.6529082847721274	0.713013528062293	-1.1230896571045228
Si	4.8887198259997	10.869745251066224	10.77529087583385	14	-0.4003128708100315	0.5409968119441699	-0.41240940712026414
Si	8.683140517229445	15.84158407756667	6.659892961898577	14	-0.6387373806895992	-0.9480655190934225	-0.9493431013270038
Si	10.462751864907785	15.77478102296405	1.0455310420979889	14	-0.5377968142627136	0.11842639659868061	-0.25086068920259197
Si	14.803844165167456	4.34750429542284	8.089818538700715	14	-0.8243575579460937	0.014983373363694945	0.7689476671915824
Si	7.387402769886903	16.284984000992033	10.310102587600715	14	0.29050584768661525	0.8867107186176649	-1.0861372172222903
Si	5.72886930335162	6.491431024756138	4.069713265420523	14	-0.5501376055783604	-0.8567853666859292	0.9849421113687103
Si	12.910189502905043	8.82468318619705	9.983138221603179	14	0.026368227721310637	0.2746171881396962	0.8887043536829077
Si	8.469603430602803	7.059176920641157	9.097552470676566	14	0.5724404015674528	-0.2898720702251988	-0.8250784958778633
Si	15.529352267224365	2.950431206580822	14.52098595957875	14	0.1602662505839823	0.7102891848650641	-1.3205708574239245
Si	7.79417719392713	12.628024132675456	12.70696487842793	14	-0.9748996310987439	-0.0440623174240377	1.0263906431242855
Si	3.691390844382615	5.651147555660238	7.355728428846416	14	0.010800956339410065	-0.3711984454962707	-1.4627406403225764
Si	10.434089070015546	2.8250917343609205	8.30437526981814	14	0.45460561630293833	-1.275835424627072	-0.1136153443236195
Si	8.093766393011169	8.86418950807777	10.442983180533671	14	-0.9029112532399177	0.5606588256589383	-0.5487875181747506
Si	9.282923512291093	4.793077499573743	4.741118115731119	14	-0.0643786774427838	1.0161977531930904	0.46145941175485705
Si	3.7142544112335494	2.199265319597287	12.244464595302698	14	0.008072499373668923	0.6996270682129421	0.0679293738899083
Si	10.847772239099065	14.105552727595192	4.191046057686273	14	0.9917411422773099	-0.613264411840764	1.0246188944481713
Si	5.011286322737465	10.209834277916112	4.5470817299906265	14	0.25756458921434605	-0.5396138143924623	0.656914066860918
H	15.555135873666678	9.893715072952709	4.734032893756729	1	0.8772732194295293	0.226691784972136	-0.24940210115447192
H	10.81526943690982	11.354274103710999	14.939951998275554	1	0.11880769151765855	-0.2756937099372421	-0.01907991547028688
H	11.930719658680808	5.6289294368443334	3.7060711105767825	1	0.02419435817312544	-0.15583109390672686	0.05419092972222905
H	6.439002669809582	1.1241057616230026	13.74744998753309	1	-0.49277341767000454	0.12612120060081977	-0.011256299091608291
H	2.8280983783721925	6.21519887431184	4.543091390493058	1	-0.7157900646975209	-1.7395700074797278	1.2274315387594321
H	15.303816383328824	2.7437701840843043	8.491390161364915	1	-0.3773870960018671	1.5648736853969465	-0.010586526155709717
H	3.0260989588797202	3.826436547812819	1.212210235427222	1	-0.008884711544303703	-0.15518626069243374	-0.7578021827392725
H	3.0564676974392255	15.5536537942546	11.31184447414758	1	-0.5296363830870956	0.3752132264536819	0.011559432408853747
H	1.0186558931559286	11.026757430280954	15.273611049335146	1	0.16760109984130075	-0.07875244173507162	-0.929253512797495
H	6.176829848209298	6.0005980239616425	8.44357471731174	1	-0.3768507634320842	0.2679179161175183	0.390286845614114
H	5.334974427190113	1.7779021359197573	11.139501678566681	1	-1.4459158413285915	-0.2832105934512271	0.44120475826379457
H	11.510389191859323	11.432267102981656	4.568172357302305	1	0.14393150426401755	-0.36034940948737376	-0.6862267243948622
H	11.037746387333023	15.997445888637957	7.458853050341729	1	0.2859897011917752	0.18228133988775022	0.08469375190886981
H	11.260713551453716	15.568249090074538	6.844646334254267	1	0.34258307172515057	0.10030447497068089	0.05440818812178155
H	13.673635243010702	13.183112710891285	15.526211631469112	1	0.7641546126537624	-0.09142721963180561	1.4794831639463166
H	13.399391726132555	6.919639225696287	4.217919572582675	1	-0.2537056172393358	0.47310009109182755	0.3062808643783838
H	0.9575376833985336	9.046446058667577	3.564332356130182	1	-0.5779484804948061	-0.6350781835979644	0.07483202034290984
H	12.698124691416528	3.1647608053517415	6.129903324994238	1	-0.45826224228925294	-1.6828853627074871	-0.5360258369181956
H	6.988442352184666	12.469405686578618	0.11730650376369872	1	-0.5063632519501793	-0.8583758524369729	0.3113629111541885
H	14.79894856437519	12.734642343788215	11.455880696789752	1	0.40825372959130873	-0.28059835044595666	-0.21057326860959563
