233
config_type=amorph sigma="0.01 0.1 1.5232675442148302 0" dft_energy=-23347.977836289676 dft_virial="18.899219115498546 -20.284946382838438 19.246660937630416 -20.284946382838438 48.0439319626996 9.889971867195477 19.246660937630416 9.889971867195477 52.44755505716164" pbc="T T T" Lattice="16.405915777900002 0.0 0.0 0.1676028355870264 16.440581477938707 0.0 0.07751795205057752 0.0672970665209458 16.313550472070425" Properties=species:S:1:pos:R:3:Z:I:1:dft_force:R:3
Si	7.760856192341885	3.4246020307188245	14.609720651322931	14	-0.21625643980925097	0.7944913414367216	0.45159819440996113
Si	6.832706272531393	14.315436255873696	14.267102787400423	14	1.193292402318506	0.20185902134801778	-0.39770422735220917
Si	11.260141232864866	2.5101887841891677	13.656323667721828	14	0.7968719278526467	-1.0846143515411668	0.10679882989884291
Si	10.55803202064228	3.3259188067231786	3.02236342826785	14	0.0048275073491100325	-1.5151611069213513	-0.07386168519508596
Si	1.5893641057735075	12.655782644541352	10.781319815562656	14	-0.6748773512906645	-0.08137445494055864	-1.5965139645772208
Si	0.945958541387403	12.703922523208446	16.106407738867084	14	-0.490280988172653	0.50585674420211	-0.03248334461475083
Si	6.926695764022982	14.46205428458921	5.666383470415237	14	-1.2026108593303186	0.274683008435892	0.8819456891278342
Si	1.2327618392419173	4.90922256720833	6.551753324243278	14	2.208492566647379	0.9678902837749561	1.788482715090225
Si	15.280622530552797	15.118382788833566	11.362555162108405	14	-0.5472862497783162	-0.2504858220469144	0.027335734653282366
Si	5.279310496509353	12.163300021170883	3.0481551684622863	14	-0.7720422495549127	0.7191630977670231	0.027048027967957793
Si	0.14624233324420063	4.745819646060445	8.624325789198007	14	-0.6750285322834892	0.21399283868539262	0.22453231361374362
Si	16.29733322432397	8.58830331992447	13.807158016792263	14	-0.2508393490284347	-1.0477801825036612	0.8210359469829944
Si	9.882666091729249	2.5798581461315977	11.805337704221305	14	-0.5152695607791722	-0.4721618947605055	-0.1561527391822774
Si	14.385645372445218	12.045976395668388	5.569938013331696	14	0.10609948925176264	-0.3522805096611531	-0.3866978396977193
Si	13.431278799221642	5.865559490916832	3.4600240434748883	14	0.8599195440711898	0.44248182627631205	0.0071139913103177195
Si	4.702983799964349	11.59196072302236	16.19329346882684	14	0.8012248091596573	-0.14288892105669748	0.17340434165940696
Si	1.1799052597886792	10.184388929392185	4.596622607384645	14	0.09868622128217969	-0.6503073546302655	0.6739173005641212
Si	16.244599689239067	6.431730925595316	5.693887988216886	14	-0.04547642535011915	-0.07887611190097076	0.33437944598015407
Si	4.694416630745129	0.9736090718394756	3.6983002830499525	14	1.6944087996418589	1.067256562414315	0.4634394199619032
Si	11.042940032698093	5.869510035436151	6.0398821896064865	14	0.19045359814784088	-0.24799519232328693	1.237412826722779
Si	13.465678723424741	8.362820413473013	6.413951834666807	14	0.13307089828118002	-0.1420332572061522	-0.8323925191820886
Si	10.493730674342379	6.241825888099814	12.92741703266762	14	1.1741870329055495	-0.12205936841604983	1.2642330547593716
Si	8.599059038308464	15.987727344129754	13.749653641399147	14	-0.5862204976413186	-0.23971031965017375	-0.7906868768944985
Si	7.702569254766162	3.724592403675615	5.207874217437643	14	0.15743392096330716	-0.36684736396298406	0.940711643656735
Si	14.17097888626613	13.63673992605775	1.7414239767525512	14	0.15870301854933225	-2.6261974222850197	0.47355646228615383
Si	12.325057428966245	15.940965562388005	12.433393893805606	14	0.3701208952565965	0.10904623305918437	0.6174527424072852
Si	10.10869531517611	15.319985244278712	12.038263974661197	14	0.14395258732764274	-0.6887140116815734	1.023326914024797
Si	13.456624298506918	3.342856274172282	12.337094449372488	14	0.03733039236429399	1.0663754446211005	0.44677814326627946
Si	15.918901246258308	7.008226603072834	9.282495037192643	14	0.5498146747501498	0.02035749770386846	-0.7601760842813653
Si	9.973549943364082	13.03367158679477	12.547196809782166	14	-1.4053803090722008	0.39147829581947063	0.15029396148925595
Si	12.124117772518524	7.346992357970691	4.7047490765020505	14	1.0757370962022916	-0.8240649661606608	0.8839190124610479
Si	8.918726666649267	1.9591616503652625	16.090044478470205	14	-0.7584169340213199	1.3424244813135868	0.49465083877477667
Si	8.804544774018238	5.869058872752258	0.4145758511159553	14	1.810532771426347	-0.5866696697407483	-0.40755387472316446
Si	15.169557761919569	8.495086547066023	16.015215456015625	14	0.25874909743533825	-0.6824754817327662	-0.533340831632365
Si	9.23390399584166	10.70879582427487	9.208514200583782	14	-0.5405898059719905	0.12016420668456869	0.36343087921357126
Si	2.516401704494258	5.125016139801359	13.78399286371387	14	-0.4018519344546721	0.17118470643652312	0.04394841745835514
Si	10.629781652705347	1.201124671255815	9.862409707518275	14	0.7535130648442016	1.753441892013523	0.9517229164113332
Si	12.470510637661528	14.879186177383362	2.3586949173044616	14	-1.3027147880860277	0.9311412183235477	0.9106957888177302
Si	1.777302073967241	16.21140067807091	14.27581432867849	14	-1.1159800366732493	1.8123083767604413	1.6879494117460512
Si	6.7109514091772855	11.718276430962725	1.1086658517063042	14	-1.1826223152398914	0.82818413399407	-0.4134918424600465
Si	10.107482918000123	16.098883985891337	4.563620467205822	14	-0.3897240306595336	-0.08558849656028134	1.4361780370390627
Si	12.092113112018998	10.058954219129095	12.019388968558724	14	0.9317685680216639	-0.29529041757687885	0.06814380407360865
Si	9.640257201969732	10.074095238800519	0.27788012026291464	14	-0.7735291197615543	-0.7128623470694682	-0.2900790442034707
Si	1.1671742691450289	15.483142076689926	6.303134795361825	14	-0.6122575669973941	-0.21996140257558433	0.4374501731647823
Si	5.442462407145836	0.9176813049526146	13.812949305061863	14	-0.37460233182961467	1.300410820608643	0.823181534372658
Si	13.149730316190787	0.449897787785774	3.232890701896174	14	-0.1639141348122084	0.47801835845873875	-0.16325490340812243
Si	0.9763439379996516	5.499810926339063	11.97852347294755	14	0.24217549543113173	0.8904547621848645	0.43570979197357407
Si	4.224946585436321	15.036369615859844	9.507590764031743	14	-2.252002867759181	0.17101167104847714	-1.364827036189101
Si	0.9399802256779362	8.773550717930629	10.023750405052878	14	-0.8344473465539507	-1.256039970546188	-0.6472829634421754
Si	6.574377082101001	3.749969074200871	9.167615893141054	14	0.010655431778289684	-0.76015500121774	0.4828060136753865
Si	10.021732477412197	16.421058438163005	15.501027806070995	14	0.3205330153890287	0.034274376580765986	0.9583586821321032
Si	0.1954141440137225	4.6850734617096155	0.6614816023901947	14	-1.4297608152705048	0.013753356578536106	-0.5035324649926962
Si	1.454136704382589	2.95823926585835	5.488630294736424	14	-0.26443663951403784	-1.6926679042295867	-1.5444418827493258
Si	13.946993839925193	1.1930299924109993	15.432314909018416	14	1.9242507028522402	-0.18541371749928665	-0.029051690343949187
Si	10.610366891973781	6.665748189434438	8.280941769008672	14	0.855064268784622	2.0337756757220364	-1.8989546260494312
Si	3.313967097078978	9.222273842146707	4.812923122775212	14	-0.4621932052132273	0.07816005906930952	-0.1802496524637692
Si	7.170866649137046	0.6969708794009479	7.733653543390549	14	0.8063734475632539	-0.9540099145936048	0.7073558108053072
Si	5.9450297469449795	8.180558892138434	0.9576182257307565	14	-0.11108640513072186	-1.3494135169053456	0.1351144127896337
Si	8.922043942819558	10.680685928181015	5.5944566544617675	14	-0.5097144306244603	-0.39281269948062747	-0.6736625040268946
Si	15.925240492114888	2.849664915240208	1.857853479845152	14	0.6205817775819055	-0.01567834313173097	0.33913521949083203
Si	15.368185824834182	6.604929819054185	12.795474095615438	14	0.47974382723909015	1.2646161494520736	-2.5550855342298324
Si	0.9373454356040055	3.680814858013867	10.628951513366985	14	-0.10224051727675239	0.9489083274173671	-1.2223538628626716
Si	7.67577183193454	5.131250387796961	10.640224018097982	14	0.6648500405420871	0.6054703631732672	-0.18134417199855626
Si	13.450798557814187	13.259687685509007	13.318388052162334	14	0.28517466080528825	-0.08321176680233645	-0.2272980516066269
Si	3.622424563168743	10.55572370829233	1.6851418420848878	14	-0.014188130488173144	0.3660451791030978	0.24901000759314934
Si	2.3594577923881332	1.709114166219555	15.78413321050917	14	0.6583302316712556	-0.7291760103258078	-0.3586725345975732
Si	7.126098186162312	13.601081668114483	3.622882288218946	14	0.5567502313512492	-0.19119767602749177	-0.8885305469632657
Si	13.988779707411505	0.8722090281910091	6.816162547060959	14	-0.4419681194333465	-1.6155087764614107	-0.09958430837050743
Si	13.923892669918333	14.940918357272443	7.491397228647767	14	-1.0703357181457243	1.941905968864633	0.6481399128453806
Si	10.705729558615982	8.531547054290828	13.172642818166203	14	-0.5962084704784977	0.15530247465290442	-0.5388648514127031
Si	3.598703249545477	10.504978570199706	13.021742845432657	14	-0.5082018493646172	1.1342842496684473	-1.8181059621468434
Si	9.497614326647202	14.122512529875058	8.110856718364449	14	0.04466344184788833	-0.1060256985290744	0.6947635653893499
Si	2.3079743880855057	16.26596183217347	10.213281387668646	14	0.007837757457939404	-0.07570028260952386	0.5161061984503483
Si	1.039065394610141	1.3433606798670525	7.134391376588041	14	0.052213235509971145	-0.33650395030619246	0.9489659201765384
Si	14.571384947924713	6.049423870222913	0.11062673068195751	14	1.1751748515695504	1.0458081447231078	1.7434582900553879
Si	16.026089296993216	8.835850542505629	3.492880171003289	14	0.06422903911315118	-0.12429931537096285	0.15816591464795332
Si	3.4287002284801438	8.223688404126957	6.8293775122200575	14	1.4940502753586797	-0.007026573729432685	1.1376917355492395
Si	15.91837953813657	15.875478068377362	15.05879978391139	14	-0.397804500459695	1.4667160833685893	0.6845339086520766
Si	3.9398675493300632	13.344124012243125	7.957166099357082	14	0.9914778610925266	-0.6984651857187671	-1.2521773990237293
Si	12.697092740470104	13.637424052745688	6.03226328231923	14	-0.033314325854222684	-0.9642593688418429	0.2445864208898346
Si	5.5811465349911575	8.86252820215207	7.7679780003810714	14	0.30178965760514914	0.18619044841650337	-1.4369889636570372
Si	7.136752187868479	6.3343552530871685	1.8838732622689016	14	-1.719425911517432	-1.0433180292205444	-0.03381774827590769
Si	12.254195356946761	4.815367604226119	13.854434944289437	14	-0.9099594242540398	0.3433947696747213	0.01608354933018631
Si	6.315846098906542	12.76521502455468	7.278897963942939	14	-1.668936345014088	0.1623773851623559	-1.0693147322230936
Si	12.960588153778957	1.4510359863005657	11.279127799194631	14	-1.7228745350833465	-1.3456123948000385	-0.9472155116745814
Si	10.577092413593045	10.76925162391643	7.25651537304715	14	-0.0875150257766683	-0.9296810876122356	0.7557779515207199
Si	15.51625741768762	14.305577941082754	13.566860568393363	14	-0.6613371393431687	-0.8985478304010945	-1.2712840539893457
Si	15.923332484109919	14.535836609617158	0.6916947368867754	14	2.094298209405662	-0.1257640740718512	-0.8695218511103469
Si	4.891630503719687	16.386684763425148	1.7319938563634147	14	0.02456074068124654	0.16995443254083228	-1.8031130756934637
Si	10.616591296419916	11.520091327774113	10.966381826720522	14	1.0137760290920428	0.2865460883830552	-0.24956536634230134
Si	5.316305836588518	7.991400323810825	15.02806494129307	14	1.0314428650783765	-0.13825604638032263	0.29294402686171167
Si	4.989093127581458	15.272964249067673	13.393038250134934	14	0.07530896037979731	-0.3480369003302487	-1.2524599634984137
Si	1.3748288669206425	1.4188032835717257	1.6107853100047116	14	0.13424357941769957	0.8211071666003624	0.6133482298742009
Si	3.307742692632843	14.675675713933245	1.9461091037723652	14	-0.894493454421753	-0.5191807261921815	-0.30976651186090853
Si	4.627119564224183	4.269974261880345	13.401472531436353	14	0.7420215096157996	0.031382140206131406	0.04396204431655193
Si	10.674740424303105	3.4851480628971645	15.700787877174283	14	0.38234907215922087	0.05448300728659786	-0.07091674116138835
Si	4.909631074511199	0.7682578646390791	7.337234119265996	14	-1.1147569618724547	1.1570904680792249	0.5156935360464646
Si	0.5189568496612663	14.665797712043373	9.87782634657477	14	1.508796592811857	-0.4638662234450477	1.0469008644841706
Si	15.16381897258046	0.865694239035605	10.755349250886239	14	0.2000242805915601	1.072739958730595	-0.08172901036420706
Si	15.400252827813667	13.257438434455857	3.8258070604757917	14	1.32059836825085	0.2800787300607547	-0.38306255388556193
Si	5.328244421500096	10.228745603880892	14.441038306477719	14	0.7226443743705037	0.07781835917226183	0.5439443270831876
Si	2.5982737865922902	12.708091266407608	12.820596474446136	14	0.6340867653865153	-0.42507004393773734	0.5043207658838536
Si	0.5190880969874895	9.838783548206521	6.85048700405148	14	0.6368540460425907	1.7161618933135039	0.1283686037611612
Si	12.412166279380582	12.795364175979724	9.908723607759287	14	0.5002455639514188	-1.9337684205263646	0.7388533936403132
Si	14.333507372103051	11.317598031102229	9.389676525561242	14	0.31195015160931033	-0.9427204482433665	0.6974652828597615
Si	9.949804020867148	4.892127602967757	11.267512410823876	14	-1.26295675807845	-1.3891507209598302	-0.7265658242047934
Si	1.3947768199149913	10.96429663482515	1.2847521863420825	14	-0.3825917845014428	0.075772273558488	-0.545685993827056
Si	1.2044517909755732	12.029467122621087	3.2617323018337223	14	-1.19319084365836	1.4026377110271988	1.0614479212750367
Si	13.28825858783622	14.836266661116797	10.096330176454307	14	-0.039231467638011476	0.5975343894920981	-0.9566262713673874
Si	5.6234770788812956	4.207909041900971	2.022358878533311	14	0.5296998893885033	1.2033485094466692	-0.8507617811418864
Si	12.053757721521846	3.254984548674272	1.2106794766048639	14	0.4220546516182676	0.6877393056547053	-0.0116558488583593
Si	15.688394848395657	11.767479412972225	7.528738733549845	14	-0.36534352446122936	0.6744883430557261	-0.36690547094321935
Si	12.611795103157649	5.548695633582471	1.2949648689138253	14	0.8028014109419721	-1.081045400246269	0.19712201690617698
Si	11.023192231876234	8.301204715585955	3.035007467557878	14	-1.0868650971384244	1.1420014222868717	-1.612042155158255
Si	9.708285972334371	15.64371005559139	9.880387310027698	14	-0.9464475225154532	0.22909474000434638	-0.4442597456051945
Si	3.188932691160869	13.401515186817374	16.17479415819568	14	0.5670511077058904	-0.7820813873879627	3.0177963029440056
Si	3.469112920815845	4.271432747793001	3.002069310450588	14	0.47073030331824695	1.2029417605850217	-0.585187427523683
Si	0.5691786390405738	12.434094426409324	13.761579101578102	14	-0.9329584755638283	-0.46492834705280084	0.8628490614729665
Si	14.03446033930349	9.77895117336452	4.677308541771935	14	-0.4446400120820444	1.2373758028061688	-0.7913445656353923
Si	13.022722278604599	11.325497479549286	1.252873851394045	14	-0.5768925275398213	1.3815471911965562	0.01548731000644397
Si	8.342326143483263	9.044950501461274	12.761476116348897	14	0.8285428031862309	-1.1906320796437486	-0.8625891227250996
Si	0.18445991404881867	15.399199568020725	4.17941852856107	14	0.19190832953798068	-1.4160570810246478	0.050300333151780965
Si	14.814737177841458	4.782639442840786	5.131201170049628	14	-1.5609877168160748	-0.5573210167323221	-1.321746623886828
Si	2.2660736791887492	9.360346029333513	8.380958793957062	14	0.1261674804965824	2.0936821725709547	-0.8985519441696068
Si	11.872139312085759	8.875173882033675	7.928176846177531	14	-0.8066544693747462	-0.5209645590633002	0.8202746426976986
Si	6.936949461384169	15.38932976908874	1.9701716604438113	14	0.40939324346919836	-2.1259012075587944	-0.5391633567403723
Si	11.162002685273047	8.611238790181975	15.457453693764892	14	0.34200997234928954	0.698151253759177	0.7247627080437736
Si	5.657580056008816	3.991096661938134	15.650313436691997	14	0.018727674041426595	-0.9052123925014505	0.6480404110694908
Si	5.006425977600808	16.004984726936527	5.446655759218666	14	-0.14173912275752726	-2.3118520289594597	0.4911351093600062
Si	8.85912889640289	9.109991754562758	3.6511529622874233	14	-0.06133705984904862	-0.6157964363600459	0.04490486863745023
Si	5.579520708737568	8.887981980481483	10.032543975909832	14	0.33114345282421576	1.0502060203732209	0.4975703288658048
Si	13.959664128680467	1.7962623908317599	1.3861309023000379	14	-1.24711900641687	-0.2473943250099683	-0.30723603000481875
Si	3.8373683093244777	8.29399267500999	1.932292041504218	14	0.5113344840866856	-0.33259741288275946	0.298801776112605
Si	7.806899394972562	12.547183685049543	8.917968713340327	14	1.0653542015879374	0.4709406197334351	0.6423261294954618
Si	3.1350933973525343	13.207306877613329	3.9520899565845986	14	0.8472740767751055	-0.2982250771892958	-2.375336733082428
Si	2.1443844394977534	7.34175887083754	11.187984734090506	14	1.7040105924599522	-1.2026753940738544	0.2560134413747007
Si	2.1003230714930474	8.672972610662637	12.98596646489579	14	0.6949633402727254	0.11652712109868722	1.749119863970354
Si	1.1665574067117799	3.6303699481799794	15.095391538462417	14	-0.10077781546012016	-0.026264612176908675	-0.05334349340870824
Si	7.1007182344539	7.231097687732449	13.682881564183093	14	-1.1600487818605874	1.5445025608348815	-0.1732349058188092
Si	4.528060644757224	5.331003896533939	5.012960453855147	14	0.529728685768089	0.5765706251537387	-0.1699217795032664
Si	12.98033923578397	4.454872213880433	6.484313526255064	14	-1.2066492944566751	-0.6005240707583663	-0.7848797784184119
Si	8.67228684338312	5.860116008061724	14.312291241819072	14	0.800143145151471	-2.6084971619295247	1.7731676691402307
Si	0.2931277783868949	8.956786750662417	1.2648780599687344	14	0.0487016198637129	-0.3271608106833063	-0.3373799258887669
Si	4.554068943039928	6.932641267900893	10.770862684845822	14	-0.8955877168460081	-0.08321845167616884	-0.5135212091614714
Si	0.2416328899432224	2.1863967086217997	12.14707457046654	14	-1.7572697536141593	-0.4978289820610117	0.12679071642618633
Si	6.066914217033732	5.920566885928553	12.175607739187464	14	-0.613853194959078	-0.992768813073773	0.07203722885990888
Si	7.68194865922492	10.711102496033241	14.099970801596223	14	-1.171315108262944	0.4757164478656102	-0.11152914946685137
Si	11.184754409273838	4.8455856604974334	9.346901381353524	14	0.7716984927736088	-2.0970876015674906	0.5526099804542147
Si	2.8168908172906972	2.1453819191770496	3.5550996065909746	14	-2.068594098188546	0.5344394649356642	0.05941284462744979
Si	8.265295447131287	6.775452907649677	3.816214521520453	14	0.4414446423901643	0.039575481529847294	0.7384857255795321
Si	7.541740421803831	1.6907214940409514	13.023194768979002	14	0.6628813451984497	0.45909425197085285	-0.6161859588160483
Si	3.1731436378162177	14.419498979652914	5.840138524418976	14	0.925190395060065	0.6951721140247213	1.630688068050501
Si	13.888367299892868	11.020714938593771	13.885235410570868	14	-3.090260335287059	0.20832355145446607	-0.8522774477281136
Si	4.577283313865656	5.1469016314490785	9.177566081060352	14	-0.051146483912641705	0.3109394501079601	-0.6065232308018679
Si	4.3483912581155515	3.0751100880853763	6.069247138257349	14	-0.2619524375537108	0.02604015468245974	2.0042089929824614
Si	8.131267318183735	2.766580435966189	7.506699026293814	14	-1.6853441107251448	0.9837203221205759	-0.724579388234447
Si	16.512542746315308	10.730474601383786	10.65378022630526	14	-1.8281985789705524	2.1459740839037225	1.036960199984882
Si	14.467999788467122	5.374451683288551	14.397790671895597	14	-0.8671237811782447	-2.294126057550763	-0.7745634754318498
Si	0.8546661824497007	6.8001503732617286	3.7452983099789026	14	-0.5587554363904327	0.7238538223131012	-0.4033064087342798
Si	12.03822460046333	2.1910855193511236	6.464524710643761	14	0.3200856430633228	0.9869511730658739	1.298828305284092
Si	5.62648756442654	14.837182111217203	11.091555682922744	14	2.709382449592027	-0.591507204400607	1.461968023173872
Si	7.592941644355078	9.63901035237061	1.5808051395121772	14	1.5780539425996216	0.4584748726992292	0.19374615562082254
Si	8.834672597752773	16.393829539746424	2.7188507051935447	14	-0.19982039193967235	0.7640378844722276	-0.2919482377712183
Si	15.637833456559747	8.026738666396422	7.182190012206952	14	-1.1055477768367483	-0.7493033941035231	0.36682370979403867
Si	15.99050650626253	14.237821508920028	7.8903612103094725	14	1.9168996556314049	-1.0693972647038705	-1.8893939709164609
Si	2.1575288592190067	1.0152784573237639	12.481714237546257	14	0.6005279274163465	-0.6561103393378397	-1.6294205131276682
Si	7.127855259742125	7.139222918784632	7.504302121998663	14	-0.5925711277820842	-0.2077900471005354	1.2245218188686207
Si	15.764004792441265	10.544738307087448	12.915507978404444	14	1.3879965517816155	0.7950636694809865	-1.1302949226537056
Si	4.851124297664052	1.7038314613390713	16.03639057151016	14	-0.7595235377511116	-0.23366205149505742	-0.3845728211506169
Si	15.002196093294478	0.5917482573762308	4.620440715911	14	-1.2672376484364967	1.9470983160586723	0.5713229991953165
Si	10.918998260770792	7.023121534007589	0.9246062420024661	14	-1.0230443495501127	0.36810129202762026	0.2483111811671331
Si	15.314533558465717	1.676617328246691	8.507650197368738	14	1.053642816854663	-0.2367010979834724	-0.663201190700276
Si	6.157637290693941	1.8892970580250752	11.01850342114691	14	1.584918279583353	0.38786357884987444	-1.08442460396854
Si	11.353925650409233	1.4854195045878886	4.465298173357288	14	-0.1893909603190237	0.3610070982282677	-1.7254225004556132
Si	2.2270472867362803	5.443277781159997	1.2548802948936824	14	1.1278893965161751	-0.3815116631564486	0.40954596712521524
Si	13.229010263595912	9.831146594411909	15.748406047719637	14	0.07287926585225736	-0.15949620454059796	0.43918618347694627
Si	12.11233996558157	10.374082330574154	3.18626672984696	14	1.690845247668134	-1.2173795453997813	0.3358665732973277
Si	3.093246827977845	14.45330829088801	14.339046009269671	14	0.6921577501473798	0.06474531706143692	-2.4183297278038163
Si	6.633896103951645	2.509381613132895	3.325372489727774	14	-0.2154097748273262	0.6524169465454469	0.4039712965700701
Si	11.38559563022689	13.440543219861421	14.356631510392003	14	-1.1884355843687462	-1.2281864152814275	1.1593854366879892
Si	7.42607543438648	13.706132028023534	0.07475847701673473	14	-1.0896467759842925	0.6139185010342098	1.4269665380085679
Si	10.65444138471111	11.978055904347881	1.0375084732028184	14	0.588434476432498	0.058523499297210575	-0.46706930645288813
Si	2.2187754240010635	7.624181789179356	0.48024709138331123	14	-0.8328447766079026	0.2751828313101288	0.2048749278885515
Si	14.099390032177686	6.974166281326336	10.642394520755397	14	-0.35457727804364136	-0.44408928132246867	0.5101101237332312
Si	8.631747825495928	2.1907426357113655	2.1249385075262084	14	0.2374557173949359	-0.04933822554098156	-0.04598447576138041
Si	15.803802262935294	2.8885042802528083	4.163056908755771	14	0.3721153016534354	-0.5738763638887555	0.8961528457953766
Si	2.922461244729906	1.4772444367557611	8.720738434449993	14	-0.13547719575030662	0.8148254420821767	-0.8255495223725142
Si	9.71277134970805	13.937076463837453	16.264437722597705	14	1.9871430243094466	-0.5986754460331798	-0.054903125895910065
Si	11.990101127712016	0.2257027457228815	14.719625521710663	14	0.23724591520081184	0.46290103050786413	-1.6360341673426848
Si	3.1650735678450688	3.5087643786594516	10.102790826087643	14	0.2249316062699626	-1.2313262490983925	-0.06682379860224462
Si	6.4769768007191875	12.565451672268235	10.82345841023819	14	-1.1901173443586552	0.18759710013715636	0.3063158314107378
Si	6.66167131936363	10.551707540109899	6.462861150783882	14	-1.0918383861591867	0.7747794482787422	-0.6764624377205358
Si	11.480566195481996	12.844204587250534	7.8790722996627	14	-0.5858356031748924	0.0702839921420999	-1.6679840076035053
Si	1.1346396975658752	15.690171609074405	2.056944189584702	14	-0.08562912002433967	-0.9644357466668052	0.2521840371108722
Si	9.37999867584386	12.53237570546841	4.108668016768877	14	-1.2620905526960922	0.7183205465536107	0.21922709489615005
Si	3.1478883710677183	7.327413538081345	14.633245093956862	14	-0.8932528961047815	-0.32308663719299974	-0.1676646061427084
Si	2.950905821505629	11.626326194802328	9.168104789431236	14	0.2460941170495694	-0.7952724432329826	-0.0708308662436954
Si	13.384172493248558	4.508058552240807	10.183411136811824	14	0.17308655304183668	0.9188256238400384	-0.15260255695621694
Si	3.1130405653638813	7.103505599544565	3.8353503816837957	14	1.0643267879020064	0.035373266994597266	0.05272977056878889
Si	4.546084183830825	10.931056608867548	10.794565951961731	14	0.8388588490622607	-0.23151209322634958	-0.06663199414536157
Si	8.76286062320975	15.594977923364716	6.460364170402485	14	-0.4335737176735951	0.5610838293683588	0.2781154340382897
Si	10.402198789034319	15.429064897102814	1.4398373081905713	14	0.46852892294313625	-0.1379979074061798	-1.1736239608404373
Si	14.403043846127682	3.7913546373422014	8.05264852918446	14	1.213434441396546	0.5359155364999613	2.8188374883971146
Si	7.386625769306942	16.38073761895566	10.090620917763598	14	-0.5389700096202972	-0.07561312213917082	-0.30665444598140135
Si	7.005581969449437	5.9501647985834625	5.584750914687563	14	-1.3198303790917219	-0.6686046256410992	-1.3455296052087298
Si	13.126450321701949	9.210028466610082	9.895200211383564	14	0.1914678991966393	0.02125327079740805	1.0884843792690537
Si	8.66404615188788	6.977414652650359	9.357374917986135	14	-2.0137601350257475	0.4066814986880382	0.11942372835236602
Si	15.250468457353016	2.956068763200934	14.133151766257026	14	-0.07067197193491025	0.4981418855784737	-0.5658097780573229
Si	7.549224800581709	12.607378630630237	12.844985508841562	14	1.6325719169185735	0.44386996603866	0.4388144016476529
Si	3.552566533194867	5.917367732351862	7.088044664515473	14	-1.3907309222895932	-0.9843322451867712	0.05726262924820996
Si	10.27605862439278	2.8176766606564585	8.199927716305824	14	2.129662734642171	0.10972037687412718	0.12397021388998387
Si	7.940748699438136	9.053176427632314	10.355535442787238	14	0.29390664869357513	-0.44215246768480115	0.19290360440741
Si	9.707898792722013	4.8005366563628975	4.547729697183348	14	-1.081807990084225	0.5601386910526723	-0.6602307927239089
Si	4.15058513158141	2.305587327339821	12.050497866056778	14	-0.4933056364712751	0.3984526761109043	0.5463513958839102
Si	11.209381329448043	14.07977347868205	4.286337522277222	14	0.33026362058366104	0.18765212179100754	-0.2972051197087931
Si	5.236386058468056	10.399312988448987	4.384594192462644	14	2.477501402752236	-1.5565037091377365	1.0806162827683365
H	3.294084767747741	5.034626106231442	0.23341844791322786	1	-0.10153423464530771	-0.30080775248338454	-0.15009598637960456
H	5.959791789961934	6.284376271261374	8.157528267569418	1	0.37648052426598283	-0.04375198501189583	-0.08562037826625117
H	11.274343834153795	11.95842130434489	15.017624216492015	1	0.2619943465704292	0.4314600119899013	-0.054991571918923156
H	14.563531436041833	6.752256583331305	2.8920512392439903	1	-0.08704914149265747	0.21621555923466063	0.1893220546964437
H	11.969747948597952	15.640953861740703	9.758361749063257	1	0.47638107859086853	0.17588520118281784	0.22871807307494466
H	9.378051293641022	4.4046635492337485	0.8612137834366606	1	-0.35825987219368943	0.7820392212607125	-0.2986745063992577
H	6.410075116768488	9.45146448556397	3.707353067376198	1	-1.1108108294270915	0.26817476953900116	0.3793532202401843
H	13.507234908090162	12.75107968752044	11.831342721320855	1	-0.13031750159383343	0.3753703209887429	0.4865608558849308
H	4.909432562930287	15.642172821283001	8.220385893280863	1	0.2608183229969934	0.4885143817071793	-0.06638054004505109
H	3.312646420858857	3.2894418935825955	7.52299666302758	1	0.5658827974484152	-0.21810352187124535	-1.2468094453363243
H	8.926130656439833	10.823409192490857	15.140171485578193	1	-0.027774879441963652	-0.018652597766078267	0.37803758564786455
H	11.07104664760879	10.994015951256817	4.089269661953088	1	0.3646015034658347	0.3847543411862194	0.18284981127403496
H	0.22799957393178752	5.837575920374468	14.675039164401063	1	1.0370699861820525	1.0780842582490546	-0.42491732028172047
H	5.421149481958765	3.5849386862078187	7.12703496395323	1	0.12041694633753924	-0.045960307371371016	-0.421574883365528
H	9.689515964092877	11.75706001586168	2.8544980980283774	1	0.2259389653343966	-0.2231660282466169	-1.1835916219455873
H	0.7955441837608824	6.335541400797911	14.195812520979137	1	-1.1384926348564657	-0.8074905928248582	1.2868520967028423
H	0.3780858132427501	5.637755147382801	2.917272053569356	1	-0.04317220076220244	-0.0467378096201838	-0.13712861669743773
