72
config_type=amorph sigma="0.01 0.1 0.3262291681401166 0" dft_energy=-6965.74397210827 dft_virial="1.7281313798923414 6.133985982339846 2.656341684376001 6.133985982339847 2.597228019998315 2.8072701891700915 2.656341684376001 2.8072701891700915 1.8400700209479588" pbc="T T T" Lattice="11.105996452100001 0.0 0.0 0.0 11.105996452100001 0.0 0.0 0.0 11.105996452100001" Properties=species:S:1:pos:R:3:Z:I:1:dft_force:R:3
Si	10.697651174549188	7.728040995215073	6.407882302950398	14	-0.2793822176295266	2.226136005575299	-0.19675949105603607
Si	11.10123197962205	4.677534737723861	1.4746875268991946	14	-0.24571462190431553	-0.37434779240292	-0.6021538944208081
Si	10.193594419574179	5.816121493993155	7.354279790616099	14	-0.7496996014333579	-1.539442368454298	1.3442872471180343
Si	5.265019738047047	4.024491040343929	1.0458128149066748	14	0.7706487104713924	-0.9704415915841392	0.5657804674566733
Si	1.4486106472296636	3.0770606950081825	0.5706294295078337	14	-0.14404026201905978	-1.1297621896313712	-0.24669369881022798
Si	3.899481944279092	7.835158330995578	0.5016989519282298	14	-2.3839746185159973	-0.6168043096455439	-0.0955438163598947
Si	1.3221799836189574	0.1830379275270601	3.319682293500759	14	0.46310697604400797	0.7982860357787281	0.9406941601405578
Si	4.885316825346201	2.751843800901338	4.4879553782865145	14	-1.71928655760908	0.5607465003503553	-1.1352095904731687
Si	10.077070304798744	2.4732609858968617	8.304886450937147	14	-1.5082646311211183	-0.5932576129025637	-0.4153602646961981
Si	2.3686091813287233	10.770051165420428	7.0431786179998745	14	-1.4522428173004118	-0.7805112133689484	0.687402490857766
Si	4.059908063029677	5.900427113061045	1.8003708728570271	14	-0.7127759579307112	0.32059369347458416	0.5312196697432429
Si	1.717320231388223	8.391146725380608	6.8467579647480346	14	1.1305592322806168	-0.10651420853990252	-0.06708605134489973
Si	9.47690225652726	9.816623582000547	10.05642425739429	14	1.043101285042056	0.39126540829896234	0.2654396276994276
Si	4.576770031913958	10.512603061664299	6.72472527573236	14	0.8104406790691961	0.3689757249470026	0.46048187751213676
Si	5.6032306480028495	9.335600663667192	8.541288691416549	14	0.7225423014892938	0.1789715560091236	-0.6184115075811685
Si	9.611107117654436	9.55675437101786	7.738225193961648	14	-0.3424252058584935	-0.6573197872804374	-0.842387691114164
Si	0.8011310540722336	5.383287494265461	9.15069692873618	14	-0.6769545472788122	0.8640178859515059	-0.3207024512296264
Si	0.9332602044625125	2.9591372246797847	9.188179666762016	14	1.8958482166016288	-0.1152299984646725	0.7876884538701417
Si	7.667857600441143	6.188027997184626	10.255876847677554	14	0.10805172952135109	-0.40091348101281804	0.11497725881170194
Si	9.942510051785101	0.6063141067080762	6.80411093837197	14	-0.3886104849453774	0.47454890893973095	-0.27713712846397326
Si	10.479040740386052	7.669745619838	4.04681409321265	14	0.7365705092265538	-0.38746171508833527	0.039399103704885134
Si	10.503396190605509	4.3583039757046995	5.528365125919243	14	-0.15657568600744173	0.666134050538969	-0.3355115036526153
Si	8.471976167558992	8.553172107620295	3.4337630890567303	14	-1.3508700480692093	0.793197047018559	0.4883182063712519
Si	4.827421265841403	1.7352230976690084	6.429205816138431	14	0.9826348014544094	-1.4760949613554257	1.6522192753330172
Si	5.31632944165575	10.457994877109321	2.937547167576902	14	-0.9435892247310447	0.8991085884714188	0.42785197989413754
Si	2.63428682845586	6.011276063649455	3.7775047852456773	14	-0.2463237167546587	-1.407552378846662	-0.3897525699285872
Si	7.601554801622107	8.399576176687752	7.374159524265359	14	-1.1024089714619116	0.5326180939268713	0.03586434811074555
Si	3.7276388611757487	1.1840769177370938	3.089710424967125	14	-0.05728988296460353	-0.7638177978568229	-0.3531261462009498
Si	1.9735466755346223	0.44726846331648773	9.293608891081803	14	0.08942432858741026	0.2320851926022106	-0.14242689343066686
Si	7.78096106830933	6.132164835030563	8.010477590988428	14	0.8097094567161459	0.5027073972954607	-0.9493994085335151
Si	6.815672280678607	8.093295006531738	5.090755547717146	14	0.4233594875682427	0.04861317384069981	0.6481044315919626
Si	3.790909722963362	4.934749615554498	7.174606980014026	14	0.6610337489153914	-0.3863126881207611	-0.2513098613020218
Si	6.28963675872489	2.8842383846068227	7.855726636424867	14	-0.26279653143031534	0.510212967946037	-0.27513886540915417
Si	7.972483977125794	2.514886260599333	9.422793841812629	14	0.23205871021741306	0.00617656631059173	0.13394970207960663
Si	0.8996212518087467	0.9082028552672845	5.670033216662231	14	0.0038618001908624143	-1.2942800199727502	-0.7670167670961512
Si	9.060438495569962	3.5243547021165105	1.828224711958894	14	-0.239001980134473	0.5668310210904858	0.8577744709025902
Si	4.336336314722446	7.533863753246556	9.366564181775647	14	0.6844542043871521	-0.7011561045468341	0.30657834126392497
Si	7.402235483296267	7.728585189041226	1.5224099936538682	14	-1.0009328437968394	0.010386237051270179	1.3900565213641183
Si	1.4873594688510403	8.356851408336523	0.951418508661696	14	1.1533862766444876	0.21259544294389213	0.5543061386339164
Si	3.678716946804248	2.2917556858801915	1.0216961436109395	14	-0.7056457686568767	0.22444978113296687	-0.14037463716412465
Si	4.7875618445748165	9.268342749153275	4.838982608148039	14	0.775972955368355	-0.6094005547656455	-0.512123556309439
Si	9.14398890687911	1.2753793145698078	1.5344155758185882	14	-0.11877580981168873	-1.3152592109430303	-0.07888871031703948
Si	8.275366712367465	1.336351235091837	5.1743948069979115	14	0.5215631123818306	-0.6975673557409713	0.688463071802327
Si	6.1480908339428755	5.972827103932285	2.6589976705617824	14	0.7072786776457027	0.5048172463211742	-0.07594145228855373
Si	5.549810805068248	9.174030627282042	1.0507072275431153	14	1.1650426397239106	0.97181353338297	0.5597807931921078
Si	1.1437621506159708	3.0834688549610445	6.15980766019984	14	0.1782909844308804	-0.23434699395234487	0.8466775803408311
Si	1.2531006856868951	8.930087415211664	3.3908717307587204	14	0.28426526085355186	-0.03838146021917052	-0.9245684446831212
Si	0.09369573906814166	6.626492737113535	0.16407221738580893	14	-0.3210868314749885	-0.4829847054951368	-0.6235506328950805
Si	2.9107706101308892	4.155919402358081	5.210500401463689	14	1.563803334252169	-0.3196218156635681	-0.7021804329063811
Si	2.894877929207934	7.982323889982355	4.825533246444547	14	-0.6063954468674564	0.7849836510733459	0.01805481577914384
Si	0.38703398095887814	1.024627016074649	1.3232905832641673	14	0.0906923977313073	-0.06812374945211148	-0.3607618147807255
Si	8.74390649068866	3.456885773670003	4.348075352972315	14	-0.9332760070708667	0.16105403725407566	-1.0283027741508795
Si	7.996583989426851	0.5027462473936629	10.70739113343768	14	0.76133539567022	0.13130840558421852	-0.40408365387256057
Si	4.108130299624695	1.1775688038161631	10.132644711045053	14	-0.9970643587321444	0.33654508799131483	-0.036656762770415185
Si	9.071933201897886	7.804927808652962	0.07709005317296173	14	1.279567898220331	-0.7214025305008721	-1.4472564156425167
Si	5.847684735910021	10.762910009701727	10.472610368440286	14	0.08985961671811132	-0.5797811643670077	-0.688218045465317
Si	7.496525393174596	4.064306037624708	0.15253086587278664	14	-0.27960050447120716	0.3810262384720047	-0.3502776186167577
Si	0.32233821982646	5.422214011830071	3.556306653909202	14	0.06596196409893099	1.557241359254087	1.5729461847706154
Si	6.541354168311736	4.399862614428458	4.346287287543527	14	0.36545845286904005	-0.08661771001993661	1.411810386367359
Si	6.133975112452256	5.038512940406468	6.794082223575724	14	0.366204073411883	-0.846293200095469	-0.4861592492339236
Si	0.7168998451805716	10.273335474100255	10.902956624962709	14	-0.8807555244751378	0.7183747968758657	-0.2958131232884649
Si	8.674549542845297	10.97922150259928	3.4456353992640256	14	1.5581142495102773	-0.6993455321803858	-0.8489684351810831
Si	2.615539906444715	6.575238563487093	8.171503433547427	14	-0.7237581771951919	0.9086281059192671	0.2190890265404581
Si	4.129986900642427	3.2269472231257246	8.817417081205111	14	0.6974120609796345	0.8319454039669146	0.8137931432961372
H	3.5309183460197016	2.0184037952046543	7.175928593591826	1	-0.4498896949247227	0.1396529279007591	0.07142890534116185
H	4.485289939138011	4.341944842930756	9.942021387941208	1	-0.20201020234084247	-0.5738100293714957	-0.02426506356942951
H	6.815816658632483	1.0537747037631853	5.487461740986158	1	0.17403246268911915	0.08063809037686823	0.11885551407661332
H	5.861222945585133	3.2643077951905886	2.4793581779490648	1	-0.3903963747007523	0.7354878167762393	-0.8822776188246656
H	10.26341781926853	10.684623840710875	3.4986887443157073	1	-0.5190195178886082	0.3660991723148209	0.31330563833409236
H	6.633656104825138	11.061605784280957	3.420080501427743	1	-0.003396944348979642	0.0488006074185386	-0.30103220997783353
H	6.5855449281946425	6.558535144823134	5.3596983578012	1	0.006371456093858955	0.3703204130294401	-0.36765546236510654
H	5.487450634989706	6.4039063562205465	9.560508197818669	1	-0.27778761810997077	0.556762829767318	-0.006115116893440191
