236
config_type=amorph sigma="0.01 0.1 2.2617354365101976 0" dft_energy=-23396.279185571304 dft_virial="45.06239628697241 5.496497700893481 7.6005941756660755 5.496497700893481 64.59293477449692 -0.2988543937296969 7.6005941756660755 -0.2988543937296969 68.30438325878872" pbc="T T T" Lattice="16.340456583 0.0 0.0 0.08532986427642601 16.528061365029426 0.0 0.14668827874559104 -0.063629737934202 16.286336990797107" Properties=species:S:1:pos:R:3:Z:I:1:dft_force:R:3
Si	7.707598918767763	3.353555172620407	14.659600418726681	14	0.8701643703298518	-0.7519693732099846	0.08338351663772235
Si	7.091169900585013	14.524309608447732	14.186482106913816	14	0.6270355090460092	-0.8861515032105327	1.125906560093277
Si	12.194632738907181	2.7506870993558885	12.867661830602126	14	0.24561614857055392	1.2329195630652883	0.633057294816328
Si	10.124344277165171	3.2238511644471863	3.4050031001719825	14	-0.2864139335695996	-0.7802888127587556	0.1883789732650134
Si	1.4029295084813647	12.139050675840107	10.627767599756869	14	2.1686874854124425	2.3551671831774623	-0.7429111120565709
Si	1.0187000123887027	12.678164823700392	0.18264545345648253	14	-1.0484245014968905	1.8855779364002974	-0.009710036352071235
Si	6.805510940737982	14.586524262841847	5.560467825898538	14	-0.9642534552996068	0.11587945966854189	0.5520659345684714
Si	1.791976171174695	5.000823528387371	6.402504625985794	14	-0.02892724884645402	-1.052378347258214	0.06463501664320255
Si	15.005867766085718	13.981092371939456	11.273504860866888	14	-0.8654188812404545	0.1262101608448969	0.8300859805993834
Si	5.258677567312769	12.17257312252013	3.4224939248984256	14	-0.35909316742794944	0.6246556939616801	-1.5063545569787802
Si	0.7402602662600409	4.652172108412874	8.570477971226637	14	-0.6413221128679439	1.2355485182551396	-0.9425301864496756
Si	16.4785040283045	8.26239010067378	13.669796869759356	14	0.42506927260614125	1.4878017180991239	-1.1520601005203555
Si	10.056876165979624	2.753129997615047	12.162072745119895	14	-0.3994947450971603	-0.35588442798840464	-1.39393991883967
Si	14.073904531285237	12.308690759902179	5.9159658971813105	14	0.7126553730911963	-0.7477877275172957	-0.44881857244834905
Si	13.52939803275256	4.927293107809529	2.839507285158443	14	0.5742877407399793	-0.3283730868417562	-0.007726685708109006
Si	4.431463195391951	11.23439234398982	16.04944448957638	14	0.36969743421036816	-0.6863838189299233	1.1549106849888036
Si	1.2779201134844398	9.888133172983958	4.661314593871063	14	-1.3184011016442514	1.208866101463707	1.0906520781644704
Si	0.09838098694926811	6.450295559354094	5.515484182971197	14	0.021186164948552185	-0.01589380175755938	0.29311269137071344
Si	4.728655249495264	0.9966322257733613	3.543192707448755	14	0.9704539328896759	0.44413710388142336	0.3839621836370817
Si	10.698595308815882	5.607000544109947	5.815967205030326	14	1.2245894389385406	-0.7050461868962181	0.7904505923155768
Si	13.28764751378971	8.33269001298516	6.392015686905166	14	0.1882172507403761	-0.0026304978530435	-0.7678703740624403
Si	10.548465729913913	5.946133648124846	13.216385148585587	14	0.5396397825561958	-0.47413650364637916	-0.3661251404785544
Si	8.729583362929649	16.300352200408344	13.991241429523157	14	-0.5488384260600895	-1.1074552798737662	-1.6046294014097362
Si	7.231266439145021	3.6384395948254036	5.863181320281246	14	0.13402632101814704	0.1034769618252116	-2.4401794950354985
Si	14.021119954385172	13.563552855102348	2.1676154892416744	14	-0.023134805670692413	0.9028942839448048	-0.6292137494732387
Si	12.445542083784805	15.892040139403656	12.54955726016389	14	-0.3848561569568973	-0.5452586761228474	-0.02029090607607663
Si	10.192534636531688	15.17852593247867	12.44335409664834	14	-0.033419741172348756	0.8389205555899443	-0.8616923211894318
Si	13.692031329031844	3.0146246902671376	11.137302253110608	14	0.8358360005373627	-1.3580069222168765	0.15843562359603686
Si	16.164765627865243	6.798984562378731	8.913207609735453	14	0.8450467282362611	0.5581064894076273	0.3153010731730593
Si	9.73847256518592	12.991854202769902	12.534313248217611	14	1.279672285096329	-1.3946698556400599	-1.5032175513776675
Si	11.842306350247167	7.1294000328066	4.694946521610193	14	0.7753268366014018	1.4975706327630265	-0.650246162323646
Si	9.307143337038418	2.4674367228091914	16.21191601533549	14	-0.09740066862210565	1.4459875751670235	-0.46866879107255227
Si	9.597313896948014	5.993746470516391	0.29834078820109744	14	0.47860508469279656	0.2720910771626507	1.3323606608694634
Si	16.226509677109767	8.12842613546937	15.934005700000117	14	0.98208869868441	0.10438199089790372	0.6947170283830553
Si	9.194041232753523	10.833520092867372	9.445934273117444	14	-1.6951022267467029	-0.10426037761626072	-2.1783103612941606
Si	2.5744373006059917	5.294208256106844	14.068943568666638	14	0.23100609969934446	-0.9915480522677668	0.8472010573840133
Si	10.503286001507574	1.441020746821996	10.145398955472368	14	-0.059625732147958056	-0.7418322762642366	0.6111656185679272
Si	12.25344040810374	15.401501266827655	2.249535100229228	14	0.0979310876496522	-1.6755836807087985	0.714125016892193
Si	1.5091130634490153	16.325313881884536	14.45538556258064	14	-0.19274882386713707	-1.4016511779158582	0.32958510588967393
Si	6.212906308253245	11.73007355825249	1.1408743381684772	14	-1.3989746572775839	-0.5155940342705748	0.6933677123110414
Si	9.817024408071717	16.121327792130653	4.670109027604034	14	-0.4101519766491741	0.11548968010200744	-0.14988309885909631
Si	12.059204668792935	9.540114128679223	11.908460688723444	14	0.5097668811729912	0.8459373591191605	0.39439907146315883
Si	9.553675073597455	10.452354432384022	0.27804757517066975	14	0.5700235625665137	-0.5151304639813522	0.04943207088516696
Si	1.1497079889972468	15.363967238056505	6.271952548115916	14	-1.3157505491697108	1.234304874611784	0.23440278693779207
Si	4.877466153550987	0.9260218447869015	13.948326488399223	14	-0.4907813252679538	-1.0688125953540688	-0.02625175665030793
Si	13.153526680202106	0.7747075827826633	3.160674057160333	14	-1.5295361567662993	-0.21169478475024425	0.2587074455291519
Si	1.3301965021847733	5.498012966792653	12.186973966906729	14	-1.44897957042808	-0.2938454563869556	-0.5997990190580845
Si	3.9691295849238664	15.358091209869258	9.218658130595815	14	1.2490007984006863	-0.18015477867745575	-0.6726160641615944
Si	1.1126723441518775	8.5297771619697	10.016003781928566	14	0.5107603562686964	-0.2962576673983185	-0.4480642101474176
Si	6.714434137881315	3.7636973647623906	9.621728173128675	14	-0.5593478190561948	-0.4714669249924694	-1.1346238926812389
Si	10.246513700807972	0.6588570137005099	15.2285963595403	14	1.267002906520767	-0.5088960478010571	1.9827868005655198
Si	0.36818480177381435	4.614193619222665	0.8241227575353136	14	0.25918155735018716	0.26598907290634327	-1.1282123273443856
Si	1.5002532678897127	2.6659798064752747	5.490127062445698	14	1.8859412335820338	0.4661254536898618	0.8538769323477777
Si	14.334188396104528	1.236384306896112	15.344830929352154	14	0.1080260184681496	0.379626528735716	-0.1022996526991158
Si	10.666804950533654	6.536527416833902	7.929935341264353	14	-1.5434592062959653	0.5716564715553397	0.6633505719193767
Si	3.241609972661591	8.942264209631343	4.8895678956963575	14	0.6607912936837013	-0.9402246763090988	0.25484024601711713
Si	7.289258719558089	0.48777733541347473	7.974494132320535	14	-0.23195098090449887	-0.16126255389553967	-1.440457898954981
Si	6.228279409806532	8.241160579481145	0.8241995576812536	14	1.717921557794613	0.8911569310477968	2.573889827209799
Si	8.90108789308784	10.57651575768429	5.290065950363053	14	-0.5969016404728097	1.1603909959786989	1.2944949643775145
Si	15.686787664264594	3.0156377985752836	2.0747494063891687	14	0.14385668509920121	0.1227067727356631	1.570904727146418
Si	15.478445208785686	6.528880083153058	12.361677958463874	14	0.5841019068575165	-0.17793411501244386	0.7706528242399046
Si	1.0888218137233305	3.79343699574345	10.597442980430138	14	0.16524699581017316	-0.9447894166944896	1.6017019408922157
Si	7.75964163893896	5.5870357742568375	10.409825126035448	14	-0.1053507833825355	-1.1548615768771884	1.7315700132760874
Si	13.14352468672765	13.129401630102963	14.509666925303707	14	0.549540594923022	-0.5213162862710964	-1.5159722906498583
Si	2.9352427521869235	9.887548184638286	1.2572445337699698	14	0.3035187259329487	0.21186473481190604	0.04909448475663152
Si	2.0493073154894375	1.3380660660751464	16.07104003699647	14	1.2056576191346942	-0.10052481869661757	-0.23772748322727555
Si	7.160445266268642	13.49547851297757	3.57097638577683	14	0.025730850712445928	0.19418401485684375	0.11805821431683537
Si	13.886373281310437	0.7198232572116829	6.911207550099459	14	-0.18834297779053133	-0.5457667265341086	0.14282258653943766
Si	14.151374635945242	15.05256062077164	7.617710067104681	14	-0.10008335991314815	-0.5107266747890026	-0.27638019505772177
Si	10.848945483881723	8.239255282243567	13.347148018345388	14	-0.7265244294091391	-0.016951811596800318	0.9018684129220659
Si	3.6731597969729624	10.536814984370231	12.680596283639943	14	-0.7361048820530748	0.37267117462365146	1.6502585504158724
Si	9.413475590160974	14.075275495592551	8.373949665857236	14	-0.5585381779908801	0.646652271307143	1.2075116431810529
Si	2.088604479525894	16.097882505025368	10.784899064304655	14	0.042183610766605505	-0.6797331407982963	-0.41947531876109506
Si	1.113455052022203	1.1446064984520343	7.283171899480921	14	0.48307392284974593	-0.84408950572557	0.5046367547276999
Si	15.284917011244927	6.03784772878825	16.109784893600423	14	-0.13607729173202918	0.3698295890238238	1.3785829638729574
Si	14.521601994791931	8.129913117018424	2.414011600011073	14	-1.7801045112939904	-0.2621396140210176	0.6046110997752737
Si	3.750925663897118	8.194590278219595	7.07118879027532	14	1.3381451336187324	-1.155980007691453	-1.4600867454111195
Si	15.560341943134024	15.712268972260125	15.12478707291416	14	1.3638549012675532	0.5836730464901158	0.583763549397385
Si	3.883061132009889	13.531362155633838	7.71624302030017	14	-0.57628111869469	-0.9883668236551475	-0.034404731620497495
Si	12.555938208459551	13.881758736371399	6.239575567442359	14	-0.760015390198856	0.7172525094036211	-0.9669032364425513
Si	5.8410694144331305	9.162531930324525	7.593215722686763	14	-0.2782367902094006	0.42073438903637156	-0.3304574819248002
Si	7.513021663914373	6.391433966650811	1.3669086059897995	14	1.0811564719960995	-0.2654375708151715	0.08499791366824333
Si	12.34635061018902	4.745106821183029	14.184787601566159	14	-0.8644544596348671	-0.663910558658105	0.23417421567483093
Si	6.088795638368385	12.984255890458808	7.198433559732799	14	-0.021126001084060722	1.0752020491851688	-0.2137930638020171
Si	12.47594023516616	0.12853566552753629	10.405556998775968	14	0.7909781831272713	0.5157817249589457	-0.029711435969099184
Si	10.382000596565916	10.4215984250035	7.379977666415588	14	-0.5991976375237018	0.5764634100618886	-0.14501599648805596
Si	14.326116210552525	14.884010445163653	13.433677272135006	14	-0.3811684205962088	-1.4745813516534543	-1.6157203784292589
Si	15.853834517866945	14.448408187619698	0.8073770576290552	14	-0.6373723808751326	-0.9071931720400924	-0.5677843869431967
Si	4.926567591537244	16.40382814172019	1.5306334447688263	14	0.04331438288640663	-0.5612380956875678	0.2736013444277057
Si	10.794520325140727	11.227743412206197	10.88546640434473	14	1.39421554132999	2.4038739452518154	1.62892943201152
Si	5.674650034363567	8.007433224700547	15.102474179450072	14	-0.8153067529981084	-0.32822730517010373	-2.38147627547641
Si	5.1335848359872704	15.167692209764141	13.320879100342557	14	-1.7657582578286282	1.0320995253771421	0.05208416602289972
Si	0.949047182158007	1.3452885478848322	1.8225720420807043	14	0.47313711500843764	-0.6915738521291741	1.3171417742584428
Si	3.208097330255516	14.69442683384203	1.6961573678176414	14	-0.6350159628492167	1.0331968731277814	1.5063165046200422
Si	4.473927139914194	4.265146760198862	13.212118655371766	14	0.2331964243215786	-0.28355306467987085	0.8360398891892504
Si	11.096866159250316	4.110477802458133	0.0219828162411099	14	-1.0807939461459588	0.2247925094721426	-0.4223606131513652
Si	4.9087826385923075	0.5952289098119662	7.524046569970924	14	-0.24641344833033185	-0.25992023590866575	0.5144079833863905
Si	0.6032275633093447	14.406973691862186	10.16012170685365	14	0.3224196924729533	-0.7629860452857551	-0.817922852661359
Si	14.893051619791027	0.7333547893080652	10.417853192354675	14	-0.8286461616201007	0.7079582207818178	-0.22060829267413362
Si	15.296856982870123	13.160159271529144	4.132952466442391	14	0.6498365852461464	1.401737052833551	-0.02567094395848648
Si	5.421689962184778	10.133684482148015	14.252928939562926	14	-0.5468936419959295	0.2345369986355038	0.0059580223583791435
Si	2.1775423166158467	12.480701844214446	12.844226347770789	14	1.0659535262380642	0.12174980733550402	-0.2523809837783955
Si	0.6160662600466078	9.93157591085552	7.002933069082471	14	-0.44307498027367026	0.5968664163299237	-0.9480112687711674
Si	12.468127862873827	12.361416511158545	9.43551069586315	14	-1.5277757209535938	-0.16295665519098523	1.232948616555406
Si	14.261953773733719	10.97743212803951	9.432724648015748	14	1.5237851083861922	-0.8791940922142119	0.17513572398199467
Si	9.813298783970792	4.898259384552855	11.222398448857897	14	0.3997449136448107	-0.09752485300906881	0.37474374262222276
Si	0.8805447200707543	11.060216149180306	1.6799688774808632	14	-0.11542745935325988	-0.902166661139203	0.3122278309838863
Si	1.0863282600487647	12.037690823655758	3.738774900381999	14	-0.8083370006962509	-0.32582255036416924	0.0015290363338920625
Si	13.242783156195424	14.50141662877495	9.681792423436466	14	0.49269834139465624	0.4729080295244124	0.7184611860146227
Si	5.719927805509402	5.1837843526559055	0.5488465238011206	14	-0.3762959189039962	-1.3735554245299397	0.47767742989328715
Si	12.018003841564559	3.349586075716396	1.9732702688717636	14	-0.5427117391927088	0.9495397908839955	-0.2913543124422642
Si	15.561260276793988	11.831467725395665	7.606016836373885	14	0.3036380252198036	-0.8692449430673669	-0.14819928198493132
Si	13.264919572728415	6.5273587866451805	1.1940854009853583	14	0.42164070366172374	0.29694338118720204	0.01776428087796711
Si	10.658051367942143	8.588195928299582	3.1351698725255868	14	0.8882071019139909	-0.14216206958269162	0.11044234324802475
Si	9.536751262714443	15.820320241415214	10.258100718570978	14	0.04018097683274217	-0.12701440258903923	-0.29510915465180837
Si	3.35211067625847	13.301955217573784	16.150484068811704	14	-0.18828255681550787	-0.07176237770118504	-0.7077792718515356
Si	2.9247848599738036	3.942486470465285	2.5049544111237596	14	0.5011027704651563	0.7829830740237388	-0.18482544860203676
Si	1.012737379781566	11.551565508402824	14.543543959891583	14	-0.7283599414971929	-1.0270997539715823	-0.9422527641856318
Si	13.620322869363006	10.255509122156914	5.056943192476027	14	0.512261367554599	-0.5174048637475551	-0.35948294699448385
Si	12.641647171328705	11.805381820506563	1.4648647410679096	14	-0.12562266327924304	-0.3410542925017905	0.2104961354499912
Si	8.528525482995443	8.615077613424276	12.850528861874851	14	0.0082787020203448	0.637900485907891	-1.0047977293140857
Si	16.214556633119305	15.61228825461138	4.278715875345385	14	-0.4455648386657016	-2.1731887194964257	2.011340467808956
Si	15.076373568150046	4.630006279058035	5.761912974653762	14	-1.6740821552018321	-0.6357019337486323	0.8175819240959074
Si	2.518214691640864	9.47466896601865	8.2647169816912	14	-2.5170776556136794	0.47127897719356665	1.545539744721029
Si	11.76878409989762	8.585525897693921	8.146055854076769	14	0.2990336898124824	0.16115816701954166	-0.16133300218131175
Si	6.915653788335693	15.084610792313537	1.8427345314584682	14	-0.6244502626466003	0.35594202074757597	0.22762792441920188
Si	11.4723486089341	8.987141639590895	15.638034278003555	14	-0.40147578174633436	1.462665306936696	-1.403664610492066
Si	5.467721028379088	3.3980698444438158	15.2249638760419	14	0.3744390666417853	0.9021332367700411	0.7423202720540009
Si	4.845425786283041	16.116022045878154	5.393711832423365	14	0.0450033419712119	-1.1432494368092716	0.605538497464251
Si	8.407883892043152	9.036927742707979	3.690698009023496	14	0.11591545514302398	-0.774877921612504	-0.37919638281565526
Si	5.792159159788895	9.1796648990518	9.95976810059817	14	-0.614824301438498	-0.13154391883154407	0.12951531673394726
Si	13.782119534265238	2.0036961990293096	1.2695734082618435	14	-0.22637193947030954	-0.01830009922668597	0.19327770023149154
Si	4.723081519754803	8.8230785533606	2.529904654280342	14	-0.5046167001062026	0.49360799845692466	0.7367312033090629
Si	7.579729943868814	12.611664067544558	8.962586835483622	14	0.841934405246222	0.13964341481107456	0.5969324937366515
Si	3.09709334059588	13.208291720440029	3.6624894788242632	14	0.892619118643365	0.5620852748905564	-0.7249869084276905
Si	2.5848102224448803	7.096905400845646	11.281648944427856	14	0.3369600643899867	1.7841457746361993	-0.7505614359366715
Si	2.6004006520707206	8.502361143914742	13.115474658957272	14	-0.9331754768528489	-0.49979819162571315	0.6857281870732855
Si	1.5075296732061227	3.342198555295222	15.188547534501025	14	-1.311966910580581	1.830086027386073	-0.22804958569170616
Si	7.209850636747341	6.875778172136198	13.734681554759133	14	-0.5763528525331222	0.5924158330207473	-0.15625635472667934
Si	5.221909905955361	4.3562529758773785	2.762375427949708	14	-0.13473466053384783	-0.7011633036417305	-1.0932401527797315
Si	12.815043926359209	4.245729395641282	5.097626027230721	14	-0.1411025170802586	1.0259108748715458	0.6514949481776419
Si	8.745070847679017	5.469876334602386	14.642189662237495	14	-0.21853469623343416	-0.12376195435905188	-1.121807961102429
Si	15.163966585663218	9.88257414965442	1.1135155117115603	14	0.7448664376525436	-0.2163207174422547	-0.9330109261123594
Si	4.786449810383678	6.944326387501883	10.488422722199678	14	0.04635651470120584	0.18591765414203565	0.9544840264146401
Si	16.08423985782422	2.1577899726983163	11.895090927147233	14	-0.11999811328088711	0.8658202307809296	0.05286243960330854
Si	6.015232536877377	5.654667290008216	12.123375275840035	14	0.36918886957804287	1.351385040464835	-0.6500173339501527
Si	7.675904969179377	10.528000942089362	13.954954177589288	14	-0.8593359031635162	-0.45461410095049476	-1.3193058736064114
Si	11.04478422198332	4.708456811113018	9.237044412343005	14	0.09896210088303158	0.13670515565120933	0.5110280083325239
Si	2.645894117243451	1.9375647371922504	3.567263834041172	14	-1.1326672815326064	-0.021016214886890396	-0.21618522019188288
Si	7.730779490476407	6.7588360605543	3.6897045092632497	14	0.357974736613685	-0.06428046121955414	-0.3087984907078728
Si	8.091109434770773	1.788036487092534	12.903084672382755	14	0.2985773186181561	0.6175051929558163	0.9395574744785204
Si	3.0585919567950155	14.507217490861915	5.591119254356928	14	2.179395624849795	-0.26124409803800996	0.43692618190053606
Si	13.484875190700862	10.734008346322561	13.620270579901941	14	-0.9973299539117157	1.324611606545069	0.016996291718838877
Si	4.5405700580423005	4.995068419578838	9.233103094215187	14	0.3287754648243593	-0.987279760325789	-0.3147308020130504
Si	5.867199438555005	5.392579438782162	6.163420869537289	14	0.0017689204602618785	0.9392977928411854	-1.1303712844817142
Si	7.869348196345905	2.7781178238217703	7.754775450968542	14	0.36976248317496796	-1.261285796730886	2.026395060790019
Si	16.300579332754847	10.53245371650823	10.772130631530699	14	-2.1744953552201247	-1.364516189555895	1.101776993774219
Si	14.61893392442857	5.236591806195187	14.17008119064146	14	-0.5960256648902352	-0.4944428363543768	-1.4778980775164452
Si	16.28522747379512	7.027556503107394	3.2941085915714527	14	1.4549316792442226	-0.5175262199186661	-0.12586460428986898
Si	11.90940516711394	1.9773439446979053	7.002900388169305	14	0.033086783033389584	0.14663913527666544	-1.6108404205316182
Si	5.467828875392536	14.978773655025446	11.041328215416016	14	1.222673451253966	0.2016672168911347	-1.1992619946508258
Si	7.720102636145075	10.005403727743174	1.6567768674526115	14	-0.5579797339153441	-0.6266182186525491	-0.8869372329963698
Si	8.670970145166427	16.40426933404793	2.5769226840522665	14	0.3603080146917194	0.6309942399074413	0.11396964263673592
Si	15.609141082673494	8.015595282763755	7.057101682655117	14	-0.6310389771400118	-0.2595134870470183	-0.5873461275504793
Si	16.368000056616307	14.025033493736801	7.844301544495482	14	-0.5122683095389633	0.8879453633923999	0.4396284135920117
Si	1.7355542086392546	0.9911434664071316	12.534345929130778	14	-0.5541061066400089	1.2323312941680382	0.2932186209099035
Si	6.979092342927874	7.262409715346561	6.977379863077975	14	0.07647469953195245	-0.06115528270291414	0.7638663917473738
Si	15.64433679210762	10.581221809180194	13.21030976682803	14	1.986182716472371	-1.3863315039762878	-0.8653139801433924
Si	4.385556316667672	1.5124138356787813	16.187356309091243	14	0.10615991022678613	-0.473283410901154	-0.20926868977015253
Si	14.768813494344819	0.8422492260228355	4.743935210446027	14	-0.3007653292456022	-0.0952432541479694	0.42478079458922063
Si	11.170697244229286	7.671707105883204	1.0179467173402263	14	-0.452237628303082	-1.95685514652757	0.8906105711672654
Si	15.35894418170289	1.7090107709658293	8.293446772455429	14	0.3995690500409126	0.39522799581837464	0.4406370582091058
Si	6.702892873396742	1.899473498851619	11.091114318533101	14	-0.16193952592633465	1.6041285500933715	0.2909750744075423
Si	11.176962175283208	1.4419750294864433	4.700760456062425	14	0.04541703281722372	0.5236999580134057	-0.13722374759428319
Si	1.7992215296235974	6.157515428528192	1.9078479828504065	14	-0.5287622072782453	-0.7109658997853271	1.2605347768668707
Si	13.483478081663014	10.349667735125134	15.933468098978537	14	-0.8002945832548278	-0.288747725868698	0.5231104035634958
Si	12.026046614294714	10.49355362556674	3.405409977540899	14	-0.4592256354527124	0.4455591822339974	0.23348464522796722
Si	3.0130184233850286	14.38119825564816	14.096531161515717	14	0.1879462562396325	0.06950674700381913	-0.4087188425437236
Si	6.545176420503283	2.675145168572679	3.7492148180928777	14	-0.3596912065254159	-0.4989906074446546	-1.0445069083205807
Si	10.833905727642732	13.09529092698595	14.517126343733846	14	0.22736130079750255	-0.45377412084240243	0.2719470952647224
Si	7.001962445961441	13.591926423913069	0.10045459088965081	14	1.5751827892886126	1.1929967252066889	-0.8512978566011371
Si	10.380409036094731	12.230792535279702	1.5169483123805638	14	-0.22404688892929964	-0.4818711597809807	0.06571102421968453
Si	1.978899556164607	7.917668560507495	0.5210089219663219	14	-0.09267677681739758	0.4305608964594455	-1.7121697380829102
Si	14.36901971335685	6.808166264932718	10.285966099181968	14	-0.050336585736795066	-0.1477143715215514	0.7371819180716849
Si	8.414042610129286	2.1870099771600366	2.1068992547162213	14	-0.21115793795939733	-0.2529484267225522	1.4845502983112646
Si	15.883574148848005	2.837904286367651	4.525731289419279	14	-1.4340648455764327	0.5845557069465226	-1.3403475424359714
Si	2.8166665949467258	1.0571883238243007	9.097372725654154	14	0.13365093964140543	0.7867386875648791	-1.689550439028907
Si	9.455142120401966	13.69263102378844	0.0668880249768522	14	-0.8000004488062029	1.3860682227915047	0.5949208609341676
Si	12.35240474935302	0.9194382748296109	14.13262232797059	14	-0.4639130175618744	0.4058320054902613	1.46523461248312
Si	3.2809447197481885	3.135661720268735	10.214470065448708	14	-0.04546742648149863	-0.06949646258253854	-0.7769669446851243
Si	6.304055009118877	12.760675959216252	10.968886069246603	14	0.8715139435123975	0.7639880050290168	-0.1904584832479492
Si	6.582442465786474	11.026090739652368	6.2475562464374965	14	0.32421766642333283	-2.038424748361928	-0.7332733237639958
Si	11.13842484247786	12.747262078407267	7.591294084992602	14	0.019192272772777352	-1.3341820318782565	0.09619019223737994
Si	0.8275215725045776	15.586733414561227	2.3039308461483765	14	1.6976985288989883	0.5736084547143963	-1.850436840216109
Si	9.379722743043128	12.425778301547666	3.626968594304138	14	-0.14497897257144587	0.36476733975898423	0.9317641971426196
Si	3.505085128651541	7.275364429325563	14.998664892823932	14	-1.1958069433216107	0.28540323206824936	-0.5006350864074213
Si	3.2518489027564983	11.456651966340468	9.06782918015209	14	-0.31316962686265654	2.0350476015239134	0.6426704004978298
Si	13.298285151025244	4.792126485000612	9.75630163736363	14	0.4770068856257924	-0.2520511109658205	-0.6841865523233248
Si	3.430664153189926	6.882074150057628	3.540261229537765	14	-0.5676020955759982	0.9832500669575208	0.22207407981715005
Si	4.720272595268185	11.150551095308105	10.886901096432716	14	0.6381928205827917	-1.091754311015218	-2.5817764356688215
Si	8.690227373249494	15.361553752619196	6.580839466995681	14	-1.0982067569266616	1.4090587894537367	0.3356326027131943
Si	10.223432805884483	15.810068238955038	0.9695234083021642	14	0.7807310428738211	-0.5164072748833377	-0.963877302591269
Si	14.879222691384834	4.019616693628362	8.128873863979745	14	0.3327185119433384	-0.20251671008891167	-0.7314210994913611
Si	7.209670891724929	-0.0042207399353889	10.162646307395724	14	0.08528973412208014	-2.5243919360284366	0.4019257251773603
Si	5.5317625458191815	6.228052277460028	3.935268890792574	14	0.7136989847406445	0.12244966220364831	1.3663293330276638
Si	13.27406532627792	8.837598683080254	10.023561243098204	14	-0.5433038647479388	0.5233484879161415	-0.6779811896331474
Si	8.285905651742373	7.108819227740311	8.888255732533212	14	1.486400722810175	0.9656007144873645	-0.7678261510509338
Si	15.519915653547683	3.0743278164844448	14.17770237959177	14	0.9713476490989593	-0.7256687655585938	-0.17835757605867222
Si	7.577383454303495	12.546006478948406	12.945216905636363	14	-0.20504462083968125	0.9616167867937949	-0.48977602308777596
Si	3.88585698413124	5.800012383222684	7.04768794561765	14	-1.1277176466807892	-0.03304204580081901	1.2419847662030663
Si	10.168682472057483	2.749371692600957	8.305497859185392	14	0.13693501246683054	0.10880686315387858	-0.0733016984563577
Si	8.04542478625602	9.09715703162726	10.348912806030999	14	0.42844693366521974	-1.6545468969793473	0.7358837669955421
Si	8.916206083518434	4.8934095370390205	4.726638837152922	14	-0.695322266575418	-0.303279613138175	-0.9424656517061399
Si	3.7467163622813366	2.275124255238206	12.279920117996491	14	-0.20188781772760342	-0.4963899344133248	0.9091520971835133
Si	11.077295194400858	14.248438582093918	4.182300645323052	14	0.6667133205675984	0.02979191156561982	0.031598370163555864
Si	4.990004512083766	10.303968380199459	4.592130734744299	14	1.359613863041969	-0.6544005542999413	-0.247215118969154
H	14.979017127828532	10.042591338834765	4.317411710579587	1	-0.3293624481689491	-0.015565728718708486	0.27258447227358706
H	10.91503119244035	11.64216353588161	14.808228309668674	1	-0.05539035035407812	-0.9816454401272166	0.3218807887978502
H	12.679297217341595	6.173568293075331	3.6070348713185365	1	-0.5326234932480437	0.6978766597109851	0.518130943889965
H	6.368114501061213	1.1167917732564516	13.879760298531298	1	0.20117742132764652	0.34246377243829573	-0.08758238873605617
H	2.7954795589412083	6.16787854609313	4.741737419035614	1	-0.10653914826150797	-0.22262995278736605	0.1922731693829097
H	12.681217220990098	3.3690116105022665	6.739533079192802	1	-0.2885376665640419	-0.3521820363273914	0.3758593452206351
H	4.569701824038473	6.083971935585083	0.20546816916595864	1	-0.2406302611337227	0.2641571603657377	0.3748630419090777
H	3.421868085411297	15.434799849252492	11.324856379724624	1	-0.7743158779895196	0.12007678910368363	0.2540982250217224
H	2.1866766318457436	10.622311521303805	14.96583201341171	1	-0.5884537597223992	-0.31043345658095495	-0.057357760145055434
H	5.638960843140636	7.375729147704008	8.051024660727016	1	0.9942500268487103	-0.4841782125847496	-0.17718772313800485
H	5.322720718798521	1.6199307719036047	11.811215363506696	1	0.37907811197092844	-0.0009389676629180786	-0.4893152810144054
H	10.886389640141667	11.33957749706025	4.301744480807807	1	1.2082341237760144	-0.44679999766150075	-0.6862645196430684
H	10.691279686403675	15.896630173657822	7.0893969610457575	1	1.009317218245842	0.17620298980038818	-0.0890846855746187
H	11.446176099625108	15.902388550557673	6.774728788626926	1	-0.47600903965104296	0.09512601174537065	0.5221107578150221
H	13.936242720756097	12.994818361594058	15.760572995965132	1	-0.03442170091561047	0.059636530790302685	0.49443100926990396
H	13.512967703658354	8.33122100593835	3.6506165030710553	1	0.6851378612917796	-0.06108174909075792	-0.7381514818879127
H	0.7711126823344033	8.64155568927137	3.8229756391085394	1	-0.531812823740601	-0.06375415596051982	-0.31672880795733754
H	12.786608263813473	2.7948569875453955	4.764749684041454	1	0.23020442906052227	-0.3319484658999541	-0.5069618052687098
H	8.433375004312634	10.865571898454926	15.185616056590035	1	0.7828444914469828	0.12650352396192577	1.2222736443766828
H	15.018770190603654	12.43721171901879	11.639785999448783	1	-0.08465621377119566	0.7046090989917929	-0.3008627741372358
