234
config_type=amorph sigma="0.01 0.1 1.9355749501001793 0" dft_energy=-23361.505870108293 dft_virial="39.78073612613746 11.000175130199823 2.128154292810318 11.000175130199821 40.14417803572556 8.318781486127618 2.128154292810318 8.318781486127618 51.38260952887759" pbc="T T T" Lattice="16.365857079 0.0 0.0 0.109143900859851 16.44850465724895 0.0 0.012438051380040002 0.077852382124803 16.338444268392678" Properties=species:S:1:pos:R:3:Z:I:1:dft_force:R:3
Si	8.186659954914013	3.46262585051792	14.487752235256659	14	0.07183719686600136	1.2407910020029216	-0.44767597324407526
Si	7.156975871417401	14.49739172507619	14.43149787471901	14	0.08700671825487503	-0.06814688939999282	0.40512957951679684
Si	11.832043331433127	2.9556754250531085	13.13654616017172	14	-0.7601292901645386	-0.032405440123550344	-0.7245212812542117
Si	10.28735354761742	3.09903869647944	3.1813229527012363	14	-1.5066281225848441	1.4312646547722596	-0.7390554825184767
Si	1.5418912222551984	12.260907343016903	10.769269121508485	14	0.07540486260823882	0.6684678428380674	-0.744787247608683
Si	1.0634615759219594	13.216321530503306	16.09971878435272	14	0.5405859493140103	0.08804235947783066	2.271105408956285
Si	6.514028446797514	14.703316758358415	6.082964864022318	14	-0.8141757237677753	0.21896381371136692	-0.9102985530457672
Si	1.6487569958096526	5.01615156057058	6.334380433641332	14	-0.8738333376217031	0.8965431395829749	1.741775758733883
Si	15.112435363376381	14.071188801853456	11.423656280226592	14	0.16605226599644354	2.4061321470545014	-1.290961751446567
Si	5.245594330475328	12.196564975910816	3.738953527782588	14	-0.7780339533929858	-0.3635614913638348	0.615053386922523
Si	0.5318281648105999	5.231976300799892	8.758090220684377	14	0.39273813742634317	-0.4535730604063669	-2.0901934397620456
Si	0.13212974712730652	8.744552383708628	13.859881038177948	14	0.15418352961757598	-0.3060296673886053	-0.37070659304852627
Si	9.935862398546028	2.469198686794125	11.818818082327585	14	0.4384508473553839	2.213337043291602	0.1414341896665577
Si	14.360244206168462	12.36824772642665	5.580916012752668	14	-1.245503580944221	-0.4523584702531289	-0.8964906890344441
Si	13.296812088789245	5.780405991031429	3.232821395171726	14	-0.5126285213943161	1.2332808033627691	-0.8489110995324438
Si	4.575602327032394	11.544329927398598	16.31679060289145	14	-1.5823559160212937	0.38258381407495035	0.0334603646364071
Si	0.7754846815884597	10.442688443497039	4.762703351502354	14	0.7487354369383022	0.7830530080884467	-2.006996328260034
Si	16.35374470817583	6.576766959909862	5.660665197712926	14	-0.15646795669452754	-0.5813528810492142	-0.45260606769545925
Si	4.74368295240514	1.2816299068849848	3.8514115147009362	14	0.6277492478828823	1.1733696785242744	-0.05524842534040596
Si	11.191392036561425	5.79189318611518	6.309479782095633	14	-1.173555312328389	0.5959796421050045	-1.3509716067293551
Si	13.17295691900108	8.746655396343279	6.113385719160764	14	0.011546062661188978	0.012189096101758013	1.9325913685108007
Si	10.906213703788433	6.261175954926965	12.935126647343345	14	-1.2012137206993503	-1.394842633917574	0.1976382948544627
Si	8.859830207801688	16.299915767657296	13.768451541020406	14	-0.609650466202764	-1.1840994152463165	0.5264980919333229
Si	7.480442126826712	4.001024906945738	5.918353800350321	14	-0.06598536115734432	0.19930848487043087	0.671048204137368
Si	14.125798393754662	13.79750257392134	1.8208047049383478	14	0.04909422764609951	-0.5370619923622153	-0.637382151075349
Si	12.37746661371925	15.77929821494581	12.727987267465858	14	-0.2256453451068357	0.6833535141995967	0.6345693618551072
Si	10.181765947500834	14.961545434279417	12.369129846123208	14	0.7990200863476303	2.1636704876012374	-1.2578423153756115
Si	13.484377903600247	3.3381536879178775	11.63853998367386	14	1.0459564975000801	-0.006800830682323683	-1.4768452098878448
Si	15.937470950442929	7.274625108201208	8.901427306739382	14	0.19261049840091313	0.32885336931555986	-0.823200046330963
Si	10.0459015117881	12.796023408514676	12.801951121948688	14	-0.32877752170861546	-0.7476306329822346	0.7711140805343392
Si	12.211156774082452	7.333370352186279	4.6850309938054195	14	-0.9966139010800544	-1.4505214622885727	-0.43113091050892244
Si	9.601345916436975	2.5093261317661253	15.938768762909294	14	0.8982860918795035	1.8524908962563755	0.8772981591511347
Si	9.62815155374667	6.075340011209212	0.22526783976389553	14	0.39072264796587913	-0.19157125763050925	-0.8870598747201409
Si	16.279365160923195	8.629462766971978	16.19675195097411	14	0.5674329168459324	-1.979973754234746	-0.9757910333132391
Si	9.075178701590001	10.797947012868015	9.489005763689596	14	-0.2159373656390206	2.1062363656281735	-0.2645196862158786
Si	2.644447557567473	5.274805748775635	14.00444392692817	14	0.13851649934925367	0.8576644275948879	-0.49508381291068965
Si	10.716188100658457	1.5690110840208091	9.891127964806289	14	-0.08298216709724723	-0.9981174834712769	-0.595517871589506
Si	12.371126480686847	15.445328352463196	2.145138350772846	14	1.6330863950931354	-1.7075957417183663	1.6234311232843832
Si	1.578113773728149	0.3576365284045554	14.259029563063386	14	-0.43047630709441265	-0.8061862710959471	1.336312963967595
Si	6.062445352416668	11.89865564291607	1.5793117544663318	14	1.431670118081247	-1.0127550431694121	-0.19859808847047397
Si	9.721638239139041	16.05231998908052	4.5389329876611875	14	-0.7817764542969933	2.047777401074499	0.11746737431426535
Si	11.862112320644371	9.823078731071808	11.746962150236529	14	2.8058989150945335	1.66143565946362	-0.40660025175992154
Si	8.667433191980964	10.05126296656718	15.794680484014362	14	0.8532968909875523	-0.633351429264953	0.10860040339667068
Si	0.9616757644048269	15.505422143071575	6.409619188390619	14	0.39522259649720226	0.6104032858405033	-1.085471300944372
Si	5.196756976365884	1.0337395428807876	14.020554476636738	14	0.6170789036937357	-0.4308244347547607	-1.0062797144206193
Si	13.141298805067462	0.9481493835290336	2.8015188708831755	14	-0.8929592758772207	0.6689026167477043	-0.08138911024088348
Si	1.1037657721504128	5.983503004210403	12.350372937324968	14	-0.7640026603293416	-2.1542666698927957	0.3645665364334807
Si	4.064216754299173	15.494694323756292	9.284236159917148	14	0.831257890404307	-0.6738638215734623	-0.9779013965600166
Si	0.586717612867858	8.623595607209154	10.357509067157968	14	1.4340638171343048	0.768159366300425	-0.8222510513572964
Si	6.772720276473852	3.5450819482390457	9.551549523102702	14	0.05445009713849998	-0.2477846187975668	-0.4296761791187826
Si	10.340842078308714	0.5167126592124355	15.404240231680658	14	0.4495960746971618	-1.1163618458132911	-0.4325894985570423
Si	0.4967905013901688	5.133401470441659	0.9299472772857698	14	-1.6956434444165942	-0.8611174220398468	-0.2808264074878538
Si	1.3408448509682227	2.896707605411763	5.618511659634546	14	0.3108456047637747	-1.104587211889141	-0.4001133530371879
Si	14.348608081785292	1.9780478597533797	15.367397414224413	14	-0.20974614402810401	-1.9102741743319152	-0.40272868136884254
Si	10.299690130683569	6.982141056828152	8.146231378171759	14	0.5396523809722645	-0.7480674637761279	-0.15365696724800965
Si	2.734055534832122	9.022796502837247	4.85098078458648	14	-0.16444815338720314	0.33758407165118665	-0.5939181298593099
Si	7.431298731189892	0.6695206667590584	8.224492906723537	14	-0.4789264728578151	-0.48172486388826413	-0.6859724420786996
Si	6.0508730548761065	7.259324668418051	1.217246625136199	14	0.30126618056196697	-0.5747423121605814	-0.2649467468095552
Si	8.179444248527881	10.088806242706406	6.003624825489034	14	-0.7724101747262259	0.012288083656583713	-1.289258908393033
Si	16.038052234879046	3.2589936738124625	2.0613549820426136	14	-0.5520800756477322	-0.31653803194258257	0.5944896865719786
Si	15.246766318280812	6.9120329982731326	12.736157103319695	14	1.0178545734613937	-0.02549610879671641	0.5535417490222364
Si	1.3790509443191483	4.209221521190529	10.648986618320665	14	-0.1594069871859888	0.6061931008787608	0.9582087866919387
Si	7.457277892717095	5.409207076865506	10.642548290145786	14	2.406581576264464	0.3481749686859406	-1.0432174990025267
Si	13.467409782980742	13.838584148361043	13.275781962442728	14	-0.31050801863523925	-1.2605098371452652	0.294634528609709
Si	3.019931053116678	10.087215481398328	1.2238306094390805	14	-0.638735580915875	0.04637579799110695	-2.153375010567768
Si	2.3306044261206136	1.8711182593563176	15.916629031452823	14	-0.4071543249564134	1.008362052619407	0.6870505065394377
Si	6.924690352138031	13.94342219222341	3.8343206501533365	14	0.0896714118086765	-1.4887671681468393	2.181100010566521
Si	13.931165801856947	0.9246300103208026	6.8301055177356575	14	-1.015649850649367	-0.17967963841429238	-0.8263697049696416
Si	13.575156039646044	15.241645441600793	7.598665805193993	14	0.4317117232007438	-0.46313885774997776	-1.099530361945474
Si	10.716225742129737	8.548034445075412	13.026343388358859	14	-1.5155591140249105	-1.3424684472145616	1.7329111018110763
Si	3.7582194147359864	10.775003717828966	12.785956769825383	14	-0.7060558599554403	-0.34912962009131154	0.5349976519006684
Si	9.581903278227124	14.381788220427257	8.193401051444853	14	-1.396129472130308	-1.184056734898002	0.06919204371263302
Si	1.7189043324216622	16.189940481257832	10.330435029792179	14	-0.28216955290709916	0.17138268154617453	0.9364698340995546
Si	0.7256882882541865	1.3512044384992297	7.353408707593807	14	1.0057480098404126	-0.5740892514092639	-0.6475333891003577
Si	15.095513067156695	6.4166826923059155	0.0188501941835922	14	0.6408017211511461	0.7566374720292455	0.6630083578012651
Si	15.343899316630386	9.392835077736267	3.5729546394302907	14	1.2668815503496562	-0.48393627157412356	-0.4796867487009828
Si	3.058338446509675	8.241888176212806	7.053124688736899	14	0.9260321749418816	1.5693690059386933	0.24098635922056327
Si	15.880036611609887	16.264575335880902	15.174831830075776	14	-0.1168202271051841	1.1087583160500172	-0.18797016751910983
Si	3.6413328268920604	13.486392540606673	7.912445109798243	14	1.5138063915281654	0.6016579282045517	-0.06565497412370529
Si	12.465842241945852	13.581072296980103	6.208001648691586	14	0.7161024539939189	1.4185376834375265	-2.032240725845908
Si	5.395579227675824	9.000393281081804	7.422340061024847	14	-0.7717077487527614	-0.6837692619298646	0.9354743021195933
Si	7.966516265001552	5.9149578850064275	1.7593721872209056	14	-0.0693532520162063	0.3826007833700633	0.12572550749204897
Si	12.19490220483159	4.84621832017649	14.372467864820766	14	-0.07198760652723	0.8736965548186713	-0.13601224276742943
Si	6.079051787594729	12.79328540062536	7.429333191754703	14	-1.2414733733548888	0.758123313793759	-0.30174106371459836
Si	13.653433934054902	16.317044273676178	10.939254732645226	14	0.05715618548795583	-1.7673400018215835	0.07352512750867858
Si	10.016696639830625	10.532937962359183	7.4441688411968165	14	0.5273175031988541	-0.5077861016343491	-0.15847419017583908
Si	15.603681112388184	14.601665146869331	13.562898012693873	14	0.039084400413699004	-0.43236272706780526	0.7087295523778623
Si	16.09564204935434	14.839240111156633	0.7587473195537665	14	-0.8224644530988687	-0.6874971075335473	-0.8033698823282569
Si	4.893224334878794	0.06136869087483421	1.9045880736685805	14	-0.07771037274881562	-0.6541508999733548	-0.776839932082309
Si	10.743422523423618	11.599559785283098	10.975788235402678	14	0.11082440949859877	0.590552552995236	-1.0616875482908745
Si	5.584383937867707	7.826252686905983	15.303300534974511	14	-0.11371793142589343	1.3858908165244141	0.07657445841837418
Si	5.077232212360823	15.235971398951506	13.497740625905251	14	1.4996671120410752	0.5569232667392952	-0.6347333983745326
Si	1.4876105840812788	1.842438731411078	1.9142439293451905	14	-0.0150450798913785	-1.436914915823817	-0.7274194311710827
Si	3.217841726187317	14.843915836524104	1.8160504234568984	14	0.541988230155619	1.1501114597982152	1.182299641522213
Si	4.724431794723112	4.36828946906987	13.54386288432529	14	0.10731022274702037	-0.369972799590156	-0.5980087584236654
Si	11.165792562918451	4.311369018149108	0.07666094772945181	14	-1.1190553357466784	-0.17791971682265104	-0.07349298869217671
Si	3.735984761308457	1.694569939530897	6.8198932229183615	14	0.7287602625955398	1.6846090317141145	-0.17129680662848157
Si	0.5074430377628899	14.230736269345211	9.94901563788042	14	0.08172849614314302	-0.1612833798486329	-0.6836396782217292
Si	15.064200272807446	1.4640077450019453	10.61606506022055	14	-0.21088360102173753	0.7947471664160762	0.4264119038043225
Si	15.365192933275873	13.558007894598669	3.828913370974435	14	0.14689341759282812	-0.38705008112657957	0.07360354622094309
Si	5.25497523975301	10.235439412377124	14.57310345309506	14	0.7244672880424886	-0.6482160175628571	-0.5569340653816398
Si	2.53599102270494	12.866840108681217	12.83747157815295	14	-0.4965745397753115	-0.9131349964349547	-0.12563449036371574
Si	0.3247166068901469	10.433119326862947	6.903643859934436	14	-0.9351449435280823	-0.32903257535637415	1.0328556874517978
Si	12.374654959473078	12.673686990263443	9.506995113790833	14	-0.12875169845386325	-1.3004146772666234	0.6748020179047842
Si	14.282255987429904	11.017084202570118	9.38071452398356	14	-0.9173806626501152	-0.07695446778469207	1.6455102331106228
Si	9.788384750650033	4.911036933723579	11.206371705545832	14	-0.3798684697463419	-0.43004359006903176	0.7710878552600736
Si	1.2387857296378708	11.521254068917209	1.4017422051591817	14	-1.0102582427930165	-0.8132817504479598	-1.2913129644332992
Si	1.1039392502354501	12.462848926686101	3.372810026868368	14	-0.32695692203141863	-0.23739066843033618	2.030695748659031
Si	12.390953716538053	15.004599094497141	9.502386488437386	14	0.2890878831025536	-0.009720063662819812	0.4869411223617807
Si	4.829839370411828	5.286194748716911	1.313670981874251	14	0.12754610716924583	-0.7832155019446801	0.0316667615650718
Si	12.15305961803771	4.050567629495287	2.152638823072152	14	0.3465271472862577	-0.04930660094554374	-0.545424512415997
Si	15.246645210938429	12.056293214886708	7.646617766435463	14	1.1522069106341357	0.3110957733114251	-0.8901470008780428
Si	13.352601658985847	7.219791304058019	1.332787939528231	14	0.24809572254130471	-2.723257676562738	0.06143424763015021
Si	11.035890208939598	8.715550448378933	3.1724182898645528	14	-1.2161785821047402	0.2479340000166674	-0.8445150236560546
Si	10.149592309069229	15.669573326159654	9.995023335300905	14	0.6369355500812394	0.2856708841320768	0.6675628137653754
Si	3.326398092778032	13.72698864211076	16.23233787060669	14	0.31542397200736233	-0.9701371727142337	-0.9265533379902754
Si	3.3898648865303938	5.001762699026723	3.1039435438460163	14	0.11816028719804528	-1.3616090407704038	0.8907838636658434
Si	0.5087244843721755	12.711560856715664	14.058263047932462	14	-0.006224645980078499	-0.9402593862309208	-2.1081394977861474
Si	13.479860927046444	10.387614061254789	4.575384661133244	14	0.08729699604551974	1.2608389386262442	-0.3071247011444564
Si	13.702695163862693	11.225721058370333	0.9661698287587205	14	-0.37197620485561544	1.4918980030951838	1.1257826328168459
Si	8.438060795261656	8.947755774958615	12.568344878003042	14	-0.5987878033356703	0.2843153974072947	0.13220340734616204
Si	16.292254909958615	15.601244236269121	4.271423234190684	14	0.42001242266247396	0.8973106145210393	-0.014797739559580256
Si	14.760494153235317	5.002659547994652	4.766102540017662	14	0.010095702150093448	0.7888863318387989	0.46304706929004846
Si	1.79393196761463	9.745727144173621	8.455043645152532	14	0.45287140576449847	-1.4434527224318896	0.30609625901639714
Si	11.62163732648267	8.908616827754187	8.09319618172155	14	0.7651172344856259	-0.36644858552782905	-0.8494484605443547
Si	7.027873807849709	15.248204877118058	2.05784286911346	14	-1.5813400723093032	0.25779573158262736	-1.4488687557887816
Si	10.876710973232118	9.217888975318882	15.3023038542784	14	-0.4132792120500702	-0.2596389569866415	0.7389693504902518
Si	5.381732076001281	3.8062826638055935	15.937004523516178	14	-1.004849408531021	-0.7822323112702555	-0.0966671322742674
Si	4.5538291907744926	16.394402406917195	5.6719052683547835	14	0.8914412952962051	-2.6114493050581182	0.13255539166449032
Si	9.050278050044303	10.336379109083271	3.695674018737172	14	0.5270915030412131	-1.79620760102461	-1.3299741609113018
Si	5.552801106876652	8.849608093470145	9.997065794264364	14	-0.21775590843196133	-0.18241015226428964	-1.5639385743920087
Si	13.879101100731525	2.5921701003000233	1.2395352858920892	14	0.43865525022833574	0.016897818385077205	0.8970853856949943
Si	4.094506682580986	10.107604066147346	3.092998058631581	14	1.2492265414477952	-0.8355781186737519	2.6897389478355636
Si	7.670367898228508	12.722848388343051	9.078289851020719	14	0.807486221945814	0.29481553442424746	0.633701613809557
Si	3.1845830314313734	13.460719420606846	3.7572521925826177	14	0.18054250135973407	-0.06344433776944199	0.09708905065730371
Si	2.301821793275776	7.292378789960508	11.125480183761459	14	1.4295425284288246	1.332527011383677	-1.0000468409035164
Si	2.430167754246418	8.676853379315636	12.942379995200758	14	0.6407161033439851	0.69858551344775	1.4734780903605786
Si	1.3078660123683297	4.136683132859278	15.374308715668874	14	0.2970343983155353	-1.9598101178720162	0.6411634756696909
Si	7.040822473970614	7.393025537824942	13.603547528506693	14	0.6600022214609478	-1.5928516821592018	-0.6026655443795176
Si	6.8075124520380985	3.9176359553711095	1.9465452214620127	14	0.6374739395352783	-1.4237683401008356	0.925486072171882
Si	13.077291938031493	4.464666364822392	6.261886233124193	14	0.629757024027386	-0.6982990923150856	0.7493743566103591
Si	8.834232370744424	5.801023697779554	14.273114019665574	14	0.18630820504016615	0.5221351833155635	0.006174252315803597
Si	15.698252854104894	10.11674112415455	1.3414340218230667	14	-0.10844819396171791	0.9087340354584572	0.9957101575600223
Si	4.4505115350347655	6.529387803666157	10.30514323426229	14	-0.49897235259688155	2.0351949258587583	0.03561443667362716
Si	0.09027243106205611	2.6021156316469316	12.118400005915804	14	-0.3330550696297458	0.06394338931208274	-0.46880403121239206
Si	5.8120166439795184	6.0169531794941715	12.021203180723624	14	-0.037829186796402715	0.10036001084559609	2.5429182925232956
Si	7.497788298744744	10.683711693870888	13.955591843547355	14	-0.511637617403931	0.4352284810576424	-0.6669092387929937
Si	11.01256231625919	4.971340207302569	9.239534457891567	14	-0.3201015839163078	0.7533001773236931	-0.0692524646876565
Si	2.8474889268323786	2.6387309636897784	3.7168317987689035	14	-0.5751256639638155	0.5540215172749761	-0.7987210667988972
Si	9.090628070672578	6.562455017894276	3.6860328923319337	14	-0.24185590703983734	2.5474521796448446	-1.4868876901578112
Si	7.9840293686617905	1.852079857816317	12.842911589046011	14	-0.4386035710114007	-0.17577232965926334	0.8315450828685675
Si	3.068063038786017	14.501278616132453	5.875465435289093	14	-0.30534703892610604	0.894909202152021	-0.05739632672485766
Si	13.359079265217716	11.237026592440506	13.35229561745847	14	-0.052922860578332016	-0.09118527862117969	-0.8418629285183218
Si	4.601982452058034	4.623045310118707	9.00852547546436	14	0.937032906164667	-0.5722097734202356	-0.3658114656294964
Si	5.474215534354711	4.971078353589305	6.895834072936338	14	0.5525906971643136	0.37077421311844616	-1.0509189878784981
Si	8.277942159357842	2.781496881332727	7.733276616254475	14	-0.8132447265313495	0.2388952792636868	0.9312774869055156
Si	16.160892721528313	10.664691294773675	10.992811999936253	14	-0.4839514410955125	1.038639645980003	-0.25278284753993463
Si	14.470248951110667	5.419345725325948	14.478765743134579	14	-0.29648263911383144	0.024713978558327365	-1.6214125484975348
Si	0.8716013602134268	7.740572515340294	3.8918646402288086	14	-0.3219751483630997	0.07539432107642623	-0.7260462038195915
Si	12.051838428589804	2.251410043715333	6.310951072647035	14	0.4067884566693563	0.7012581774280439	0.40436030480500856
Si	5.346625675981119	14.639372081579346	11.20334893174334	14	-0.14781798706595337	0.4683265769544406	-0.335176231518868
Si	7.733985257865997	10.050118993157358	1.6060764771333282	14	-0.3568930726054987	1.2484953190947454	1.3158626493616692
Si	8.858674778291912	16.417758121554634	2.347687107739674	14	1.5713613554512762	0.12656857292652554	0.5028408376615764
Si	15.363805108595574	8.313647549747097	6.931452724283074	14	0.10787175214894072	0.3646313282875484	-0.28785066722249836
Si	15.860824731984847	14.374579060383958	7.695095071689169	14	-0.6466139618378728	-0.8552079935720183	1.85735594174316
Si	1.9967753100088794	1.247816409574063	12.213212325731575	14	0.6643890413581844	-0.1959855883546715	-0.537577241868373
Si	6.708811604580357	7.0733234295438	6.850004763358014	14	-0.15566217228719315	0.7503290080157301	0.10862405756561604
Si	15.688423520343248	10.786998254482166	13.26307060124947	14	-0.6320584203994505	0.7988460225174564	-0.14601358535227343
Si	4.602285220413996	1.3451359786943367	16.149109304431434	14	0.38527344735035723	1.4734487797599292	1.1185115469714673
Si	14.64013964027635	0.9648376479924898	4.453123525824574	14	0.5856833937399396	-1.3549295662591911	1.575160420672327
Si	11.221161530588125	7.754444215800453	0.8451279498024363	14	-1.5410207700103369	-0.09805938580512759	-0.19483861827135346
Si	15.193619834002469	2.072380659956736	8.38125981509757	14	-0.5537299539316712	0.6684192489475166	-0.011595942104399851
Si	6.415185216383186	1.8825743593116175	11.223984640934251	14	-0.6067482025173807	0.01118842191115638	-0.5626583742664175
Si	11.226231673111197	1.4826222708435999	4.267305584549607	14	0.5677607327742513	-1.8262350258375553	0.8394355479855701
Si	1.8699120956895952	6.404578504410287	2.0905844027857077	14	0.00963264608193478	1.0765863322895364	1.5323348049072805
Si	12.432907591160072	10.870266098714408	15.459627201793118	14	0.1123598735957912	0.6737293527652185	-0.8687250655716329
Si	12.052373592116288	10.938510086148131	2.6947152875856215	14	1.0239892307552672	-1.2316928887170455	0.5481429420709896
Si	2.9968633775638276	14.755725142482497	14.133010826969377	14	-0.23076852956776275	0.28026822052284966	0.612916027069884
Si	6.7451536268099845	2.740202550750994	4.214059268543082	14	-0.19631314717245837	-2.451695475764442	-1.4685883622627212
Si	11.00522222935926	12.66952024305113	15.076980370600435	14	0.22963672900583362	-0.07212773176717809	-0.5514969489611227
Si	7.272351890652936	13.513628599957546	0.5460026336267217	14	1.5897187903266012	1.0941991750641467	-1.554322383384123
Si	10.627087464963255	12.729178701861208	2.8509110275475975	14	-0.47520556923849677	-0.16570259567290338	-0.32404411681422285
Si	2.133330384890348	8.012177006251962	0.4967004891762342	14	0.9079081964296256	0.29864879534605626	-1.3581159370824507
Si	14.455568777310804	7.04174550830987	10.516725944336727	14	-2.0869078242734282	-0.6179445948550296	0.4622173736032367
Si	8.63338729949952	2.127762720312072	1.6296613137698752	14	-0.611820736203501	1.8322290436704163	0.9570242784709463
Si	15.652428454283694	2.9555854128391736	4.443140353006385	14	1.207725302033157	0.6090603975317899	-1.2128885957370785
Si	2.624232450903492	1.151354411364729	8.748352535722372	14	0.42329341016151495	0.5943845283643847	0.46561714616806854
Si	9.827148919727355	13.253025238174379	0.6130568232508006	14	-1.122783695571425	0.675805006090174	0.5410883432935671
Si	12.28919245380654	1.1325402220667107	14.307472500017226	14	1.1018788095448973	-1.2565899299741674	0.4825080225687814
Si	3.377309000979385	2.995465733369281	10.081845843690708	14	-0.9597542780998798	-0.07242006644207893	-0.0935712643582771
Si	6.301422870655642	12.450895304675601	11.091872896249733	14	0.7646140691744728	1.4358185965153059	-1.2369734248235658
Si	5.6673915649723945	10.957186802246685	6.058620651617305	14	1.2515263951566677	0.08446749464069678	-0.25217478113171965
Si	10.993717031832723	12.623872594486382	7.5550246107071315	14	-0.1560159563792455	-0.10199729071346639	0.7183693975546934
Si	1.1219007783796526	15.90241528457971	2.18297948551091	14	0.5208388320131448	1.19190323411403	1.02618958268825
Si	8.834517136657599	12.463989626924509	4.385596362930912	14	-0.5426016958850064	1.260069663914456	0.9190161427442614
Si	3.414606789262426	7.330926929724384	14.796695429094067	14	-1.5173776568178512	0.7472804484376305	0.3495690219905249
Si	3.071812456642816	11.562716967826853	9.00190875944732	14	0.010814068976542818	0.07391773529106518	1.4391857160425718
Si	13.200674134550075	4.973493954094166	9.843256196264505	14	1.329369179829471	-0.13336477561927296	1.2900297257680133
Si	6.110045447730939	8.873312400863368	2.835095063266452	14	-0.2570354557394596	-0.3970725067750488	0.30858766007162064
Si	4.681378134505387	10.909074455605841	10.63879068936045	14	-0.507730308648902	-0.6270514498989941	0.08642924799996976
Si	8.528251397038316	15.651935841985617	6.555979048248116	14	-0.009801053480404477	0.4746165290096509	0.5416424164900591
Si	10.579022579307942	15.490444110672875	0.9156598840558027	14	-1.9887754190772082	0.30144487238171724	-0.6540249158126675
Si	14.710792681872103	4.383835396709212	8.12842205249839	14	-0.3257153352723191	-0.5649307171483643	-0.03377172549067703
Si	7.000865233912236	16.156347923017474	10.432909843892338	14	0.2933325208755861	-0.11670169914992526	-0.7917942519558862
Si	7.4845319545107545	7.941625432970101	4.579142261918582	14	-0.13171052645628967	0.2825205087832994	1.502044098909552
Si	13.099559323173182	8.929044690560195	9.97422560412491	14	-0.0012307881167548855	0.7817633416598605	-0.3999508591809546
Si	8.111786158777587	7.164222672931982	8.887833825849565	14	-0.6350702131714719	-0.2377125708164187	0.2201164402263893
Si	15.726110816024768	3.469818644704141	14.167698261048319	14	-0.2314588713462225	0.2866188506636154	0.2736859337927386
Si	7.71470955139835	12.7356612178502	12.892351206695961	14	0.04685479491225053	-0.14306864131857583	1.2177520985606705
Si	3.711990778244935	5.508171414622219	5.446174274835552	14	1.403528856131162	1.2370521006463622	-1.1985677962143857
Si	10.557102150336329	3.0423162724293342	8.032678515414826	14	0.193285670657984	-0.7974951637822506	0.004799739411652434
Si	7.867203334489056	9.163925834772295	10.29109314595997	14	-0.8618928674044034	-2.276365633330776	0.33422723654520137
Si	9.493290345072879	4.7456304893975405	4.74800026550258	14	0.7215197729034709	-1.4813546715088524	1.9408664709836976
Si	4.261220758887636	2.3643557331746354	12.2192251416224	14	0.10520448748981909	0.09759221596845669	0.28913930520895653
Si	11.275578005375799	14.561485331154676	4.212751636562469	14	2.1580086565757393	-1.5826348809485296	-0.28129897664569703
Si	3.3298774739930272	11.160205259311681	6.461281289431898	14	-0.7372613652260775	-0.25817111295936895	-0.09366665236565459
H	6.938210186670992	4.022131952820525	15.435837791943085	1	0.21044677022784436	-0.2467795737279209	0.1149276364790231
H	9.734601634531318	11.741617061314527	15.989712402824804	1	-0.20050713417068391	-0.14920818371255742	-0.07867325169121107
H	7.973046241976073	8.667693409108521	15.569437193036086	1	0.10272697040332442	-0.22001925244528767	0.09930842876965552
H	15.446379040487667	12.74515341495602	15.516174511172478	1	-0.9545087090257135	-0.5908945100028157	0.4422771662928283
H	14.724569460361206	12.682249606687176	11.096692641159496	1	-0.25478085348422175	-0.6821157840984775	-0.010841579803468407
H	14.899106416351616	12.30175488570038	15.961919904333246	1	0.255201486314598	0.405478992729805	-0.42845438987064816
H	5.942612910298522	0.9780268922124559	7.799774366737869	1	0.5804226551443846	0.07401235196684663	-0.010080275518172558
H	12.478255744540274	13.654910134363426	14.426694495666325	1	-0.9230514925442339	-0.05747063166860993	1.3394155167574175
H	4.327294633672682	6.978553660956435	5.215229119250951	1	-0.6731922488638395	-0.689104562579704	0.03425020819075659
H	4.971474407330618	2.78239045712924	6.546910726840642	1	-0.8214907755141286	-0.38063363068961803	0.4240809397210763
H	8.329437328656917	15.290225851754098	10.558537436002156	1	-0.48254710336964757	0.7037673191099765	0.3966637010291453
H	3.282427944563883	6.7433648386312495	7.053337444878926	1	-0.30083886285775835	-0.051715469519990474	0.5625375323163705
H	16.13668107256564	3.825712209329782	10.753274769385177	1	0.11380149234879823	-0.5411947870538213	0.1657619882057988
H	0.1487443652339073	0.39827949787454403	10.100880972059294	1	-0.071397023635192	0.12184493823234947	0.07019708878227891
H	12.198216290890088	1.1683356246698995	10.127822445982742	1	0.10611722987847168	0.25797570895503774	0.03282067363275426
H	5.192127075398235	15.836097558524187	8.051631814498016	1	-0.8511389622923522	-0.3871110163226671	1.137126606599871
H	13.805510387790093	8.532236483237053	1.5338195815438356	1	0.660891052570123	1.9599317311536593	0.5701238356739995
H	7.708695098921818	1.2064697082496774	4.390367010269441	1	-0.7514746925463881	1.7873020635272132	-0.40051598813032313
