72
config_type=amorph sigma="0.01 0.1 -0.20684192587567962 0" dft_energy=-6962.770306127453 dft_virial="-5.595674315240923 -9.190288204420188 3.232385477673448 -9.190288204420188 10.778810717377995 -2.7531874749522087 3.2323854776734477 -2.7531874749522087 -6.376729327550342" pbc="T T T" Lattice="11.105996452100001 0.0 0.0 0.0 11.105996452100001 0.0 0.0 0.0 11.105996452100001" Properties=species:S:1:pos:R:3:Z:I:1:dft_force:R:3
Si	10.753514336703251	8.09817053897421	6.373909059803424	14	0.7638442802416204	-1.083890842504077	0.4644632341003861
Si	10.917838660208522	4.463177900201879	1.7939405009112612	14	-0.1307579319351748	0.36277730424118965	-0.5452334792907099
Si	9.992298233879865	5.975625815038215	7.409643182929818	14	0.16302736058728934	0.05831035466617031	-1.1867669370159701
Si	5.002662783859089	4.2070625160200015	0.2652711676569894	14	0.45255695958384434	0.1301138700524777	0.8407491256936337
Si	1.4562626787851605	3.005415911895686	0.7554209938746804	14	-0.5678862027138746	-0.7501174060478819	0.9369208059727087
Si	3.6182559021190155	7.679119080843573	0.4591252251287497	14	-0.6295071125902676	0.9974487389775065	2.118186348935158
Si	1.6056161190730014	0.3413583493503265	3.33549723244855	14	0.49312874442524907	-1.2323732031847567	-0.22466446842719925
Si	4.715683835536825	2.5807448195602856	4.550748682226688	14	-0.17439087477074777	-0.4508566876356304	0.8641695811653946
Si	9.971074674659903	2.402104866628257	8.470843355920879	14	1.1298220963853303	0.508442504822583	0.20696909317181206
Si	2.45637987128967	10.514524399050512	7.199140126176715	14	-0.5773298725547784	-0.2369273552516455	-2.750749220198421
Si	4.364445591742711	5.896173516419891	1.83978605426553	14	0.41880400316200445	0.6954639344785581	0.20313171848149103
Si	2.022157622005464	8.23651793677802	6.777145578986271	14	-0.5841857248909533	-0.1193643358194706	-0.9581013144895564
Si	9.723599755717759	9.866622778027901	9.69712306017595	14	-0.8491900644596799	0.18067439906265767	-0.666150248502486
Si	4.637419878538877	10.423588500100717	6.473007866145513	14	0.11777256451576693	-0.47901877553880834	0.9267713677214239
Si	5.713324390832517	9.245042368596769	8.318580144562587	14	0.2027046578878145	0.3577626204247728	-1.2937370025291348
Si	9.36134436344316	9.61609371006143	7.265898270850288	14	-0.5772424549738935	0.21805364242803446	1.466880376998547
Si	0.45709393837766055	5.718766329094045	9.038148760690598	14	0.8032310426409689	-0.37645969831288967	2.1851620998618233
Si	0.5869841198831962	3.3518008352402324	9.773143605890576	14	0.20775173763126517	0.8987239511155247	-1.5441024968470665
Si	7.85035133414205	6.285771871959559	10.844328069692072	14	-0.5043490480423752	-0.3834515621205003	-1.340966407486531
Si	10.037266413514418	0.7681306962144637	6.854865342158067	14	0.5216099064986573	-0.5910318070269116	-0.9115113434252811
Si	10.502507710889338	8.037487374359936	4.080543004437678	14	0.7075021066980235	-0.7686779582434988	-0.8370948137021074
Si	10.731946491593273	4.494929944058433	5.555497075251724	14	-1.023479894791346	0.1462699245526922	0.14464524310089064
Si	8.431972368338528	8.62390619902372	3.2085890109904027	14	-0.3325282501496475	0.49013906315898087	0.534729228505245
Si	5.89204208573971	1.1991588609190456	6.266380802154192	14	0.6047995617952405	1.1568397853105103	0.705235934468845
Si	5.201793300245242	10.421100756895447	2.622458942234373	14	1.302580576388316	0.9806604496790676	0.25543828511458355
Si	2.5669400659703254	5.885822727726533	3.376689373289388	14	0.8257063597970433	-0.3816582161596971	0.16157674296566177
Si	7.427212869317041	8.10546717864324	7.113612847499093	14	-0.007340505689022766	0.46110794165759283	0.5688408541192456
Si	3.878125113101704	1.2224481354790993	2.859538648497352	14	-0.275916881879031	-1.0616176142261664	1.1747742733606714
Si	2.384002092411334	0.4369776470039719	9.121143872177141	14	-0.3993759600313695	-0.5432025631983248	1.8732335455372024
Si	7.713925273724454	6.0058563373808305	8.17443541661078	14	1.1334226722756657	0.9586232488695466	0.9950362708556116
Si	6.824401593889957	8.068406468482582	4.837705418556047	14	0.40898212372850673	0.07703442916014869	0.25014386503933467
Si	3.911409784468647	5.505542303210177	6.925232935678572	14	0.9645817854489896	-0.7007748096278561	0.6359186779271209
Si	6.1086090165556595	2.2860138857144556	8.502884155685186	14	-1.08459943913031	0.5562704630985095	-1.3128148611151658
Si	8.097892889062907	2.6199156690468426	9.606120525247444	14	-1.380602824212466	0.9258241725214814	0.889371555513486
Si	1.1071989890963672	0.8410426735221453	5.499222991228932	14	-0.42917712757614185	-0.720722987364757	1.7143364085361987
Si	8.751347508311568	3.3920711783755473	2.1285308560236778	14	1.0979481037314547	-0.4346715796452983	1.3520288452370002
Si	4.575581690293584	7.559563029036716	9.635107175987425	14	-0.8875699820156583	-0.1707499325268861	-2.4416398828573422
Si	7.1610687703389155	7.88424683531386	1.4331511001683404	14	0.014090428486007518	-0.2509216243986795	-0.8738698473172493
Si	1.3527214738622324	8.478450963490566	0.859138784141197	14	0.43558997846565517	-0.40959456101576597	-0.3003966327426929
Si	3.8518705374889395	2.3731626398740846	0.9927317048638628	14	-0.6812151259048296	0.19287043714878008	-2.4088819441944
Si	4.857529622223047	9.235380151683442	4.527115121776619	14	-0.25476645529442893	-0.7378696887448246	0.03896458690578011
Si	8.973345271392596	1.0733401377128498	1.7605558755762485	14	0.9020846428794903	0.23726417004858485	-1.4035275705785022
Si	8.21769327279171	1.3483901352459133	5.562282839083956	14	-0.6294770306580217	-0.1103785798360851	-1.2177359005971538
Si	6.328996410151133	6.245101712951969	3.5683455540632782	14	-1.9234518604292703	-1.2801746790758857	-0.22826427298593854
Si	5.450989648637462	9.306736178888183	0.6718372645761758	14	-0.5467157215077753	-0.9870532459470839	0.706623817120661
Si	1.4666134674785178	3.063789029247923	5.875160971132518	14	0.13066640058577753	0.07472789057744385	1.3250924032399367
Si	1.3611953491551847	9.01605893374737	3.1975829685063717	14	-0.1130700128852161	0.849039140577387	-0.49294439617379443
Si	11.019125347851675	6.449496471656416	0.38599445969096163	14	0.2780876661008321	0.6453906299265463	-1.0647073114893881
Si	3.20180324715817	4.380304954676309	5.016156569548391	14	0.12858071995007342	-1.0513270222928057	0.41847747278634556
Si	2.938446753289522	7.881559184172452	4.463877577978362	14	-0.058280786954988596	0.5772434834160215	0.9853642868622786
Si	0.3133201507073548	1.0028959128168247	1.5981084654713817	14	-0.5368825292108689	0.14822782125398495	-2.0778783594996004
Si	8.66229962875863	3.5233884804251776	4.616551711205381	14	-0.5447915062861765	-0.1903237573291734	-0.4110225529105762
Si	8.21811530065689	0.522579335857823	10.479895902112863	14	1.0970266195847136	-1.116338962975942	1.4273642880015949
Si	4.5110558509068825	1.0559381518720543	9.967120939922955	14	-0.5316780978218253	1.2181688747330668	0.45841239483994956
Si	9.2528720960955	8.029157877020861	0.0043968639953863905	14	0.5058469740018935	0.28464012800922944	0.4767448899936694
Si	6.170025176935773	10.640166536913119	10.101314695053679	14	0.1135004159158089	-0.25307569643589956	0.14251816766953213
Si	7.409487698979489	4.127399203469088	0.47164945732778285	14	-0.2638949076230826	-0.3231285462097181	-1.5465208785111977
Si	0.298412571669701	5.789722540426512	3.6231980705402	14	-1.0081766759258244	0.14985147426365847	0.6478275235489827
Si	6.288426205111611	4.135173400985558	4.88737143468984	14	1.697589514033414	1.5523817130884752	0.7176826553236819
Si	6.135518845959098	4.593551192553082	7.450668733823877	14	-1.800013351119493	-1.7631740398713474	-1.170810400288599
Si	0.612479045338637	10.476641845152399	10.659424334761061	14	1.5482766863343267	0.6776358901886514	1.1668064179735325
Si	8.627970993725189	10.964394997335726	3.65360628882605	14	0.06638979602420363	-0.48286360643455783	0.570740643840303
Si	2.613751841015927	6.684366084625428	8.439135736050131	14	-0.36151232042367676	-0.23823604785960084	-0.05944369789129157
Si	2.1601496279228067	2.526714146820819	8.241626695145985	14	-0.392561502490849	1.502389141243516	-0.6846550077126557
H	3.549987341927957	3.1518928991024326	8.447565187357275	1	-0.328144515578795	-0.027689518745334735	-0.10715852753313164
H	4.577047681825261	4.090405129287143	9.905849157496718	1	0.11446843706884463	0.5248320156858669	0.3205844374954316
H	7.0337052030262335	10.459716306559399	7.717434768603318	1	-0.1283218096443345	-0.12334363552346381	0.006805972892963979
H	7.316874794565427	5.486762063209676	2.8246102896554977	1	1.0783933051085364	-0.2639427301820374	-0.6420589916526984
H	9.96334490112924	10.263606621208217	4.073179728789936	1	0.30477651065556516	0.7943219055961238	0.2034633910677902
H	6.8566534075868555	10.667931528043368	2.6705256948790623	1	-1.2756207373328396	0.3572833663930972	0.30737281280785067
H	4.481680490291078	6.817771314008053	6.589631934889015	1	0.5164661531951691	0.7469518611777156	-0.667259937558662
H	5.494580684711955	6.418166455665043	9.756195855304671	1	0.5423947219067344	-0.5987566929612964	-0.01889068211872398
