72
config_type=amorph dft_energy=-6962.46495726 dft_virial="-6.77165892       8.54758432       0.99109718       8.54758432      12.64906644      -5.30513694       0.99109718      -5.30513694       6.18429548" energy=-6962.6016548611160 virial="-6.39389286       8.23905864       2.80238768       8.23905864      15.66295459      -5.11635168       2.80238768      -5.11635168       4.35243130" cutoff=5.00000000 nneightol=1.20000000 pbc="T T T" Lattice="11.10599645       0.00000000       0.00000000       0.00000000      11.10599645       0.00000000       0.00000000       0.00000000      11.10599645" Properties=species:S:1:pos:R:3:Z:I:1:dft_force:R:3:map_shift:I:3:n_neighb:I:1:force:R:3
Si             10.73265728      7.96184443      6.49121059      14      0.00853838      2.06108159     -0.86692401      -1      -1      -1      34      0.21394847      2.02057109     -0.95272644
Si             10.53974612      4.81597098      1.51543543      14      1.88741319     -0.50611874     -0.39521437      -1       0       0      34      1.53393000     -0.59297380     -0.42657234
Si             10.08114621      5.99106315      7.14803033      14     -0.45856872     -2.34996661      0.97868610      -1      -1      -1      36     -0.30711822     -2.11129573      1.19616244
Si              5.36171965      3.97202631      0.78358913      14     -1.73641012     -0.37755319     -0.29258536       0       0       0      36     -1.93025809     -0.08942946     -0.50405842
Si              1.11394255      2.86391441      0.94831549      14      1.21883505      3.25695718     -1.24842847       0       0       0      36      1.50106761      3.03813885     -1.15258782
Si              3.64806440      7.66650267      0.62495219      14      1.00473114      0.44339585     -1.18293985       0      -1       0      38      1.05761218      0.18588030     -0.89101771
Si              1.38100845      0.46392524      3.35735383      14      0.80067922     -0.16625127      1.41951393       0       0       0      35      0.67136074     -0.23653018      1.32839191
Si              5.08762366      2.49675017      4.70065742      14     -1.25737360      1.46836262     -0.75447646       0       0       0      30     -1.23701179      1.36742454     -0.76521728
Si             10.04843905      2.35825839      8.42978449      14     -0.22856432      2.16668974      0.53522288      -1       0      -1      35     -0.18482297      2.00801781      0.47575910
Si              2.12407735     10.51874468      7.07445310      14      2.58314889     -0.02695521      1.09966740       0      -1      -1      33      2.32313694      0.11195407      0.97562604
Si              4.55219246      5.80816960      2.02054725      14     -0.72404177      0.95612671     -0.57774022       0      -1       0      35     -0.61913775      0.55776886     -0.61326926
Si              1.87007211      8.34827758      6.47916059      14      0.43189093     -1.48075997      0.28172090       0      -1      -1      33      0.32758054     -1.40992789      0.37816901
Si              9.68168573      9.81329178      9.94668591      14     -1.28010963     -0.75441501      0.08840540      -1      -1      -1      33     -1.25264949     -0.80613883      0.14500253
Si              4.74781348     10.39717844      6.62885831      14     -1.93237154      1.15324461      0.65263703       0      -1      -1      35     -1.64928113      1.18175094      0.52323415
Si              5.68001751      9.18929027      8.29252548      14     -0.11925044     -0.55307432      0.02259256      -1      -1      -1      34     -0.24213367     -0.35974273      0.18816551
Si              9.32911476      9.47128262      7.69082480      14      2.05487597      1.12297421     -0.53386482      -1      -1      -1      35      1.91787423      1.20578724     -0.50226519
Si              0.63939776      5.56963501      8.96292785      14     -0.44796034     -0.55711456      0.02807158       0      -1      -1      33     -0.64203548     -0.54728626      0.25203775
Si              0.80315012      3.18104614      9.72174505      14      0.48405506     -0.63707953     -0.69220660       0       0      -1      38      0.56228850     -0.46212907     -0.99524365
Si              7.63780477      6.22338949     10.45584031      14     -0.91308872     -0.69401537     -0.78252310      -1      -1      -1      36     -0.80775641     -0.52655964     -0.63954511
Si              9.81694566      0.61840187      7.02287686      14      0.17820511     -0.73261743     -2.03215177      -1       0      -1      34      0.31544063     -0.47938594     -2.14390899
Si             10.74505157      8.15176808      4.12512247      14     -0.76799764     -0.45098884     -0.69898095      -1      -1       0      34     -0.93168989     -0.43484528     -0.78503435
Si             10.52539717      4.35215125      5.33708655      14     -0.49726720      0.94297627     -1.24740080      -1       0       0      38     -0.57958039      1.06879309     -1.10934341
Si              8.44521072      8.97157942      3.68612465      14      0.94112893     -0.03597953     -1.41405779      -1      -1       0      39      0.98950857      0.02485460     -1.48887962
Si              6.01237556      1.22354763      6.30030962      14     -0.21399155      0.17779733      1.26024039      -1       0      -1      34      0.09917330      0.30552185      1.20446191
Si              5.31358626     10.75275913      2.95399515      14      0.57255250     -0.29560332     -0.75848507       0      -1       0      37      0.55083192     -0.18950671     -0.76910972
Si              2.81194945      5.91654191      3.56647975      14     -0.96289180     -0.64849344      0.20045340       0      -1       0      32     -0.67019378     -0.52481055      0.13257007
Si              7.46949340      8.46702289      7.07256508      14     -1.09518519     -1.04554024      0.43136154      -1      -1      -1      33     -0.98504946     -1.00683946      0.63930352
Si              3.74324279      1.36066226      3.07304032      14     -0.15427172     -0.44369899     -0.34999968       0       0       0      36     -0.38848667     -0.50294126     -0.15200821
Si              2.41904151     10.70907924      9.44935939      14      0.28542740      0.52127001     -0.18019129       0      -1      -1      36      0.75036987      0.27249417      0.03828936
Si              7.87902702      6.47247478      8.18265385      14      0.54952388     -0.58930402     -0.67558492      -1      -1      -1      41      0.64731144     -0.83458534     -0.88424402
Si              6.86191765      7.98791021      4.88607203      14     -0.79309600     -0.06635586      0.23657871      -1      -1       0      35     -0.71528882     -0.14876059      0.34253159
Si              3.79448585      4.88164074      6.99739970      14      1.47291116     -0.40045891      0.19410817       0       0      -1      37      1.44279897     -0.44544928      0.41375610
Si              6.19450279      2.76922469      8.13894065      14     -0.00258833     -0.19321368     -0.17649507      -1       0      -1      36     -0.28919970     -0.38245875     -0.21070699
Si              8.01606391      2.29673117      9.52515781      14     -0.26352801      0.33694747     -0.04711319      -1       0      -1      37     -0.46520436      0.42427143      0.21031870
Si              0.89801644      0.89798645      5.91474274      14     -1.04687901      0.08573428     -1.38096818       0       0      -1      38     -0.87288382      0.10631817     -1.35949138
Si              8.77565853      3.31516215      1.91139752      14     -0.24487490      0.05970004     -0.34689533      -1       0       0      32     -0.17572390     -0.05627472     -0.29164780
Si              4.33067226      7.47112598      9.08552694      14     -1.18618073     -1.03796987      1.93892169       0      -1      -1      37     -1.21100599     -0.80032668      1.82048434
Si              7.51096319      8.37723091      1.47786384      14     -0.18101507      0.53570753      1.21063682      -1      -1       0      36      0.14743759     -0.11817967      0.87788288
Si              1.41005063      8.46912193      0.83161479      14      0.21798165     -0.31595671     -0.57672258       0      -1       0      35      0.18778306     -0.10158945     -0.63592417
Si              3.58366072      2.23196100      0.91058065      14      0.23835046      0.59005247     -0.52278053       0       0       0      36      0.18693147      0.63899341     -0.60387560
Si              4.95980474      9.32090743      4.69378281      14     -0.14567677     -1.01256092     -0.63145267       0      -1       0      35     -0.38394534     -0.94045463     -0.76139920
Si              8.89409288      0.93866105      1.66621044      14     -0.77604932      0.32343297      0.12906255      -1       0       0      34     -0.66814677      0.47306376      0.11996369
Si              8.15558854      1.37818752      5.38218800      14      0.42897221     -1.43691106      1.17147555      -1       0       0      34      0.23209193     -1.62647254      1.08881386
Si              6.22895359      6.17448979      3.56532472      14      2.06223550     -0.94851803     -0.21471198      -1      -1       0      37      1.86155926     -1.16315340     -0.31214539
Si              5.33123369      9.33155808      0.98031742      14     -0.07001891     -0.30774228      0.18339309       0      -1       0      34     -0.15014517      0.23394678      0.00929637
Si              1.32020312      3.18948670      5.96069936      14     -0.71092785      0.06111157      0.93960813       0       0      -1      36     -0.65270121     -0.10909979      0.89611487
Si              1.43997018      9.24012241      2.98274857      14     -0.32987538     -0.24072462      1.49193683       0      -1       0      33     -0.25942799     -0.14833510      1.36225165
Si              0.25237933      6.54697380     11.09292469      14     -1.62116238      0.17530773      0.67467578       0      -1      -1      38     -1.67181221      0.28858844      0.59158956
Si              3.20384675      4.02485754      4.96006018      14      0.60447586     -0.25805181      0.06478003       0       0       0      37      0.39393649     -0.16532088      0.16950349
Si              2.95204049      8.11527377      4.41298990      14      0.04034836     -0.02856884     -0.11407120       0      -1       0      33     -0.03934177      0.04570403     -0.08064188
Si              0.09807705      1.07677411      1.50552888      14     -0.74910259     -2.74167887      0.24650164       0       0       0      32     -0.65132428     -2.90098671      0.31381832
Si              8.56870940      3.24216244      4.25660637      14      0.27188513      2.57454957      0.74555524      -1       0       0      35      0.33939157      2.18512491      0.65764736
Si              8.02521525      0.27671812     10.61946496      14      0.60915964     -0.14593799      0.43369045      -1       0      -1      35      0.68171132      0.02751212      0.40197800
Si              4.21016109      1.25778742      9.69074822      14     -0.42345462     -1.20622558      1.50546315       0       0      -1      34     -0.13868477     -1.00561433      1.71298284
Si              9.09738815      7.70396319     11.07855353      14      2.35278557      0.93787237     -0.08164391      -1      -1      -1      39      2.49130662      0.98505862     -0.02105825
Si              5.93954243     10.54742036     10.09839382      14     -0.89535709      0.99191829      1.00546005      -1      -1      -1      36     -0.84927298      0.84376477      0.88296328
Si              7.53495214      3.98594213     11.08905981      14      0.26353830     -0.17682725      0.98460375      -1       0      -1      36      0.44347409     -0.16347476      0.88824049
Si              0.33095203      5.73072749      3.41426096      14     -0.11746146      0.66231082      1.65108542       0      -1       0      35     -0.20694948      0.66828870      1.48897150
Si              6.58383460      4.35017439      5.18898809      14      0.38593731     -0.19168259     -2.77393828      -1       0       0      38      0.49217526      0.10017565     -2.68498570
Si              6.31271502      4.99227868      7.34046393      14     -1.06901880     -0.36088703     -0.05218367      -1       0      -1      37     -0.99260810     -0.54856398      0.10923843
Si              0.51705299     10.49975342     10.90046888      14      1.49820518     -0.20927306      0.24690607       0      -1      -1      36      1.47736828     -0.24057146      0.28446651
Si              7.64111436      0.06911484      3.56223726      14      0.46399632     -0.35565971     -1.19336234      -1       0       0      36      0.60452607     -0.13802752     -1.19469947
Si              2.48829851      6.44436550      7.89837366      14      0.34667370      2.25671339      0.49028356       0      -1      -1      37      0.44410059      2.06151893      0.33938870
Si              3.86007787      3.28030043      8.74780470      14      0.53034138      0.31351621      0.19921772       0       0      -1      36      0.25401761      0.61284199     -0.30826683
H               3.56508039      9.71708054      9.91916525       1     -0.80898595      0.05404515     -0.29803559       0      -1      -1      38     -1.14147303     -0.21049983     -0.35301851
H               4.97979554      6.19555786      9.62491187       1      0.56482659      0.16120728     -0.36042834       0      -1      -1      38      0.42338016      0.25744047     -0.45163548
H               7.55738625      6.04122894      2.48667703       1     -1.12619247      0.05190367      1.08768837      -1      -1       0      35     -1.38934725      0.18029890      1.21229261
H               7.51229591      9.81436906      0.86702737       1      0.46042737      0.16082161      0.07996035      -1      -1       0      37      0.29342700     -0.07573404      0.38989010
H               1.98547452      2.14381271      9.09290132       1     -0.94929245      1.07824418      0.28713693       0       0      -1      36     -1.11507882      1.25819142      0.37696373
H               9.73831520      3.72979342      7.62447758       1      0.26135131     -1.12836814      0.22546588      -1       0      -1      34      0.20858420     -1.08156672      0.32253451
H               1.03192588      3.80200461      7.41373019       1      0.60418018     -0.52136154     -0.59482830       0       0      -1      35      0.68747494     -0.80631210     -0.74060248
H               4.84047081      4.44433102     10.49552204       1     -0.37950543     -0.05150875     -0.37338209       0       0      -1      36     -0.28814042     -0.24790484      0.02407390
72
config_type=amorph dft_energy=-6960.37528926 dft_virial="2.43875309       4.15053388     -15.31672776       4.15053388      10.80270773     -10.13484910     -15.31672776     -10.13484910      -0.43266171" energy=-6960.4166210586964 virial="1.29408113       4.65395998     -11.31451657       4.65395998       7.11611178      -6.80587158     -11.31451657      -6.80587158       2.13561037" cutoff=5.00000000 nneightol=1.20000000 pbc="T T T" Lattice="11.10599645       0.00000000       0.00000000       0.00000000      11.10599645       0.00000000       0.00000000       0.00000000      11.10599645" Properties=species:S:1:pos:R:3:Z:I:1:dft_force:R:3:map_shift:I:3:n_neighb:I:1:force:R:3
Si             10.97082537      7.87043098      6.39712059      14      1.38667989      0.75129780     -0.50707159      -1      -1      -1      34      1.35487203      0.88423193     -0.58727470
Si             10.80124791      4.64590486      1.41977948      14      0.51119307     -0.09407417      0.27183011      -1       0       0      37      0.49537700     -0.16027847      0.31474462
Si             10.19305023      6.06238586      7.42253724      14      0.00803908     -1.57814727      0.46356489      -1      -1      -1      35      0.29076962     -1.65434058      0.54502536
Si              5.11526648      4.13036450      0.71347920      14     -0.02373079     -0.30788601     -0.45924749       0       0       0      35     -0.09321082     -0.07877646     -0.50105536
Si              1.16911714      2.73306356      0.38560686      14     -0.70741443      0.09259142      1.94597423       0       0       0      33     -0.59985713      0.09042948      2.03412376
Si              3.83842118      8.10411225      0.68567645      14     -0.85383477      0.37022143     -0.20555293       0      -1       0      33     -0.84523252      0.06947540     -0.25413469
Si              1.34964511      0.30453975      3.45844061      14      1.29842670      3.03311109      0.48358146       0       0       0      38      1.35149950      2.98170991      0.63734586
Si              4.68529783      2.73235278      4.70933121      14      0.31017737      0.05041115      0.64098864       0       0       0      31      0.30081921     -0.03746180      0.49769856
Si              9.71798012      2.27562978      8.29020432      14      0.38531253      1.61070544     -1.13184041      -1       0      -1      36      0.09355172      1.29304755     -1.09388684
Si              2.45275932     10.41238255      6.85058953      14      0.24160857     -0.08065969      2.14648908       0      -1      -1      35      0.16938606     -0.21029057      2.03473371
Si              4.39693063      6.17807702      1.56330227      14     -0.31153595     -2.10048737      2.04000084       0      -1       0      35     -0.24350978     -2.07447617      2.01222960
Si              2.28057195      8.07042776      6.47548450      14     -1.09875337      0.34863185     -0.09377824       0      -1      -1      35     -1.40355572      0.46011807      0.02130888
Si              9.68448444      9.73677147      9.77801914      14     -0.13286907      0.91897655     -0.56225445      -1      -1      -1      37      0.01760820      0.95592165     -0.43581503
Si              4.75195602     10.43804851      6.51876457      14      0.87382485      0.78601544      0.25381900       0      -1      -1      33      1.02207428      0.59453001      0.29171071
Si              5.87710452      9.15689407      8.28603957      14     -0.59337151      1.91887632     -0.20333355      -1      -1      -1      33     -0.67789947      2.05154698     -0.11103590
Si              9.68741642      9.40242544      7.39320631      14     -1.36049112      0.88781012      1.04004501      -1      -1      -1      38     -1.44405369      0.83997801      0.97667239
Si              0.84164462      5.74565395      9.12983987      14     -0.78136636     -1.24442449     -1.50409790       0      -1      -1      38     -1.00779231     -1.43003451     -1.48633721
Si              0.69666250      3.26219766      9.28294713      14      0.13707334     -1.76294264     -0.74016414       0       0      -1      33      0.10935655     -1.48904031     -1.00788614
Si              7.34643896      6.45182873     10.44311284      14     -1.01444709     -1.48057306      0.28109226      -1      -1      -1      34     -0.20417313     -1.76804473     -0.10218833
Si              9.78614873      0.48938795      6.61717481      14      0.49720857     -0.25749645      0.96194820      -1       0      -1      35      0.46013595     -0.11799557      0.91650908
Si             10.61426735      8.07583638      4.13568428      14     -0.34969141     -0.31349102     -0.79366936      -1      -1       0      35     -0.39644715     -0.27948478     -0.74020781
Si             10.44676671      4.66800579      5.50769687      14     -0.56779004     -0.73587348     -0.43714653      -1       0       0      38     -0.78552522     -0.84085388     -0.38660845
Si              8.55319432      8.90003459      3.38398601      14     -0.43101598     -0.64406960      1.04858442      -1      -1       0      39     -0.22609440     -0.75118876      1.17779598
Si              6.11869326      1.44262452      6.22869816      14     -1.49505352     -0.53783152      0.54669901      -1       0      -1      36     -1.56395820     -0.50046966      0.36597619
Si              5.61490305     10.70183814      2.97271986      14     -1.26414024      0.96301367      0.21029199      -1      -1       0      35     -1.29140228      1.01494893      0.25794337
Si              2.43115815      5.84033257      3.19728311      14      1.20996216     -0.13133823      1.25927339       0      -1       0      33      1.04896625      0.04443608      1.31256453
Si              7.60165476      8.15863158      7.29220838      14      0.72705073      0.83997137     -2.00545521      -1      -1      -1      37      0.58675966      1.10795472     -2.01563533
Si              3.78025907      1.35736378      3.05321612      14      0.16277179     -1.23261309      0.11165565       0       0       0      37     -0.05522027     -1.30932798      0.15562090
Si              2.39027698     10.72536064      9.53797413      14     -2.03302286      0.12869308     -1.82396243       0      -1      -1      36     -1.53634076     -0.32177673     -1.63287185
Si              7.91883091      6.13841751      8.11628442      14      0.21350947     -0.54446832      0.76141664      -1      -1      -1      35      0.05720247     -0.56564683      0.84374231
Si              6.89220370      7.91622100      4.81948048      14      0.46585986      0.65001888      0.62754639      -1      -1       0      35      0.54313401      0.57632364      0.50377607
Si              3.79902821      4.99336706      7.25023882      14     -0.67018894     -0.47380612      0.47308595       0       0      -1      37     -0.53159273     -0.65486160     -0.05976730
Si              6.14835738      2.84707772      8.16828269      14      0.30774279      0.15510424     -0.42967798      -1       0      -1      31      0.31059065      0.04786730     -0.50683808
Si              7.98555573      2.58197759      9.69827808      14     -1.16112068     -1.65286205     -0.25365754      -1       0      -1      40     -1.18325862     -1.51799309      0.08966778
Si              0.86969948      0.63074730      5.80037319      14     -0.34395733      1.14340627     -0.63420658       0       0      -1      36     -0.37388422      1.09457853     -0.84412511
Si              8.73696524      3.58018455      2.21369164      14      0.89900626      0.03777751     -0.00470307      -1       0       0      37      0.99429795      0.08287021     -0.11216284
Si              4.39214395      8.17174777      9.60103398      14     -1.75511748     -2.04659058     -0.52129495       0      -1      -1      31     -1.87979387     -1.77171962     -0.61386948
Si              7.63246279      8.02499313      1.43519460      14     -0.83336697      0.34584812      0.34761524      -1      -1       0      36     -0.42102551      0.19186109      0.25564245
Si              1.58069426      8.36006104      1.04892472      14     -1.16171486     -0.54854661     -0.12446824       0      -1       0      32     -1.11997845     -0.36819594     -0.10113981
Si              3.48652768      2.40820206      1.02675937      14      0.14036307     -0.00308018     -1.37155999       0       0       0      36      0.52546905      0.01969662     -1.17615327
Si              4.93984727      9.16442394      4.56742989      14      0.73105934      0.45295137      0.38460085       0      -1       0      32      0.81673723      0.40835441      0.13753754
Si              8.96122863      1.31467233      1.76315468      14      0.72576467     -1.37603294     -1.39234403      -1       0       0      36      0.70440515     -1.47555237     -1.25181575
Si              8.18982833      1.22453606      5.19445224      14     -0.57010558     -0.74061691      0.18036407      -1       0       0      34     -0.46009583     -0.89047660      0.27377267
Si              5.92317219      6.27710919      3.45236563      14     -0.61178500     -0.26705325      0.57639862      -1      -1       0      35     -0.71184697     -0.30700481      0.61278024
Si              5.58130741      9.38982014      1.14591671      14      0.66278699      0.42062409     -0.68824916      -1      -1       0      33      0.82355228      0.65387094     -0.66393104
Si              0.89969344      3.05007312      6.06968250      14     -0.18622207     -0.82483038      0.65358423       0       0      -1      35     -0.33576840     -0.83027885      0.31674552
Si              1.23606409      9.30920171      3.22756916      14      0.85063297     -3.64901911     -0.18619893       0      -1       0      36      0.70699849     -3.53777114     -0.35258734
Si              0.14402923      6.61397628     11.02498931      14     -0.68790180      0.13957014      2.54087221       0      -1      -1      40     -0.59494179      0.08982927      2.44138314
Si              2.74307006      3.97054922      5.26819605      14      2.28201538      1.70488837     -0.82619693       0       0       0      37      2.34194660      1.86521582     -0.93543951
Si              2.99345475      8.02282746      4.22024533      14     -0.92591313     -0.91598995      0.14767272       0      -1       0      33     -0.93596482     -0.84973839      0.28313782
Si              0.21443014      0.60496473      1.46269305      14     -0.81588525      2.37806622     -0.35505885       0       0       0      35     -0.81307736      2.08677789     -0.28277377
Si              8.60414863      3.34371567      4.61772895      14     -0.76186607      2.62672013     -0.51656771      -1       0       0      33     -0.70923796      2.60386515     -0.64689056
Si              8.15571071      0.28745428     10.68883301      14      1.02598107      1.29495262      0.34612785      -1       0      -1      36      0.96537486      1.41848748      0.09154148
Si              4.00742112      1.03930026     10.10072608      14      1.45806560      0.52773839      1.56137595       0       0      -1      33      1.53975904      0.38159138      1.56268802
Si              9.16884413      7.75126363     10.73366792      14      1.85859624     -0.19704925      0.63536383      -1      -1      -1      39      1.33839265     -0.41310459      0.84199078
Si              6.11660533     10.54408856     10.24083933      14     -1.82721976      0.63456113     -0.21412499      -1      -1      -1      38     -1.86913620      0.56234984     -0.09586980
Si              7.51820430      3.98493148      0.31329239      14     -1.29440652      1.99884284      0.19173555      -1       0       0      35     -1.56850974      1.89267623      0.11190853
Si              0.09337367      5.79650830      3.56347002      14      0.05303316      0.14584646     -0.69784941       0      -1       0      33      0.03846519      0.20538669     -0.59497522
Si              6.33759245      4.47809325      4.93191759      14      0.43551182     -0.71725482     -0.88103603      -1       0       0      36      0.51622977     -0.78153775     -0.72175384
Si              6.10358911      5.06096927      7.15182858      14      0.49538258     -1.15698377      0.03899493      -1       0      -1      33      0.19864305     -1.20590623      0.22682838
Si              0.54197485     10.07615961     10.99104939      14      0.94732555      0.32513787     -0.97088408       0      -1      -1      38      1.01632893      0.47996765     -1.21229028
Si              7.86139069     11.09577894      3.28872988      14      0.39391802      0.16521846      0.04888700      -1      -1       0      37      0.36085924      0.20116198      0.18479336
Si              2.72898766      6.73118897      8.34703371      14      1.49079963      0.85075073     -0.04479071       0      -1      -1      40      1.50970263      0.87904430     -0.19267722
Si              3.83915417      2.86384778      8.66322143      14     -0.76105360     -0.60240201     -1.93680130       0       0      -1      34     -0.46659199     -0.38716182     -1.77869309
H               3.21525261      9.43024597      9.81834501       1      0.43802379     -0.63229650     -0.22205017       0      -1      -1      37      0.30851546     -0.42834936     -0.23977861
H               9.43324458      8.18380888      1.28690734       1     -0.17900832     -0.42452728     -0.99698363      -1      -1       0      34     -0.12101230     -0.06305009     -0.59964505
H               7.00468523      5.79764112      2.64390462       1      1.58774058     -0.45199672     -1.03892735      -1      -1       0      35      1.44420391     -0.20971565     -0.96509626
H               7.62455532      9.48612023      0.83329069       1      0.54324242      0.13739550     -0.09138094      -1      -1       0      35      0.16498262      0.11719928     -0.19247712
H               1.37820974      1.61526723      8.74269594       1     -0.27710165      0.94543142      0.66691798       0       0      -1      37     -0.47520183      0.78458902      1.04229412
H               8.98894920      3.37681154      7.23532346       1      0.91915293     -0.77797662      0.67911248      -1       0      -1      35      1.35218000     -0.81758866      0.41908386
H               1.17049428      3.46404914      7.62190099       1      0.14389294     -0.11049119     -0.91847570       0       0      -1      34     -0.05414112     -0.03952604     -0.38851733
H               3.04999538      1.95111256      7.33822052       1      1.02372621      0.83460573      1.21755155       0       0      -1      34      1.12018533      1.10712693      1.09288773
72