
     Program PWSCF v.6.2 (svn rev. 14038) starts on  1Oct2020 at 21:24:45 

     This program is part of the open-source Quantum ESPRESSO suite
     for quantum simulation of materials; please cite
         "P. Giannozzi et al., J. Phys.:Condens. Matter 21 395502 (2009);
         "P. Giannozzi et al., J. Phys.:Condens. Matter 29 465901 (2017);
          URL http://www.quantum-espresso.org", 
     in publications or presentations arising from this work. More details at
     http://www.quantum-espresso.org/quote

     Parallel version (MPI), running on     8 processors

     MPI processes distributed on     1 nodes
     R & G space division:  proc/nbgrp/npool/nimage =       8
     Waiting for input...
     Reading input from standard input

     Current dimensions of program PWSCF are:
     Max number of different atomic species (ntypx) = 10
     Max number of k-points (npk) =  40000
     Max angular momentum in pseudopotentials (lmaxx) =  3

     Subspace diagonalization in iterative solution of the eigenvalue problem:
     a serial algorithm will be used


     Parallelization info
     --------------------
     sticks:   dense  smooth     PW     G-vecs:    dense   smooth      PW
     Min        2386    2386    623               248152   248152   33108
     Max        2387    2387    625               248157   248157   33111
     Sum       19089   19089   4989              1985227  1985227  264875



     bravais-lattice index     =            1
     lattice parameter (alat)  =      37.7945  a.u.
     unit-cell volume          =   53986.6767 (a.u.)^3
     number of atoms/cell      =            2
     number of atomic types    =            1
     number of electrons       =         8.00
     number of Kohn-Sham states=            8
     kinetic-energy cutoff     =      42.0000  Ry
     charge density cutoff     =     168.0000  Ry
     convergence threshold     =      1.0E-08
     mixing beta               =       0.3000
     number of iterations used =            8  plain     mixing
     Exchange-correlation      = SLA-PW-PBX-PBC ( 1  4  3  4 0 0)

     celldm(1)=  37.794523  celldm(2)=   0.000000  celldm(3)=   0.000000
     celldm(4)=   0.000000  celldm(5)=   0.000000  celldm(6)=   0.000000

     crystal axes: (cart. coord. in units of alat)
               a(1) = (   1.000000   0.000000   0.000000 )  
               a(2) = (   0.000000   1.000000   0.000000 )  
               a(3) = (   0.000000   0.000000   1.000000 )  

     reciprocal axes: (cart. coord. in units 2 pi/alat)
               b(1) = (  1.000000  0.000000  0.000000 )  
               b(2) = (  0.000000  1.000000  0.000000 )  
               b(3) = (  0.000000  0.000000  1.000000 )  


     PseudoPot. # 1 for Si read from file:
     ./Si.pbe-hgh.UPF
     MD5 check sum: 9a9f0f6e09139bfdb36b03ff6bc35900
     Pseudo is Norm-conserving, Zval =  4.0
     Generated in analytical, separable form
     Using radial grid of 1141 points,  3 beta functions with: 
                l(1) =   0
                l(2) =   0
                l(3) =   1

     atomic species   valence    mass     pseudopotential
        Si             4.00    28.08000     Si( 1.00)

      8 Sym. Ops. (no inversion) found


                                    s                        frac. trans.

      isym =  1     identity                                     

 cryst.   s( 1) = (     1          0          0      )
                  (     0          1          0      )
                  (     0          0          1      )

 cart.    s( 1) = (  1.0000000  0.0000000  0.0000000 )
                  (  0.0000000  1.0000000  0.0000000 )
                  (  0.0000000  0.0000000  1.0000000 )


      isym =  2     180 deg rotation - cart. axis [1,0,0]        

 cryst.   s( 2) = (     1          0          0      )
                  (     0         -1          0      )
                  (     0          0         -1      )

 cart.    s( 2) = (  1.0000000  0.0000000  0.0000000 )
                  (  0.0000000 -1.0000000  0.0000000 )
                  (  0.0000000  0.0000000 -1.0000000 )


      isym =  3      90 deg rotation - cart. axis [-1,0,0]       

 cryst.   s( 3) = (     1          0          0      )
                  (     0          0         -1      )
                  (     0          1          0      )

 cart.    s( 3) = (  1.0000000  0.0000000  0.0000000 )
                  (  0.0000000  0.0000000  1.0000000 )
                  (  0.0000000 -1.0000000  0.0000000 )


      isym =  4      90 deg rotation - cart. axis [1,0,0]        

 cryst.   s( 4) = (     1          0          0      )
                  (     0          0          1      )
                  (     0         -1          0      )

 cart.    s( 4) = (  1.0000000  0.0000000  0.0000000 )
                  (  0.0000000  0.0000000 -1.0000000 )
                  (  0.0000000  1.0000000  0.0000000 )


      isym =  5     inv. 180 deg rotation - cart. axis [0,0,1]   

 cryst.   s( 5) = (     1          0          0      )
                  (     0          1          0      )
                  (     0          0         -1      )

 cart.    s( 5) = (  1.0000000  0.0000000  0.0000000 )
                  (  0.0000000  1.0000000  0.0000000 )
                  (  0.0000000  0.0000000 -1.0000000 )


      isym =  6     inv. 180 deg rotation - cart. axis [0,1,0]   

 cryst.   s( 6) = (     1          0          0      )
                  (     0         -1          0      )
                  (     0          0          1      )

 cart.    s( 6) = (  1.0000000  0.0000000  0.0000000 )
                  (  0.0000000 -1.0000000  0.0000000 )
                  (  0.0000000  0.0000000  1.0000000 )


      isym =  7     inv. 180 deg rotation - cart. axis [0,1,1]   

 cryst.   s( 7) = (     1          0          0      )
                  (     0          0         -1      )
                  (     0         -1          0      )

 cart.    s( 7) = (  1.0000000  0.0000000  0.0000000 )
                  (  0.0000000  0.0000000 -1.0000000 )
                  (  0.0000000 -1.0000000  0.0000000 )


      isym =  8     inv. 180 deg rotation - cart. axis [0,1,-1]  

 cryst.   s( 8) = (     1          0          0      )
                  (     0          0          1      )
                  (     0          1          0      )

 cart.    s( 8) = (  1.0000000  0.0000000  0.0000000 )
                  (  0.0000000  0.0000000  1.0000000 )
                  (  0.0000000  1.0000000  0.0000000 )


     point group C_4v (4mm) 
     there are  5 classes
     the character table:

       E     2C4   C2    2s_v  2s_d 
A_1    1.00  1.00  1.00  1.00  1.00
A_2    1.00  1.00  1.00 -1.00 -1.00
B_1    1.00 -1.00  1.00  1.00 -1.00
B_2    1.00 -1.00  1.00 -1.00  1.00
E      2.00  0.00 -2.00  0.00  0.00

     the symmetry operations in each class and the name of the first element:

     E        1
          identity                                               
     2C4      3    4
           90 deg rotation - cart. axis [-1,0,0]                 
     C2       2
          180 deg rotation - cart. axis [1,0,0]                  
     2s_v     5    6
          inv. 180 deg rotation - cart. axis [0,0,1]             
     2s_d     7    8
          inv. 180 deg rotation - cart. axis [0,1,1]             

   Cartesian axes

     site n.     atom                  positions (alat units)
         1           Si  tau(   1) = (   0.0000000   0.0000000   0.0000000  )
         2           Si  tau(   2) = (   0.1060000   0.0000000   0.0000000  )

   Crystallographic axes

     site n.     atom                  positions (cryst. coord.)
         1           Si  tau(   1) = (  0.0000000  0.0000000  0.0000000  )
         2           Si  tau(   2) = (  0.1060000  0.0000000  0.0000000  )

     number of k points=     6  Marzari-Vanderbilt smearing, width (Ry)=  0.0500
                       cart. coord. in units 2pi/alat
        k(    1) = (   0.0000000   0.0000000   0.0000000), wk =   0.2500000
        k(    2) = (   0.0000000   0.0000000  -0.5000000), wk =   0.5000000
        k(    3) = (   0.0000000  -0.5000000  -0.5000000), wk =   0.2500000
        k(    4) = (  -0.5000000  -0.5000000  -0.5000000), wk =   0.2500000
        k(    5) = (  -0.5000000   0.0000000   0.0000000), wk =   0.2500000
        k(    6) = (  -0.5000000   0.5000000   0.0000000), wk =   0.5000000

                       cryst. coord.
        k(    1) = (   0.0000000   0.0000000   0.0000000), wk =   0.2500000
        k(    2) = (   0.0000000   0.0000000  -0.5000000), wk =   0.5000000
        k(    3) = (   0.0000000  -0.5000000  -0.5000000), wk =   0.2500000
        k(    4) = (  -0.5000000  -0.5000000  -0.5000000), wk =   0.2500000
        k(    5) = (  -0.5000000   0.0000000   0.0000000), wk =   0.2500000
        k(    6) = (  -0.5000000   0.5000000   0.0000000), wk =   0.5000000

     Dense  grid:  1985227 G-vectors     FFT dimensions: ( 160, 160, 160)

     Dynamical RAM for                 wfc:       3.79 MB

     Dynamical RAM for     wfc (w. buffer):      26.50 MB

     Dynamical RAM for           str. fact:       3.79 MB

     Dynamical RAM for           local pot:       0.00 MB

     Dynamical RAM for          nlocal pot:       4.73 MB

     Dynamical RAM for                qrad:       1.07 MB

     Dynamical RAM for          rho,v,vnew:      23.08 MB

     Dynamical RAM for               rhoin:       7.69 MB

     Dynamical RAM for            rho*nmix:      60.58 MB

     Dynamical RAM for           G-vectors:      16.09 MB

     Dynamical RAM for          h,s,v(r/c):       0.05 MB

     Dynamical RAM for          <psi|beta>:       0.00 MB

     Dynamical RAM for                 psi:      15.15 MB

     Dynamical RAM for                hpsi:      15.15 MB

     Dynamical RAM for      wfcinit/wfcrot:       7.57 MB

     Estimated static dynamical RAM per process >     170.65 MB

     Estimated max dynamical RAM per process >     200.99 MB

     Estimated total dynamical RAM >       1.57 GB

     Initial potential from superposition of free atoms
     Check: negative starting charge=   -0.000629

     starting charge    7.99888, renormalised to    8.00000

     negative rho (up, down):  6.287E-04 0.000E+00
     Starting wfc are    8 randomized atomic wfcs

     total cpu time spent up to now is        3.9 secs

     Self-consistent Calculation

     iteration #  1     ecut=    42.00 Ry     beta= 0.30
     Davidson diagonalization with overlap
     ethr =  1.00E-02,  avg # of iterations =  4.0

     negative rho (up, down):  3.478E-04 0.000E+00

     total cpu time spent up to now is       10.8 secs

     total energy              =     -15.32231019 Ry
     Harris-Foulkes estimate   =     -15.35929148 Ry
     estimated scf accuracy    <       0.09928466 Ry

     iteration #  2     ecut=    42.00 Ry     beta= 0.30
     Davidson diagonalization with overlap
     ethr =  1.24E-03,  avg # of iterations =  2.0

     negative rho (up, down):  1.927E-04 0.000E+00

     total cpu time spent up to now is       18.7 secs

     total energy              =     -15.32645633 Ry
     Harris-Foulkes estimate   =     -15.33331938 Ry
     estimated scf accuracy    <       0.01886031 Ry

     iteration #  3     ecut=    42.00 Ry     beta= 0.30
     Davidson diagonalization with overlap
     ethr =  2.36E-04,  avg # of iterations =  4.0

     negative rho (up, down):  8.914E-05 0.000E+00

     total cpu time spent up to now is       25.9 secs

     total energy              =     -15.32788624 Ry
     Harris-Foulkes estimate   =     -15.32842982 Ry
     estimated scf accuracy    <       0.00220441 Ry

     iteration #  4     ecut=    42.00 Ry     beta= 0.30
     Davidson diagonalization with overlap
     ethr =  2.76E-05,  avg # of iterations =  5.0

     negative rho (up, down):  1.195E-05 0.000E+00

     total cpu time spent up to now is       32.3 secs

     total energy              =     -15.32802789 Ry
     Harris-Foulkes estimate   =     -15.32805790 Ry
     estimated scf accuracy    <       0.00020107 Ry

     iteration #  5     ecut=    42.00 Ry     beta= 0.30
     Davidson diagonalization with overlap
     ethr =  2.51E-06,  avg # of iterations =  3.8

     negative rho (up, down):  7.230E-06 0.000E+00

     total cpu time spent up to now is       39.1 secs

     total energy              =     -15.32804051 Ry
     Harris-Foulkes estimate   =     -15.32807612 Ry
     estimated scf accuracy    <       0.00007066 Ry

     iteration #  6     ecut=    42.00 Ry     beta= 0.30
     Davidson diagonalization with overlap
     ethr =  8.83E-07,  avg # of iterations =  2.0

     negative rho (up, down):  1.276E-06 0.000E+00

     total cpu time spent up to now is       45.3 secs

     total energy              =     -15.32805248 Ry
     Harris-Foulkes estimate   =     -15.32805281 Ry
     estimated scf accuracy    <       0.00000214 Ry

     iteration #  7     ecut=    42.00 Ry     beta= 0.30
     Davidson diagonalization with overlap
     ethr =  2.68E-08,  avg # of iterations =  3.0

     total cpu time spent up to now is       52.0 secs

     total energy              =     -15.32805258 Ry
     Harris-Foulkes estimate   =     -15.32805355 Ry
     estimated scf accuracy    <       0.00000216 Ry

     iteration #  8     ecut=    42.00 Ry     beta= 0.30
     Davidson diagonalization with overlap
     ethr =  2.68E-08,  avg # of iterations =  2.0

     negative rho (up, down):  1.988E-07 0.000E+00

     total cpu time spent up to now is       58.1 secs

     total energy              =     -15.32805288 Ry
     Harris-Foulkes estimate   =     -15.32805292 Ry
     estimated scf accuracy    <       0.00000016 Ry

     iteration #  9     ecut=    42.00 Ry     beta= 0.30
     Davidson diagonalization with overlap
     ethr =  2.00E-09,  avg # of iterations =  2.0

     negative rho (up, down):  1.901E-08 0.000E+00

     total cpu time spent up to now is       63.5 secs

     total energy              =     -15.32805291 Ry
     Harris-Foulkes estimate   =     -15.32805292 Ry
     estimated scf accuracy    <       0.00000003 Ry

     iteration # 10     ecut=    42.00 Ry     beta= 0.30
     Davidson diagonalization with overlap
     ethr =  4.16E-10,  avg # of iterations =  1.0

     total cpu time spent up to now is       68.6 secs

     End of self-consistent calculation

          k = 0.0000 0.0000 0.0000 (248049 PWs)   bands (ev):

   -13.1330  -8.9079  -5.3449  -5.3449  -5.2767  -2.3641  -2.3641  -0.0498

     occupation numbers 
     1.0000   1.0000   0.6917   0.6917   0.6167   0.0000   0.0000   0.0000

          k = 0.0000 0.0000-0.5000 (247982 PWs)   bands (ev):

   -13.1330  -8.9079  -5.3449  -5.3449  -5.2767  -2.3641  -2.3641  -0.0466

     occupation numbers 
     1.0000   1.0000   0.6917   0.6917   0.6167   0.0000   0.0000   0.0000

          k = 0.0000-0.5000-0.5000 (248312 PWs)   bands (ev):

   -13.1330  -8.9079  -5.3449  -5.3449  -5.2767  -2.3641  -2.3641  -0.0439

     occupation numbers 
     1.0000   1.0000   0.6917   0.6917   0.6167   0.0000   0.0000   0.0000

          k =-0.5000-0.5000-0.5000 (248296 PWs)   bands (ev):

   -13.1330  -8.9079  -5.3449  -5.3449  -5.2767  -2.3641  -2.3641  -0.0781

     occupation numbers 
     1.0000   1.0000   0.6917   0.6917   0.6167   0.0000   0.0000   0.0000

          k =-0.5000 0.0000 0.0000 (247982 PWs)   bands (ev):

   -13.1330  -8.9079  -5.3449  -5.3449  -5.2767  -2.3641  -2.3641  -0.0932

     occupation numbers 
     1.0000   1.0000   0.6917   0.6917   0.6167   0.0000   0.0000   0.0000

          k =-0.5000 0.5000 0.0000 (248312 PWs)   bands (ev):

   -13.1330  -8.9079  -5.3449  -5.3449  -5.2767  -2.3641  -2.3641  -0.0844

     occupation numbers 
     1.0000   1.0000   0.6917   0.6917   0.6167   0.0000   0.0000   0.0000

     the Fermi energy is    -5.0760 ev

!    total energy              =     -15.32805292 Ry
     Harris-Foulkes estimate   =     -15.32805291 Ry
     estimated scf accuracy    <          3.4E-09 Ry

     The total energy is the sum of the following terms:

     one-electron contribution =     -29.15995003 Ry
     hartree contribution      =      14.94771223 Ry
     xc contribution           =      -4.28262631 Ry
     ewald contribution        =       3.20325202 Ry
     smearing contrib. (-TS)   =      -0.03644083 Ry

     convergence has been achieved in  10 iterations

     Forces acting on atoms (cartesian axes, Ry/au):

     atom    1 type  1   force =    -0.04815467    0.00000000    0.00000000
     atom    2 type  1   force =     0.04815467    0.00000000    0.00000000
     The non-local contrib.  to forces
     atom    1 type  1   force =    -0.14326029    0.00000000    0.00000000
     atom    2 type  1   force =     0.14326009    0.00000000    0.00000000
     The ionic contribution  to forces
     atom    1 type  1   force =    -1.98351535    0.00000000   -0.00000000
     atom    2 type  1   force =     1.98351535   -0.00000000   -0.00000000
     The local contribution  to forces
     atom    1 type  1   force =     2.07857641    0.00000000   -0.00000000
     atom    2 type  1   force =    -2.07857877    0.00000000   -0.00000000
     The core correction contribution to forces
     atom    1 type  1   force =     0.00000000    0.00000000    0.00000000
     atom    2 type  1   force =     0.00000000    0.00000000    0.00000000
     The Hubbard contrib.    to forces
     atom    1 type  1   force =     0.00000000    0.00000000    0.00000000
     atom    2 type  1   force =     0.00000000    0.00000000    0.00000000
     The SCF correction term to forces
     atom    1 type  1   force =     0.00004435   -0.00000000   -0.00000000
     atom    2 type  1   force =    -0.00004219    0.00000000   -0.00000000

     Total force =     0.068101     Total SCF correction =     0.000061


     Computing stress (Cartesian axis) and pressure

          total   stress  (Ry/bohr**3)                   (kbar)     P=    0.17
   0.00000357   0.00000000   0.00000000          0.52      0.00      0.00
   0.00000000  -0.00000000   0.00000000          0.00     -0.00      0.00
   0.00000000   0.00000000  -0.00000000          0.00      0.00     -0.00

     kinetic stress (kbar)      9.76      0.00      0.00
                                0.00     10.56      0.00
                                0.00      0.00     10.56

     local   stress (kbar)    -56.77      0.00      0.00
                                0.00    -26.27      0.00
                                0.00      0.00    -26.27

     nonloc. stress (kbar)     14.56      0.00      0.00
                                0.00     12.88      0.00
                                0.00      0.00     12.88

     hartree stress (kbar)     19.01     -0.00     -0.00
                               -0.00     10.86     -0.00
                               -0.00     -0.00     10.86

     exc-cor stress (kbar)     -3.56      0.00     -0.00
                                0.00     -3.64     -0.00
                               -0.00     -0.00     -3.64

     corecor stress (kbar)      0.00      0.00      0.00
                                0.00      0.00      0.00
                                0.00      0.00      0.00

     ewald   stress (kbar)     17.51      0.00     -0.00
                                0.00     -4.39     -0.00
                               -0.00     -0.00     -4.39

     hubbard stress (kbar)      0.00      0.00      0.00
                                0.00      0.00      0.00
                                0.00      0.00      0.00

     london  stress (kbar)      0.00      0.00      0.00
                                0.00      0.00      0.00
                                0.00      0.00      0.00

     DFT-D3  stress (kbar)      0.00      0.00      0.00
                                0.00      0.00      0.00
                                0.00      0.00      0.00

     XDM     stress (kbar)      0.00      0.00      0.00
                                0.00      0.00      0.00
                                0.00      0.00      0.00

     dft-nl  stress (kbar)      0.00      0.00      0.00
                                0.00      0.00      0.00
                                0.00      0.00      0.00

     TS-vdW  stress (kbar)      0.00      0.00      0.00
                                0.00      0.00      0.00
                                0.00      0.00      0.00



     Writing output data file SiSi12.save

     init_run     :      3.58s CPU      3.73s WALL (       1 calls)
     electrons    :     62.46s CPU     64.91s WALL (       1 calls)
     forces       :      0.36s CPU      0.37s WALL (       1 calls)
     stress       :      1.82s CPU      1.91s WALL (       1 calls)

     Called by init_run:
     wfcinit      :      1.92s CPU      1.94s WALL (       1 calls)
     wfcinit:atom :      0.04s CPU      0.04s WALL (       6 calls)
     wfcinit:wfcr :      1.72s CPU      1.74s WALL (       6 calls)
     potinit      :      0.59s CPU      0.63s WALL (       1 calls)

     Called by electrons:
     c_bands      :     47.10s CPU     49.27s WALL (      10 calls)
     sum_band     :     10.37s CPU     10.41s WALL (      10 calls)
     v_of_rho     :      4.21s CPU      4.28s WALL (      11 calls)
     v_h          :      0.39s CPU      0.41s WALL (      11 calls)
     v_xc         :      3.82s CPU      3.88s WALL (      11 calls)
     mix_rho      :      0.94s CPU      1.03s WALL (      10 calls)

     Called by c_bands:
     init_us_2    :      0.86s CPU      0.87s WALL (     138 calls)
     cegterg      :     46.37s CPU     46.53s WALL (      60 calls)

     Called by sum_band:

     Called by *egterg:
     h_psi        :     45.55s CPU     45.69s WALL (     239 calls)
     g_psi        :      0.16s CPU      0.16s WALL (     173 calls)
     cdiaghg      :      0.04s CPU      0.04s WALL (     233 calls)
     cegterg:over :      0.81s CPU      0.81s WALL (     173 calls)
     cegterg:upda :      0.64s CPU      0.65s WALL (     173 calls)
     cegterg:last :      0.21s CPU      0.22s WALL (      60 calls)

     Called by h_psi:
     h_psi:pot    :     45.33s CPU     45.47s WALL (     239 calls)
     h_psi:calbec :      0.56s CPU      0.57s WALL (     239 calls)
     vloc_psi     :     44.46s CPU     44.60s WALL (     239 calls)
     add_vuspsi   :      0.30s CPU      0.30s WALL (     239 calls)

     General routines
     calbec       :      0.66s CPU      0.66s WALL (     269 calls)
     fft          :      3.77s CPU      3.80s WALL (     128 calls)
     fftw         :     47.86s CPU     48.00s WALL (    3016 calls)

     Parallel routines
     fft_scatt_xy :      6.63s CPU      6.65s WALL (    3144 calls)
     fft_scatt_yz :     14.27s CPU     14.32s WALL (    3144 calls)

     PWSCF        :  1m 8.71s CPU     1m11.91s WALL


   This run was terminated on:  21:25:57   1Oct2020            

=------------------------------------------------------------------------------=
   JOB DONE.
=------------------------------------------------------------------------------=
