
     Program PWSCF v.6.2 (svn rev. 14038) starts on  1Oct2020 at 21:15: 1 

     This program is part of the open-source Quantum ESPRESSO suite
     for quantum simulation of materials; please cite
         "P. Giannozzi et al., J. Phys.:Condens. Matter 21 395502 (2009);
         "P. Giannozzi et al., J. Phys.:Condens. Matter 29 465901 (2017);
          URL http://www.quantum-espresso.org", 
     in publications or presentations arising from this work. More details at
     http://www.quantum-espresso.org/quote

     Parallel version (MPI), running on     8 processors

     MPI processes distributed on     1 nodes
     R & G space division:  proc/nbgrp/npool/nimage =       8
     Waiting for input...
     Reading input from standard input

     Current dimensions of program PWSCF are:
     Max number of different atomic species (ntypx) = 10
     Max number of k-points (npk) =  40000
     Max angular momentum in pseudopotentials (lmaxx) =  3

     Subspace diagonalization in iterative solution of the eigenvalue problem:
     a serial algorithm will be used


     Parallelization info
     --------------------
     sticks:   dense  smooth     PW     G-vecs:    dense   smooth      PW
     Min        2386    2386    623               248152   248152   33108
     Max        2387    2387    625               248157   248157   33111
     Sum       19089   19089   4989              1985227  1985227  264875



     bravais-lattice index     =            1
     lattice parameter (alat)  =      37.7945  a.u.
     unit-cell volume          =   53986.6767 (a.u.)^3
     number of atoms/cell      =            2
     number of atomic types    =            1
     number of electrons       =         8.00
     number of Kohn-Sham states=            8
     kinetic-energy cutoff     =      42.0000  Ry
     charge density cutoff     =     168.0000  Ry
     convergence threshold     =      1.0E-08
     mixing beta               =       0.3000
     number of iterations used =            8  plain     mixing
     Exchange-correlation      = SLA-PW-PBX-PBC ( 1  4  3  4 0 0)

     celldm(1)=  37.794523  celldm(2)=   0.000000  celldm(3)=   0.000000
     celldm(4)=   0.000000  celldm(5)=   0.000000  celldm(6)=   0.000000

     crystal axes: (cart. coord. in units of alat)
               a(1) = (   1.000000   0.000000   0.000000 )  
               a(2) = (   0.000000   1.000000   0.000000 )  
               a(3) = (   0.000000   0.000000   1.000000 )  

     reciprocal axes: (cart. coord. in units 2 pi/alat)
               b(1) = (  1.000000  0.000000  0.000000 )  
               b(2) = (  0.000000  1.000000  0.000000 )  
               b(3) = (  0.000000  0.000000  1.000000 )  


     PseudoPot. # 1 for Si read from file:
     ./Si.pbe-hgh.UPF
     MD5 check sum: 9a9f0f6e09139bfdb36b03ff6bc35900
     Pseudo is Norm-conserving, Zval =  4.0
     Generated in analytical, separable form
     Using radial grid of 1141 points,  3 beta functions with: 
                l(1) =   0
                l(2) =   0
                l(3) =   1

     atomic species   valence    mass     pseudopotential
        Si             4.00    28.08000     Si( 1.00)

      8 Sym. Ops. (no inversion) found


                                    s                        frac. trans.

      isym =  1     identity                                     

 cryst.   s( 1) = (     1          0          0      )
                  (     0          1          0      )
                  (     0          0          1      )

 cart.    s( 1) = (  1.0000000  0.0000000  0.0000000 )
                  (  0.0000000  1.0000000  0.0000000 )
                  (  0.0000000  0.0000000  1.0000000 )


      isym =  2     180 deg rotation - cart. axis [1,0,0]        

 cryst.   s( 2) = (     1          0          0      )
                  (     0         -1          0      )
                  (     0          0         -1      )

 cart.    s( 2) = (  1.0000000  0.0000000  0.0000000 )
                  (  0.0000000 -1.0000000  0.0000000 )
                  (  0.0000000  0.0000000 -1.0000000 )


      isym =  3      90 deg rotation - cart. axis [-1,0,0]       

 cryst.   s( 3) = (     1          0          0      )
                  (     0          0         -1      )
                  (     0          1          0      )

 cart.    s( 3) = (  1.0000000  0.0000000  0.0000000 )
                  (  0.0000000  0.0000000  1.0000000 )
                  (  0.0000000 -1.0000000  0.0000000 )


      isym =  4      90 deg rotation - cart. axis [1,0,0]        

 cryst.   s( 4) = (     1          0          0      )
                  (     0          0          1      )
                  (     0         -1          0      )

 cart.    s( 4) = (  1.0000000  0.0000000  0.0000000 )
                  (  0.0000000  0.0000000 -1.0000000 )
                  (  0.0000000  1.0000000  0.0000000 )


      isym =  5     inv. 180 deg rotation - cart. axis [0,0,1]   

 cryst.   s( 5) = (     1          0          0      )
                  (     0          1          0      )
                  (     0          0         -1      )

 cart.    s( 5) = (  1.0000000  0.0000000  0.0000000 )
                  (  0.0000000  1.0000000  0.0000000 )
                  (  0.0000000  0.0000000 -1.0000000 )


      isym =  6     inv. 180 deg rotation - cart. axis [0,1,0]   

 cryst.   s( 6) = (     1          0          0      )
                  (     0         -1          0      )
                  (     0          0          1      )

 cart.    s( 6) = (  1.0000000  0.0000000  0.0000000 )
                  (  0.0000000 -1.0000000  0.0000000 )
                  (  0.0000000  0.0000000  1.0000000 )


      isym =  7     inv. 180 deg rotation - cart. axis [0,1,1]   

 cryst.   s( 7) = (     1          0          0      )
                  (     0          0         -1      )
                  (     0         -1          0      )

 cart.    s( 7) = (  1.0000000  0.0000000  0.0000000 )
                  (  0.0000000  0.0000000 -1.0000000 )
                  (  0.0000000 -1.0000000  0.0000000 )


      isym =  8     inv. 180 deg rotation - cart. axis [0,1,-1]  

 cryst.   s( 8) = (     1          0          0      )
                  (     0          0          1      )
                  (     0          1          0      )

 cart.    s( 8) = (  1.0000000  0.0000000  0.0000000 )
                  (  0.0000000  0.0000000  1.0000000 )
                  (  0.0000000  1.0000000  0.0000000 )


     point group C_4v (4mm) 
     there are  5 classes
     the character table:

       E     2C4   C2    2s_v  2s_d 
A_1    1.00  1.00  1.00  1.00  1.00
A_2    1.00  1.00  1.00 -1.00 -1.00
B_1    1.00 -1.00  1.00  1.00 -1.00
B_2    1.00 -1.00  1.00 -1.00  1.00
E      2.00  0.00 -2.00  0.00  0.00

     the symmetry operations in each class and the name of the first element:

     E        1
          identity                                               
     2C4      3    4
           90 deg rotation - cart. axis [-1,0,0]                 
     C2       2
          180 deg rotation - cart. axis [1,0,0]                  
     2s_v     5    6
          inv. 180 deg rotation - cart. axis [0,0,1]             
     2s_d     7    8
          inv. 180 deg rotation - cart. axis [0,1,1]             

   Cartesian axes

     site n.     atom                  positions (alat units)
         1           Si  tau(   1) = (   0.0000000   0.0000000   0.0000000  )
         2           Si  tau(   2) = (   0.0515000   0.0000000   0.0000000  )

   Crystallographic axes

     site n.     atom                  positions (cryst. coord.)
         1           Si  tau(   1) = (  0.0000000  0.0000000  0.0000000  )
         2           Si  tau(   2) = (  0.0515000  0.0000000  0.0000000  )

     number of k points=     6  Marzari-Vanderbilt smearing, width (Ry)=  0.0500
                       cart. coord. in units 2pi/alat
        k(    1) = (   0.0000000   0.0000000   0.0000000), wk =   0.2500000
        k(    2) = (   0.0000000   0.0000000  -0.5000000), wk =   0.5000000
        k(    3) = (   0.0000000  -0.5000000  -0.5000000), wk =   0.2500000
        k(    4) = (  -0.5000000  -0.5000000  -0.5000000), wk =   0.2500000
        k(    5) = (  -0.5000000   0.0000000   0.0000000), wk =   0.2500000
        k(    6) = (  -0.5000000   0.5000000   0.0000000), wk =   0.5000000

                       cryst. coord.
        k(    1) = (   0.0000000   0.0000000   0.0000000), wk =   0.2500000
        k(    2) = (   0.0000000   0.0000000  -0.5000000), wk =   0.5000000
        k(    3) = (   0.0000000  -0.5000000  -0.5000000), wk =   0.2500000
        k(    4) = (  -0.5000000  -0.5000000  -0.5000000), wk =   0.2500000
        k(    5) = (  -0.5000000   0.0000000   0.0000000), wk =   0.2500000
        k(    6) = (  -0.5000000   0.5000000   0.0000000), wk =   0.5000000

     Dense  grid:  1985227 G-vectors     FFT dimensions: ( 160, 160, 160)

     Dynamical RAM for                 wfc:       3.79 MB

     Dynamical RAM for     wfc (w. buffer):      26.50 MB

     Dynamical RAM for           str. fact:       3.79 MB

     Dynamical RAM for           local pot:       0.00 MB

     Dynamical RAM for          nlocal pot:       4.73 MB

     Dynamical RAM for                qrad:       1.07 MB

     Dynamical RAM for          rho,v,vnew:      23.08 MB

     Dynamical RAM for               rhoin:       7.69 MB

     Dynamical RAM for            rho*nmix:      60.58 MB

     Dynamical RAM for           G-vectors:      16.09 MB

     Dynamical RAM for          h,s,v(r/c):       0.05 MB

     Dynamical RAM for          <psi|beta>:       0.00 MB

     Dynamical RAM for                 psi:      15.15 MB

     Dynamical RAM for                hpsi:      15.15 MB

     Dynamical RAM for      wfcinit/wfcrot:       7.57 MB

     Estimated static dynamical RAM per process >     170.65 MB

     Estimated max dynamical RAM per process >     200.99 MB

     Estimated total dynamical RAM >       1.57 GB

     Initial potential from superposition of free atoms
     Check: negative starting charge=   -0.000633

     starting charge    7.99888, renormalised to    8.00000

     negative rho (up, down):  6.335E-04 0.000E+00
     Starting wfc are    8 randomized atomic wfcs

     total cpu time spent up to now is        3.6 secs

     Self-consistent Calculation

     iteration #  1     ecut=    42.00 Ry     beta= 0.30
     Davidson diagonalization with overlap
     ethr =  1.00E-02,  avg # of iterations =  4.0

     negative rho (up, down):  4.266E-04 0.000E+00

     total cpu time spent up to now is       10.8 secs

     total energy              =     -11.93121458 Ry
     Harris-Foulkes estimate   =     -12.34535670 Ry
     estimated scf accuracy    <       1.15975471 Ry

     iteration #  2     ecut=    42.00 Ry     beta= 0.30
     Davidson diagonalization with overlap
     ethr =  1.00E-02,  avg # of iterations =  2.0

     negative rho (up, down):  2.087E-04 0.000E+00

     total cpu time spent up to now is       15.6 secs

     total energy              =     -11.91848058 Ry
     Harris-Foulkes estimate   =     -12.00860173 Ry
     estimated scf accuracy    <       0.18300410 Ry

     iteration #  3     ecut=    42.00 Ry     beta= 0.30
     Davidson diagonalization with overlap
     ethr =  2.29E-03,  avg # of iterations =  2.0

     negative rho (up, down):  6.835E-05 0.000E+00

     total cpu time spent up to now is       21.1 secs

     total energy              =     -11.95812118 Ry
     Harris-Foulkes estimate   =     -11.95985637 Ry
     estimated scf accuracy    <       0.00698328 Ry

     iteration #  4     ecut=    42.00 Ry     beta= 0.30
     Davidson diagonalization with overlap
     ethr =  8.73E-05,  avg # of iterations =  7.5

     negative rho (up, down):  1.569E-05 0.000E+00

     total cpu time spent up to now is       29.7 secs

     total energy              =     -11.95894611 Ry
     Harris-Foulkes estimate   =     -11.95962946 Ry
     estimated scf accuracy    <       0.00163647 Ry

     iteration #  5     ecut=    42.00 Ry     beta= 0.30
     Davidson diagonalization with overlap
     ethr =  2.05E-05,  avg # of iterations =  5.8

     negative rho (up, down):  4.132E-06 0.000E+00

     total cpu time spent up to now is       35.7 secs

     total energy              =     -11.95845768 Ry
     Harris-Foulkes estimate   =     -11.95886719 Ry
     estimated scf accuracy    <       0.00083734 Ry

     iteration #  6     ecut=    42.00 Ry     beta= 0.30
     Davidson diagonalization with overlap
     ethr =  1.05E-05,  avg # of iterations =  4.0

     negative rho (up, down):  2.826E-07 0.000E+00

     total cpu time spent up to now is       42.2 secs

     total energy              =     -11.95861683 Ry
     Harris-Foulkes estimate   =     -11.95844673 Ry
     estimated scf accuracy    <       0.00053821 Ry

     iteration #  7     ecut=    42.00 Ry     beta= 0.30
     Davidson diagonalization with overlap
     ethr =  6.73E-06,  avg # of iterations =  1.7

     negative rho (up, down):  2.115E-06 0.000E+00

     total cpu time spent up to now is       47.0 secs

     total energy              =     -11.95911862 Ry
     Harris-Foulkes estimate   =     -11.95860295 Ry
     estimated scf accuracy    <       0.00053719 Ry

     iteration #  8     ecut=    42.00 Ry     beta= 0.30
     Davidson diagonalization with overlap
     c_bands:  1 eigenvalues not converged
     ethr =  6.71E-06,  avg # of iterations =  5.8

     negative rho (up, down):  2.509E-06 0.000E+00

     total cpu time spent up to now is       54.6 secs

     total energy              =     -11.95799546 Ry
     Harris-Foulkes estimate   =     -11.95844147 Ry
     estimated scf accuracy    <       0.00204743 Ry

     iteration #  9     ecut=    42.00 Ry     beta= 0.30
     Davidson diagonalization with overlap
     ethr =  6.71E-06,  avg # of iterations =  3.0

     negative rho (up, down):  1.748E-06 0.000E+00

     total cpu time spent up to now is       59.8 secs

     total energy              =     -11.95808929 Ry
     Harris-Foulkes estimate   =     -11.95806221 Ry
     estimated scf accuracy    <       0.00064828 Ry

     iteration # 10     ecut=    42.00 Ry     beta= 0.30
     Davidson diagonalization with overlap
     ethr =  6.71E-06,  avg # of iterations =  1.0

     negative rho (up, down):  1.620E-07 0.000E+00

     total cpu time spent up to now is       64.4 secs

     total energy              =     -11.95786110 Ry
     Harris-Foulkes estimate   =     -11.95809234 Ry
     estimated scf accuracy    <       0.00073884 Ry

     iteration # 11     ecut=    42.00 Ry     beta= 0.30
     Davidson diagonalization with overlap
     ethr =  6.71E-06,  avg # of iterations =  1.0

     total cpu time spent up to now is       69.0 secs

     total energy              =     -11.95782675 Ry
     Harris-Foulkes estimate   =     -11.95790061 Ry
     estimated scf accuracy    <       0.00013129 Ry

     iteration # 12     ecut=    42.00 Ry     beta= 0.30
     Davidson diagonalization with overlap
     ethr =  1.64E-06,  avg # of iterations =  2.0

     total cpu time spent up to now is       74.3 secs

     total energy              =     -11.95786161 Ry
     Harris-Foulkes estimate   =     -11.95786383 Ry
     estimated scf accuracy    <       0.00000793 Ry

     iteration # 13     ecut=    42.00 Ry     beta= 0.30
     Davidson diagonalization with overlap
     ethr =  9.92E-08,  avg # of iterations =  2.0

     total cpu time spent up to now is       79.2 secs

     total energy              =     -11.95786232 Ry
     Harris-Foulkes estimate   =     -11.95786216 Ry
     estimated scf accuracy    <       0.00000300 Ry

     iteration # 14     ecut=    42.00 Ry     beta= 0.30
     Davidson diagonalization with overlap
     ethr =  3.74E-08,  avg # of iterations =  1.0

     total cpu time spent up to now is       83.9 secs

     total energy              =     -11.95786128 Ry
     Harris-Foulkes estimate   =     -11.95786235 Ry
     estimated scf accuracy    <       0.00000315 Ry

     iteration # 15     ecut=    42.00 Ry     beta= 0.30
     Davidson diagonalization with overlap
     ethr =  3.74E-08,  avg # of iterations =  1.0

     total cpu time spent up to now is       88.5 secs

     total energy              =     -11.95786119 Ry
     Harris-Foulkes estimate   =     -11.95786145 Ry
     estimated scf accuracy    <       0.00000068 Ry

     iteration # 16     ecut=    42.00 Ry     beta= 0.30
     Davidson diagonalization with overlap
     ethr =  8.49E-09,  avg # of iterations =  2.0

     total cpu time spent up to now is       93.6 secs

     total energy              =     -11.95786130 Ry
     Harris-Foulkes estimate   =     -11.95786131 Ry
     estimated scf accuracy    <       0.00000003 Ry

     iteration # 17     ecut=    42.00 Ry     beta= 0.30
     Davidson diagonalization with overlap
     ethr =  4.05E-10,  avg # of iterations =  2.0

     total cpu time spent up to now is       98.5 secs

     total energy              =     -11.95786131 Ry
     Harris-Foulkes estimate   =     -11.95786131 Ry
     estimated scf accuracy    <       0.00000002 Ry

     iteration # 18     ecut=    42.00 Ry     beta= 0.30
     Davidson diagonalization with overlap
     ethr =  2.58E-10,  avg # of iterations =  1.0

     total cpu time spent up to now is      103.1 secs

     total energy              =     -11.95786132 Ry
     Harris-Foulkes estimate   =     -11.95786131 Ry
     estimated scf accuracy    <       0.00000002 Ry

     iteration # 19     ecut=    42.00 Ry     beta= 0.30
     Davidson diagonalization with overlap
     ethr =  2.42E-10,  avg # of iterations =  2.0

     total cpu time spent up to now is      108.1 secs

     End of self-consistent calculation

          k = 0.0000 0.0000 0.0000 (248049 PWs)   bands (ev):

   -13.2591  -7.4446  -7.4446  -6.8746  -2.2476   0.0100   0.0100   0.2528

     occupation numbers 
     1.0000   1.0832   1.0832   0.8336   0.0000   0.0000   0.0000   0.0000

          k = 0.0000 0.0000-0.5000 (247982 PWs)   bands (ev):

   -13.2591  -7.4446  -7.4446  -6.8746  -2.2476   0.0086   0.0102   0.0164

     occupation numbers 
     1.0000   1.0832   1.0832   0.8336   0.0000   0.0000   0.0000   0.0000

          k = 0.0000-0.5000-0.5000 (248312 PWs)   bands (ev):

   -13.2591  -7.4446  -7.4446  -6.8746  -2.2476   0.0089   0.0089   0.1502

     occupation numbers 
     1.0000   1.0832   1.0832   0.8336   0.0000   0.0000   0.0000   0.0000

          k =-0.5000-0.5000-0.5000 (248296 PWs)   bands (ev):

   -13.2591  -7.4446  -7.4446  -6.8746  -2.2476   0.0060   0.0060   0.1948

     occupation numbers 
     1.0000   1.0832   1.0832   0.8336   0.0000   0.0000   0.0000   0.0000

          k =-0.5000 0.0000 0.0000 (247982 PWs)   bands (ev):

   -13.2591  -7.4446  -7.4446  -6.8746  -2.2476   0.0084   0.0084   0.2764

     occupation numbers 
     1.0000   1.0832   1.0832   0.8336   0.0000   0.0000   0.0000   0.0000

          k =-0.5000 0.5000 0.0000 (248312 PWs)   bands (ev):

   -13.2591  -7.4446  -7.4446  -6.8746  -2.2476   0.0052   0.0086   0.1549

     occupation numbers 
     1.0000   1.0832   1.0832   0.8336   0.0000   0.0000   0.0000   0.0000

     the Fermi energy is    -6.4670 ev

!    total energy              =     -11.95786132 Ry
     Harris-Foulkes estimate   =     -11.95786132 Ry
     estimated scf accuracy    <          1.4E-09 Ry

     The total energy is the sum of the following terms:

     one-electron contribution =     -38.45077046 Ry
     hartree contribution      =      19.98689800 Ry
     xc contribution           =      -5.16450717 Ry
     ewald contribution        =      11.64059255 Ry
     smearing contrib. (-TS)   =       0.02992577 Ry

     convergence has been achieved in  19 iterations

     Forces acting on atoms (cartesian axes, Ry/au):

     atom    1 type  1   force =    -5.69026512    0.00000000    0.00000000
     atom    2 type  1   force =     5.69026512    0.00000000    0.00000000
     The non-local contrib.  to forces
     atom    1 type  1   force =    -2.53217614    0.00000000    0.00000000
     atom    2 type  1   force =     2.53213226    0.00000000    0.00000000
     The ionic contribution  to forces
     atom    1 type  1   force =    -8.44164879    0.00000000   -0.00000000
     atom    2 type  1   force =     8.44164879   -0.00000000   -0.00000000
     The local contribution  to forces
     atom    1 type  1   force =     5.28355581    0.00000000   -0.00000000
     atom    2 type  1   force =    -5.28352833   -0.00000000   -0.00000000
     The core correction contribution to forces
     atom    1 type  1   force =     0.00000000    0.00000000    0.00000000
     atom    2 type  1   force =     0.00000000    0.00000000    0.00000000
     The Hubbard contrib.    to forces
     atom    1 type  1   force =     0.00000000    0.00000000    0.00000000
     atom    2 type  1   force =     0.00000000    0.00000000    0.00000000
     The SCF correction term to forces
     atom    1 type  1   force =    -0.00000441   -0.00000000   -0.00000000
     atom    2 type  1   force =     0.00000400   -0.00000000   -0.00000000

     Total force =     8.047250     Total SCF correction =     0.000006


     Computing stress (Cartesian axis) and pressure

          total   stress  (Ry/bohr**3)                   (kbar)     P=   10.04
   0.00020497   0.00000000   0.00000000         30.15      0.00      0.00
   0.00000000  -0.00000011   0.00000000          0.00     -0.02      0.00
   0.00000000   0.00000000  -0.00000011          0.00      0.00     -0.02

     kinetic stress (kbar)     11.88      0.00      0.00
                                0.00     16.64      0.00
                                0.00      0.00     16.64

     local   stress (kbar)    -56.48     -0.00      0.00
                               -0.00    -48.23      0.00
                                0.00      0.00    -48.23

     nonloc. stress (kbar)     19.58      0.00      0.00
                                0.00     22.63      0.00
                                0.00      0.00     22.63

     hartree stress (kbar)     19.05      0.00     -0.00
                                0.00     17.71     -0.00
                               -0.00     -0.00     17.71

     exc-cor stress (kbar)     -4.33     -0.00      0.00
                               -0.00     -4.40     -0.00
                                0.00     -0.00     -4.40

     corecor stress (kbar)      0.00      0.00      0.00
                                0.00      0.00      0.00
                                0.00      0.00      0.00

     ewald   stress (kbar)     40.46      0.00     -0.00
                                0.00     -4.37     -0.00
                               -0.00     -0.00     -4.37

     hubbard stress (kbar)      0.00      0.00      0.00
                                0.00      0.00      0.00
                                0.00      0.00      0.00

     london  stress (kbar)      0.00      0.00      0.00
                                0.00      0.00      0.00
                                0.00      0.00      0.00

     DFT-D3  stress (kbar)      0.00      0.00      0.00
                                0.00      0.00      0.00
                                0.00      0.00      0.00

     XDM     stress (kbar)      0.00      0.00      0.00
                                0.00      0.00      0.00
                                0.00      0.00      0.00

     dft-nl  stress (kbar)      0.00      0.00      0.00
                                0.00      0.00      0.00
                                0.00      0.00      0.00

     TS-vdW  stress (kbar)      0.00      0.00      0.00
                                0.00      0.00      0.00
                                0.00      0.00      0.00



     Writing output data file SiSi18.save

     init_run     :      3.30s CPU      3.43s WALL (       1 calls)
     electrons    :    103.95s CPU    104.83s WALL (       1 calls)
     forces       :      0.35s CPU      0.35s WALL (       1 calls)
     stress       :      1.75s CPU      1.84s WALL (       1 calls)

     Called by init_run:
     wfcinit      :      1.73s CPU      1.74s WALL (       1 calls)
     wfcinit:atom :      0.04s CPU      0.04s WALL (       6 calls)
     wfcinit:wfcr :      1.52s CPU      1.54s WALL (       6 calls)
     potinit      :      0.52s CPU      0.57s WALL (       1 calls)

     Called by electrons:
     c_bands      :     77.36s CPU     77.61s WALL (      19 calls)
     sum_band     :     17.86s CPU     17.90s WALL (      19 calls)
     v_of_rho     :      6.75s CPU      6.80s WALL (      20 calls)
     v_h          :      0.68s CPU      0.69s WALL (      20 calls)
     v_xc         :      6.07s CPU      6.11s WALL (      20 calls)
     mix_rho      :      2.01s CPU      2.11s WALL (      19 calls)

     Called by c_bands:
     init_us_2    :      1.60s CPU      1.60s WALL (     246 calls)
     cegterg      :     75.99s CPU     76.16s WALL (     114 calls)

     Called by sum_band:

     Called by *egterg:
     h_psi        :     72.80s CPU     72.95s WALL (     425 calls)
     g_psi        :      0.29s CPU      0.29s WALL (     305 calls)
     cdiaghg      :      0.07s CPU      0.07s WALL (     419 calls)
     cegterg:over :      1.46s CPU      1.46s WALL (     305 calls)
     cegterg:upda :      1.23s CPU      1.24s WALL (     305 calls)
     cegterg:last :      0.46s CPU      0.46s WALL (     119 calls)

     Called by h_psi:
     h_psi:pot    :     72.41s CPU     72.54s WALL (     425 calls)
     h_psi:calbec :      0.69s CPU      0.70s WALL (     425 calls)
     vloc_psi     :     71.19s CPU     71.31s WALL (     425 calls)
     add_vuspsi   :      0.53s CPU      0.53s WALL (     425 calls)

     General routines
     calbec       :      0.75s CPU      0.76s WALL (     455 calls)
     fft          :      5.97s CPU      5.99s WALL (     227 calls)
     fftw         :     75.98s CPU     76.10s WALL (    5544 calls)

     Parallel routines
     fft_scatt_xy :     11.88s CPU     11.90s WALL (    5771 calls)
     fft_scatt_yz :     15.46s CPU     15.51s WALL (    5771 calls)

     PWSCF        :  1m49.74s CPU     1m51.44s WALL


   This run was terminated on:  21:16:52   1Oct2020            

=------------------------------------------------------------------------------=
   JOB DONE.
=------------------------------------------------------------------------------=
