
     Program PWSCF v.6.2 (svn rev. 14038) starts on  1Oct2020 at 21:12:45 

     This program is part of the open-source Quantum ESPRESSO suite
     for quantum simulation of materials; please cite
         "P. Giannozzi et al., J. Phys.:Condens. Matter 21 395502 (2009);
         "P. Giannozzi et al., J. Phys.:Condens. Matter 29 465901 (2017);
          URL http://www.quantum-espresso.org", 
     in publications or presentations arising from this work. More details at
     http://www.quantum-espresso.org/quote

     Parallel version (MPI), running on     8 processors

     MPI processes distributed on     1 nodes
     R & G space division:  proc/nbgrp/npool/nimage =       8
     Waiting for input...
     Reading input from standard input

     Current dimensions of program PWSCF are:
     Max number of different atomic species (ntypx) = 10
     Max number of k-points (npk) =  40000
     Max angular momentum in pseudopotentials (lmaxx) =  3

     Subspace diagonalization in iterative solution of the eigenvalue problem:
     a serial algorithm will be used


     Parallelization info
     --------------------
     sticks:   dense  smooth     PW     G-vecs:    dense   smooth      PW
     Min        2386    2386    623               248152   248152   33108
     Max        2387    2387    625               248157   248157   33111
     Sum       19089   19089   4989              1985227  1985227  264875



     bravais-lattice index     =            1
     lattice parameter (alat)  =      37.7945  a.u.
     unit-cell volume          =   53986.6767 (a.u.)^3
     number of atoms/cell      =            2
     number of atomic types    =            1
     number of electrons       =         8.00
     number of Kohn-Sham states=            8
     kinetic-energy cutoff     =      42.0000  Ry
     charge density cutoff     =     168.0000  Ry
     convergence threshold     =      1.0E-08
     mixing beta               =       0.3000
     number of iterations used =            8  plain     mixing
     Exchange-correlation      = SLA-PW-PBX-PBC ( 1  4  3  4 0 0)

     celldm(1)=  37.794523  celldm(2)=   0.000000  celldm(3)=   0.000000
     celldm(4)=   0.000000  celldm(5)=   0.000000  celldm(6)=   0.000000

     crystal axes: (cart. coord. in units of alat)
               a(1) = (   1.000000   0.000000   0.000000 )  
               a(2) = (   0.000000   1.000000   0.000000 )  
               a(3) = (   0.000000   0.000000   1.000000 )  

     reciprocal axes: (cart. coord. in units 2 pi/alat)
               b(1) = (  1.000000  0.000000  0.000000 )  
               b(2) = (  0.000000  1.000000  0.000000 )  
               b(3) = (  0.000000  0.000000  1.000000 )  


     PseudoPot. # 1 for Si read from file:
     ./Si.pbe-hgh.UPF
     MD5 check sum: 9a9f0f6e09139bfdb36b03ff6bc35900
     Pseudo is Norm-conserving, Zval =  4.0
     Generated in analytical, separable form
     Using radial grid of 1141 points,  3 beta functions with: 
                l(1) =   0
                l(2) =   0
                l(3) =   1

     atomic species   valence    mass     pseudopotential
        Si             4.00    28.08000     Si( 1.00)

      8 Sym. Ops. (no inversion) found


                                    s                        frac. trans.

      isym =  1     identity                                     

 cryst.   s( 1) = (     1          0          0      )
                  (     0          1          0      )
                  (     0          0          1      )

 cart.    s( 1) = (  1.0000000  0.0000000  0.0000000 )
                  (  0.0000000  1.0000000  0.0000000 )
                  (  0.0000000  0.0000000  1.0000000 )


      isym =  2     180 deg rotation - cart. axis [1,0,0]        

 cryst.   s( 2) = (     1          0          0      )
                  (     0         -1          0      )
                  (     0          0         -1      )

 cart.    s( 2) = (  1.0000000  0.0000000  0.0000000 )
                  (  0.0000000 -1.0000000  0.0000000 )
                  (  0.0000000  0.0000000 -1.0000000 )


      isym =  3      90 deg rotation - cart. axis [-1,0,0]       

 cryst.   s( 3) = (     1          0          0      )
                  (     0          0         -1      )
                  (     0          1          0      )

 cart.    s( 3) = (  1.0000000  0.0000000  0.0000000 )
                  (  0.0000000  0.0000000  1.0000000 )
                  (  0.0000000 -1.0000000  0.0000000 )


      isym =  4      90 deg rotation - cart. axis [1,0,0]        

 cryst.   s( 4) = (     1          0          0      )
                  (     0          0          1      )
                  (     0         -1          0      )

 cart.    s( 4) = (  1.0000000  0.0000000  0.0000000 )
                  (  0.0000000  0.0000000 -1.0000000 )
                  (  0.0000000  1.0000000  0.0000000 )


      isym =  5     inv. 180 deg rotation - cart. axis [0,0,1]   

 cryst.   s( 5) = (     1          0          0      )
                  (     0          1          0      )
                  (     0          0         -1      )

 cart.    s( 5) = (  1.0000000  0.0000000  0.0000000 )
                  (  0.0000000  1.0000000  0.0000000 )
                  (  0.0000000  0.0000000 -1.0000000 )


      isym =  6     inv. 180 deg rotation - cart. axis [0,1,0]   

 cryst.   s( 6) = (     1          0          0      )
                  (     0         -1          0      )
                  (     0          0          1      )

 cart.    s( 6) = (  1.0000000  0.0000000  0.0000000 )
                  (  0.0000000 -1.0000000  0.0000000 )
                  (  0.0000000  0.0000000  1.0000000 )


      isym =  7     inv. 180 deg rotation - cart. axis [0,1,1]   

 cryst.   s( 7) = (     1          0          0      )
                  (     0          0         -1      )
                  (     0         -1          0      )

 cart.    s( 7) = (  1.0000000  0.0000000  0.0000000 )
                  (  0.0000000  0.0000000 -1.0000000 )
                  (  0.0000000 -1.0000000  0.0000000 )


      isym =  8     inv. 180 deg rotation - cart. axis [0,1,-1]  

 cryst.   s( 8) = (     1          0          0      )
                  (     0          0          1      )
                  (     0          1          0      )

 cart.    s( 8) = (  1.0000000  0.0000000  0.0000000 )
                  (  0.0000000  0.0000000  1.0000000 )
                  (  0.0000000  1.0000000  0.0000000 )


     point group C_4v (4mm) 
     there are  5 classes
     the character table:

       E     2C4   C2    2s_v  2s_d 
A_1    1.00  1.00  1.00  1.00  1.00
A_2    1.00  1.00  1.00 -1.00 -1.00
B_1    1.00 -1.00  1.00  1.00 -1.00
B_2    1.00 -1.00  1.00 -1.00  1.00
E      2.00  0.00 -2.00  0.00  0.00

     the symmetry operations in each class and the name of the first element:

     E        1
          identity                                               
     2C4      3    4
           90 deg rotation - cart. axis [-1,0,0]                 
     C2       2
          180 deg rotation - cart. axis [1,0,0]                  
     2s_v     5    6
          inv. 180 deg rotation - cart. axis [0,0,1]             
     2s_d     7    8
          inv. 180 deg rotation - cart. axis [0,1,1]             

   Cartesian axes

     site n.     atom                  positions (alat units)
         1           Si  tau(   1) = (   0.0000000   0.0000000   0.0000000  )
         2           Si  tau(   2) = (   0.0480000   0.0000000   0.0000000  )

   Crystallographic axes

     site n.     atom                  positions (cryst. coord.)
         1           Si  tau(   1) = (  0.0000000  0.0000000  0.0000000  )
         2           Si  tau(   2) = (  0.0480000  0.0000000  0.0000000  )

     number of k points=     6  Marzari-Vanderbilt smearing, width (Ry)=  0.0500
                       cart. coord. in units 2pi/alat
        k(    1) = (   0.0000000   0.0000000   0.0000000), wk =   0.2500000
        k(    2) = (   0.0000000   0.0000000  -0.5000000), wk =   0.5000000
        k(    3) = (   0.0000000  -0.5000000  -0.5000000), wk =   0.2500000
        k(    4) = (  -0.5000000  -0.5000000  -0.5000000), wk =   0.2500000
        k(    5) = (  -0.5000000   0.0000000   0.0000000), wk =   0.2500000
        k(    6) = (  -0.5000000   0.5000000   0.0000000), wk =   0.5000000

                       cryst. coord.
        k(    1) = (   0.0000000   0.0000000   0.0000000), wk =   0.2500000
        k(    2) = (   0.0000000   0.0000000  -0.5000000), wk =   0.5000000
        k(    3) = (   0.0000000  -0.5000000  -0.5000000), wk =   0.2500000
        k(    4) = (  -0.5000000  -0.5000000  -0.5000000), wk =   0.2500000
        k(    5) = (  -0.5000000   0.0000000   0.0000000), wk =   0.2500000
        k(    6) = (  -0.5000000   0.5000000   0.0000000), wk =   0.5000000

     Dense  grid:  1985227 G-vectors     FFT dimensions: ( 160, 160, 160)

     Dynamical RAM for                 wfc:       3.79 MB

     Dynamical RAM for     wfc (w. buffer):      26.50 MB

     Dynamical RAM for           str. fact:       3.79 MB

     Dynamical RAM for           local pot:       0.00 MB

     Dynamical RAM for          nlocal pot:       4.73 MB

     Dynamical RAM for                qrad:       1.07 MB

     Dynamical RAM for          rho,v,vnew:      23.08 MB

     Dynamical RAM for               rhoin:       7.69 MB

     Dynamical RAM for            rho*nmix:      60.58 MB

     Dynamical RAM for           G-vectors:      16.09 MB

     Dynamical RAM for          h,s,v(r/c):       0.05 MB

     Dynamical RAM for          <psi|beta>:       0.00 MB

     Dynamical RAM for                 psi:      15.15 MB

     Dynamical RAM for                hpsi:      15.15 MB

     Dynamical RAM for      wfcinit/wfcrot:       7.57 MB

     Estimated static dynamical RAM per process >     170.65 MB

     Estimated max dynamical RAM per process >     200.99 MB

     Estimated total dynamical RAM >       1.57 GB

     Initial potential from superposition of free atoms
     Check: negative starting charge=   -0.000623

     starting charge    7.99888, renormalised to    8.00000

     negative rho (up, down):  6.234E-04 0.000E+00
     Starting wfc are    8 randomized atomic wfcs

     total cpu time spent up to now is        3.6 secs

     Self-consistent Calculation

     iteration #  1     ecut=    42.00 Ry     beta= 0.30
     Davidson diagonalization with overlap
     ethr =  1.00E-02,  avg # of iterations =  4.0

     negative rho (up, down):  4.248E-04 0.000E+00

     total cpu time spent up to now is       11.4 secs

     total energy              =     -11.09467649 Ry
     Harris-Foulkes estimate   =     -11.52407118 Ry
     estimated scf accuracy    <       1.22028455 Ry

     iteration #  2     ecut=    42.00 Ry     beta= 0.30
     Davidson diagonalization with overlap
     ethr =  1.00E-02,  avg # of iterations =  2.0

     negative rho (up, down):  2.060E-04 0.000E+00

     total cpu time spent up to now is       16.3 secs

     total energy              =     -11.07386850 Ry
     Harris-Foulkes estimate   =     -11.17300428 Ry
     estimated scf accuracy    <       0.20106748 Ry

     iteration #  3     ecut=    42.00 Ry     beta= 0.30
     Davidson diagonalization with overlap
     ethr =  2.51E-03,  avg # of iterations =  2.0

     negative rho (up, down):  1.001E-04 0.000E+00

     total cpu time spent up to now is       21.8 secs

     total energy              =     -11.11745427 Ry
     Harris-Foulkes estimate   =     -11.11965187 Ry
     estimated scf accuracy    <       0.00739074 Ry

     iteration #  4     ecut=    42.00 Ry     beta= 0.30
     Davidson diagonalization with overlap
     ethr =  9.24E-05,  avg # of iterations =  7.2

     negative rho (up, down):  7.860E-06 0.000E+00

     total cpu time spent up to now is       30.1 secs

     total energy              =     -11.11818692 Ry
     Harris-Foulkes estimate   =     -11.12025473 Ry
     estimated scf accuracy    <       0.00421834 Ry

     iteration #  5     ecut=    42.00 Ry     beta= 0.30
     Davidson diagonalization with overlap
     ethr =  5.27E-05,  avg # of iterations =  2.2

     negative rho (up, down):  9.434E-07 0.000E+00

     total cpu time spent up to now is       35.3 secs

     total energy              =     -11.11869902 Ry
     Harris-Foulkes estimate   =     -11.11872461 Ry
     estimated scf accuracy    <       0.00005330 Ry

     iteration #  6     ecut=    42.00 Ry     beta= 0.30
     Davidson diagonalization with overlap
     c_bands:  1 eigenvalues not converged
     ethr =  6.66E-07,  avg # of iterations = 13.5

     total cpu time spent up to now is       47.7 secs

     total energy              =     -11.11873487 Ry
     Harris-Foulkes estimate   =     -11.11875308 Ry
     estimated scf accuracy    <       0.00004180 Ry

     iteration #  7     ecut=    42.00 Ry     beta= 0.30
     Davidson diagonalization with overlap
     ethr =  5.22E-07,  avg # of iterations =  5.0

     total cpu time spent up to now is       53.9 secs

     total energy              =     -11.11873999 Ry
     Harris-Foulkes estimate   =     -11.11874020 Ry
     estimated scf accuracy    <       0.00000155 Ry

     iteration #  8     ecut=    42.00 Ry     beta= 0.30
     Davidson diagonalization with overlap
     ethr =  1.94E-08,  avg # of iterations =  2.0

     total cpu time spent up to now is       59.0 secs

     total energy              =     -11.11874017 Ry
     Harris-Foulkes estimate   =     -11.11874026 Ry
     estimated scf accuracy    <       0.00000053 Ry

     iteration #  9     ecut=    42.00 Ry     beta= 0.30
     Davidson diagonalization with overlap
     ethr =  6.62E-09,  avg # of iterations =  1.2

     total cpu time spent up to now is       63.8 secs

     total energy              =     -11.11874017 Ry
     Harris-Foulkes estimate   =     -11.11874020 Ry
     estimated scf accuracy    <       0.00000017 Ry

     iteration # 10     ecut=    42.00 Ry     beta= 0.30
     Davidson diagonalization with overlap
     ethr =  2.07E-09,  avg # of iterations =  1.8

     total cpu time spent up to now is       68.9 secs

     total energy              =     -11.11874020 Ry
     Harris-Foulkes estimate   =     -11.11874019 Ry
     estimated scf accuracy    <       0.00000001 Ry

     iteration # 11     ecut=    42.00 Ry     beta= 0.30
     Davidson diagonalization with overlap
     ethr =  1.68E-10,  avg # of iterations =  2.0

     total cpu time spent up to now is       73.8 secs

     End of self-consistent calculation

          k = 0.0000 0.0000 0.0000 (248049 PWs)   bands (ev):

   -13.5042  -8.0065  -8.0065  -6.6826  -1.9023   0.1190   0.1190   0.2335

     occupation numbers 
     1.0000   1.0028   1.0028   0.9944   0.0000   0.0000   0.0000   0.0000

          k = 0.0000 0.0000-0.5000 (247982 PWs)   bands (ev):

   -13.5042  -8.0065  -8.0065  -6.6826  -1.9023   0.0372   0.0887   0.1162

     occupation numbers 
     1.0000   1.0028   1.0028   0.9944   0.0000   0.0000   0.0000   0.0000

          k = 0.0000-0.5000-0.5000 (248312 PWs)   bands (ev):

   -13.5042  -8.0066  -8.0066  -6.6826  -1.9023   0.1168   0.1168   0.1398

     occupation numbers 
     1.0000   1.0028   1.0028   0.9944   0.0000   0.0000   0.0000   0.0000

          k =-0.5000-0.5000-0.5000 (248296 PWs)   bands (ev):

   -13.5042  -8.0066  -8.0066  -6.6826  -1.9022   0.1100   0.1100   0.1789

     occupation numbers 
     1.0000   1.0028   1.0028   0.9944   0.0000   0.0000   0.0000   0.0000

          k =-0.5000 0.0000 0.0000 (247982 PWs)   bands (ev):

   -13.5042  -8.0065  -8.0065  -6.6826  -1.9022   0.1159   0.1159   0.2532

     occupation numbers 
     1.0000   1.0028   1.0028   0.9944   0.0000   0.0000   0.0000   0.0000

          k =-0.5000 0.5000 0.0000 (248312 PWs)   bands (ev):

   -13.5042  -8.0066  -8.0066  -6.6826  -1.9022   0.1060   0.1165   0.1429

     occupation numbers 
     1.0000   1.0028   1.0028   0.9944   0.0000   0.0000   0.0000   0.0000

     the Fermi energy is    -6.0659 ev

!    total energy              =     -11.11874020 Ry
     Harris-Foulkes estimate   =     -11.11874020 Ry
     estimated scf accuracy    <          3.1E-09 Ry

     The total energy is the sum of the following terms:

     one-electron contribution =     -38.93456689 Ry
     hartree contribution      =      20.17785626 Ry
     xc contribution           =      -5.21014315 Ry
     ewald contribution        =      12.83875378 Ry
     smearing contrib. (-TS)   =       0.00935980 Ry

     convergence has been achieved in  11 iterations

     Forces acting on atoms (cartesian axes, Ry/au):

     atom    1 type  1   force =    -7.01339631    0.00000000    0.00000000
     atom    2 type  1   force =     7.01339631    0.00000000    0.00000000
     The non-local contrib.  to forces
     atom    1 type  1   force =    -2.34834775    0.00000000    0.00000000
     atom    2 type  1   force =     2.34837190    0.00000000    0.00000000
     The ionic contribution  to forces
     atom    1 type  1   force =    -9.71867737    0.00000000   -0.00000000
     atom    2 type  1   force =     9.71867737   -0.00000000   -0.00000000
     The local contribution  to forces
     atom    1 type  1   force =     5.05362004   -0.00000000   -0.00000000
     atom    2 type  1   force =    -5.05364401   -0.00000000   -0.00000000
     The core correction contribution to forces
     atom    1 type  1   force =     0.00000000    0.00000000    0.00000000
     atom    2 type  1   force =     0.00000000    0.00000000    0.00000000
     The Hubbard contrib.    to forces
     atom    1 type  1   force =     0.00000000    0.00000000    0.00000000
     atom    2 type  1   force =     0.00000000    0.00000000    0.00000000
     The SCF correction term to forces
     atom    1 type  1   force =     0.00000824    0.00000000    0.00000000
     atom    2 type  1   force =    -0.00000947    0.00000000    0.00000000

     Total force =     9.918440     Total SCF correction =     0.000013


     Computing stress (Cartesian axis) and pressure

          total   stress  (Ry/bohr**3)                   (kbar)     P=   11.53
   0.00023545   0.00000000   0.00000000         34.64      0.00      0.00
   0.00000000  -0.00000014   0.00000000          0.00     -0.02      0.00
   0.00000000   0.00000000  -0.00000014          0.00      0.00     -0.02

     kinetic stress (kbar)     13.04      0.00      0.00
                                0.00     16.91      0.00
                                0.00      0.00     16.91

     local   stress (kbar)    -57.01     -0.00     -0.00
                               -0.00    -49.76     -0.00
                               -0.00     -0.00    -49.76

     nonloc. stress (kbar)     19.67      0.00      0.00
                                0.00     23.94      0.00
                                0.00      0.00     23.94

     hartree stress (kbar)     19.57     -0.00      0.00
                               -0.00     17.71      0.00
                                0.00      0.00     17.71

     exc-cor stress (kbar)     -4.36      0.00     -0.00
                                0.00     -4.45     -0.00
                               -0.00     -0.00     -4.45

     corecor stress (kbar)      0.00      0.00      0.00
                                0.00      0.00      0.00
                                0.00      0.00      0.00

     ewald   stress (kbar)     43.72     -0.00     -0.00
                               -0.00     -4.37     -0.00
                               -0.00     -0.00     -4.37

     hubbard stress (kbar)      0.00      0.00      0.00
                                0.00      0.00      0.00
                                0.00      0.00      0.00

     london  stress (kbar)      0.00      0.00      0.00
                                0.00      0.00      0.00
                                0.00      0.00      0.00

     DFT-D3  stress (kbar)      0.00      0.00      0.00
                                0.00      0.00      0.00
                                0.00      0.00      0.00

     XDM     stress (kbar)      0.00      0.00      0.00
                                0.00      0.00      0.00
                                0.00      0.00      0.00

     dft-nl  stress (kbar)      0.00      0.00      0.00
                                0.00      0.00      0.00
                                0.00      0.00      0.00

     TS-vdW  stress (kbar)      0.00      0.00      0.00
                                0.00      0.00      0.00
                                0.00      0.00      0.00



     Writing output data file SiSi17.save

     init_run     :      3.26s CPU      3.48s WALL (       1 calls)
     electrons    :     69.37s CPU     70.57s WALL (       1 calls)
     forces       :      0.35s CPU      0.35s WALL (       1 calls)
     stress       :      1.77s CPU      1.86s WALL (       1 calls)

     Called by init_run:
     wfcinit      :      1.71s CPU      1.76s WALL (       1 calls)
     wfcinit:atom :      0.03s CPU      0.04s WALL (       6 calls)
     wfcinit:wfcr :      1.50s CPU      1.55s WALL (       6 calls)
     potinit      :      0.51s CPU      0.57s WALL (       1 calls)

     Called by electrons:
     c_bands      :     54.28s CPU     55.01s WALL (      11 calls)
     sum_band     :     10.19s CPU     10.29s WALL (      11 calls)
     v_of_rho     :      4.09s CPU      4.18s WALL (      12 calls)
     v_h          :      0.40s CPU      0.42s WALL (      12 calls)
     v_xc         :      3.69s CPU      3.77s WALL (      12 calls)
     mix_rho      :      0.94s CPU      1.03s WALL (      11 calls)

     Called by c_bands:
     init_us_2    :      0.98s CPU      0.99s WALL (     150 calls)
     cegterg      :     53.48s CPU     54.10s WALL (      66 calls)

     Called by sum_band:

     Called by *egterg:
     h_psi        :     51.34s CPU     51.94s WALL (     329 calls)
     g_psi        :      0.22s CPU      0.23s WALL (     257 calls)
     cdiaghg      :      0.06s CPU      0.06s WALL (     323 calls)
     cegterg:over :      1.20s CPU      1.22s WALL (     257 calls)
     cegterg:upda :      1.04s CPU      1.05s WALL (     257 calls)
     cegterg:last :      0.38s CPU      0.39s WALL (      79 calls)

     Called by h_psi:
     h_psi:pot    :     51.06s CPU     51.66s WALL (     329 calls)
     h_psi:calbec :      0.48s CPU      0.50s WALL (     329 calls)
     vloc_psi     :     50.20s CPU     50.77s WALL (     329 calls)
     add_vuspsi   :      0.38s CPU      0.38s WALL (     329 calls)

     General routines
     calbec       :      0.54s CPU      0.56s WALL (     359 calls)
     fft          :      3.63s CPU      3.70s WALL (     139 calls)
     fftw         :     51.86s CPU     52.41s WALL (    3774 calls)

     Parallel routines
     fft_scatt_xy :      7.95s CPU      8.04s WALL (    3913 calls)
     fft_scatt_yz :      9.37s CPU      9.47s WALL (    3913 calls)

     PWSCF        :  1m15.19s CPU     1m17.11s WALL


   This run was terminated on:  21:14: 2   1Oct2020            

=------------------------------------------------------------------------------=
   JOB DONE.
=------------------------------------------------------------------------------=
