
     Program PWSCF v.6.2 (svn rev. 14038) starts on  1Oct2020 at 21:10:29 

     This program is part of the open-source Quantum ESPRESSO suite
     for quantum simulation of materials; please cite
         "P. Giannozzi et al., J. Phys.:Condens. Matter 21 395502 (2009);
         "P. Giannozzi et al., J. Phys.:Condens. Matter 29 465901 (2017);
          URL http://www.quantum-espresso.org", 
     in publications or presentations arising from this work. More details at
     http://www.quantum-espresso.org/quote

     Parallel version (MPI), running on     8 processors

     MPI processes distributed on     1 nodes
     R & G space division:  proc/nbgrp/npool/nimage =       8
     Waiting for input...
     Reading input from standard input

     Current dimensions of program PWSCF are:
     Max number of different atomic species (ntypx) = 10
     Max number of k-points (npk) =  40000
     Max angular momentum in pseudopotentials (lmaxx) =  3

     Subspace diagonalization in iterative solution of the eigenvalue problem:
     a serial algorithm will be used


     Parallelization info
     --------------------
     sticks:   dense  smooth     PW     G-vecs:    dense   smooth      PW
     Min        2386    2386    623               248152   248152   33108
     Max        2387    2387    625               248157   248157   33111
     Sum       19089   19089   4989              1985227  1985227  264875



     bravais-lattice index     =            1
     lattice parameter (alat)  =      37.7945  a.u.
     unit-cell volume          =   53986.6767 (a.u.)^3
     number of atoms/cell      =            2
     number of atomic types    =            1
     number of electrons       =         8.00
     number of Kohn-Sham states=            8
     kinetic-energy cutoff     =      42.0000  Ry
     charge density cutoff     =     168.0000  Ry
     convergence threshold     =      1.0E-08
     mixing beta               =       0.3000
     number of iterations used =            8  plain     mixing
     Exchange-correlation      = SLA-PW-PBX-PBC ( 1  4  3  4 0 0)

     celldm(1)=  37.794523  celldm(2)=   0.000000  celldm(3)=   0.000000
     celldm(4)=   0.000000  celldm(5)=   0.000000  celldm(6)=   0.000000

     crystal axes: (cart. coord. in units of alat)
               a(1) = (   1.000000   0.000000   0.000000 )  
               a(2) = (   0.000000   1.000000   0.000000 )  
               a(3) = (   0.000000   0.000000   1.000000 )  

     reciprocal axes: (cart. coord. in units 2 pi/alat)
               b(1) = (  1.000000  0.000000  0.000000 )  
               b(2) = (  0.000000  1.000000  0.000000 )  
               b(3) = (  0.000000  0.000000  1.000000 )  


     PseudoPot. # 1 for Si read from file:
     ./Si.pbe-hgh.UPF
     MD5 check sum: 9a9f0f6e09139bfdb36b03ff6bc35900
     Pseudo is Norm-conserving, Zval =  4.0
     Generated in analytical, separable form
     Using radial grid of 1141 points,  3 beta functions with: 
                l(1) =   0
                l(2) =   0
                l(3) =   1

     atomic species   valence    mass     pseudopotential
        Si             4.00    28.08000     Si( 1.00)

      8 Sym. Ops. (no inversion) found


                                    s                        frac. trans.

      isym =  1     identity                                     

 cryst.   s( 1) = (     1          0          0      )
                  (     0          1          0      )
                  (     0          0          1      )

 cart.    s( 1) = (  1.0000000  0.0000000  0.0000000 )
                  (  0.0000000  1.0000000  0.0000000 )
                  (  0.0000000  0.0000000  1.0000000 )


      isym =  2     180 deg rotation - cart. axis [1,0,0]        

 cryst.   s( 2) = (     1          0          0      )
                  (     0         -1          0      )
                  (     0          0         -1      )

 cart.    s( 2) = (  1.0000000  0.0000000  0.0000000 )
                  (  0.0000000 -1.0000000  0.0000000 )
                  (  0.0000000  0.0000000 -1.0000000 )


      isym =  3      90 deg rotation - cart. axis [-1,0,0]       

 cryst.   s( 3) = (     1          0          0      )
                  (     0          0         -1      )
                  (     0          1          0      )

 cart.    s( 3) = (  1.0000000  0.0000000  0.0000000 )
                  (  0.0000000  0.0000000  1.0000000 )
                  (  0.0000000 -1.0000000  0.0000000 )


      isym =  4      90 deg rotation - cart. axis [1,0,0]        

 cryst.   s( 4) = (     1          0          0      )
                  (     0          0          1      )
                  (     0         -1          0      )

 cart.    s( 4) = (  1.0000000  0.0000000  0.0000000 )
                  (  0.0000000  0.0000000 -1.0000000 )
                  (  0.0000000  1.0000000  0.0000000 )


      isym =  5     inv. 180 deg rotation - cart. axis [0,0,1]   

 cryst.   s( 5) = (     1          0          0      )
                  (     0          1          0      )
                  (     0          0         -1      )

 cart.    s( 5) = (  1.0000000  0.0000000  0.0000000 )
                  (  0.0000000  1.0000000  0.0000000 )
                  (  0.0000000  0.0000000 -1.0000000 )


      isym =  6     inv. 180 deg rotation - cart. axis [0,1,0]   

 cryst.   s( 6) = (     1          0          0      )
                  (     0         -1          0      )
                  (     0          0          1      )

 cart.    s( 6) = (  1.0000000  0.0000000  0.0000000 )
                  (  0.0000000 -1.0000000  0.0000000 )
                  (  0.0000000  0.0000000  1.0000000 )


      isym =  7     inv. 180 deg rotation - cart. axis [0,1,1]   

 cryst.   s( 7) = (     1          0          0      )
                  (     0          0         -1      )
                  (     0         -1          0      )

 cart.    s( 7) = (  1.0000000  0.0000000  0.0000000 )
                  (  0.0000000  0.0000000 -1.0000000 )
                  (  0.0000000 -1.0000000  0.0000000 )


      isym =  8     inv. 180 deg rotation - cart. axis [0,1,-1]  

 cryst.   s( 8) = (     1          0          0      )
                  (     0          0          1      )
                  (     0          1          0      )

 cart.    s( 8) = (  1.0000000  0.0000000  0.0000000 )
                  (  0.0000000  0.0000000  1.0000000 )
                  (  0.0000000  1.0000000  0.0000000 )


     point group C_4v (4mm) 
     there are  5 classes
     the character table:

       E     2C4   C2    2s_v  2s_d 
A_1    1.00  1.00  1.00  1.00  1.00
A_2    1.00  1.00  1.00 -1.00 -1.00
B_1    1.00 -1.00  1.00  1.00 -1.00
B_2    1.00 -1.00  1.00 -1.00  1.00
E      2.00  0.00 -2.00  0.00  0.00

     the symmetry operations in each class and the name of the first element:

     E        1
          identity                                               
     2C4      3    4
           90 deg rotation - cart. axis [-1,0,0]                 
     C2       2
          180 deg rotation - cart. axis [1,0,0]                  
     2s_v     5    6
          inv. 180 deg rotation - cart. axis [0,0,1]             
     2s_d     7    8
          inv. 180 deg rotation - cart. axis [0,1,1]             

   Cartesian axes

     site n.     atom                  positions (alat units)
         1           Si  tau(   1) = (   0.0000000   0.0000000   0.0000000  )
         2           Si  tau(   2) = (   0.0700000   0.0000000   0.0000000  )

   Crystallographic axes

     site n.     atom                  positions (cryst. coord.)
         1           Si  tau(   1) = (  0.0000000  0.0000000  0.0000000  )
         2           Si  tau(   2) = (  0.0700000  0.0000000  0.0000000  )

     number of k points=     6  Marzari-Vanderbilt smearing, width (Ry)=  0.0500
                       cart. coord. in units 2pi/alat
        k(    1) = (   0.0000000   0.0000000   0.0000000), wk =   0.2500000
        k(    2) = (   0.0000000   0.0000000  -0.5000000), wk =   0.5000000
        k(    3) = (   0.0000000  -0.5000000  -0.5000000), wk =   0.2500000
        k(    4) = (  -0.5000000  -0.5000000  -0.5000000), wk =   0.2500000
        k(    5) = (  -0.5000000   0.0000000   0.0000000), wk =   0.2500000
        k(    6) = (  -0.5000000   0.5000000   0.0000000), wk =   0.5000000

                       cryst. coord.
        k(    1) = (   0.0000000   0.0000000   0.0000000), wk =   0.2500000
        k(    2) = (   0.0000000   0.0000000  -0.5000000), wk =   0.5000000
        k(    3) = (   0.0000000  -0.5000000  -0.5000000), wk =   0.2500000
        k(    4) = (  -0.5000000  -0.5000000  -0.5000000), wk =   0.2500000
        k(    5) = (  -0.5000000   0.0000000   0.0000000), wk =   0.2500000
        k(    6) = (  -0.5000000   0.5000000   0.0000000), wk =   0.5000000

     Dense  grid:  1985227 G-vectors     FFT dimensions: ( 160, 160, 160)

     Dynamical RAM for                 wfc:       3.79 MB

     Dynamical RAM for     wfc (w. buffer):      26.50 MB

     Dynamical RAM for           str. fact:       3.79 MB

     Dynamical RAM for           local pot:       0.00 MB

     Dynamical RAM for          nlocal pot:       4.73 MB

     Dynamical RAM for                qrad:       1.07 MB

     Dynamical RAM for          rho,v,vnew:      23.08 MB

     Dynamical RAM for               rhoin:       7.69 MB

     Dynamical RAM for            rho*nmix:      60.58 MB

     Dynamical RAM for           G-vectors:      16.09 MB

     Dynamical RAM for          h,s,v(r/c):       0.05 MB

     Dynamical RAM for          <psi|beta>:       0.00 MB

     Dynamical RAM for                 psi:      15.15 MB

     Dynamical RAM for                hpsi:      15.15 MB

     Dynamical RAM for      wfcinit/wfcrot:       7.57 MB

     Estimated static dynamical RAM per process >     170.65 MB

     Estimated max dynamical RAM per process >     200.99 MB

     Estimated total dynamical RAM >       1.57 GB

     Initial potential from superposition of free atoms
     Check: negative starting charge=   -0.000634

     starting charge    7.99888, renormalised to    8.00000

     negative rho (up, down):  6.345E-04 0.000E+00
     Starting wfc are    8 randomized atomic wfcs

     total cpu time spent up to now is        3.6 secs

     Self-consistent Calculation

     iteration #  1     ecut=    42.00 Ry     beta= 0.30
     Davidson diagonalization with overlap
     ethr =  1.00E-02,  avg # of iterations =  5.0

     negative rho (up, down):  4.345E-04 0.000E+00

     total cpu time spent up to now is       11.4 secs

     total energy              =     -14.40276486 Ry
     Harris-Foulkes estimate   =     -14.74632049 Ry
     estimated scf accuracy    <       0.89053945 Ry

     iteration #  2     ecut=    42.00 Ry     beta= 0.30
     Davidson diagonalization with overlap
     ethr =  1.00E-02,  avg # of iterations =  1.0

     negative rho (up, down):  2.438E-04 0.000E+00

     total cpu time spent up to now is       16.0 secs

     total energy              =     -14.43057107 Ry
     Harris-Foulkes estimate   =     -14.46832505 Ry
     estimated scf accuracy    <       0.07704736 Ry

     iteration #  3     ecut=    42.00 Ry     beta= 0.30
     Davidson diagonalization with overlap
     ethr =  9.63E-04,  avg # of iterations =  4.0

     negative rho (up, down):  8.556E-05 0.000E+00

     total cpu time spent up to now is       22.0 secs

     total energy              =     -14.45028344 Ry
     Harris-Foulkes estimate   =     -14.45128343 Ry
     estimated scf accuracy    <       0.00270679 Ry

     iteration #  4     ecut=    42.00 Ry     beta= 0.30
     Davidson diagonalization with overlap
     ethr =  3.38E-05,  avg # of iterations =  7.5

     negative rho (up, down):  1.193E-05 0.000E+00

     total cpu time spent up to now is       29.2 secs

     total energy              =     -14.45035443 Ry
     Harris-Foulkes estimate   =     -14.45047320 Ry
     estimated scf accuracy    <       0.00031662 Ry

     iteration #  5     ecut=    42.00 Ry     beta= 0.30
     Davidson diagonalization with overlap
     ethr =  3.96E-06,  avg # of iterations =  3.7

     negative rho (up, down):  1.247E-05 0.000E+00

     total cpu time spent up to now is       35.8 secs

     total energy              =     -14.45039371 Ry
     Harris-Foulkes estimate   =     -14.45040368 Ry
     estimated scf accuracy    <       0.00003187 Ry

     iteration #  6     ecut=    42.00 Ry     beta= 0.30
     Davidson diagonalization with overlap
     ethr =  3.98E-07,  avg # of iterations =  1.0

     negative rho (up, down):  1.740E-08 0.000E+00

     total cpu time spent up to now is       40.4 secs

     total energy              =     -14.45039396 Ry
     Harris-Foulkes estimate   =     -14.45039598 Ry
     estimated scf accuracy    <       0.00001028 Ry

     iteration #  7     ecut=    42.00 Ry     beta= 0.30
     Davidson diagonalization with overlap
     ethr =  1.29E-07,  avg # of iterations =  1.0

     negative rho (up, down):  1.130E-07 0.000E+00

     total cpu time spent up to now is       45.5 secs

     total energy              =     -14.45039465 Ry
     Harris-Foulkes estimate   =     -14.45039473 Ry
     estimated scf accuracy    <       0.00000022 Ry

     iteration #  8     ecut=    42.00 Ry     beta= 0.30
     Davidson diagonalization with overlap
     ethr =  2.78E-09,  avg # of iterations =  3.0

     negative rho (up, down):  1.902E-07 0.000E+00

     total cpu time spent up to now is       51.3 secs

     total energy              =     -14.45039478 Ry
     Harris-Foulkes estimate   =     -14.45039476 Ry
     estimated scf accuracy    <       0.00000007 Ry

     iteration #  9     ecut=    42.00 Ry     beta= 0.30
     Davidson diagonalization with overlap
     ethr =  8.23E-10,  avg # of iterations =  1.0

     total cpu time spent up to now is       56.5 secs

     total energy              =     -14.45039478 Ry
     Harris-Foulkes estimate   =     -14.45039479 Ry
     estimated scf accuracy    <       0.00000002 Ry

     iteration # 10     ecut=    42.00 Ry     beta= 0.30
     Davidson diagonalization with overlap
     ethr =  2.63E-10,  avg # of iterations =  2.0

     total cpu time spent up to now is       61.6 secs

     End of self-consistent calculation

          k = 0.0000 0.0000 0.0000 (248049 PWs)   bands (ev):

   -14.1298  -7.5768  -6.3505  -6.3505  -4.2329  -0.7679  -0.7679  -0.1088

     occupation numbers 
     1.0000   1.0048   0.9976   0.9976   0.0001   0.0000   0.0000   0.0000

          k = 0.0000 0.0000-0.5000 (247982 PWs)   bands (ev):

   -14.1298  -7.5768  -6.3505  -6.3505  -4.2329  -0.7679  -0.7679  -0.0814

     occupation numbers 
     1.0000   1.0048   0.9976   0.9976   0.0001   0.0000   0.0000   0.0000

          k = 0.0000-0.5000-0.5000 (248312 PWs)   bands (ev):

   -14.1299  -7.5768  -6.3505  -6.3505  -4.2329  -0.7679  -0.7679  -0.0598

     occupation numbers 
     1.0000   1.0048   0.9976   0.9976   0.0001   0.0000   0.0000   0.0000

          k =-0.5000-0.5000-0.5000 (248296 PWs)   bands (ev):

   -14.1299  -7.5768  -6.3505  -6.3505  -4.2329  -0.7680  -0.7679  -0.0446

     occupation numbers 
     1.0000   1.0048   0.9976   0.9976   0.0001   0.0000   0.0000   0.0000

          k =-0.5000 0.0000 0.0000 (247982 PWs)   bands (ev):

   -14.1298  -7.5768  -6.3505  -6.3505  -4.2329  -0.7679  -0.7679  -0.0833

     occupation numbers 
     1.0000   1.0048   0.9976   0.9976   0.0001   0.0000   0.0000   0.0000

          k =-0.5000 0.5000 0.0000 (248312 PWs)   bands (ev):

   -14.1298  -7.5768  -6.3505  -6.3505  -4.2329  -0.7680  -0.7679  -0.0621

     occupation numbers 
     1.0000   1.0048   0.9976   0.9976   0.0001   0.0000   0.0000   0.0000

     the Fermi energy is    -5.7283 ev

!    total energy              =     -14.45039477 Ry
     Harris-Foulkes estimate   =     -14.45039478 Ry
     estimated scf accuracy    <          6.8E-09 Ry

     The total energy is the sum of the following terms:

     one-electron contribution =     -35.10084457 Ry
     hartree contribution      =      18.11981342 Ry
     xc contribution           =      -4.78625571 Ry
     ewald contribution        =       7.29964527 Ry
     smearing contrib. (-TS)   =       0.01724682 Ry

     convergence has been achieved in  10 iterations

     Forces acting on atoms (cartesian axes, Ry/au):

     atom    1 type  1   force =    -1.92810958    0.00000000    0.00000000
     atom    2 type  1   force =     1.92810958    0.00000000    0.00000000
     The non-local contrib.  to forces
     atom    1 type  1   force =    -1.88196002    0.00000000    0.00000000
     atom    2 type  1   force =     1.88195521    0.00000000    0.00000000
     The ionic contribution  to forces
     atom    1 type  1   force =    -4.56522981    0.00000000   -0.00000000
     atom    2 type  1   force =     4.56522981   -0.00000000   -0.00000000
     The local contribution  to forces
     atom    1 type  1   force =     4.51912666   -0.00000000   -0.00000000
     atom    2 type  1   force =    -4.51912177    0.00000000   -0.00000000
     The core correction contribution to forces
     atom    1 type  1   force =     0.00000000    0.00000000    0.00000000
     atom    2 type  1   force =     0.00000000    0.00000000    0.00000000
     The Hubbard contrib.    to forces
     atom    1 type  1   force =     0.00000000    0.00000000    0.00000000
     atom    2 type  1   force =     0.00000000    0.00000000    0.00000000
     The SCF correction term to forces
     atom    1 type  1   force =    -0.00004671   -0.00000000    0.00000000
     atom    2 type  1   force =     0.00004604   -0.00000000    0.00000000

     Total force =     2.726759     Total SCF correction =     0.000066


     Computing stress (Cartesian axis) and pressure

          total   stress  (Ry/bohr**3)                   (kbar)     P=    4.63
   0.00009445   0.00000000   0.00000000         13.89      0.00      0.00
   0.00000000  -0.00000003   0.00000000          0.00     -0.00      0.00
   0.00000000   0.00000000  -0.00000003          0.00      0.00     -0.00

     kinetic stress (kbar)     10.36      0.00      0.00
                                0.00     13.67      0.00
                                0.00      0.00     13.67

     local   stress (kbar)    -59.20     -0.00      0.00
                               -0.00    -37.44     -0.00
                                0.00     -0.00    -37.44

     nonloc. stress (kbar)     19.24      0.00      0.00
                                0.00     16.96      0.00
                                0.00      0.00     16.96

     hartree stress (kbar)     18.86     -0.00     -0.00
                               -0.00     15.26      0.00
                               -0.00      0.00     15.26

     exc-cor stress (kbar)     -4.00     -0.00     -0.00
                               -0.00     -4.07     -0.00
                               -0.00     -0.00     -4.07

     corecor stress (kbar)      0.00      0.00      0.00
                                0.00      0.00      0.00
                                0.00      0.00      0.00

     ewald   stress (kbar)     28.64      0.00     -0.00
                                0.00     -4.38     -0.00
                               -0.00     -0.00     -4.38

     hubbard stress (kbar)      0.00      0.00      0.00
                                0.00      0.00      0.00
                                0.00      0.00      0.00

     london  stress (kbar)      0.00      0.00      0.00
                                0.00      0.00      0.00
                                0.00      0.00      0.00

     DFT-D3  stress (kbar)      0.00      0.00      0.00
                                0.00      0.00      0.00
                                0.00      0.00      0.00

     XDM     stress (kbar)      0.00      0.00      0.00
                                0.00      0.00      0.00
                                0.00      0.00      0.00

     dft-nl  stress (kbar)      0.00      0.00      0.00
                                0.00      0.00      0.00
                                0.00      0.00      0.00

     TS-vdW  stress (kbar)      0.00      0.00      0.00
                                0.00      0.00      0.00
                                0.00      0.00      0.00



     Writing output data file SiSi24.save

     init_run     :      3.31s CPU      3.45s WALL (       1 calls)
     electrons    :     56.71s CPU     58.28s WALL (       1 calls)
     forces       :      0.36s CPU      0.36s WALL (       1 calls)
     stress       :      1.78s CPU      1.87s WALL (       1 calls)

     Called by init_run:
     wfcinit      :      1.74s CPU      1.76s WALL (       1 calls)
     wfcinit:atom :      0.04s CPU      0.04s WALL (       6 calls)
     wfcinit:wfcr :      1.53s CPU      1.55s WALL (       6 calls)
     potinit      :      0.52s CPU      0.57s WALL (       1 calls)

     Called by electrons:
     c_bands      :     42.99s CPU     44.22s WALL (      10 calls)
     sum_band     :      9.30s CPU      9.35s WALL (      10 calls)
     v_of_rho     :      3.77s CPU      3.82s WALL (      11 calls)
     v_h          :      0.37s CPU      0.38s WALL (      11 calls)
     v_xc         :      3.40s CPU      3.44s WALL (      11 calls)
     mix_rho      :      0.82s CPU      0.90s WALL (      10 calls)

     Called by c_bands:
     init_us_2    :      0.91s CPU      0.92s WALL (     138 calls)
     cegterg      :     42.25s CPU     42.59s WALL (      60 calls)

     Called by sum_band:

     Called by *egterg:
     h_psi        :     41.08s CPU     41.38s WALL (     241 calls)
     g_psi        :      0.17s CPU      0.17s WALL (     175 calls)
     cdiaghg      :      0.04s CPU      0.04s WALL (     235 calls)
     cegterg:over :      0.88s CPU      0.89s WALL (     175 calls)
     cegterg:upda :      0.74s CPU      0.75s WALL (     175 calls)
     cegterg:last :      0.22s CPU      0.22s WALL (      60 calls)

     Called by h_psi:
     h_psi:pot    :     40.86s CPU     41.15s WALL (     241 calls)
     h_psi:calbec :      0.38s CPU      0.39s WALL (     241 calls)
     vloc_psi     :     40.18s CPU     40.47s WALL (     241 calls)
     add_vuspsi   :      0.29s CPU      0.30s WALL (     241 calls)

     General routines
     calbec       :      0.45s CPU      0.45s WALL (     271 calls)
     fft          :      3.35s CPU      3.38s WALL (     128 calls)
     fftw         :     42.24s CPU     42.52s WALL (    3106 calls)

     Parallel routines
     fft_scatt_xy :      6.64s CPU      6.68s WALL (    3234 calls)
     fft_scatt_yz :      8.28s CPU      8.34s WALL (    3234 calls)

     PWSCF        :  1m 2.60s CPU     1m 4.80s WALL


   This run was terminated on:  21:11:33   1Oct2020            

=------------------------------------------------------------------------------=
   JOB DONE.
=------------------------------------------------------------------------------=
