
     Program PWSCF v.6.2 (svn rev. 14038) starts on  1Oct2020 at 21:18:47 

     This program is part of the open-source Quantum ESPRESSO suite
     for quantum simulation of materials; please cite
         "P. Giannozzi et al., J. Phys.:Condens. Matter 21 395502 (2009);
         "P. Giannozzi et al., J. Phys.:Condens. Matter 29 465901 (2017);
          URL http://www.quantum-espresso.org", 
     in publications or presentations arising from this work. More details at
     http://www.quantum-espresso.org/quote

     Parallel version (MPI), running on     8 processors

     MPI processes distributed on     1 nodes
     R & G space division:  proc/nbgrp/npool/nimage =       8
     Waiting for input...
     Reading input from standard input

     Current dimensions of program PWSCF are:
     Max number of different atomic species (ntypx) = 10
     Max number of k-points (npk) =  40000
     Max angular momentum in pseudopotentials (lmaxx) =  3

     Subspace diagonalization in iterative solution of the eigenvalue problem:
     a serial algorithm will be used


     Parallelization info
     --------------------
     sticks:   dense  smooth     PW     G-vecs:    dense   smooth      PW
     Min        2386    2386    623               248152   248152   33108
     Max        2387    2387    625               248157   248157   33111
     Sum       19089   19089   4989              1985227  1985227  264875



     bravais-lattice index     =            1
     lattice parameter (alat)  =      37.7945  a.u.
     unit-cell volume          =   53986.6767 (a.u.)^3
     number of atoms/cell      =            2
     number of atomic types    =            1
     number of electrons       =         8.00
     number of Kohn-Sham states=            8
     kinetic-energy cutoff     =      42.0000  Ry
     charge density cutoff     =     168.0000  Ry
     convergence threshold     =      1.0E-08
     mixing beta               =       0.3000
     number of iterations used =            8  plain     mixing
     Exchange-correlation      = SLA-PW-PBX-PBC ( 1  4  3  4 0 0)

     celldm(1)=  37.794523  celldm(2)=   0.000000  celldm(3)=   0.000000
     celldm(4)=   0.000000  celldm(5)=   0.000000  celldm(6)=   0.000000

     crystal axes: (cart. coord. in units of alat)
               a(1) = (   1.000000   0.000000   0.000000 )  
               a(2) = (   0.000000   1.000000   0.000000 )  
               a(3) = (   0.000000   0.000000   1.000000 )  

     reciprocal axes: (cart. coord. in units 2 pi/alat)
               b(1) = (  1.000000  0.000000  0.000000 )  
               b(2) = (  0.000000  1.000000  0.000000 )  
               b(3) = (  0.000000  0.000000  1.000000 )  


     PseudoPot. # 1 for Si read from file:
     ./Si.pbe-hgh.UPF
     MD5 check sum: 9a9f0f6e09139bfdb36b03ff6bc35900
     Pseudo is Norm-conserving, Zval =  4.0
     Generated in analytical, separable form
     Using radial grid of 1141 points,  3 beta functions with: 
                l(1) =   0
                l(2) =   0
                l(3) =   1

     atomic species   valence    mass     pseudopotential
        Si             4.00    28.08000     Si( 1.00)

      8 Sym. Ops. (no inversion) found


                                    s                        frac. trans.

      isym =  1     identity                                     

 cryst.   s( 1) = (     1          0          0      )
                  (     0          1          0      )
                  (     0          0          1      )

 cart.    s( 1) = (  1.0000000  0.0000000  0.0000000 )
                  (  0.0000000  1.0000000  0.0000000 )
                  (  0.0000000  0.0000000  1.0000000 )


      isym =  2     180 deg rotation - cart. axis [1,0,0]        

 cryst.   s( 2) = (     1          0          0      )
                  (     0         -1          0      )
                  (     0          0         -1      )

 cart.    s( 2) = (  1.0000000  0.0000000  0.0000000 )
                  (  0.0000000 -1.0000000  0.0000000 )
                  (  0.0000000  0.0000000 -1.0000000 )


      isym =  3      90 deg rotation - cart. axis [-1,0,0]       

 cryst.   s( 3) = (     1          0          0      )
                  (     0          0         -1      )
                  (     0          1          0      )

 cart.    s( 3) = (  1.0000000  0.0000000  0.0000000 )
                  (  0.0000000  0.0000000  1.0000000 )
                  (  0.0000000 -1.0000000  0.0000000 )


      isym =  4      90 deg rotation - cart. axis [1,0,0]        

 cryst.   s( 4) = (     1          0          0      )
                  (     0          0          1      )
                  (     0         -1          0      )

 cart.    s( 4) = (  1.0000000  0.0000000  0.0000000 )
                  (  0.0000000  0.0000000 -1.0000000 )
                  (  0.0000000  1.0000000  0.0000000 )


      isym =  5     inv. 180 deg rotation - cart. axis [0,0,1]   

 cryst.   s( 5) = (     1          0          0      )
                  (     0          1          0      )
                  (     0          0         -1      )

 cart.    s( 5) = (  1.0000000  0.0000000  0.0000000 )
                  (  0.0000000  1.0000000  0.0000000 )
                  (  0.0000000  0.0000000 -1.0000000 )


      isym =  6     inv. 180 deg rotation - cart. axis [0,1,0]   

 cryst.   s( 6) = (     1          0          0      )
                  (     0         -1          0      )
                  (     0          0          1      )

 cart.    s( 6) = (  1.0000000  0.0000000  0.0000000 )
                  (  0.0000000 -1.0000000  0.0000000 )
                  (  0.0000000  0.0000000  1.0000000 )


      isym =  7     inv. 180 deg rotation - cart. axis [0,1,1]   

 cryst.   s( 7) = (     1          0          0      )
                  (     0          0         -1      )
                  (     0         -1          0      )

 cart.    s( 7) = (  1.0000000  0.0000000  0.0000000 )
                  (  0.0000000  0.0000000 -1.0000000 )
                  (  0.0000000 -1.0000000  0.0000000 )


      isym =  8     inv. 180 deg rotation - cart. axis [0,1,-1]  

 cryst.   s( 8) = (     1          0          0      )
                  (     0          0          1      )
                  (     0          1          0      )

 cart.    s( 8) = (  1.0000000  0.0000000  0.0000000 )
                  (  0.0000000  0.0000000  1.0000000 )
                  (  0.0000000  1.0000000  0.0000000 )


     point group C_4v (4mm) 
     there are  5 classes
     the character table:

       E     2C4   C2    2s_v  2s_d 
A_1    1.00  1.00  1.00  1.00  1.00
A_2    1.00  1.00  1.00 -1.00 -1.00
B_1    1.00 -1.00  1.00  1.00 -1.00
B_2    1.00 -1.00  1.00 -1.00  1.00
E      2.00  0.00 -2.00  0.00  0.00

     the symmetry operations in each class and the name of the first element:

     E        1
          identity                                               
     2C4      3    4
           90 deg rotation - cart. axis [-1,0,0]                 
     C2       2
          180 deg rotation - cart. axis [1,0,0]                  
     2s_v     5    6
          inv. 180 deg rotation - cart. axis [0,0,1]             
     2s_d     7    8
          inv. 180 deg rotation - cart. axis [0,1,1]             

   Cartesian axes

     site n.     atom                  positions (alat units)
         1           Si  tau(   1) = (   0.0000000   0.0000000   0.0000000  )
         2           Si  tau(   2) = (   0.0975000   0.0000000   0.0000000  )

   Crystallographic axes

     site n.     atom                  positions (cryst. coord.)
         1           Si  tau(   1) = (  0.0000000  0.0000000  0.0000000  )
         2           Si  tau(   2) = (  0.0975000  0.0000000  0.0000000  )

     number of k points=     6  Marzari-Vanderbilt smearing, width (Ry)=  0.0500
                       cart. coord. in units 2pi/alat
        k(    1) = (   0.0000000   0.0000000   0.0000000), wk =   0.2500000
        k(    2) = (   0.0000000   0.0000000  -0.5000000), wk =   0.5000000
        k(    3) = (   0.0000000  -0.5000000  -0.5000000), wk =   0.2500000
        k(    4) = (  -0.5000000  -0.5000000  -0.5000000), wk =   0.2500000
        k(    5) = (  -0.5000000   0.0000000   0.0000000), wk =   0.2500000
        k(    6) = (  -0.5000000   0.5000000   0.0000000), wk =   0.5000000

                       cryst. coord.
        k(    1) = (   0.0000000   0.0000000   0.0000000), wk =   0.2500000
        k(    2) = (   0.0000000   0.0000000  -0.5000000), wk =   0.5000000
        k(    3) = (   0.0000000  -0.5000000  -0.5000000), wk =   0.2500000
        k(    4) = (  -0.5000000  -0.5000000  -0.5000000), wk =   0.2500000
        k(    5) = (  -0.5000000   0.0000000   0.0000000), wk =   0.2500000
        k(    6) = (  -0.5000000   0.5000000   0.0000000), wk =   0.5000000

     Dense  grid:  1985227 G-vectors     FFT dimensions: ( 160, 160, 160)

     Dynamical RAM for                 wfc:       3.79 MB

     Dynamical RAM for     wfc (w. buffer):      26.50 MB

     Dynamical RAM for           str. fact:       3.79 MB

     Dynamical RAM for           local pot:       0.00 MB

     Dynamical RAM for          nlocal pot:       4.73 MB

     Dynamical RAM for                qrad:       1.07 MB

     Dynamical RAM for          rho,v,vnew:      23.08 MB

     Dynamical RAM for               rhoin:       7.69 MB

     Dynamical RAM for            rho*nmix:      60.58 MB

     Dynamical RAM for           G-vectors:      16.09 MB

     Dynamical RAM for          h,s,v(r/c):       0.05 MB

     Dynamical RAM for          <psi|beta>:       0.00 MB

     Dynamical RAM for                 psi:      15.15 MB

     Dynamical RAM for                hpsi:      15.15 MB

     Dynamical RAM for      wfcinit/wfcrot:       7.57 MB

     Estimated static dynamical RAM per process >     170.65 MB

     Estimated max dynamical RAM per process >     200.99 MB

     Estimated total dynamical RAM >       1.57 GB

     Initial potential from superposition of free atoms
     Check: negative starting charge=   -0.000623

     starting charge    7.99888, renormalised to    8.00000

     negative rho (up, down):  6.231E-04 0.000E+00
     Starting wfc are    8 randomized atomic wfcs

     total cpu time spent up to now is        4.0 secs

     Self-consistent Calculation

     iteration #  1     ecut=    42.00 Ry     beta= 0.30
     Davidson diagonalization with overlap
     ethr =  1.00E-02,  avg # of iterations =  5.0

     negative rho (up, down):  3.772E-04 0.000E+00

     total cpu time spent up to now is       11.3 secs

     total energy              =     -15.26768756 Ry
     Harris-Foulkes estimate   =     -15.35502605 Ry
     estimated scf accuracy    <       0.22122201 Ry

     iteration #  2     ecut=    42.00 Ry     beta= 0.30
     Davidson diagonalization with overlap
     ethr =  2.77E-03,  avg # of iterations =  1.0

     negative rho (up, down):  2.252E-04 0.000E+00

     total cpu time spent up to now is       17.1 secs

     total energy              =     -15.28839179 Ry
     Harris-Foulkes estimate   =     -15.29592346 Ry
     estimated scf accuracy    <       0.02176756 Ry

     iteration #  3     ecut=    42.00 Ry     beta= 0.30
     Davidson diagonalization with overlap
     ethr =  2.72E-04,  avg # of iterations =  3.5

     negative rho (up, down):  1.121E-04 0.000E+00

     total cpu time spent up to now is       24.1 secs

     total energy              =     -15.29188145 Ry
     Harris-Foulkes estimate   =     -15.29281502 Ry
     estimated scf accuracy    <       0.00369392 Ry

     iteration #  4     ecut=    42.00 Ry     beta= 0.30
     Davidson diagonalization with overlap
     ethr =  4.62E-05,  avg # of iterations =  4.5

     negative rho (up, down):  2.537E-05 0.000E+00

     total cpu time spent up to now is       30.2 secs

     total energy              =     -15.29211337 Ry
     Harris-Foulkes estimate   =     -15.29227735 Ry
     estimated scf accuracy    <       0.00043443 Ry

     iteration #  5     ecut=    42.00 Ry     beta= 0.30
     Davidson diagonalization with overlap
     ethr =  5.43E-06,  avg # of iterations = 14.5

     negative rho (up, down):  5.222E-06 0.000E+00

     total cpu time spent up to now is       42.0 secs

     total energy              =     -15.29218087 Ry
     Harris-Foulkes estimate   =     -15.29224121 Ry
     estimated scf accuracy    <       0.00013480 Ry

     iteration #  6     ecut=    42.00 Ry     beta= 0.30
     Davidson diagonalization with overlap
     ethr =  1.69E-06,  avg # of iterations =  2.3

     negative rho (up, down):  7.930E-07 0.000E+00

     total cpu time spent up to now is       48.7 secs

     total energy              =     -15.29219835 Ry
     Harris-Foulkes estimate   =     -15.29220149 Ry
     estimated scf accuracy    <       0.00000643 Ry

     iteration #  7     ecut=    42.00 Ry     beta= 0.30
     Davidson diagonalization with overlap
     ethr =  8.04E-08,  avg # of iterations =  3.0

     negative rho (up, down):  5.773E-08 0.000E+00

     total cpu time spent up to now is       55.3 secs

     total energy              =     -15.29219997 Ry
     Harris-Foulkes estimate   =     -15.29220337 Ry
     estimated scf accuracy    <       0.00000936 Ry

     iteration #  8     ecut=    42.00 Ry     beta= 0.30
     Davidson diagonalization with overlap
     ethr =  8.04E-08,  avg # of iterations =  2.0

     negative rho (up, down):  7.011E-08 0.000E+00

     total cpu time spent up to now is       63.5 secs

     total energy              =     -15.29220090 Ry
     Harris-Foulkes estimate   =     -15.29220106 Ry
     estimated scf accuracy    <       0.00000026 Ry

     iteration #  9     ecut=    42.00 Ry     beta= 0.30
     Davidson diagonalization with overlap
     ethr =  3.19E-09,  avg # of iterations =  3.0

     negative rho (up, down):  6.709E-08 0.000E+00

     total cpu time spent up to now is       70.1 secs

     total energy              =     -15.29220097 Ry
     Harris-Foulkes estimate   =     -15.29220103 Ry
     estimated scf accuracy    <       0.00000011 Ry

     iteration # 10     ecut=    42.00 Ry     beta= 0.30
     Davidson diagonalization with overlap
     ethr =  1.37E-09,  avg # of iterations =  1.0

     total cpu time spent up to now is       75.1 secs

     End of self-consistent calculation

          k = 0.0000 0.0000 0.0000 (248049 PWs)   bands (ev):

   -13.5921  -8.6569  -5.5543  -5.5543  -5.2726  -2.0569  -2.0569  -0.2718

     occupation numbers 
     1.0000   1.0000   0.7686   0.7686   0.4627   0.0000   0.0000   0.0000

          k = 0.0000 0.0000-0.5000 (247982 PWs)   bands (ev):

   -13.5921  -8.6569  -5.5543  -5.5543  -5.2726  -2.0569  -2.0569  -0.2612

     occupation numbers 
     1.0000   1.0000   0.7686   0.7686   0.4627   0.0000   0.0000   0.0000

          k = 0.0000-0.5000-0.5000 (248312 PWs)   bands (ev):

   -13.5921  -8.6569  -5.5543  -5.5543  -5.2726  -2.0569  -2.0569  -0.2523

     occupation numbers 
     1.0000   1.0000   0.7686   0.7686   0.4627   0.0000   0.0000   0.0000

          k =-0.5000-0.5000-0.5000 (248296 PWs)   bands (ev):

   -13.5921  -8.6569  -5.5543  -5.5543  -5.2726  -2.0569  -2.0569  -0.2465

     occupation numbers 
     1.0000   1.0000   0.7686   0.7686   0.4627   0.0000   0.0000   0.0000

          k =-0.5000 0.0000 0.0000 (247982 PWs)   bands (ev):

   -13.5921  -8.6569  -5.5543  -5.5543  -5.2726  -2.0569  -2.0569  -0.2633

     occupation numbers 
     1.0000   1.0000   0.7686   0.7686   0.4627   0.0000   0.0000   0.0000

          k =-0.5000 0.5000 0.0000 (248312 PWs)   bands (ev):

   -13.5921  -8.6569  -5.5543  -5.5543  -5.2726  -2.0569  -2.0569  -0.2544

     occupation numbers 
     1.0000   1.0000   0.7686   0.7686   0.4627   0.0000   0.0000   0.0000

     the Fermi energy is    -5.2126 ev

!    total energy              =     -15.29220100 Ry
     Harris-Foulkes estimate   =     -15.29220099 Ry
     estimated scf accuracy    <          2.7E-09 Ry

     The total energy is the sum of the following terms:

     one-electron contribution =     -30.34844571 Ry
     hartree contribution      =      15.55469287 Ry
     xc contribution           =      -4.36239187 Ry
     ewald contribution        =       3.89644313 Ry
     smearing contrib. (-TS)   =      -0.03249942 Ry

     convergence has been achieved in  10 iterations

     Forces acting on atoms (cartesian axes, Ry/au):

     atom    1 type  1   force =    -0.18926120    0.00000000    0.00000000
     atom    2 type  1   force =     0.18926120    0.00000000    0.00000000
     The non-local contrib.  to forces
     atom    1 type  1   force =    -0.40738346    0.00000000    0.00000000
     atom    2 type  1   force =     0.40738323    0.00000000    0.00000000
     The ionic contribution  to forces
     atom    1 type  1   force =    -2.34717637   -0.00000000   -0.00000000
     atom    2 type  1   force =     2.34717637    0.00000000   -0.00000000
     The local contribution  to forces
     atom    1 type  1   force =     2.56529184    0.00000000   -0.00000000
     atom    2 type  1   force =    -2.56528940   -0.00000000   -0.00000000
     The core correction contribution to forces
     atom    1 type  1   force =     0.00000000    0.00000000    0.00000000
     atom    2 type  1   force =     0.00000000    0.00000000    0.00000000
     The Hubbard contrib.    to forces
     atom    1 type  1   force =     0.00000000    0.00000000    0.00000000
     atom    2 type  1   force =     0.00000000    0.00000000    0.00000000
     The SCF correction term to forces
     atom    1 type  1   force =     0.00000684    0.00000000    0.00000000
     atom    2 type  1   force =    -0.00000896    0.00000000    0.00000000

     Total force =     0.267656     Total SCF correction =     0.000011


     Computing stress (Cartesian axis) and pressure

          total   stress  (Ry/bohr**3)                   (kbar)     P=    0.63
   0.00001291   0.00000000   0.00000000          1.90      0.00      0.00
   0.00000000  -0.00000001   0.00000000          0.00     -0.00      0.00
   0.00000000   0.00000000  -0.00000001          0.00      0.00     -0.00

     kinetic stress (kbar)      9.65      0.00      0.00
                                0.00     11.13      0.00
                                0.00      0.00     11.13

     local   stress (kbar)    -57.62      0.00      0.00
                                0.00    -27.96      0.00
                                0.00      0.00    -27.96

     nonloc. stress (kbar)     15.12      0.00      0.00
                                0.00     13.22      0.00
                                0.00      0.00     13.22

     hartree stress (kbar)     18.98      0.00      0.00
                                0.00     11.70     -0.00
                                0.00     -0.00     11.70

     exc-cor stress (kbar)     -3.63      0.00      0.00
                                0.00     -3.70     -0.00
                                0.00     -0.00     -3.70

     corecor stress (kbar)      0.00      0.00      0.00
                                0.00      0.00      0.00
                                0.00      0.00      0.00

     ewald   stress (kbar)     19.39     -0.00     -0.00
                               -0.00     -4.39     -0.00
                               -0.00     -0.00     -4.39

     hubbard stress (kbar)      0.00      0.00      0.00
                                0.00      0.00      0.00
                                0.00      0.00      0.00

     london  stress (kbar)      0.00      0.00      0.00
                                0.00      0.00      0.00
                                0.00      0.00      0.00

     DFT-D3  stress (kbar)      0.00      0.00      0.00
                                0.00      0.00      0.00
                                0.00      0.00      0.00

     XDM     stress (kbar)      0.00      0.00      0.00
                                0.00      0.00      0.00
                                0.00      0.00      0.00

     dft-nl  stress (kbar)      0.00      0.00      0.00
                                0.00      0.00      0.00
                                0.00      0.00      0.00

     TS-vdW  stress (kbar)      0.00      0.00      0.00
                                0.00      0.00      0.00
                                0.00      0.00      0.00



     Writing output data file SiSi9.save

     init_run     :      3.64s CPU      3.79s WALL (       1 calls)
     electrons    :     65.39s CPU     71.48s WALL (       1 calls)
     forces       :      0.37s CPU      0.38s WALL (       1 calls)
     stress       :      1.84s CPU      1.93s WALL (       1 calls)

     Called by init_run:
     wfcinit      :      1.97s CPU      1.99s WALL (       1 calls)
     wfcinit:atom :      0.04s CPU      0.04s WALL (       6 calls)
     wfcinit:wfcr :      1.76s CPU      1.79s WALL (       6 calls)
     potinit      :      0.56s CPU      0.60s WALL (       1 calls)

     Called by electrons:
     c_bands      :     49.89s CPU     55.67s WALL (      10 calls)
     sum_band     :     10.45s CPU     10.50s WALL (      10 calls)
     v_of_rho     :      4.21s CPU      4.26s WALL (      11 calls)
     v_h          :      0.40s CPU      0.42s WALL (      11 calls)
     v_xc         :      3.81s CPU      3.84s WALL (      11 calls)
     mix_rho      :      0.97s CPU      1.05s WALL (      10 calls)

     Called by c_bands:
     init_us_2    :      0.88s CPU      0.89s WALL (     138 calls)
     cegterg      :     49.09s CPU     49.26s WALL (      60 calls)

     Called by sum_band:

     Called by *egterg:
     h_psi        :     47.60s CPU     47.74s WALL (     305 calls)
     g_psi        :      0.17s CPU      0.18s WALL (     239 calls)
     cdiaghg      :      0.05s CPU      0.06s WALL (     299 calls)
     cegterg:over :      1.11s CPU      1.11s WALL (     239 calls)
     cegterg:upda :      0.94s CPU      0.95s WALL (     239 calls)
     cegterg:last :      0.26s CPU      0.26s WALL (      64 calls)

     Called by h_psi:
     h_psi:pot    :     47.36s CPU     47.51s WALL (     305 calls)
     h_psi:calbec :      0.65s CPU      0.66s WALL (     305 calls)
     vloc_psi     :     46.36s CPU     46.49s WALL (     305 calls)
     add_vuspsi   :      0.36s CPU      0.36s WALL (     305 calls)

     General routines
     calbec       :      0.75s CPU      0.76s WALL (     335 calls)
     fft          :      3.79s CPU      3.82s WALL (     128 calls)
     fftw         :     49.71s CPU     49.84s WALL (    3154 calls)

     Parallel routines
     fft_scatt_xy :      6.75s CPU      6.77s WALL (    3282 calls)
     fft_scatt_yz :     15.46s CPU     15.51s WALL (    3282 calls)

     PWSCF        :  1m11.73s CPU     1m18.72s WALL


   This run was terminated on:  21:20: 6   1Oct2020            

=------------------------------------------------------------------------------=
   JOB DONE.
=------------------------------------------------------------------------------=
