
     Program PWSCF v.6.2 (svn rev. 14038) starts on  1Oct2020 at 21:45: 2 

     This program is part of the open-source Quantum ESPRESSO suite
     for quantum simulation of materials; please cite
         "P. Giannozzi et al., J. Phys.:Condens. Matter 21 395502 (2009);
         "P. Giannozzi et al., J. Phys.:Condens. Matter 29 465901 (2017);
          URL http://www.quantum-espresso.org", 
     in publications or presentations arising from this work. More details at
     http://www.quantum-espresso.org/quote

     Parallel version (MPI), running on     8 processors

     MPI processes distributed on     1 nodes
     R & G space division:  proc/nbgrp/npool/nimage =       8
     Waiting for input...
     Reading input from standard input

     Current dimensions of program PWSCF are:
     Max number of different atomic species (ntypx) = 10
     Max number of k-points (npk) =  40000
     Max angular momentum in pseudopotentials (lmaxx) =  3

     Subspace diagonalization in iterative solution of the eigenvalue problem:
     a serial algorithm will be used


     Parallelization info
     --------------------
     sticks:   dense  smooth     PW     G-vecs:    dense   smooth      PW
     Min        2386    2386    623               248152   248152   33108
     Max        2387    2387    625               248157   248157   33111
     Sum       19089   19089   4989              1985227  1985227  264875



     bravais-lattice index     =            1
     lattice parameter (alat)  =      37.7945  a.u.
     unit-cell volume          =   53986.6767 (a.u.)^3
     number of atoms/cell      =            2
     number of atomic types    =            1
     number of electrons       =         8.00
     number of Kohn-Sham states=            8
     kinetic-energy cutoff     =      42.0000  Ry
     charge density cutoff     =     168.0000  Ry
     convergence threshold     =      1.0E-08
     mixing beta               =       0.3000
     number of iterations used =            8  plain     mixing
     Exchange-correlation      = SLA-PW-PBX-PBC ( 1  4  3  4 0 0)

     celldm(1)=  37.794523  celldm(2)=   0.000000  celldm(3)=   0.000000
     celldm(4)=   0.000000  celldm(5)=   0.000000  celldm(6)=   0.000000

     crystal axes: (cart. coord. in units of alat)
               a(1) = (   1.000000   0.000000   0.000000 )  
               a(2) = (   0.000000   1.000000   0.000000 )  
               a(3) = (   0.000000   0.000000   1.000000 )  

     reciprocal axes: (cart. coord. in units 2 pi/alat)
               b(1) = (  1.000000  0.000000  0.000000 )  
               b(2) = (  0.000000  1.000000  0.000000 )  
               b(3) = (  0.000000  0.000000  1.000000 )  


     PseudoPot. # 1 for Si read from file:
     ./Si.pbe-hgh.UPF
     MD5 check sum: 9a9f0f6e09139bfdb36b03ff6bc35900
     Pseudo is Norm-conserving, Zval =  4.0
     Generated in analytical, separable form
     Using radial grid of 1141 points,  3 beta functions with: 
                l(1) =   0
                l(2) =   0
                l(3) =   1

     atomic species   valence    mass     pseudopotential
        Si             4.00    28.08000     Si( 1.00)

      8 Sym. Ops. (no inversion) found


                                    s                        frac. trans.

      isym =  1     identity                                     

 cryst.   s( 1) = (     1          0          0      )
                  (     0          1          0      )
                  (     0          0          1      )

 cart.    s( 1) = (  1.0000000  0.0000000  0.0000000 )
                  (  0.0000000  1.0000000  0.0000000 )
                  (  0.0000000  0.0000000  1.0000000 )


      isym =  2     180 deg rotation - cart. axis [1,0,0]        

 cryst.   s( 2) = (     1          0          0      )
                  (     0         -1          0      )
                  (     0          0         -1      )

 cart.    s( 2) = (  1.0000000  0.0000000  0.0000000 )
                  (  0.0000000 -1.0000000  0.0000000 )
                  (  0.0000000  0.0000000 -1.0000000 )


      isym =  3      90 deg rotation - cart. axis [-1,0,0]       

 cryst.   s( 3) = (     1          0          0      )
                  (     0          0         -1      )
                  (     0          1          0      )

 cart.    s( 3) = (  1.0000000  0.0000000  0.0000000 )
                  (  0.0000000  0.0000000  1.0000000 )
                  (  0.0000000 -1.0000000  0.0000000 )


      isym =  4      90 deg rotation - cart. axis [1,0,0]        

 cryst.   s( 4) = (     1          0          0      )
                  (     0          0          1      )
                  (     0         -1          0      )

 cart.    s( 4) = (  1.0000000  0.0000000  0.0000000 )
                  (  0.0000000  0.0000000 -1.0000000 )
                  (  0.0000000  1.0000000  0.0000000 )


      isym =  5     inv. 180 deg rotation - cart. axis [0,0,1]   

 cryst.   s( 5) = (     1          0          0      )
                  (     0          1          0      )
                  (     0          0         -1      )

 cart.    s( 5) = (  1.0000000  0.0000000  0.0000000 )
                  (  0.0000000  1.0000000  0.0000000 )
                  (  0.0000000  0.0000000 -1.0000000 )


      isym =  6     inv. 180 deg rotation - cart. axis [0,1,0]   

 cryst.   s( 6) = (     1          0          0      )
                  (     0         -1          0      )
                  (     0          0          1      )

 cart.    s( 6) = (  1.0000000  0.0000000  0.0000000 )
                  (  0.0000000 -1.0000000  0.0000000 )
                  (  0.0000000  0.0000000  1.0000000 )


      isym =  7     inv. 180 deg rotation - cart. axis [0,1,1]   

 cryst.   s( 7) = (     1          0          0      )
                  (     0          0         -1      )
                  (     0         -1          0      )

 cart.    s( 7) = (  1.0000000  0.0000000  0.0000000 )
                  (  0.0000000  0.0000000 -1.0000000 )
                  (  0.0000000 -1.0000000  0.0000000 )


      isym =  8     inv. 180 deg rotation - cart. axis [0,1,-1]  

 cryst.   s( 8) = (     1          0          0      )
                  (     0          0          1      )
                  (     0          1          0      )

 cart.    s( 8) = (  1.0000000  0.0000000  0.0000000 )
                  (  0.0000000  0.0000000  1.0000000 )
                  (  0.0000000  1.0000000  0.0000000 )


     point group C_4v (4mm) 
     there are  5 classes
     the character table:

       E     2C4   C2    2s_v  2s_d 
A_1    1.00  1.00  1.00  1.00  1.00
A_2    1.00  1.00  1.00 -1.00 -1.00
B_1    1.00 -1.00  1.00  1.00 -1.00
B_2    1.00 -1.00  1.00 -1.00  1.00
E      2.00  0.00 -2.00  0.00  0.00

     the symmetry operations in each class and the name of the first element:

     E        1
          identity                                               
     2C4      3    4
           90 deg rotation - cart. axis [-1,0,0]                 
     C2       2
          180 deg rotation - cart. axis [1,0,0]                  
     2s_v     5    6
          inv. 180 deg rotation - cart. axis [0,0,1]             
     2s_d     7    8
          inv. 180 deg rotation - cart. axis [0,1,1]             

   Cartesian axes

     site n.     atom                  positions (alat units)
         1           Si  tau(   1) = (   0.0000000   0.0000000   0.0000000  )
         2           Si  tau(   2) = (   0.1125000   0.0000000   0.0000000  )

   Crystallographic axes

     site n.     atom                  positions (cryst. coord.)
         1           Si  tau(   1) = (  0.0000000  0.0000000  0.0000000  )
         2           Si  tau(   2) = (  0.1125000  0.0000000  0.0000000  )

     number of k points=     6  Marzari-Vanderbilt smearing, width (Ry)=  0.0500
                       cart. coord. in units 2pi/alat
        k(    1) = (   0.0000000   0.0000000   0.0000000), wk =   0.2500000
        k(    2) = (   0.0000000   0.0000000  -0.5000000), wk =   0.5000000
        k(    3) = (   0.0000000  -0.5000000  -0.5000000), wk =   0.2500000
        k(    4) = (  -0.5000000  -0.5000000  -0.5000000), wk =   0.2500000
        k(    5) = (  -0.5000000   0.0000000   0.0000000), wk =   0.2500000
        k(    6) = (  -0.5000000   0.5000000   0.0000000), wk =   0.5000000

                       cryst. coord.
        k(    1) = (   0.0000000   0.0000000   0.0000000), wk =   0.2500000
        k(    2) = (   0.0000000   0.0000000  -0.5000000), wk =   0.5000000
        k(    3) = (   0.0000000  -0.5000000  -0.5000000), wk =   0.2500000
        k(    4) = (  -0.5000000  -0.5000000  -0.5000000), wk =   0.2500000
        k(    5) = (  -0.5000000   0.0000000   0.0000000), wk =   0.2500000
        k(    6) = (  -0.5000000   0.5000000   0.0000000), wk =   0.5000000

     Dense  grid:  1985227 G-vectors     FFT dimensions: ( 160, 160, 160)

     Dynamical RAM for                 wfc:       3.79 MB

     Dynamical RAM for     wfc (w. buffer):      26.50 MB

     Dynamical RAM for           str. fact:       3.79 MB

     Dynamical RAM for           local pot:       0.00 MB

     Dynamical RAM for          nlocal pot:       4.73 MB

     Dynamical RAM for                qrad:       1.07 MB

     Dynamical RAM for          rho,v,vnew:      23.08 MB

     Dynamical RAM for               rhoin:       7.69 MB

     Dynamical RAM for            rho*nmix:      60.58 MB

     Dynamical RAM for           G-vectors:      16.09 MB

     Dynamical RAM for          h,s,v(r/c):       0.05 MB

     Dynamical RAM for          <psi|beta>:       0.00 MB

     Dynamical RAM for                 psi:      15.15 MB

     Dynamical RAM for                hpsi:      15.15 MB

     Dynamical RAM for      wfcinit/wfcrot:       7.57 MB

     Estimated static dynamical RAM per process >     170.65 MB

     Estimated max dynamical RAM per process >     200.99 MB

     Estimated total dynamical RAM >       1.57 GB

     Initial potential from superposition of free atoms
     Check: negative starting charge=   -0.000618

     starting charge    7.99888, renormalised to    8.00000

     negative rho (up, down):  6.179E-04 0.000E+00
     Starting wfc are    8 randomized atomic wfcs

     total cpu time spent up to now is        3.9 secs

     Self-consistent Calculation

     iteration #  1     ecut=    42.00 Ry     beta= 0.30
     Davidson diagonalization with overlap
     ethr =  1.00E-02,  avg # of iterations =  3.0

     Threshold (ethr) on eigenvalues was too large:
     Diagonalizing with lowered threshold

     Davidson diagonalization with overlap
     ethr =  8.54E-04,  avg # of iterations =  1.0

     negative rho (up, down):  4.028E-04 0.000E+00

     total cpu time spent up to now is       15.3 secs

     total energy              =     -15.33376213 Ry
     Harris-Foulkes estimate   =     -15.35513976 Ry
     estimated scf accuracy    <       0.06592937 Ry

     iteration #  2     ecut=    42.00 Ry     beta= 0.30
     Davidson diagonalization with overlap
     ethr =  8.24E-04,  avg # of iterations =  1.0

     negative rho (up, down):  1.487E-04 0.000E+00

     total cpu time spent up to now is       20.4 secs

     total energy              =     -15.32777452 Ry
     Harris-Foulkes estimate   =     -15.33668143 Ry
     estimated scf accuracy    <       0.01940845 Ry

     iteration #  3     ecut=    42.00 Ry     beta= 0.30
     Davidson diagonalization with overlap
     ethr =  2.43E-04,  avg # of iterations =  4.0

     negative rho (up, down):  1.047E-04 0.000E+00

     total cpu time spent up to now is       27.2 secs

     total energy              =     -15.33138473 Ry
     Harris-Foulkes estimate   =     -15.33191642 Ry
     estimated scf accuracy    <       0.00130985 Ry

     iteration #  4     ecut=    42.00 Ry     beta= 0.30
     Davidson diagonalization with overlap
     ethr =  1.64E-05,  avg # of iterations =  5.0

     negative rho (up, down):  9.154E-06 0.000E+00

     total cpu time spent up to now is       34.9 secs

     total energy              =     -15.33157255 Ry
     Harris-Foulkes estimate   =     -15.33176103 Ry
     estimated scf accuracy    <       0.00043265 Ry

     iteration #  5     ecut=    42.00 Ry     beta= 0.30
     Davidson diagonalization with overlap
     ethr =  5.41E-06,  avg # of iterations =  2.2

     negative rho (up, down):  6.400E-06 0.000E+00

     total cpu time spent up to now is       41.4 secs

     total energy              =     -15.33160312 Ry
     Harris-Foulkes estimate   =     -15.33171941 Ry
     estimated scf accuracy    <       0.00018774 Ry

     iteration #  6     ecut=    42.00 Ry     beta= 0.30
     Davidson diagonalization with overlap
     ethr =  2.35E-06,  avg # of iterations =  2.2

     negative rho (up, down):  3.540E-06 0.000E+00

     total cpu time spent up to now is       47.6 secs

     total energy              =     -15.33165988 Ry
     Harris-Foulkes estimate   =     -15.33166643 Ry
     estimated scf accuracy    <       0.00004141 Ry

     iteration #  7     ecut=    42.00 Ry     beta= 0.30
     Davidson diagonalization with overlap
     ethr =  5.18E-07,  avg # of iterations =  1.0

     negative rho (up, down):  2.011E-07 0.000E+00

     total cpu time spent up to now is       52.8 secs

     total energy              =     -15.33164977 Ry
     Harris-Foulkes estimate   =     -15.33166187 Ry
     estimated scf accuracy    <       0.00002097 Ry

     iteration #  8     ecut=    42.00 Ry     beta= 0.30
     Davidson diagonalization with overlap
     ethr =  2.62E-07,  avg # of iterations =  2.0

     negative rho (up, down):  6.721E-08 0.000E+00

     total cpu time spent up to now is       59.1 secs

     total energy              =     -15.33165350 Ry
     Harris-Foulkes estimate   =     -15.33165385 Ry
     estimated scf accuracy    <       0.00000108 Ry

     iteration #  9     ecut=    42.00 Ry     beta= 0.30
     Davidson diagonalization with overlap
     ethr =  1.36E-08,  avg # of iterations =  1.0

     total cpu time spent up to now is       64.1 secs

     total energy              =     -15.33165367 Ry
     Harris-Foulkes estimate   =     -15.33165367 Ry
     estimated scf accuracy    <       0.00000002 Ry

     iteration # 10     ecut=    42.00 Ry     beta= 0.30
     Davidson diagonalization with overlap
     ethr =  1.94E-10,  avg # of iterations =  3.0

     total cpu time spent up to now is       71.0 secs

     total energy              =     -15.33165367 Ry
     Harris-Foulkes estimate   =     -15.33165369 Ry
     estimated scf accuracy    <       0.00000003 Ry

     iteration # 11     ecut=    42.00 Ry     beta= 0.30
     Davidson diagonalization with overlap
     ethr =  1.94E-10,  avg # of iterations =  2.0

     total cpu time spent up to now is       76.7 secs

     End of self-consistent calculation

          k = 0.0000 0.0000 0.0000 (248049 PWs)   bands (ev):

   -12.7670  -9.0914  -5.2452  -5.1805  -5.1805  -2.5696  -2.5696  -0.1772

     occupation numbers 
     1.0000   1.0000   0.7137   0.6431   0.6431   0.0000   0.0000   0.0000

          k = 0.0000 0.0000-0.5000 (247982 PWs)   bands (ev):

   -12.7670  -9.0914  -5.2452  -5.1805  -5.1804  -2.5696  -2.5696  -0.1757

     occupation numbers 
     1.0000   1.0000   0.7137   0.6431   0.6431   0.0000   0.0000   0.0000

          k = 0.0000-0.5000-0.5000 (248312 PWs)   bands (ev):

   -12.7670  -9.0914  -5.2452  -5.1805  -5.1805  -2.5696  -2.5696  -0.1744

     occupation numbers 
     1.0000   1.0000   0.7137   0.6431   0.6431   0.0000   0.0000   0.0000

          k =-0.5000-0.5000-0.5000 (248296 PWs)   bands (ev):

   -12.7670  -9.0914  -5.2452  -5.1805  -5.1805  -2.5696  -2.5696  -0.1938

     occupation numbers 
     1.0000   1.0000   0.7137   0.6431   0.6431   0.0000   0.0000   0.0000

          k =-0.5000 0.0000 0.0000 (247982 PWs)   bands (ev):

   -12.7670  -9.0914  -5.2452  -5.1805  -5.1805  -2.5696  -2.5696  -0.2002

     occupation numbers 
     1.0000   1.0000   0.7137   0.6431   0.6431   0.0000   0.0000   0.0000

          k =-0.5000 0.5000 0.0000 (248312 PWs)   bands (ev):

   -12.7670  -9.0914  -5.2452  -5.1805  -5.1805  -2.5696  -2.5696  -0.1966

     occupation numbers 
     1.0000   1.0000   0.7137   0.6431   0.6431   0.0000   0.0000   0.0000

     the Fermi energy is    -4.9558 ev

!    total energy              =     -15.33165369 Ry
     Harris-Foulkes estimate   =     -15.33165368 Ry
     estimated scf accuracy    <          4.7E-09 Ry

     The total energy is the sum of the following terms:

     one-electron contribution =     -28.34569850 Ry
     hartree contribution      =      14.53877412 Ry
     xc contribution           =      -4.23261670 Ry
     ewald contribution        =       2.74435551 Ry
     smearing contrib. (-TS)   =      -0.03646812 Ry

     convergence has been achieved in  11 iterations

     Forces acting on atoms (cartesian axes, Ry/au):

     atom    1 type  1   force =     0.01387289    0.00000000    0.00000000
     atom    2 type  1   force =    -0.01387289    0.00000000    0.00000000
     The non-local contrib.  to forces
     atom    1 type  1   force =    -0.00066724    0.00000000    0.00000000
     atom    2 type  1   force =     0.00066640    0.00000000    0.00000000
     The ionic contribution  to forces
     atom    1 type  1   force =    -1.75910188    0.00000000   -0.00000000
     atom    2 type  1   force =     1.75910188   -0.00000000   -0.00000000
     The local contribution  to forces
     atom    1 type  1   force =     1.77360488    0.00000000   -0.00000000
     atom    2 type  1   force =    -1.77360002   -0.00000000   -0.00000000
     The core correction contribution to forces
     atom    1 type  1   force =     0.00000000    0.00000000    0.00000000
     atom    2 type  1   force =     0.00000000    0.00000000    0.00000000
     The Hubbard contrib.    to forces
     atom    1 type  1   force =     0.00000000    0.00000000    0.00000000
     atom    2 type  1   force =     0.00000000    0.00000000    0.00000000
     The SCF correction term to forces
     atom    1 type  1   force =     0.00003724   -0.00000000   -0.00000000
     atom    2 type  1   force =    -0.00004105   -0.00000000   -0.00000000

     Total force =     0.019619     Total SCF correction =     0.000055


     Computing stress (Cartesian axis) and pressure

          total   stress  (Ry/bohr**3)                   (kbar)     P=   -0.05
  -0.00000110   0.00000000   0.00000000         -0.16      0.00      0.00
   0.00000000  -0.00000000   0.00000000          0.00     -0.00      0.00
   0.00000000   0.00000000  -0.00000000          0.00      0.00     -0.00

     kinetic stress (kbar)      9.84      0.00      0.00
                                0.00     10.21      0.00
                                0.00      0.00     10.21

     local   stress (kbar)    -56.01     -0.00     -0.00
                               -0.00    -25.27     -0.00
                               -0.00     -0.00    -25.27

     nonloc. stress (kbar)     14.27      0.00      0.00
                                0.00     12.73      0.00
                                0.00      0.00     12.73

     hartree stress (kbar)     18.99      0.00      0.00
                                0.00     10.31      0.00
                                0.00      0.00     10.31

     exc-cor stress (kbar)     -3.51      0.00      0.00
                                0.00     -3.60     -0.00
                                0.00     -0.00     -3.60

     corecor stress (kbar)      0.00      0.00      0.00
                                0.00      0.00      0.00
                                0.00      0.00      0.00

     ewald   stress (kbar)     16.27      0.00     -0.00
                                0.00     -4.39     -0.00
                               -0.00     -0.00     -4.39

     hubbard stress (kbar)      0.00      0.00      0.00
                                0.00      0.00      0.00
                                0.00      0.00      0.00

     london  stress (kbar)      0.00      0.00      0.00
                                0.00      0.00      0.00
                                0.00      0.00      0.00

     DFT-D3  stress (kbar)      0.00      0.00      0.00
                                0.00      0.00      0.00
                                0.00      0.00      0.00

     XDM     stress (kbar)      0.00      0.00      0.00
                                0.00      0.00      0.00
                                0.00      0.00      0.00

     dft-nl  stress (kbar)      0.00      0.00      0.00
                                0.00      0.00      0.00
                                0.00      0.00      0.00

     TS-vdW  stress (kbar)      0.00      0.00      0.00
                                0.00      0.00      0.00
                                0.00      0.00      0.00



     Writing output data file SiSi13.save

     init_run     :      3.57s CPU      3.73s WALL (       1 calls)
     electrons    :     72.62s CPU     73.45s WALL (       1 calls)
     forces       :      0.38s CPU      0.39s WALL (       1 calls)
     stress       :      1.85s CPU      1.94s WALL (       1 calls)

     Called by init_run:
     wfcinit      :      1.92s CPU      1.95s WALL (       1 calls)
     wfcinit:atom :      0.04s CPU      0.04s WALL (       6 calls)
     wfcinit:wfcr :      1.72s CPU      1.74s WALL (       6 calls)
     potinit      :      0.55s CPU      0.60s WALL (       1 calls)

     Called by electrons:
     c_bands      :     54.57s CPU     54.77s WALL (      12 calls)
     sum_band     :     12.45s CPU     12.49s WALL (      12 calls)
     v_of_rho     :      4.55s CPU      4.60s WALL (      12 calls)
     v_h          :      0.43s CPU      0.44s WALL (      12 calls)
     v_xc         :      4.13s CPU      4.16s WALL (      12 calls)
     mix_rho      :      1.12s CPU      1.20s WALL (      12 calls)

     Called by c_bands:
     init_us_2    :      0.99s CPU      1.00s WALL (     162 calls)
     cegterg      :     53.69s CPU     53.84s WALL (      72 calls)

     Called by sum_band:

     Called by *egterg:
     h_psi        :     52.62s CPU     52.76s WALL (     242 calls)
     g_psi        :      0.18s CPU      0.19s WALL (     164 calls)
     cdiaghg      :      0.04s CPU      0.04s WALL (     230 calls)
     cegterg:over :      0.85s CPU      0.85s WALL (     164 calls)
     cegterg:upda :      0.65s CPU      0.65s WALL (     164 calls)
     cegterg:last :      0.25s CPU      0.26s WALL (      72 calls)

     Called by h_psi:
     h_psi:pot    :     52.36s CPU     52.50s WALL (     242 calls)
     h_psi:calbec :      0.59s CPU      0.60s WALL (     242 calls)
     vloc_psi     :     51.43s CPU     51.57s WALL (     242 calls)
     add_vuspsi   :      0.33s CPU      0.33s WALL (     242 calls)

     General routines
     calbec       :      0.65s CPU      0.66s WALL (     272 calls)
     fft          :      4.13s CPU      4.16s WALL (     141 calls)
     fftw         :     55.70s CPU     55.84s WALL (    3546 calls)

     Parallel routines
     fft_scatt_xy :      7.64s CPU      7.65s WALL (    3687 calls)
     fft_scatt_yz :     17.24s CPU     17.30s WALL (    3687 calls)

     PWSCF        :  1m18.94s CPU     1m21.22s WALL


   This run was terminated on:  21:46:24   1Oct2020            

=------------------------------------------------------------------------------=
   JOB DONE.
=------------------------------------------------------------------------------=
