
     Program PWSCF v.6.2 (svn rev. 14038) starts on  1Oct2020 at 21:30:45 

     This program is part of the open-source Quantum ESPRESSO suite
     for quantum simulation of materials; please cite
         "P. Giannozzi et al., J. Phys.:Condens. Matter 21 395502 (2009);
         "P. Giannozzi et al., J. Phys.:Condens. Matter 29 465901 (2017);
          URL http://www.quantum-espresso.org", 
     in publications or presentations arising from this work. More details at
     http://www.quantum-espresso.org/quote

     Parallel version (MPI), running on     8 processors

     MPI processes distributed on     1 nodes
     R & G space division:  proc/nbgrp/npool/nimage =       8
     Waiting for input...
     Reading input from standard input

     Current dimensions of program PWSCF are:
     Max number of different atomic species (ntypx) = 10
     Max number of k-points (npk) =  40000
     Max angular momentum in pseudopotentials (lmaxx) =  3

     Subspace diagonalization in iterative solution of the eigenvalue problem:
     a serial algorithm will be used


     Parallelization info
     --------------------
     sticks:   dense  smooth     PW     G-vecs:    dense   smooth      PW
     Min        2386    2386    623               248152   248152   33108
     Max        2387    2387    625               248157   248157   33111
     Sum       19089   19089   4989              1985227  1985227  264875



     bravais-lattice index     =            1
     lattice parameter (alat)  =      37.7945  a.u.
     unit-cell volume          =   53986.6767 (a.u.)^3
     number of atoms/cell      =            2
     number of atomic types    =            1
     number of electrons       =         8.00
     number of Kohn-Sham states=            8
     kinetic-energy cutoff     =      42.0000  Ry
     charge density cutoff     =     168.0000  Ry
     convergence threshold     =      1.0E-08
     mixing beta               =       0.3000
     number of iterations used =            8  plain     mixing
     Exchange-correlation      = SLA-PW-PBX-PBC ( 1  4  3  4 0 0)

     celldm(1)=  37.794523  celldm(2)=   0.000000  celldm(3)=   0.000000
     celldm(4)=   0.000000  celldm(5)=   0.000000  celldm(6)=   0.000000

     crystal axes: (cart. coord. in units of alat)
               a(1) = (   1.000000   0.000000   0.000000 )  
               a(2) = (   0.000000   1.000000   0.000000 )  
               a(3) = (   0.000000   0.000000   1.000000 )  

     reciprocal axes: (cart. coord. in units 2 pi/alat)
               b(1) = (  1.000000  0.000000  0.000000 )  
               b(2) = (  0.000000  1.000000  0.000000 )  
               b(3) = (  0.000000  0.000000  1.000000 )  


     PseudoPot. # 1 for Si read from file:
     ./Si.pbe-hgh.UPF
     MD5 check sum: 9a9f0f6e09139bfdb36b03ff6bc35900
     Pseudo is Norm-conserving, Zval =  4.0
     Generated in analytical, separable form
     Using radial grid of 1141 points,  3 beta functions with: 
                l(1) =   0
                l(2) =   0
                l(3) =   1

     atomic species   valence    mass     pseudopotential
        Si             4.00    28.08000     Si( 1.00)

      8 Sym. Ops. (no inversion) found


                                    s                        frac. trans.

      isym =  1     identity                                     

 cryst.   s( 1) = (     1          0          0      )
                  (     0          1          0      )
                  (     0          0          1      )

 cart.    s( 1) = (  1.0000000  0.0000000  0.0000000 )
                  (  0.0000000  1.0000000  0.0000000 )
                  (  0.0000000  0.0000000  1.0000000 )


      isym =  2     180 deg rotation - cart. axis [1,0,0]        

 cryst.   s( 2) = (     1          0          0      )
                  (     0         -1          0      )
                  (     0          0         -1      )

 cart.    s( 2) = (  1.0000000  0.0000000  0.0000000 )
                  (  0.0000000 -1.0000000  0.0000000 )
                  (  0.0000000  0.0000000 -1.0000000 )


      isym =  3      90 deg rotation - cart. axis [-1,0,0]       

 cryst.   s( 3) = (     1          0          0      )
                  (     0          0         -1      )
                  (     0          1          0      )

 cart.    s( 3) = (  1.0000000  0.0000000  0.0000000 )
                  (  0.0000000  0.0000000  1.0000000 )
                  (  0.0000000 -1.0000000  0.0000000 )


      isym =  4      90 deg rotation - cart. axis [1,0,0]        

 cryst.   s( 4) = (     1          0          0      )
                  (     0          0          1      )
                  (     0         -1          0      )

 cart.    s( 4) = (  1.0000000  0.0000000  0.0000000 )
                  (  0.0000000  0.0000000 -1.0000000 )
                  (  0.0000000  1.0000000  0.0000000 )


      isym =  5     inv. 180 deg rotation - cart. axis [0,0,1]   

 cryst.   s( 5) = (     1          0          0      )
                  (     0          1          0      )
                  (     0          0         -1      )

 cart.    s( 5) = (  1.0000000  0.0000000  0.0000000 )
                  (  0.0000000  1.0000000  0.0000000 )
                  (  0.0000000  0.0000000 -1.0000000 )


      isym =  6     inv. 180 deg rotation - cart. axis [0,1,0]   

 cryst.   s( 6) = (     1          0          0      )
                  (     0         -1          0      )
                  (     0          0          1      )

 cart.    s( 6) = (  1.0000000  0.0000000  0.0000000 )
                  (  0.0000000 -1.0000000  0.0000000 )
                  (  0.0000000  0.0000000  1.0000000 )


      isym =  7     inv. 180 deg rotation - cart. axis [0,1,1]   

 cryst.   s( 7) = (     1          0          0      )
                  (     0          0         -1      )
                  (     0         -1          0      )

 cart.    s( 7) = (  1.0000000  0.0000000  0.0000000 )
                  (  0.0000000  0.0000000 -1.0000000 )
                  (  0.0000000 -1.0000000  0.0000000 )


      isym =  8     inv. 180 deg rotation - cart. axis [0,1,-1]  

 cryst.   s( 8) = (     1          0          0      )
                  (     0          0          1      )
                  (     0          1          0      )

 cart.    s( 8) = (  1.0000000  0.0000000  0.0000000 )
                  (  0.0000000  0.0000000  1.0000000 )
                  (  0.0000000  1.0000000  0.0000000 )


     point group C_4v (4mm) 
     there are  5 classes
     the character table:

       E     2C4   C2    2s_v  2s_d 
A_1    1.00  1.00  1.00  1.00  1.00
A_2    1.00  1.00  1.00 -1.00 -1.00
B_1    1.00 -1.00  1.00  1.00 -1.00
B_2    1.00 -1.00  1.00 -1.00  1.00
E      2.00  0.00 -2.00  0.00  0.00

     the symmetry operations in each class and the name of the first element:

     E        1
          identity                                               
     2C4      3    4
           90 deg rotation - cart. axis [-1,0,0]                 
     C2       2
          180 deg rotation - cart. axis [1,0,0]                  
     2s_v     5    6
          inv. 180 deg rotation - cart. axis [0,0,1]             
     2s_d     7    8
          inv. 180 deg rotation - cart. axis [0,1,1]             

   Cartesian axes

     site n.     atom                  positions (alat units)
         1           Si  tau(   1) = (   0.0000000   0.0000000   0.0000000  )
         2           Si  tau(   2) = (   0.1025000   0.0000000   0.0000000  )

   Crystallographic axes

     site n.     atom                  positions (cryst. coord.)
         1           Si  tau(   1) = (  0.0000000  0.0000000  0.0000000  )
         2           Si  tau(   2) = (  0.1025000  0.0000000  0.0000000  )

     number of k points=     6  Marzari-Vanderbilt smearing, width (Ry)=  0.0500
                       cart. coord. in units 2pi/alat
        k(    1) = (   0.0000000   0.0000000   0.0000000), wk =   0.2500000
        k(    2) = (   0.0000000   0.0000000  -0.5000000), wk =   0.5000000
        k(    3) = (   0.0000000  -0.5000000  -0.5000000), wk =   0.2500000
        k(    4) = (  -0.5000000  -0.5000000  -0.5000000), wk =   0.2500000
        k(    5) = (  -0.5000000   0.0000000   0.0000000), wk =   0.2500000
        k(    6) = (  -0.5000000   0.5000000   0.0000000), wk =   0.5000000

                       cryst. coord.
        k(    1) = (   0.0000000   0.0000000   0.0000000), wk =   0.2500000
        k(    2) = (   0.0000000   0.0000000  -0.5000000), wk =   0.5000000
        k(    3) = (   0.0000000  -0.5000000  -0.5000000), wk =   0.2500000
        k(    4) = (  -0.5000000  -0.5000000  -0.5000000), wk =   0.2500000
        k(    5) = (  -0.5000000   0.0000000   0.0000000), wk =   0.2500000
        k(    6) = (  -0.5000000   0.5000000   0.0000000), wk =   0.5000000

     Dense  grid:  1985227 G-vectors     FFT dimensions: ( 160, 160, 160)

     Dynamical RAM for                 wfc:       3.79 MB

     Dynamical RAM for     wfc (w. buffer):      26.50 MB

     Dynamical RAM for           str. fact:       3.79 MB

     Dynamical RAM for           local pot:       0.00 MB

     Dynamical RAM for          nlocal pot:       4.73 MB

     Dynamical RAM for                qrad:       1.07 MB

     Dynamical RAM for          rho,v,vnew:      23.08 MB

     Dynamical RAM for               rhoin:       7.69 MB

     Dynamical RAM for            rho*nmix:      60.58 MB

     Dynamical RAM for           G-vectors:      16.09 MB

     Dynamical RAM for          h,s,v(r/c):       0.05 MB

     Dynamical RAM for          <psi|beta>:       0.00 MB

     Dynamical RAM for                 psi:      15.15 MB

     Dynamical RAM for                hpsi:      15.15 MB

     Dynamical RAM for      wfcinit/wfcrot:       7.57 MB

     Estimated static dynamical RAM per process >     170.65 MB

     Estimated max dynamical RAM per process >     200.99 MB

     Estimated total dynamical RAM >       1.57 GB

     Initial potential from superposition of free atoms
     Check: negative starting charge=   -0.000624

     starting charge    7.99888, renormalised to    8.00000

     negative rho (up, down):  6.238E-04 0.000E+00
     Starting wfc are    8 randomized atomic wfcs

     total cpu time spent up to now is        3.9 secs

     Self-consistent Calculation

     iteration #  1     ecut=    42.00 Ry     beta= 0.30
     Davidson diagonalization with overlap
     ethr =  1.00E-02,  avg # of iterations =  5.0

     negative rho (up, down):  3.776E-04 0.000E+00

     total cpu time spent up to now is       11.3 secs

     total energy              =     -15.30771201 Ry
     Harris-Foulkes estimate   =     -15.36040294 Ry
     estimated scf accuracy    <       0.13604471 Ry

     iteration #  2     ecut=    42.00 Ry     beta= 0.30
     Davidson diagonalization with overlap
     ethr =  1.70E-03,  avg # of iterations =  1.0

     negative rho (up, down):  2.153E-04 0.000E+00

     total cpu time spent up to now is       16.3 secs

     total energy              =     -15.31549543 Ry
     Harris-Foulkes estimate   =     -15.32315065 Ry
     estimated scf accuracy    <       0.02127146 Ry

     iteration #  3     ecut=    42.00 Ry     beta= 0.30
     Davidson diagonalization with overlap
     ethr =  2.66E-04,  avg # of iterations =  3.5

     negative rho (up, down):  1.105E-04 0.000E+00

     total cpu time spent up to now is       23.3 secs

     total energy              =     -15.31842510 Ry
     Harris-Foulkes estimate   =     -15.31913046 Ry
     estimated scf accuracy    <       0.00299606 Ry

     iteration #  4     ecut=    42.00 Ry     beta= 0.30
     Davidson diagonalization with overlap
     ethr =  3.75E-05,  avg # of iterations =  4.5

     negative rho (up, down):  2.217E-05 0.000E+00

     total cpu time spent up to now is       29.3 secs

     total energy              =     -15.31858471 Ry
     Harris-Foulkes estimate   =     -15.31869979 Ry
     estimated scf accuracy    <       0.00036415 Ry

     iteration #  5     ecut=    42.00 Ry     beta= 0.30
     Davidson diagonalization with overlap
     ethr =  4.55E-06,  avg # of iterations =  7.2

     negative rho (up, down):  5.622E-06 0.000E+00

     total cpu time spent up to now is       39.5 secs

     total energy              =     -15.31862134 Ry
     Harris-Foulkes estimate   =     -15.31868201 Ry
     estimated scf accuracy    <       0.00011517 Ry

     iteration #  6     ecut=    42.00 Ry     beta= 0.30
     Davidson diagonalization with overlap
     ethr =  1.44E-06,  avg # of iterations =  4.0

     negative rho (up, down):  1.079E-06 0.000E+00

     total cpu time spent up to now is       46.2 secs

     total energy              =     -15.31864414 Ry
     Harris-Foulkes estimate   =     -15.31864678 Ry
     estimated scf accuracy    <       0.00000861 Ry

     iteration #  7     ecut=    42.00 Ry     beta= 0.30
     Davidson diagonalization with overlap
     ethr =  1.08E-07,  avg # of iterations =  2.0

     negative rho (up, down):  1.859E-07 0.000E+00

     total cpu time spent up to now is       52.3 secs

     total energy              =     -15.31864502 Ry
     Harris-Foulkes estimate   =     -15.31864710 Ry
     estimated scf accuracy    <       0.00000591 Ry

     iteration #  8     ecut=    42.00 Ry     beta= 0.30
     Davidson diagonalization with overlap
     ethr =  7.39E-08,  avg # of iterations =  1.0

     negative rho (up, down):  4.879E-08 0.000E+00

     total cpu time spent up to now is       57.5 secs

     total energy              =     -15.31864498 Ry
     Harris-Foulkes estimate   =     -15.31864544 Ry
     estimated scf accuracy    <       0.00000131 Ry

     iteration #  9     ecut=    42.00 Ry     beta= 0.30
     Davidson diagonalization with overlap
     ethr =  1.64E-08,  avg # of iterations =  2.0

     negative rho (up, down):  4.176E-08 0.000E+00

     total cpu time spent up to now is       63.6 secs

     total energy              =     -15.31864525 Ry
     Harris-Foulkes estimate   =     -15.31864525 Ry
     estimated scf accuracy    <       0.00000001 Ry

     iteration # 10     ecut=    42.00 Ry     beta= 0.30
     Davidson diagonalization with overlap
     ethr =  1.73E-10,  avg # of iterations =  2.0

     total cpu time spent up to now is       69.9 secs

     total energy              =     -15.31864525 Ry
     Harris-Foulkes estimate   =     -15.31864525 Ry
     estimated scf accuracy    <       0.00000002 Ry

     iteration # 11     ecut=    42.00 Ry     beta= 0.30
     Davidson diagonalization with overlap
     ethr =  1.73E-10,  avg # of iterations =  1.0

     total cpu time spent up to now is       74.9 secs

     End of self-consistent calculation

          k = 0.0000 0.0000 0.0000 (248049 PWs)   bands (ev):

   -13.3281  -8.8064  -5.4329  -5.4329  -5.2829  -2.2432  -2.2432  -0.2925

     occupation numbers 
     1.0000   1.0000   0.7215   0.7215   0.5569   0.0000   0.0000   0.0000

          k = 0.0000 0.0000-0.5000 (247982 PWs)   bands (ev):

   -13.3281  -8.8064  -5.4329  -5.4329  -5.2829  -2.2432  -2.2432  -0.2829

     occupation numbers 
     1.0000   1.0000   0.7215   0.7215   0.5569   0.0000   0.0000   0.0000

          k = 0.0000-0.5000-0.5000 (248312 PWs)   bands (ev):

   -13.3281  -8.8064  -5.4329  -5.4329  -5.2829  -2.2432  -2.2432  -0.2746

     occupation numbers 
     1.0000   1.0000   0.7215   0.7215   0.5569   0.0000   0.0000   0.0000

          k =-0.5000-0.5000-0.5000 (248296 PWs)   bands (ev):

   -13.3281  -8.8064  -5.4329  -5.4329  -5.2829  -2.2432  -2.2432  -0.0356

     occupation numbers 
     1.0000   1.0000   0.7215   0.7215   0.5569   0.0000   0.0000   0.0000

          k =-0.5000 0.0000 0.0000 (247982 PWs)   bands (ev):

   -13.3281  -8.8064  -5.4329  -5.4329  -5.2829  -2.2432  -2.2432  -0.0566

     occupation numbers 
     1.0000   1.0000   0.7215   0.7215   0.5569   0.0000   0.0000   0.0000

          k =-0.5000 0.5000 0.0000 (248312 PWs)   bands (ev):

   -13.3281  -8.8064  -5.4329  -5.4329  -5.2829  -2.2432  -2.2432  -0.0446

     occupation numbers 
     1.0000   1.0000   0.7215   0.7215   0.5569   0.0000   0.0000   0.0000

     the Fermi energy is    -5.1361 ev

!    total energy              =     -15.31864525 Ry
     Harris-Foulkes estimate   =     -15.31864525 Ry
     estimated scf accuracy    <          3.6E-10 Ry

     The total energy is the sum of the following terms:

     one-electron contribution =     -29.63156870 Ry
     hartree contribution      =      15.18699287 Ry
     xc contribution           =      -4.31324922 Ry
     ewald contribution        =       3.47466272 Ry
     smearing contrib. (-TS)   =      -0.03548292 Ry

     convergence has been achieved in  11 iterations

     Forces acting on atoms (cartesian axes, Ry/au):

     atom    1 type  1   force =    -0.09609032    0.00000000    0.00000000
     atom    2 type  1   force =     0.09609032    0.00000000    0.00000000
     The non-local contrib.  to forces
     atom    1 type  1   force =    -0.24051290    0.00000000    0.00000000
     atom    2 type  1   force =     0.24051260    0.00000000    0.00000000
     The ionic contribution  to forces
     atom    1 type  1   force =    -2.12236207    0.00000000   -0.00000000
     atom    2 type  1   force =     2.12236207   -0.00000000   -0.00000000
     The local contribution  to forces
     atom    1 type  1   force =     2.26679109    0.00000000   -0.00000000
     atom    2 type  1   force =    -2.26679382    0.00000000   -0.00000000
     The core correction contribution to forces
     atom    1 type  1   force =     0.00000000    0.00000000    0.00000000
     atom    2 type  1   force =     0.00000000    0.00000000    0.00000000
     The Hubbard contrib.    to forces
     atom    1 type  1   force =     0.00000000    0.00000000    0.00000000
     atom    2 type  1   force =     0.00000000    0.00000000    0.00000000
     The SCF correction term to forces
     atom    1 type  1   force =    -0.00000700    0.00000000   -0.00000000
     atom    2 type  1   force =     0.00000891    0.00000000   -0.00000000

     Total force =     0.135892     Total SCF correction =     0.000011


     Computing stress (Cartesian axis) and pressure

          total   stress  (Ry/bohr**3)                   (kbar)     P=    0.34
   0.00000689   0.00000000   0.00000000          1.01      0.00      0.00
   0.00000000  -0.00000000   0.00000000          0.00     -0.00      0.00
   0.00000000   0.00000000  -0.00000000          0.00      0.00     -0.00

     kinetic stress (kbar)      9.72      0.00      0.00
                                0.00     10.78      0.00
                                0.00      0.00     10.78

     local   stress (kbar)    -57.14     -0.00      0.00
                               -0.00    -26.91      0.00
                                0.00      0.00    -26.91

     nonloc. stress (kbar)     14.76      0.00      0.00
                                0.00     12.99      0.00
                                0.00      0.00     12.99

     hartree stress (kbar)     19.01      0.00     -0.00
                                0.00     11.19     -0.00
                               -0.00     -0.00     11.19

     exc-cor stress (kbar)     -3.58     -0.00      0.00
                               -0.00     -3.66      0.00
                                0.00      0.00     -3.66

     corecor stress (kbar)      0.00      0.00      0.00
                                0.00      0.00      0.00
                                0.00      0.00      0.00

     ewald   stress (kbar)     18.25      0.00     -0.00
                                0.00     -4.39     -0.00
                               -0.00     -0.00     -4.39

     hubbard stress (kbar)      0.00      0.00      0.00
                                0.00      0.00      0.00
                                0.00      0.00      0.00

     london  stress (kbar)      0.00      0.00      0.00
                                0.00      0.00      0.00
                                0.00      0.00      0.00

     DFT-D3  stress (kbar)      0.00      0.00      0.00
                                0.00      0.00      0.00
                                0.00      0.00      0.00

     XDM     stress (kbar)      0.00      0.00      0.00
                                0.00      0.00      0.00
                                0.00      0.00      0.00

     dft-nl  stress (kbar)      0.00      0.00      0.00
                                0.00      0.00      0.00
                                0.00      0.00      0.00

     TS-vdW  stress (kbar)      0.00      0.00      0.00
                                0.00      0.00      0.00
                                0.00      0.00      0.00



     Writing output data file SiSi11.save

     init_run     :      3.61s CPU      3.76s WALL (       1 calls)
     electrons    :     68.40s CPU     71.21s WALL (       1 calls)
     forces       :      0.37s CPU      0.37s WALL (       1 calls)
     stress       :      1.87s CPU      1.95s WALL (       1 calls)

     Called by init_run:
     wfcinit      :      1.92s CPU      1.94s WALL (       1 calls)
     wfcinit:atom :      0.04s CPU      0.04s WALL (       6 calls)
     wfcinit:wfcr :      1.71s CPU      1.73s WALL (       6 calls)
     potinit      :      0.58s CPU      0.62s WALL (       1 calls)

     Called by electrons:
     c_bands      :     51.46s CPU     51.68s WALL (      11 calls)
     sum_band     :     11.38s CPU     11.40s WALL (      11 calls)
     v_of_rho     :      4.56s CPU      4.60s WALL (      12 calls)
     v_h          :      0.43s CPU      0.44s WALL (      12 calls)
     v_xc         :      4.13s CPU      4.16s WALL (      12 calls)
     mix_rho      :      1.10s CPU      1.18s WALL (      11 calls)

     Called by c_bands:
     init_us_2    :      0.92s CPU      0.93s WALL (     150 calls)
     cegterg      :     50.66s CPU     50.81s WALL (      66 calls)

     Called by sum_band:

     Called by *egterg:
     h_psi        :     49.40s CPU     49.54s WALL (     271 calls)
     g_psi        :      0.18s CPU      0.18s WALL (     199 calls)
     cdiaghg      :      0.04s CPU      0.04s WALL (     265 calls)
     cegterg:over :      0.96s CPU      0.97s WALL (     199 calls)
     cegterg:upda :      0.80s CPU      0.80s WALL (     199 calls)
     cegterg:last :      0.25s CPU      0.25s WALL (      67 calls)

     Called by h_psi:
     h_psi:pot    :     49.16s CPU     49.29s WALL (     271 calls)
     h_psi:calbec :      0.61s CPU      0.62s WALL (     271 calls)
     vloc_psi     :     48.21s CPU     48.33s WALL (     271 calls)
     add_vuspsi   :      0.34s CPU      0.34s WALL (     271 calls)

     General routines
     calbec       :      0.73s CPU      0.74s WALL (     301 calls)
     fft          :      4.07s CPU      4.10s WALL (     139 calls)
     fftw         :     52.12s CPU     52.22s WALL (    3324 calls)

     Parallel routines
     fft_scatt_xy :      7.11s CPU      7.12s WALL (    3463 calls)
     fft_scatt_yz :     16.37s CPU     16.42s WALL (    3463 calls)

     PWSCF        :  1m14.70s CPU     1m18.19s WALL


   This run was terminated on:  21:32: 3   1Oct2020            

=------------------------------------------------------------------------------=
   JOB DONE.
=------------------------------------------------------------------------------=
