
     Program PWSCF v.6.2 (svn rev. 14038) starts on  1Oct2020 at 21:38:56 

     This program is part of the open-source Quantum ESPRESSO suite
     for quantum simulation of materials; please cite
         "P. Giannozzi et al., J. Phys.:Condens. Matter 21 395502 (2009);
         "P. Giannozzi et al., J. Phys.:Condens. Matter 29 465901 (2017);
          URL http://www.quantum-espresso.org", 
     in publications or presentations arising from this work. More details at
     http://www.quantum-espresso.org/quote

     Parallel version (MPI), running on     8 processors

     MPI processes distributed on     1 nodes
     R & G space division:  proc/nbgrp/npool/nimage =       8
     Waiting for input...
     Reading input from standard input

     Current dimensions of program PWSCF are:
     Max number of different atomic species (ntypx) = 10
     Max number of k-points (npk) =  40000
     Max angular momentum in pseudopotentials (lmaxx) =  3

     Subspace diagonalization in iterative solution of the eigenvalue problem:
     a serial algorithm will be used


     Parallelization info
     --------------------
     sticks:   dense  smooth     PW     G-vecs:    dense   smooth      PW
     Min        2386    2386    623               248152   248152   33108
     Max        2387    2387    625               248157   248157   33111
     Sum       19089   19089   4989              1985227  1985227  264875



     bravais-lattice index     =            1
     lattice parameter (alat)  =      37.7945  a.u.
     unit-cell volume          =   53986.6767 (a.u.)^3
     number of atoms/cell      =            2
     number of atomic types    =            1
     number of electrons       =         8.00
     number of Kohn-Sham states=            8
     kinetic-energy cutoff     =      42.0000  Ry
     charge density cutoff     =     168.0000  Ry
     convergence threshold     =      1.0E-08
     mixing beta               =       0.3000
     number of iterations used =            8  plain     mixing
     Exchange-correlation      = SLA-PW-PBX-PBC ( 1  4  3  4 0 0)

     celldm(1)=  37.794523  celldm(2)=   0.000000  celldm(3)=   0.000000
     celldm(4)=   0.000000  celldm(5)=   0.000000  celldm(6)=   0.000000

     crystal axes: (cart. coord. in units of alat)
               a(1) = (   1.000000   0.000000   0.000000 )  
               a(2) = (   0.000000   1.000000   0.000000 )  
               a(3) = (   0.000000   0.000000   1.000000 )  

     reciprocal axes: (cart. coord. in units 2 pi/alat)
               b(1) = (  1.000000  0.000000  0.000000 )  
               b(2) = (  0.000000  1.000000  0.000000 )  
               b(3) = (  0.000000  0.000000  1.000000 )  


     PseudoPot. # 1 for Si read from file:
     ./Si.pbe-hgh.UPF
     MD5 check sum: 9a9f0f6e09139bfdb36b03ff6bc35900
     Pseudo is Norm-conserving, Zval =  4.0
     Generated in analytical, separable form
     Using radial grid of 1141 points,  3 beta functions with: 
                l(1) =   0
                l(2) =   0
                l(3) =   1

     atomic species   valence    mass     pseudopotential
        Si             4.00    28.08000     Si( 1.00)

      8 Sym. Ops. (no inversion) found


                                    s                        frac. trans.

      isym =  1     identity                                     

 cryst.   s( 1) = (     1          0          0      )
                  (     0          1          0      )
                  (     0          0          1      )

 cart.    s( 1) = (  1.0000000  0.0000000  0.0000000 )
                  (  0.0000000  1.0000000  0.0000000 )
                  (  0.0000000  0.0000000  1.0000000 )


      isym =  2     180 deg rotation - cart. axis [1,0,0]        

 cryst.   s( 2) = (     1          0          0      )
                  (     0         -1          0      )
                  (     0          0         -1      )

 cart.    s( 2) = (  1.0000000  0.0000000  0.0000000 )
                  (  0.0000000 -1.0000000  0.0000000 )
                  (  0.0000000  0.0000000 -1.0000000 )


      isym =  3      90 deg rotation - cart. axis [-1,0,0]       

 cryst.   s( 3) = (     1          0          0      )
                  (     0          0         -1      )
                  (     0          1          0      )

 cart.    s( 3) = (  1.0000000  0.0000000  0.0000000 )
                  (  0.0000000  0.0000000  1.0000000 )
                  (  0.0000000 -1.0000000  0.0000000 )


      isym =  4      90 deg rotation - cart. axis [1,0,0]        

 cryst.   s( 4) = (     1          0          0      )
                  (     0          0          1      )
                  (     0         -1          0      )

 cart.    s( 4) = (  1.0000000  0.0000000  0.0000000 )
                  (  0.0000000  0.0000000 -1.0000000 )
                  (  0.0000000  1.0000000  0.0000000 )


      isym =  5     inv. 180 deg rotation - cart. axis [0,0,1]   

 cryst.   s( 5) = (     1          0          0      )
                  (     0          1          0      )
                  (     0          0         -1      )

 cart.    s( 5) = (  1.0000000  0.0000000  0.0000000 )
                  (  0.0000000  1.0000000  0.0000000 )
                  (  0.0000000  0.0000000 -1.0000000 )


      isym =  6     inv. 180 deg rotation - cart. axis [0,1,0]   

 cryst.   s( 6) = (     1          0          0      )
                  (     0         -1          0      )
                  (     0          0          1      )

 cart.    s( 6) = (  1.0000000  0.0000000  0.0000000 )
                  (  0.0000000 -1.0000000  0.0000000 )
                  (  0.0000000  0.0000000  1.0000000 )


      isym =  7     inv. 180 deg rotation - cart. axis [0,1,1]   

 cryst.   s( 7) = (     1          0          0      )
                  (     0          0         -1      )
                  (     0         -1          0      )

 cart.    s( 7) = (  1.0000000  0.0000000  0.0000000 )
                  (  0.0000000  0.0000000 -1.0000000 )
                  (  0.0000000 -1.0000000  0.0000000 )


      isym =  8     inv. 180 deg rotation - cart. axis [0,1,-1]  

 cryst.   s( 8) = (     1          0          0      )
                  (     0          0          1      )
                  (     0          1          0      )

 cart.    s( 8) = (  1.0000000  0.0000000  0.0000000 )
                  (  0.0000000  0.0000000  1.0000000 )
                  (  0.0000000  1.0000000  0.0000000 )


     point group C_4v (4mm) 
     there are  5 classes
     the character table:

       E     2C4   C2    2s_v  2s_d 
A_1    1.00  1.00  1.00  1.00  1.00
A_2    1.00  1.00  1.00 -1.00 -1.00
B_1    1.00 -1.00  1.00  1.00 -1.00
B_2    1.00 -1.00  1.00 -1.00  1.00
E      2.00  0.00 -2.00  0.00  0.00

     the symmetry operations in each class and the name of the first element:

     E        1
          identity                                               
     2C4      3    4
           90 deg rotation - cart. axis [-1,0,0]                 
     C2       2
          180 deg rotation - cart. axis [1,0,0]                  
     2s_v     5    6
          inv. 180 deg rotation - cart. axis [0,0,1]             
     2s_d     7    8
          inv. 180 deg rotation - cart. axis [0,1,1]             

   Cartesian axes

     site n.     atom                  positions (alat units)
         1           Si  tau(   1) = (   0.0000000   0.0000000   0.0000000  )
         2           Si  tau(   2) = (   0.0670000   0.0000000   0.0000000  )

   Crystallographic axes

     site n.     atom                  positions (cryst. coord.)
         1           Si  tau(   1) = (  0.0000000  0.0000000  0.0000000  )
         2           Si  tau(   2) = (  0.0670000  0.0000000  0.0000000  )

     number of k points=     6  Marzari-Vanderbilt smearing, width (Ry)=  0.0500
                       cart. coord. in units 2pi/alat
        k(    1) = (   0.0000000   0.0000000   0.0000000), wk =   0.2500000
        k(    2) = (   0.0000000   0.0000000  -0.5000000), wk =   0.5000000
        k(    3) = (   0.0000000  -0.5000000  -0.5000000), wk =   0.2500000
        k(    4) = (  -0.5000000  -0.5000000  -0.5000000), wk =   0.2500000
        k(    5) = (  -0.5000000   0.0000000   0.0000000), wk =   0.2500000
        k(    6) = (  -0.5000000   0.5000000   0.0000000), wk =   0.5000000

                       cryst. coord.
        k(    1) = (   0.0000000   0.0000000   0.0000000), wk =   0.2500000
        k(    2) = (   0.0000000   0.0000000  -0.5000000), wk =   0.5000000
        k(    3) = (   0.0000000  -0.5000000  -0.5000000), wk =   0.2500000
        k(    4) = (  -0.5000000  -0.5000000  -0.5000000), wk =   0.2500000
        k(    5) = (  -0.5000000   0.0000000   0.0000000), wk =   0.2500000
        k(    6) = (  -0.5000000   0.5000000   0.0000000), wk =   0.5000000

     Dense  grid:  1985227 G-vectors     FFT dimensions: ( 160, 160, 160)

     Dynamical RAM for                 wfc:       3.79 MB

     Dynamical RAM for     wfc (w. buffer):      26.50 MB

     Dynamical RAM for           str. fact:       3.79 MB

     Dynamical RAM for           local pot:       0.00 MB

     Dynamical RAM for          nlocal pot:       4.73 MB

     Dynamical RAM for                qrad:       1.07 MB

     Dynamical RAM for          rho,v,vnew:      23.08 MB

     Dynamical RAM for               rhoin:       7.69 MB

     Dynamical RAM for            rho*nmix:      60.58 MB

     Dynamical RAM for           G-vectors:      16.09 MB

     Dynamical RAM for          h,s,v(r/c):       0.05 MB

     Dynamical RAM for          <psi|beta>:       0.00 MB

     Dynamical RAM for                 psi:      15.15 MB

     Dynamical RAM for                hpsi:      15.15 MB

     Dynamical RAM for      wfcinit/wfcrot:       7.57 MB

     Estimated static dynamical RAM per process >     170.65 MB

     Estimated max dynamical RAM per process >     200.99 MB

     Estimated total dynamical RAM >       1.57 GB

     Initial potential from superposition of free atoms
     Check: negative starting charge=   -0.000639

     starting charge    7.99888, renormalised to    8.00000

     negative rho (up, down):  6.389E-04 0.000E+00
     Starting wfc are    8 randomized atomic wfcs

     total cpu time spent up to now is        3.9 secs

     Self-consistent Calculation

     iteration #  1     ecut=    42.00 Ry     beta= 0.30
     Davidson diagonalization with overlap
     ethr =  1.00E-02,  avg # of iterations =  5.0

     negative rho (up, down):  4.375E-04 0.000E+00

     total cpu time spent up to now is       12.6 secs

     total energy              =     -14.16887643 Ry
     Harris-Foulkes estimate   =     -14.52638347 Ry
     estimated scf accuracy    <       0.93529446 Ry

     iteration #  2     ecut=    42.00 Ry     beta= 0.30
     Davidson diagonalization with overlap
     ethr =  1.00E-02,  avg # of iterations =  1.0

     negative rho (up, down):  2.326E-04 0.000E+00

     total cpu time spent up to now is       17.8 secs

     total energy              =     -14.17206239 Ry
     Harris-Foulkes estimate   =     -14.22651388 Ry
     estimated scf accuracy    <       0.10730772 Ry

     iteration #  3     ecut=    42.00 Ry     beta= 0.30
     Davidson diagonalization with overlap
     ethr =  1.34E-03,  avg # of iterations =  4.0

     negative rho (up, down):  1.378E-04 0.000E+00

     total cpu time spent up to now is       24.9 secs

     total energy              =     -14.20658041 Ry
     Harris-Foulkes estimate   =     -14.20899785 Ry
     estimated scf accuracy    <       0.00501626 Ry

     iteration #  4     ecut=    42.00 Ry     beta= 0.30
     Davidson diagonalization with overlap
     ethr =  6.27E-05,  avg # of iterations =  7.8

     negative rho (up, down):  4.956E-05 0.000E+00

     total cpu time spent up to now is       34.1 secs

     total energy              =     -14.20758974 Ry
     Harris-Foulkes estimate   =     -14.20816832 Ry
     estimated scf accuracy    <       0.00153466 Ry

     iteration #  5     ecut=    42.00 Ry     beta= 0.30
     Davidson diagonalization with overlap
     ethr =  1.92E-05,  avg # of iterations =  2.0

     negative rho (up, down):  1.910E-06 0.000E+00

     total cpu time spent up to now is       39.6 secs

     total energy              =     -14.20755436 Ry
     Harris-Foulkes estimate   =     -14.20766533 Ry
     estimated scf accuracy    <       0.00024031 Ry

     iteration #  6     ecut=    42.00 Ry     beta= 0.30
     Davidson diagonalization with overlap
     ethr =  3.00E-06,  avg # of iterations =  7.0

     negative rho (up, down):  1.079E-06 0.000E+00

     total cpu time spent up to now is       48.4 secs

     total energy              =     -14.20761655 Ry
     Harris-Foulkes estimate   =     -14.20762865 Ry
     estimated scf accuracy    <       0.00002519 Ry

     iteration #  7     ecut=    42.00 Ry     beta= 0.30
     Davidson diagonalization with overlap
     ethr =  3.15E-07,  avg # of iterations =  2.0

     negative rho (up, down):  1.340E-08 0.000E+00

     total cpu time spent up to now is       54.2 secs

     total energy              =     -14.20762109 Ry
     Harris-Foulkes estimate   =     -14.20762144 Ry
     estimated scf accuracy    <       0.00000123 Ry

     iteration #  8     ecut=    42.00 Ry     beta= 0.30
     Davidson diagonalization with overlap
     ethr =  1.54E-08,  avg # of iterations =  2.0

     total cpu time spent up to now is       60.7 secs

     total energy              =     -14.20762139 Ry
     Harris-Foulkes estimate   =     -14.20762140 Ry
     estimated scf accuracy    <       0.00000015 Ry

     iteration #  9     ecut=    42.00 Ry     beta= 0.30
     Davidson diagonalization with overlap
     ethr =  1.83E-09,  avg # of iterations =  1.0

     total cpu time spent up to now is       66.9 secs

     total energy              =     -14.20762140 Ry
     Harris-Foulkes estimate   =     -14.20762139 Ry
     estimated scf accuracy    <       0.00000006 Ry

     iteration # 10     ecut=    42.00 Ry     beta= 0.30
     Davidson diagonalization with overlap
     ethr =  6.94E-10,  avg # of iterations =  1.0

     total cpu time spent up to now is       72.6 secs

     total energy              =     -14.20762138 Ry
     Harris-Foulkes estimate   =     -14.20762140 Ry
     estimated scf accuracy    <       0.00000003 Ry

     iteration # 11     ecut=    42.00 Ry     beta= 0.30
     Davidson diagonalization with overlap
     ethr =  4.12E-10,  avg # of iterations =  2.0

     total cpu time spent up to now is       78.5 secs

     End of self-consistent calculation

          k = 0.0000 0.0000 0.0000 (248049 PWs)   bands (ev):

   -14.1010  -7.4040  -6.5686  -6.5686  -3.9378  -0.6167  -0.6167  -0.0923

     occupation numbers 
     1.0000   1.0322   0.9839   0.9839   0.0000   0.0000   0.0000   0.0000

          k = 0.0000 0.0000-0.5000 (247982 PWs)   bands (ev):

   -14.1010  -7.4040  -6.5686  -6.5686  -3.9378  -0.6168  -0.6167  -0.0614

     occupation numbers 
     1.0000   1.0322   0.9839   0.9839   0.0000   0.0000   0.0000   0.0000

          k = 0.0000-0.5000-0.5000 (248312 PWs)   bands (ev):

   -14.1010  -7.4040  -6.5686  -6.5686  -3.9378  -0.6168  -0.6168  -0.0370

     occupation numbers 
     1.0000   1.0322   0.9839   0.9839   0.0000   0.0000   0.0000   0.0000

          k =-0.5000-0.5000-0.5000 (248296 PWs)   bands (ev):

   -14.1010  -7.4040  -6.5686  -6.5686  -3.9378  -0.6169  -0.6169  -0.0205

     occupation numbers 
     1.0000   1.0322   0.9839   0.9839   0.0000   0.0000   0.0000   0.0000

          k =-0.5000 0.0000 0.0000 (247982 PWs)   bands (ev):

   -14.1010  -7.4040  -6.5686  -6.5686  -3.9378  -0.6168  -0.6168  -0.0637

     occupation numbers 
     1.0000   1.0322   0.9839   0.9839   0.0000   0.0000   0.0000   0.0000

          k =-0.5000 0.5000 0.0000 (248312 PWs)   bands (ev):

   -14.1010  -7.4040  -6.5686  -6.5686  -3.9378  -0.6169  -0.6168  -0.0399

     occupation numbers 
     1.0000   1.0322   0.9839   0.9839   0.0000   0.0000   0.0000   0.0000

     the Fermi energy is    -5.9697 ev

!    total energy              =     -14.20762138 Ry
     Harris-Foulkes estimate   =     -14.20762138 Ry
     estimated scf accuracy    <          9.5E-10 Ry

     The total energy is the sum of the following terms:

     one-electron contribution =     -35.62649994 Ry
     hartree contribution      =      18.40045934 Ry
     xc contribution           =      -4.84332909 Ry
     ewald contribution        =       7.84049489 Ry
     smearing contrib. (-TS)   =       0.02125342 Ry

     convergence has been achieved in  11 iterations

     Forces acting on atoms (cartesian axes, Ry/au):

     atom    1 type  1   force =    -2.36785176    0.00000000    0.00000000
     atom    2 type  1   force =     2.36785176    0.00000000    0.00000000
     The non-local contrib.  to forces
     atom    1 type  1   force =    -2.04366773    0.00000000    0.00000000
     atom    2 type  1   force =     2.04364743    0.00000000    0.00000000
     The ionic contribution  to forces
     atom    1 type  1   force =    -4.98411267    0.00000000   -0.00000000
     atom    2 type  1   force =     4.98411267   -0.00000000   -0.00000000
     The local contribution  to forces
     atom    1 type  1   force =     4.65991515    0.00000000   -0.00000000
     atom    2 type  1   force =    -4.65990285    0.00000000   -0.00000000
     The core correction contribution to forces
     atom    1 type  1   force =     0.00000000    0.00000000    0.00000000
     atom    2 type  1   force =     0.00000000    0.00000000    0.00000000
     The Hubbard contrib.    to forces
     atom    1 type  1   force =     0.00000000    0.00000000    0.00000000
     atom    2 type  1   force =     0.00000000    0.00000000    0.00000000
     The SCF correction term to forces
     atom    1 type  1   force =     0.00000887    0.00000000    0.00000000
     atom    2 type  1   force =    -0.00001011    0.00000000    0.00000000

     Total force =     3.348648     Total SCF correction =     0.000013


     Computing stress (Cartesian axis) and pressure

          total   stress  (Ry/bohr**3)                   (kbar)     P=    5.44
   0.00011102   0.00000000   0.00000000         16.33      0.00      0.00
   0.00000000  -0.00000004   0.00000000          0.00     -0.01      0.00
   0.00000000   0.00000000  -0.00000004          0.00      0.00     -0.01

     kinetic stress (kbar)     10.86      0.00      0.00
                                0.00     13.92      0.00
                                0.00      0.00     13.92

     local   stress (kbar)    -59.53     -0.00     -0.00
                               -0.00    -38.73     -0.00
                               -0.00     -0.00    -38.73

     nonloc. stress (kbar)     19.92      0.00      0.00
                                0.00     17.74      0.00
                                0.00      0.00     17.74

     hartree stress (kbar)     19.02      0.00      0.00
                                0.00     15.56     -0.00
                                0.00     -0.00     15.56

     exc-cor stress (kbar)     -4.05      0.00     -0.00
                                0.00     -4.12     -0.00
                               -0.00     -0.00     -4.12

     corecor stress (kbar)      0.00      0.00      0.00
                                0.00      0.00      0.00
                                0.00      0.00      0.00

     ewald   stress (kbar)     30.11     -0.00     -0.00
                               -0.00     -4.37     -0.00
                               -0.00     -0.00     -4.37

     hubbard stress (kbar)      0.00      0.00      0.00
                                0.00      0.00      0.00
                                0.00      0.00      0.00

     london  stress (kbar)      0.00      0.00      0.00
                                0.00      0.00      0.00
                                0.00      0.00      0.00

     DFT-D3  stress (kbar)      0.00      0.00      0.00
                                0.00      0.00      0.00
                                0.00      0.00      0.00

     XDM     stress (kbar)      0.00      0.00      0.00
                                0.00      0.00      0.00
                                0.00      0.00      0.00

     dft-nl  stress (kbar)      0.00      0.00      0.00
                                0.00      0.00      0.00
                                0.00      0.00      0.00

     TS-vdW  stress (kbar)      0.00      0.00      0.00
                                0.00      0.00      0.00
                                0.00      0.00      0.00



     Writing output data file SiSi23.save

     init_run     :      3.58s CPU      3.71s WALL (       1 calls)
     electrons    :     71.00s CPU     75.13s WALL (       1 calls)
     forces       :      0.36s CPU      0.37s WALL (       1 calls)
     stress       :      1.81s CPU      1.90s WALL (       1 calls)

     Called by init_run:
     wfcinit      :      1.89s CPU      1.92s WALL (       1 calls)
     wfcinit:atom :      0.04s CPU      0.04s WALL (       6 calls)
     wfcinit:wfcr :      1.69s CPU      1.71s WALL (       6 calls)
     potinit      :      0.56s CPU      0.60s WALL (       1 calls)

     Called by electrons:
     c_bands      :     54.25s CPU     57.31s WALL (      11 calls)
     sum_band     :     11.38s CPU     11.44s WALL (      11 calls)
     v_of_rho     :      4.39s CPU      4.43s WALL (      12 calls)
     v_h          :      0.43s CPU      0.43s WALL (      12 calls)
     v_xc         :      3.96s CPU      4.00s WALL (      12 calls)
     mix_rho      :      1.07s CPU      1.17s WALL (      11 calls)

     Called by c_bands:
     init_us_2    :      0.97s CPU      0.98s WALL (     150 calls)
     cegterg      :     53.36s CPU     53.52s WALL (      66 calls)

     Called by sum_band:

     Called by *egterg:
     h_psi        :     51.76s CPU     51.91s WALL (     281 calls)
     g_psi        :      0.19s CPU      0.19s WALL (     209 calls)
     cdiaghg      :      0.05s CPU      0.05s WALL (     275 calls)
     cegterg:over :      1.10s CPU      1.10s WALL (     209 calls)
     cegterg:upda :      0.93s CPU      0.93s WALL (     209 calls)
     cegterg:last :      0.26s CPU      0.26s WALL (      67 calls)

     Called by h_psi:
     h_psi:pot    :     51.50s CPU     51.65s WALL (     281 calls)
     h_psi:calbec :      0.62s CPU      0.62s WALL (     281 calls)
     vloc_psi     :     50.53s CPU     50.67s WALL (     281 calls)
     add_vuspsi   :      0.35s CPU      0.36s WALL (     281 calls)

     General routines
     calbec       :      0.68s CPU      0.69s WALL (     311 calls)
     fft          :      4.02s CPU      4.04s WALL (     139 calls)
     fftw         :     54.10s CPU     54.24s WALL (    3442 calls)

     Parallel routines
     fft_scatt_xy :      7.40s CPU      7.42s WALL (    3581 calls)
     fft_scatt_yz :     16.33s CPU     16.40s WALL (    3581 calls)

     PWSCF        :  1m17.32s CPU     1m22.75s WALL


   This run was terminated on:  21:40:18   1Oct2020            

=------------------------------------------------------------------------------=
   JOB DONE.
=------------------------------------------------------------------------------=
