
     Program PWSCF v.6.2 (svn rev. 14038) starts on  1Oct2020 at 21: 6:44 

     This program is part of the open-source Quantum ESPRESSO suite
     for quantum simulation of materials; please cite
         "P. Giannozzi et al., J. Phys.:Condens. Matter 21 395502 (2009);
         "P. Giannozzi et al., J. Phys.:Condens. Matter 29 465901 (2017);
          URL http://www.quantum-espresso.org", 
     in publications or presentations arising from this work. More details at
     http://www.quantum-espresso.org/quote

     Parallel version (MPI), running on     8 processors

     MPI processes distributed on     1 nodes
     R & G space division:  proc/nbgrp/npool/nimage =       8
     Waiting for input...
     Reading input from standard input

     Current dimensions of program PWSCF are:
     Max number of different atomic species (ntypx) = 10
     Max number of k-points (npk) =  40000
     Max angular momentum in pseudopotentials (lmaxx) =  3

     Subspace diagonalization in iterative solution of the eigenvalue problem:
     a serial algorithm will be used


     Parallelization info
     --------------------
     sticks:   dense  smooth     PW     G-vecs:    dense   smooth      PW
     Min        2386    2386    623               248152   248152   33108
     Max        2387    2387    625               248157   248157   33111
     Sum       19089   19089   4989              1985227  1985227  264875



     bravais-lattice index     =            1
     lattice parameter (alat)  =      37.7945  a.u.
     unit-cell volume          =   53986.6767 (a.u.)^3
     number of atoms/cell      =            2
     number of atomic types    =            1
     number of electrons       =         8.00
     number of Kohn-Sham states=            8
     kinetic-energy cutoff     =      42.0000  Ry
     charge density cutoff     =     168.0000  Ry
     convergence threshold     =      1.0E-08
     mixing beta               =       0.3000
     number of iterations used =            8  plain     mixing
     Exchange-correlation      = SLA-PW-PBX-PBC ( 1  4  3  4 0 0)

     celldm(1)=  37.794523  celldm(2)=   0.000000  celldm(3)=   0.000000
     celldm(4)=   0.000000  celldm(5)=   0.000000  celldm(6)=   0.000000

     crystal axes: (cart. coord. in units of alat)
               a(1) = (   1.000000   0.000000   0.000000 )  
               a(2) = (   0.000000   1.000000   0.000000 )  
               a(3) = (   0.000000   0.000000   1.000000 )  

     reciprocal axes: (cart. coord. in units 2 pi/alat)
               b(1) = (  1.000000  0.000000  0.000000 )  
               b(2) = (  0.000000  1.000000  0.000000 )  
               b(3) = (  0.000000  0.000000  1.000000 )  


     PseudoPot. # 1 for Si read from file:
     ./Si.pbe-hgh.UPF
     MD5 check sum: 9a9f0f6e09139bfdb36b03ff6bc35900
     Pseudo is Norm-conserving, Zval =  4.0
     Generated in analytical, separable form
     Using radial grid of 1141 points,  3 beta functions with: 
                l(1) =   0
                l(2) =   0
                l(3) =   1

     atomic species   valence    mass     pseudopotential
        Si             4.00    28.08000     Si( 1.00)

      8 Sym. Ops. (no inversion) found


                                    s                        frac. trans.

      isym =  1     identity                                     

 cryst.   s( 1) = (     1          0          0      )
                  (     0          1          0      )
                  (     0          0          1      )

 cart.    s( 1) = (  1.0000000  0.0000000  0.0000000 )
                  (  0.0000000  1.0000000  0.0000000 )
                  (  0.0000000  0.0000000  1.0000000 )


      isym =  2     180 deg rotation - cart. axis [1,0,0]        

 cryst.   s( 2) = (     1          0          0      )
                  (     0         -1          0      )
                  (     0          0         -1      )

 cart.    s( 2) = (  1.0000000  0.0000000  0.0000000 )
                  (  0.0000000 -1.0000000  0.0000000 )
                  (  0.0000000  0.0000000 -1.0000000 )


      isym =  3      90 deg rotation - cart. axis [-1,0,0]       

 cryst.   s( 3) = (     1          0          0      )
                  (     0          0         -1      )
                  (     0          1          0      )

 cart.    s( 3) = (  1.0000000  0.0000000  0.0000000 )
                  (  0.0000000  0.0000000  1.0000000 )
                  (  0.0000000 -1.0000000  0.0000000 )


      isym =  4      90 deg rotation - cart. axis [1,0,0]        

 cryst.   s( 4) = (     1          0          0      )
                  (     0          0          1      )
                  (     0         -1          0      )

 cart.    s( 4) = (  1.0000000  0.0000000  0.0000000 )
                  (  0.0000000  0.0000000 -1.0000000 )
                  (  0.0000000  1.0000000  0.0000000 )


      isym =  5     inv. 180 deg rotation - cart. axis [0,0,1]   

 cryst.   s( 5) = (     1          0          0      )
                  (     0          1          0      )
                  (     0          0         -1      )

 cart.    s( 5) = (  1.0000000  0.0000000  0.0000000 )
                  (  0.0000000  1.0000000  0.0000000 )
                  (  0.0000000  0.0000000 -1.0000000 )


      isym =  6     inv. 180 deg rotation - cart. axis [0,1,0]   

 cryst.   s( 6) = (     1          0          0      )
                  (     0         -1          0      )
                  (     0          0          1      )

 cart.    s( 6) = (  1.0000000  0.0000000  0.0000000 )
                  (  0.0000000 -1.0000000  0.0000000 )
                  (  0.0000000  0.0000000  1.0000000 )


      isym =  7     inv. 180 deg rotation - cart. axis [0,1,1]   

 cryst.   s( 7) = (     1          0          0      )
                  (     0          0         -1      )
                  (     0         -1          0      )

 cart.    s( 7) = (  1.0000000  0.0000000  0.0000000 )
                  (  0.0000000  0.0000000 -1.0000000 )
                  (  0.0000000 -1.0000000  0.0000000 )


      isym =  8     inv. 180 deg rotation - cart. axis [0,1,-1]  

 cryst.   s( 8) = (     1          0          0      )
                  (     0          0          1      )
                  (     0          1          0      )

 cart.    s( 8) = (  1.0000000  0.0000000  0.0000000 )
                  (  0.0000000  0.0000000  1.0000000 )
                  (  0.0000000  1.0000000  0.0000000 )


     point group C_4v (4mm) 
     there are  5 classes
     the character table:

       E     2C4   C2    2s_v  2s_d 
A_1    1.00  1.00  1.00  1.00  1.00
A_2    1.00  1.00  1.00 -1.00 -1.00
B_1    1.00 -1.00  1.00  1.00 -1.00
B_2    1.00 -1.00  1.00 -1.00  1.00
E      2.00  0.00 -2.00  0.00  0.00

     the symmetry operations in each class and the name of the first element:

     E        1
          identity                                               
     2C4      3    4
           90 deg rotation - cart. axis [-1,0,0]                 
     C2       2
          180 deg rotation - cart. axis [1,0,0]                  
     2s_v     5    6
          inv. 180 deg rotation - cart. axis [0,0,1]             
     2s_d     7    8
          inv. 180 deg rotation - cart. axis [0,1,1]             

   Cartesian axes

     site n.     atom                  positions (alat units)
         1           Si  tau(   1) = (   0.0000000   0.0000000   0.0000000  )
         2           Si  tau(   2) = (   0.0450000   0.0000000   0.0000000  )

   Crystallographic axes

     site n.     atom                  positions (cryst. coord.)
         1           Si  tau(   1) = (  0.0000000  0.0000000  0.0000000  )
         2           Si  tau(   2) = (  0.0450000  0.0000000  0.0000000  )

     number of k points=     6  Marzari-Vanderbilt smearing, width (Ry)=  0.0500
                       cart. coord. in units 2pi/alat
        k(    1) = (   0.0000000   0.0000000   0.0000000), wk =   0.2500000
        k(    2) = (   0.0000000   0.0000000  -0.5000000), wk =   0.5000000
        k(    3) = (   0.0000000  -0.5000000  -0.5000000), wk =   0.2500000
        k(    4) = (  -0.5000000  -0.5000000  -0.5000000), wk =   0.2500000
        k(    5) = (  -0.5000000   0.0000000   0.0000000), wk =   0.2500000
        k(    6) = (  -0.5000000   0.5000000   0.0000000), wk =   0.5000000

                       cryst. coord.
        k(    1) = (   0.0000000   0.0000000   0.0000000), wk =   0.2500000
        k(    2) = (   0.0000000   0.0000000  -0.5000000), wk =   0.5000000
        k(    3) = (   0.0000000  -0.5000000  -0.5000000), wk =   0.2500000
        k(    4) = (  -0.5000000  -0.5000000  -0.5000000), wk =   0.2500000
        k(    5) = (  -0.5000000   0.0000000   0.0000000), wk =   0.2500000
        k(    6) = (  -0.5000000   0.5000000   0.0000000), wk =   0.5000000

     Dense  grid:  1985227 G-vectors     FFT dimensions: ( 160, 160, 160)

     Dynamical RAM for                 wfc:       3.79 MB

     Dynamical RAM for     wfc (w. buffer):      26.50 MB

     Dynamical RAM for           str. fact:       3.79 MB

     Dynamical RAM for           local pot:       0.00 MB

     Dynamical RAM for          nlocal pot:       4.73 MB

     Dynamical RAM for                qrad:       1.07 MB

     Dynamical RAM for          rho,v,vnew:      23.08 MB

     Dynamical RAM for               rhoin:       7.69 MB

     Dynamical RAM for            rho*nmix:      60.58 MB

     Dynamical RAM for           G-vectors:      16.09 MB

     Dynamical RAM for          h,s,v(r/c):       0.05 MB

     Dynamical RAM for          <psi|beta>:       0.00 MB

     Dynamical RAM for                 psi:      15.15 MB

     Dynamical RAM for                hpsi:      15.15 MB

     Dynamical RAM for      wfcinit/wfcrot:       7.57 MB

     Estimated static dynamical RAM per process >     170.65 MB

     Estimated max dynamical RAM per process >     200.99 MB

     Estimated total dynamical RAM >       1.57 GB

     Initial potential from superposition of free atoms
     Check: negative starting charge=   -0.000637

     starting charge    7.99888, renormalised to    8.00000

     negative rho (up, down):  6.375E-04 0.000E+00
     Starting wfc are    8 randomized atomic wfcs

     total cpu time spent up to now is        3.6 secs

     Self-consistent Calculation

     iteration #  1     ecut=    42.00 Ry     beta= 0.30
     Davidson diagonalization with overlap
     ethr =  1.00E-02,  avg # of iterations =  4.0

     negative rho (up, down):  4.149E-04 0.000E+00

     total cpu time spent up to now is       11.4 secs

     total energy              =     -10.23025078 Ry
     Harris-Foulkes estimate   =     -10.67715799 Ry
     estimated scf accuracy    <       1.28253737 Ry

     iteration #  2     ecut=    42.00 Ry     beta= 0.30
     Davidson diagonalization with overlap
     ethr =  1.00E-02,  avg # of iterations =  2.0

     negative rho (up, down):  1.963E-04 0.000E+00

     total cpu time spent up to now is       16.3 secs

     total energy              =     -10.20201555 Ry
     Harris-Foulkes estimate   =     -10.31112196 Ry
     estimated scf accuracy    <       0.21838135 Ry

     iteration #  3     ecut=    42.00 Ry     beta= 0.30
     Davidson diagonalization with overlap
     ethr =  2.73E-03,  avg # of iterations =  2.0

     negative rho (up, down):  1.022E-04 0.000E+00

     total cpu time spent up to now is       21.7 secs

     total energy              =     -10.24879106 Ry
     Harris-Foulkes estimate   =     -10.25121310 Ry
     estimated scf accuracy    <       0.00776313 Ry

     iteration #  4     ecut=    42.00 Ry     beta= 0.30
     Davidson diagonalization with overlap
     ethr =  9.70E-05,  avg # of iterations =  7.0

     negative rho (up, down):  5.076E-06 0.000E+00

     total cpu time spent up to now is       30.1 secs

     total energy              =     -10.24957890 Ry
     Harris-Foulkes estimate   =     -10.25179451 Ry
     estimated scf accuracy    <       0.00458959 Ry

     iteration #  5     ecut=    42.00 Ry     beta= 0.30
     Davidson diagonalization with overlap
     ethr =  5.74E-05,  avg # of iterations =  2.3

     total cpu time spent up to now is       35.3 secs

     total energy              =     -10.25018599 Ry
     Harris-Foulkes estimate   =     -10.25019561 Ry
     estimated scf accuracy    <       0.00003840 Ry

     iteration #  6     ecut=    42.00 Ry     beta= 0.30
     Davidson diagonalization with overlap
     c_bands:  1 eigenvalues not converged
     c_bands:  1 eigenvalues not converged
     ethr =  4.80E-07,  avg # of iterations = 14.0

     total cpu time spent up to now is       48.1 secs

     total energy              =     -10.25019980 Ry
     Harris-Foulkes estimate   =     -10.25024102 Ry
     estimated scf accuracy    <       0.00008105 Ry

     iteration #  7     ecut=    42.00 Ry     beta= 0.30
     Davidson diagonalization with overlap
     c_bands:  2 eigenvalues not converged
     ethr =  4.80E-07,  avg # of iterations =  5.0

     negative rho (up, down):  1.789E-06 0.000E+00

     total cpu time spent up to now is       55.2 secs

     total energy              =     -10.25021414 Ry
     Harris-Foulkes estimate   =     -10.25021361 Ry
     estimated scf accuracy    <       0.00000046 Ry

     iteration #  8     ecut=    42.00 Ry     beta= 0.30
     Davidson diagonalization with overlap
     ethr =  5.81E-09,  avg # of iterations =  3.5

     negative rho (up, down):  1.507E-08 0.000E+00

     total cpu time spent up to now is       62.5 secs

     total energy              =     -10.25021365 Ry
     Harris-Foulkes estimate   =     -10.25021445 Ry
     estimated scf accuracy    <       0.00000184 Ry

     iteration #  9     ecut=    42.00 Ry     beta= 0.30
     Davidson diagonalization with overlap
     ethr =  5.81E-09,  avg # of iterations =  2.0

     total cpu time spent up to now is       70.0 secs

     total energy              =     -10.25021391 Ry
     Harris-Foulkes estimate   =     -10.25021393 Ry
     estimated scf accuracy    <       0.00000002 Ry

     iteration # 10     ecut=    42.00 Ry     beta= 0.30
     Davidson diagonalization with overlap
     ethr =  2.45E-10,  avg # of iterations =  3.0

     total cpu time spent up to now is       76.7 secs

     End of self-consistent calculation

          k = 0.0000 0.0000 0.0000 (248049 PWs)   bands (ev):

   -13.5927  -8.2047  -8.2047  -6.6197  -1.6952   0.1933   0.1933   0.2306

     occupation numbers 
     1.0000   1.0005   1.0005   0.9991   0.0000   0.0000   0.0000   0.0000

          k = 0.0000 0.0000-0.5000 (247982 PWs)   bands (ev):

   -13.5927  -8.2047  -8.2047  -6.6197  -1.6952   0.0492   0.0870   0.1887

     occupation numbers 
     1.0000   1.0005   1.0005   0.9991   0.0000   0.0000   0.0000   0.0000

          k = 0.0000-0.5000-0.5000 (248312 PWs)   bands (ev):

   -13.5927  -8.2048  -8.2048  -6.6197  -1.6952   0.1376   0.1898   0.1898

     occupation numbers 
     1.0000   1.0005   1.0005   0.9991   0.0000   0.0000   0.0000   0.0000

          k =-0.5000-0.5000-0.5000 (248296 PWs)   bands (ev):

   -13.5927  -8.2048  -8.2048  -6.6197  -1.6952   0.1760   0.1762   0.1762

     occupation numbers 
     1.0000   1.0005   1.0005   0.9991   0.0000   0.0000   0.0000   0.0000

          k =-0.5000 0.0000 0.0000 (247982 PWs)   bands (ev):

   -13.5926  -8.2047  -8.2047  -6.6197  -1.6952   0.1883   0.1883   0.2497

     occupation numbers 
     1.0000   1.0005   1.0005   0.9991   0.0000   0.0000   0.0000   0.0000

          k =-0.5000 0.5000 0.0000 (248312 PWs)   bands (ev):

   -13.5927  -8.2048  -8.2048  -6.6197  -1.6952   0.1408   0.1633   0.1894

     occupation numbers 
     1.0000   1.0005   1.0005   0.9991   0.0000   0.0000   0.0000   0.0000

     the Fermi energy is    -5.9947 ev

!    total energy              =     -10.25021392 Ry
     Harris-Foulkes estimate   =     -10.25021392 Ry
     estimated scf accuracy    <          3.4E-09 Ry

     The total energy is the sum of the following terms:

     one-electron contribution =     -39.45037273 Ry
     hartree contribution      =      20.43819646 Ry
     xc contribution           =      -5.26063027 Ry
     ewald contribution        =      14.01420520 Ry
     smearing contrib. (-TS)   =       0.00838742 Ry

     convergence has been achieved in  10 iterations

     Forces acting on atoms (cartesian axes, Ry/au):

     atom    1 type  1   force =    -8.35261607    0.00000000    0.00000000
     atom    2 type  1   force =     8.35261607    0.00000000    0.00000000
     The non-local contrib.  to forces
     atom    1 type  1   force =    -2.32848278    0.00000000    0.00000000
     atom    2 type  1   force =     2.32844951    0.00000000    0.00000000
     The ionic contribution  to forces
     atom    1 type  1   force =   -11.05860691   -0.00000000   -0.00000000
     atom    2 type  1   force =    11.05860691    0.00000000   -0.00000000
     The local contribution  to forces
     atom    1 type  1   force =     5.03448446    0.00000000   -0.00000000
     atom    2 type  1   force =    -5.03446680   -0.00000000   -0.00000000
     The core correction contribution to forces
     atom    1 type  1   force =     0.00000000    0.00000000    0.00000000
     atom    2 type  1   force =     0.00000000    0.00000000    0.00000000
     The Hubbard contrib.    to forces
     atom    1 type  1   force =     0.00000000    0.00000000    0.00000000
     atom    2 type  1   force =     0.00000000    0.00000000    0.00000000
     The SCF correction term to forces
     atom    1 type  1   force =    -0.00001962    0.00000000    0.00000000
     atom    2 type  1   force =     0.00001768    0.00000000   -0.00000000

     Total force =    11.812383     Total SCF correction =     0.000026


     Computing stress (Cartesian axis) and pressure

          total   stress  (Ry/bohr**3)                   (kbar)     P=   12.87
   0.00026290   0.00000000   0.00000000         38.67      0.00      0.00
   0.00000000  -0.00000018   0.00000000          0.00     -0.03      0.00
   0.00000000   0.00000000  -0.00000018          0.00      0.00     -0.03

     kinetic stress (kbar)     13.56      0.00      0.00
                                0.00     17.45      0.00
                                0.00      0.00     17.45

     local   stress (kbar)    -56.62      0.00     -0.00
                                0.00    -51.69     -0.00
                               -0.00     -0.00    -51.69

     nonloc. stress (kbar)     19.55      0.00      0.00
                                0.00     25.06      0.00
                                0.00      0.00     25.06

     hartree stress (kbar)     19.67      0.00      0.00
                                0.00     18.01     -0.00
                                0.00     -0.00     18.01

     exc-cor stress (kbar)     -4.41      0.00     -0.00
                                0.00     -4.49      0.00
                               -0.00      0.00     -4.49

     corecor stress (kbar)      0.00      0.00      0.00
                                0.00      0.00      0.00
                                0.00      0.00      0.00

     ewald   stress (kbar)     46.92      0.00     -0.00
                                0.00     -4.37     -0.00
                               -0.00     -0.00     -4.37

     hubbard stress (kbar)      0.00      0.00      0.00
                                0.00      0.00      0.00
                                0.00      0.00      0.00

     london  stress (kbar)      0.00      0.00      0.00
                                0.00      0.00      0.00
                                0.00      0.00      0.00

     DFT-D3  stress (kbar)      0.00      0.00      0.00
                                0.00      0.00      0.00
                                0.00      0.00      0.00

     XDM     stress (kbar)      0.00      0.00      0.00
                                0.00      0.00      0.00
                                0.00      0.00      0.00

     dft-nl  stress (kbar)      0.00      0.00      0.00
                                0.00      0.00      0.00
                                0.00      0.00      0.00

     TS-vdW  stress (kbar)      0.00      0.00      0.00
                                0.00      0.00      0.00
                                0.00      0.00      0.00



     Writing output data file SiSi16.save

     init_run     :      3.35s CPU      3.47s WALL (       1 calls)
     electrons    :     68.19s CPU     74.24s WALL (       1 calls)
     forces       :      0.40s CPU      0.40s WALL (       1 calls)
     stress       :      1.75s CPU      1.83s WALL (       1 calls)

     Called by init_run:
     wfcinit      :      1.74s CPU      1.76s WALL (       1 calls)
     wfcinit:atom :      0.04s CPU      0.04s WALL (       6 calls)
     wfcinit:wfcr :      1.54s CPU      1.55s WALL (       6 calls)
     potinit      :      0.54s CPU      0.58s WALL (       1 calls)

     Called by electrons:
     c_bands      :     54.16s CPU     57.73s WALL (      10 calls)
     sum_band     :      9.52s CPU      9.55s WALL (      10 calls)
     v_of_rho     :      3.82s CPU      3.87s WALL (      11 calls)
     v_h          :      0.38s CPU      0.39s WALL (      11 calls)
     v_xc         :      3.44s CPU      3.48s WALL (      11 calls)
     mix_rho      :      0.83s CPU      0.90s WALL (      10 calls)

     Called by c_bands:
     init_us_2    :      0.88s CPU      0.88s WALL (     138 calls)
     cegterg      :     53.44s CPU     53.56s WALL (      60 calls)

     Called by sum_band:

     Called by *egterg:
     h_psi        :     51.20s CPU     51.30s WALL (     335 calls)
     g_psi        :      0.24s CPU      0.24s WALL (     269 calls)
     cdiaghg      :      0.06s CPU      0.06s WALL (     329 calls)
     cegterg:over :      1.27s CPU      1.27s WALL (     269 calls)
     cegterg:upda :      1.08s CPU      1.08s WALL (     269 calls)
     cegterg:last :      0.40s CPU      0.40s WALL (      76 calls)

     Called by h_psi:
     h_psi:pot    :     50.92s CPU     51.03s WALL (     335 calls)
     h_psi:calbec :      0.51s CPU      0.51s WALL (     335 calls)
     vloc_psi     :     50.02s CPU     50.11s WALL (     335 calls)
     add_vuspsi   :      0.39s CPU      0.40s WALL (     335 calls)

     General routines
     calbec       :      0.57s CPU      0.57s WALL (     365 calls)
     fft          :      3.40s CPU      3.43s WALL (     128 calls)
     fftw         :     51.16s CPU     51.24s WALL (    3742 calls)

     Parallel routines
     fft_scatt_xy :      7.90s CPU      7.91s WALL (    3870 calls)
     fft_scatt_yz :      9.72s CPU      9.74s WALL (    3870 calls)

     PWSCF        :  1m14.10s CPU     1m20.89s WALL


   This run was terminated on:  21: 8: 5   1Oct2020            

=------------------------------------------------------------------------------=
   JOB DONE.
=------------------------------------------------------------------------------=
