
     Program PWSCF v.6.2 (svn rev. 14038) starts on  1Oct2020 at 21:34:30 

     This program is part of the open-source Quantum ESPRESSO suite
     for quantum simulation of materials; please cite
         "P. Giannozzi et al., J. Phys.:Condens. Matter 21 395502 (2009);
         "P. Giannozzi et al., J. Phys.:Condens. Matter 29 465901 (2017);
          URL http://www.quantum-espresso.org", 
     in publications or presentations arising from this work. More details at
     http://www.quantum-espresso.org/quote

     Parallel version (MPI), running on     8 processors

     MPI processes distributed on     1 nodes
     R & G space division:  proc/nbgrp/npool/nimage =       8
     Waiting for input...
     Reading input from standard input

     Current dimensions of program PWSCF are:
     Max number of different atomic species (ntypx) = 10
     Max number of k-points (npk) =  40000
     Max angular momentum in pseudopotentials (lmaxx) =  3

     Subspace diagonalization in iterative solution of the eigenvalue problem:
     a serial algorithm will be used


     Parallelization info
     --------------------
     sticks:   dense  smooth     PW     G-vecs:    dense   smooth      PW
     Min        2386    2386    623               248152   248152   33108
     Max        2387    2387    625               248157   248157   33111
     Sum       19089   19089   4989              1985227  1985227  264875



     bravais-lattice index     =            1
     lattice parameter (alat)  =      37.7945  a.u.
     unit-cell volume          =   53986.6767 (a.u.)^3
     number of atoms/cell      =            2
     number of atomic types    =            1
     number of electrons       =         8.00
     number of Kohn-Sham states=            8
     kinetic-energy cutoff     =      42.0000  Ry
     charge density cutoff     =     168.0000  Ry
     convergence threshold     =      1.0E-08
     mixing beta               =       0.3000
     number of iterations used =            8  plain     mixing
     Exchange-correlation      = SLA-PW-PBX-PBC ( 1  4  3  4 0 0)

     celldm(1)=  37.794523  celldm(2)=   0.000000  celldm(3)=   0.000000
     celldm(4)=   0.000000  celldm(5)=   0.000000  celldm(6)=   0.000000

     crystal axes: (cart. coord. in units of alat)
               a(1) = (   1.000000   0.000000   0.000000 )  
               a(2) = (   0.000000   1.000000   0.000000 )  
               a(3) = (   0.000000   0.000000   1.000000 )  

     reciprocal axes: (cart. coord. in units 2 pi/alat)
               b(1) = (  1.000000  0.000000  0.000000 )  
               b(2) = (  0.000000  1.000000  0.000000 )  
               b(3) = (  0.000000  0.000000  1.000000 )  


     PseudoPot. # 1 for Si read from file:
     ./Si.pbe-hgh.UPF
     MD5 check sum: 9a9f0f6e09139bfdb36b03ff6bc35900
     Pseudo is Norm-conserving, Zval =  4.0
     Generated in analytical, separable form
     Using radial grid of 1141 points,  3 beta functions with: 
                l(1) =   0
                l(2) =   0
                l(3) =   1

     atomic species   valence    mass     pseudopotential
        Si             4.00    28.08000     Si( 1.00)

      8 Sym. Ops. (no inversion) found


                                    s                        frac. trans.

      isym =  1     identity                                     

 cryst.   s( 1) = (     1          0          0      )
                  (     0          1          0      )
                  (     0          0          1      )

 cart.    s( 1) = (  1.0000000  0.0000000  0.0000000 )
                  (  0.0000000  1.0000000  0.0000000 )
                  (  0.0000000  0.0000000  1.0000000 )


      isym =  2     180 deg rotation - cart. axis [1,0,0]        

 cryst.   s( 2) = (     1          0          0      )
                  (     0         -1          0      )
                  (     0          0         -1      )

 cart.    s( 2) = (  1.0000000  0.0000000  0.0000000 )
                  (  0.0000000 -1.0000000  0.0000000 )
                  (  0.0000000  0.0000000 -1.0000000 )


      isym =  3      90 deg rotation - cart. axis [-1,0,0]       

 cryst.   s( 3) = (     1          0          0      )
                  (     0          0         -1      )
                  (     0          1          0      )

 cart.    s( 3) = (  1.0000000  0.0000000  0.0000000 )
                  (  0.0000000  0.0000000  1.0000000 )
                  (  0.0000000 -1.0000000  0.0000000 )


      isym =  4      90 deg rotation - cart. axis [1,0,0]        

 cryst.   s( 4) = (     1          0          0      )
                  (     0          0          1      )
                  (     0         -1          0      )

 cart.    s( 4) = (  1.0000000  0.0000000  0.0000000 )
                  (  0.0000000  0.0000000 -1.0000000 )
                  (  0.0000000  1.0000000  0.0000000 )


      isym =  5     inv. 180 deg rotation - cart. axis [0,0,1]   

 cryst.   s( 5) = (     1          0          0      )
                  (     0          1          0      )
                  (     0          0         -1      )

 cart.    s( 5) = (  1.0000000  0.0000000  0.0000000 )
                  (  0.0000000  1.0000000  0.0000000 )
                  (  0.0000000  0.0000000 -1.0000000 )


      isym =  6     inv. 180 deg rotation - cart. axis [0,1,0]   

 cryst.   s( 6) = (     1          0          0      )
                  (     0         -1          0      )
                  (     0          0          1      )

 cart.    s( 6) = (  1.0000000  0.0000000  0.0000000 )
                  (  0.0000000 -1.0000000  0.0000000 )
                  (  0.0000000  0.0000000  1.0000000 )


      isym =  7     inv. 180 deg rotation - cart. axis [0,1,1]   

 cryst.   s( 7) = (     1          0          0      )
                  (     0          0         -1      )
                  (     0         -1          0      )

 cart.    s( 7) = (  1.0000000  0.0000000  0.0000000 )
                  (  0.0000000  0.0000000 -1.0000000 )
                  (  0.0000000 -1.0000000  0.0000000 )


      isym =  8     inv. 180 deg rotation - cart. axis [0,1,-1]  

 cryst.   s( 8) = (     1          0          0      )
                  (     0          0          1      )
                  (     0          1          0      )

 cart.    s( 8) = (  1.0000000  0.0000000  0.0000000 )
                  (  0.0000000  0.0000000  1.0000000 )
                  (  0.0000000  1.0000000  0.0000000 )


     point group C_4v (4mm) 
     there are  5 classes
     the character table:

       E     2C4   C2    2s_v  2s_d 
A_1    1.00  1.00  1.00  1.00  1.00
A_2    1.00  1.00  1.00 -1.00 -1.00
B_1    1.00 -1.00  1.00  1.00 -1.00
B_2    1.00 -1.00  1.00 -1.00  1.00
E      2.00  0.00 -2.00  0.00  0.00

     the symmetry operations in each class and the name of the first element:

     E        1
          identity                                               
     2C4      3    4
           90 deg rotation - cart. axis [-1,0,0]                 
     C2       2
          180 deg rotation - cart. axis [1,0,0]                  
     2s_v     5    6
          inv. 180 deg rotation - cart. axis [0,0,1]             
     2s_d     7    8
          inv. 180 deg rotation - cart. axis [0,1,1]             

   Cartesian axes

     site n.     atom                  positions (alat units)
         1           Si  tau(   1) = (   0.0000000   0.0000000   0.0000000  )
         2           Si  tau(   2) = (   0.0895000   0.0000000   0.0000000  )

   Crystallographic axes

     site n.     atom                  positions (cryst. coord.)
         1           Si  tau(   1) = (  0.0000000  0.0000000  0.0000000  )
         2           Si  tau(   2) = (  0.0895000  0.0000000  0.0000000  )

     number of k points=     6  Marzari-Vanderbilt smearing, width (Ry)=  0.0500
                       cart. coord. in units 2pi/alat
        k(    1) = (   0.0000000   0.0000000   0.0000000), wk =   0.2500000
        k(    2) = (   0.0000000   0.0000000  -0.5000000), wk =   0.5000000
        k(    3) = (   0.0000000  -0.5000000  -0.5000000), wk =   0.2500000
        k(    4) = (  -0.5000000  -0.5000000  -0.5000000), wk =   0.2500000
        k(    5) = (  -0.5000000   0.0000000   0.0000000), wk =   0.2500000
        k(    6) = (  -0.5000000   0.5000000   0.0000000), wk =   0.5000000

                       cryst. coord.
        k(    1) = (   0.0000000   0.0000000   0.0000000), wk =   0.2500000
        k(    2) = (   0.0000000   0.0000000  -0.5000000), wk =   0.5000000
        k(    3) = (   0.0000000  -0.5000000  -0.5000000), wk =   0.2500000
        k(    4) = (  -0.5000000  -0.5000000  -0.5000000), wk =   0.2500000
        k(    5) = (  -0.5000000   0.0000000   0.0000000), wk =   0.2500000
        k(    6) = (  -0.5000000   0.5000000   0.0000000), wk =   0.5000000

     Dense  grid:  1985227 G-vectors     FFT dimensions: ( 160, 160, 160)

     Dynamical RAM for                 wfc:       3.79 MB

     Dynamical RAM for     wfc (w. buffer):      26.50 MB

     Dynamical RAM for           str. fact:       3.79 MB

     Dynamical RAM for           local pot:       0.00 MB

     Dynamical RAM for          nlocal pot:       4.73 MB

     Dynamical RAM for                qrad:       1.07 MB

     Dynamical RAM for          rho,v,vnew:      23.08 MB

     Dynamical RAM for               rhoin:       7.69 MB

     Dynamical RAM for            rho*nmix:      60.58 MB

     Dynamical RAM for           G-vectors:      16.09 MB

     Dynamical RAM for          h,s,v(r/c):       0.05 MB

     Dynamical RAM for          <psi|beta>:       0.00 MB

     Dynamical RAM for                 psi:      15.15 MB

     Dynamical RAM for                hpsi:      15.15 MB

     Dynamical RAM for      wfcinit/wfcrot:       7.57 MB

     Estimated static dynamical RAM per process >     170.65 MB

     Estimated max dynamical RAM per process >     200.99 MB

     Estimated total dynamical RAM >       1.57 GB

     Initial potential from superposition of free atoms
     Check: negative starting charge=   -0.000624

     starting charge    7.99888, renormalised to    8.00000

     negative rho (up, down):  6.242E-04 0.000E+00
     Starting wfc are    8 randomized atomic wfcs

     total cpu time spent up to now is        3.6 secs

     Self-consistent Calculation

     iteration #  1     ecut=    42.00 Ry     beta= 0.30
     Davidson diagonalization with overlap
     ethr =  1.00E-02,  avg # of iterations =  6.0

     negative rho (up, down):  3.789E-04 0.000E+00

     total cpu time spent up to now is       10.9 secs

     total energy              =     -15.15895712 Ry
     Harris-Foulkes estimate   =     -15.31996356 Ry
     estimated scf accuracy    <       0.40724467 Ry

     iteration #  2     ecut=    42.00 Ry     beta= 0.30
     Davidson diagonalization with overlap
     ethr =  5.09E-03,  avg # of iterations =  1.0

     negative rho (up, down):  2.090E-04 0.000E+00

     total cpu time spent up to now is       15.5 secs

     total energy              =     -15.19228770 Ry
     Harris-Foulkes estimate   =     -15.20506787 Ry
     estimated scf accuracy    <       0.02790888 Ry

     iteration #  3     ecut=    42.00 Ry     beta= 0.30
     Davidson diagonalization with overlap
     ethr =  3.49E-04,  avg # of iterations =  4.0

     negative rho (up, down):  6.478E-05 0.000E+00

     total cpu time spent up to now is       22.1 secs

     total energy              =     -15.20078946 Ry
     Harris-Foulkes estimate   =     -15.20358973 Ry
     estimated scf accuracy    <       0.00596833 Ry

     iteration #  4     ecut=    42.00 Ry     beta= 0.30
     Davidson diagonalization with overlap
     ethr =  7.46E-05,  avg # of iterations =  3.2

     negative rho (up, down):  6.499E-05 0.000E+00

     total cpu time spent up to now is       29.9 secs

     total energy              =     -15.20020666 Ry
     Harris-Foulkes estimate   =     -15.20634026 Ry
     estimated scf accuracy    <       0.01542703 Ry

     iteration #  5     ecut=    42.00 Ry     beta= 0.30
     Davidson diagonalization with overlap
     ethr =  7.46E-05,  avg # of iterations =  2.0

     negative rho (up, down):  6.057E-06 0.000E+00

     total cpu time spent up to now is       38.1 secs

     total energy              =     -15.20254216 Ry
     Harris-Foulkes estimate   =     -15.20255343 Ry
     estimated scf accuracy    <       0.00009138 Ry

     iteration #  6     ecut=    42.00 Ry     beta= 0.30
     Davidson diagonalization with overlap
     ethr =  1.14E-06,  avg # of iterations =  6.2

     negative rho (up, down):  3.726E-06 0.000E+00

     total cpu time spent up to now is       45.7 secs

     total energy              =     -15.20255988 Ry
     Harris-Foulkes estimate   =     -15.20256052 Ry
     estimated scf accuracy    <       0.00000566 Ry

     iteration #  7     ecut=    42.00 Ry     beta= 0.30
     Davidson diagonalization with overlap
     ethr =  7.08E-08,  avg # of iterations =  1.0

     negative rho (up, down):  2.937E-07 0.000E+00

     total cpu time spent up to now is       50.4 secs

     total energy              =     -15.20255966 Ry
     Harris-Foulkes estimate   =     -15.20256023 Ry
     estimated scf accuracy    <       0.00000354 Ry

     iteration #  8     ecut=    42.00 Ry     beta= 0.30
     Davidson diagonalization with overlap
     ethr =  4.42E-08,  avg # of iterations =  2.0

     negative rho (up, down):  1.194E-07 0.000E+00

     total cpu time spent up to now is       57.8 secs

     total energy              =     -15.20255942 Ry
     Harris-Foulkes estimate   =     -15.20256025 Ry
     estimated scf accuracy    <       0.00000188 Ry

     iteration #  9     ecut=    42.00 Ry     beta= 0.30
     Davidson diagonalization with overlap
     ethr =  2.35E-08,  avg # of iterations =  2.0

     total cpu time spent up to now is       62.7 secs

     total energy              =     -15.20255946 Ry
     Harris-Foulkes estimate   =     -15.20255961 Ry
     estimated scf accuracy    <       0.00000016 Ry

     iteration # 10     ecut=    42.00 Ry     beta= 0.30
     Davidson diagonalization with overlap
     ethr =  2.06E-09,  avg # of iterations =  3.0

     negative rho (up, down):  4.634E-08 0.000E+00

     total cpu time spent up to now is       68.8 secs

     total energy              =     -15.20255953 Ry
     Harris-Foulkes estimate   =     -15.20255958 Ry
     estimated scf accuracy    <       0.00000009 Ry

     iteration # 11     ecut=    42.00 Ry     beta= 0.30
     Davidson diagonalization with overlap
     ethr =  1.14E-09,  avg # of iterations =  2.0

     total cpu time spent up to now is       74.2 secs

     End of self-consistent calculation

          k = 0.0000 0.0000 0.0000 (248049 PWs)   bands (ev):

   -13.9440  -8.4040  -5.7352  -5.7352  -5.1905  -1.7250  -1.7250  -0.2306

     occupation numbers 
     1.0000   1.0000   0.8538   0.8538   0.2924   0.0000   0.0000   0.0000

          k = 0.0000 0.0000-0.5000 (247982 PWs)   bands (ev):

   -13.9440  -8.4040  -5.7352  -5.7352  -5.1905  -1.7250  -1.7250  -0.2176

     occupation numbers 
     1.0000   1.0000   0.8538   0.8538   0.2924   0.0000   0.0000   0.0000

          k = 0.0000-0.5000-0.5000 (248312 PWs)   bands (ev):

   -13.9440  -8.4040  -5.7352  -5.7352  -5.1905  -1.7250  -1.7250  -0.2068

     occupation numbers 
     1.0000   1.0000   0.8538   0.8538   0.2924   0.0000   0.0000   0.0000

          k =-0.5000-0.5000-0.5000 (248296 PWs)   bands (ev):

   -13.9440  -8.4040  -5.7352  -5.7352  -5.1905  -1.7250  -1.7250  -0.1995

     occupation numbers 
     1.0000   1.0000   0.8538   0.8538   0.2924   0.0000   0.0000   0.0000

          k =-0.5000 0.0000 0.0000 (247982 PWs)   bands (ev):

   -13.9440  -8.4040  -5.7352  -5.7352  -5.1905  -1.7250  -1.7250  -0.2195

     occupation numbers 
     1.0000   1.0000   0.8538   0.8538   0.2924   0.0000   0.0000   0.0000

          k =-0.5000 0.5000 0.0000 (248312 PWs)   bands (ev):

   -13.9440  -8.4040  -5.7352  -5.7352  -5.1905  -1.7250  -1.7250  -0.2088

     occupation numbers 
     1.0000   1.0000   0.8538   0.8538   0.2924   0.0000   0.0000   0.0000

     the Fermi energy is    -5.3060 ev

!    total energy              =     -15.20255955 Ry
     Harris-Foulkes estimate   =     -15.20255955 Ry
     estimated scf accuracy    <          2.4E-09 Ry

     The total energy is the sum of the following terms:

     one-electron contribution =     -31.60779994 Ry
     hartree contribution      =      16.21485318 Ry
     xc contribution           =      -4.45729946 Ry
     ewald contribution        =       4.66993868 Ry
     smearing contrib. (-TS)   =      -0.02225202 Ry

     convergence has been achieved in  11 iterations

     Forces acting on atoms (cartesian axes, Ry/au):

     atom    1 type  1   force =    -0.42487995    0.00000000    0.00000000
     atom    2 type  1   force =     0.42487995    0.00000000    0.00000000
     The non-local contrib.  to forces
     atom    1 type  1   force =    -0.74835653    0.00000000    0.00000000
     atom    2 type  1   force =     0.74835240    0.00000000    0.00000000
     The ionic contribution  to forces
     atom    1 type  1   force =    -2.78810322    0.00000000   -0.00000000
     atom    2 type  1   force =     2.78810322   -0.00000000   -0.00000000
     The local contribution  to forces
     atom    1 type  1   force =     3.11159534    0.00000000   -0.00000000
     atom    2 type  1   force =    -3.11158928    0.00000000   -0.00000000
     The core correction contribution to forces
     atom    1 type  1   force =     0.00000000    0.00000000    0.00000000
     atom    2 type  1   force =     0.00000000    0.00000000    0.00000000
     The Hubbard contrib.    to forces
     atom    1 type  1   force =     0.00000000    0.00000000    0.00000000
     atom    2 type  1   force =     0.00000000    0.00000000    0.00000000
     The SCF correction term to forces
     atom    1 type  1   force =    -0.00001568   -0.00000000   -0.00000000
     atom    2 type  1   force =     0.00001348   -0.00000000   -0.00000000

     Total force =     0.600871     Total SCF correction =     0.000021


     Computing stress (Cartesian axis) and pressure

          total   stress  (Ry/bohr**3)                   (kbar)     P=    1.30
   0.00002661   0.00000000   0.00000000          3.91      0.00      0.00
   0.00000000  -0.00000001   0.00000000          0.00     -0.00      0.00
   0.00000000   0.00000000  -0.00000001          0.00      0.00     -0.00

     kinetic stress (kbar)      9.54      0.00      0.00
                                0.00     11.78      0.00
                                0.00      0.00     11.78

     local   stress (kbar)    -58.19     -0.00      0.00
                               -0.00    -30.07     -0.00
                                0.00     -0.00    -30.07

     nonloc. stress (kbar)     15.90      0.00      0.00
                                0.00     13.80      0.00
                                0.00      0.00     13.80

     hartree stress (kbar)     18.89     -0.00     -0.00
                               -0.00     12.65      0.00
                               -0.00      0.00     12.65

     exc-cor stress (kbar)     -3.71      0.00      0.00
                                0.00     -3.78      0.00
                                0.00      0.00     -3.78

     corecor stress (kbar)      0.00      0.00      0.00
                                0.00      0.00      0.00
                                0.00      0.00      0.00

     ewald   stress (kbar)     21.49     -0.00     -0.00
                               -0.00     -4.38     -0.00
                               -0.00     -0.00     -4.38

     hubbard stress (kbar)      0.00      0.00      0.00
                                0.00      0.00      0.00
                                0.00      0.00      0.00

     london  stress (kbar)      0.00      0.00      0.00
                                0.00      0.00      0.00
                                0.00      0.00      0.00

     DFT-D3  stress (kbar)      0.00      0.00      0.00
                                0.00      0.00      0.00
                                0.00      0.00      0.00

     XDM     stress (kbar)      0.00      0.00      0.00
                                0.00      0.00      0.00
                                0.00      0.00      0.00

     dft-nl  stress (kbar)      0.00      0.00      0.00
                                0.00      0.00      0.00
                                0.00      0.00      0.00

     TS-vdW  stress (kbar)      0.00      0.00      0.00
                                0.00      0.00      0.00
                                0.00      0.00      0.00



     Writing output data file SiSi6.save

     init_run     :      3.34s CPU      3.47s WALL (       1 calls)
     electrons    :     63.20s CPU     70.81s WALL (       1 calls)
     forces       :      0.35s CPU      0.36s WALL (       1 calls)
     stress       :      1.75s CPU      1.84s WALL (       1 calls)

     Called by init_run:
     wfcinit      :      1.75s CPU      1.77s WALL (       1 calls)
     wfcinit:atom :      0.04s CPU      0.04s WALL (       6 calls)
     wfcinit:wfcr :      1.54s CPU      1.56s WALL (       6 calls)
     potinit      :      0.54s CPU      0.58s WALL (       1 calls)

     Called by electrons:
     c_bands      :     48.00s CPU     55.24s WALL (      11 calls)
     sum_band     :     10.19s CPU     10.28s WALL (      11 calls)
     v_of_rho     :      4.18s CPU      4.25s WALL (      12 calls)
     v_h          :      0.41s CPU      0.42s WALL (      12 calls)
     v_xc         :      3.77s CPU      3.83s WALL (      12 calls)
     mix_rho      :      0.97s CPU      1.05s WALL (      11 calls)

     Called by c_bands:
     init_us_2    :      0.99s CPU      1.00s WALL (     150 calls)
     cegterg      :     47.18s CPU     47.58s WALL (      66 calls)

     Called by sum_band:

     Called by *egterg:
     h_psi        :     45.72s CPU     46.08s WALL (     266 calls)
     g_psi        :      0.19s CPU      0.19s WALL (     194 calls)
     cdiaghg      :      0.05s CPU      0.05s WALL (     260 calls)
     cegterg:over :      0.98s CPU      0.99s WALL (     194 calls)
     cegterg:upda :      0.82s CPU      0.83s WALL (     194 calls)
     cegterg:last :      0.25s CPU      0.25s WALL (      66 calls)

     Called by h_psi:
     h_psi:pot    :     45.47s CPU     45.82s WALL (     266 calls)
     h_psi:calbec :      0.42s CPU      0.43s WALL (     266 calls)
     vloc_psi     :     44.73s CPU     45.06s WALL (     266 calls)
     add_vuspsi   :      0.33s CPU      0.33s WALL (     266 calls)

     General routines
     calbec       :      0.48s CPU      0.49s WALL (     296 calls)
     fft          :      3.64s CPU      3.69s WALL (     139 calls)
     fftw         :     46.94s CPU     47.28s WALL (    3436 calls)

     Parallel routines
     fft_scatt_xy :      7.31s CPU      7.36s WALL (    3575 calls)
     fft_scatt_yz :      9.11s CPU      9.19s WALL (    3575 calls)

     PWSCF        :  1m 9.08s CPU     1m17.44s WALL


   This run was terminated on:  21:35:48   1Oct2020            

=------------------------------------------------------------------------------=
   JOB DONE.
=------------------------------------------------------------------------------=
