
     Program PWSCF v.6.2 (svn rev. 14038) starts on  1Oct2020 at 21: 9: 0 

     This program is part of the open-source Quantum ESPRESSO suite
     for quantum simulation of materials; please cite
         "P. Giannozzi et al., J. Phys.:Condens. Matter 21 395502 (2009);
         "P. Giannozzi et al., J. Phys.:Condens. Matter 29 465901 (2017);
          URL http://www.quantum-espresso.org", 
     in publications or presentations arising from this work. More details at
     http://www.quantum-espresso.org/quote

     Parallel version (MPI), running on     8 processors

     MPI processes distributed on     1 nodes
     R & G space division:  proc/nbgrp/npool/nimage =       8
     Waiting for input...
     Reading input from standard input

     Current dimensions of program PWSCF are:
     Max number of different atomic species (ntypx) = 10
     Max number of k-points (npk) =  40000
     Max angular momentum in pseudopotentials (lmaxx) =  3

     Subspace diagonalization in iterative solution of the eigenvalue problem:
     a serial algorithm will be used


     Parallelization info
     --------------------
     sticks:   dense  smooth     PW     G-vecs:    dense   smooth      PW
     Min        2386    2386    623               248152   248152   33108
     Max        2387    2387    625               248157   248157   33111
     Sum       19089   19089   4989              1985227  1985227  264875



     bravais-lattice index     =            1
     lattice parameter (alat)  =      37.7945  a.u.
     unit-cell volume          =   53986.6767 (a.u.)^3
     number of atoms/cell      =            2
     number of atomic types    =            1
     number of electrons       =         8.00
     number of Kohn-Sham states=            8
     kinetic-energy cutoff     =      42.0000  Ry
     charge density cutoff     =     168.0000  Ry
     convergence threshold     =      1.0E-08
     mixing beta               =       0.3000
     number of iterations used =            8  plain     mixing
     Exchange-correlation      = SLA-PW-PBX-PBC ( 1  4  3  4 0 0)

     celldm(1)=  37.794523  celldm(2)=   0.000000  celldm(3)=   0.000000
     celldm(4)=   0.000000  celldm(5)=   0.000000  celldm(6)=   0.000000

     crystal axes: (cart. coord. in units of alat)
               a(1) = (   1.000000   0.000000   0.000000 )  
               a(2) = (   0.000000   1.000000   0.000000 )  
               a(3) = (   0.000000   0.000000   1.000000 )  

     reciprocal axes: (cart. coord. in units 2 pi/alat)
               b(1) = (  1.000000  0.000000  0.000000 )  
               b(2) = (  0.000000  1.000000  0.000000 )  
               b(3) = (  0.000000  0.000000  1.000000 )  


     PseudoPot. # 1 for Si read from file:
     ./Si.pbe-hgh.UPF
     MD5 check sum: 9a9f0f6e09139bfdb36b03ff6bc35900
     Pseudo is Norm-conserving, Zval =  4.0
     Generated in analytical, separable form
     Using radial grid of 1141 points,  3 beta functions with: 
                l(1) =   0
                l(2) =   0
                l(3) =   1

     atomic species   valence    mass     pseudopotential
        Si             4.00    28.08000     Si( 1.00)

      8 Sym. Ops. (no inversion) found


                                    s                        frac. trans.

      isym =  1     identity                                     

 cryst.   s( 1) = (     1          0          0      )
                  (     0          1          0      )
                  (     0          0          1      )

 cart.    s( 1) = (  1.0000000  0.0000000  0.0000000 )
                  (  0.0000000  1.0000000  0.0000000 )
                  (  0.0000000  0.0000000  1.0000000 )


      isym =  2     180 deg rotation - cart. axis [1,0,0]        

 cryst.   s( 2) = (     1          0          0      )
                  (     0         -1          0      )
                  (     0          0         -1      )

 cart.    s( 2) = (  1.0000000  0.0000000  0.0000000 )
                  (  0.0000000 -1.0000000  0.0000000 )
                  (  0.0000000  0.0000000 -1.0000000 )


      isym =  3      90 deg rotation - cart. axis [-1,0,0]       

 cryst.   s( 3) = (     1          0          0      )
                  (     0          0         -1      )
                  (     0          1          0      )

 cart.    s( 3) = (  1.0000000  0.0000000  0.0000000 )
                  (  0.0000000  0.0000000  1.0000000 )
                  (  0.0000000 -1.0000000  0.0000000 )


      isym =  4      90 deg rotation - cart. axis [1,0,0]        

 cryst.   s( 4) = (     1          0          0      )
                  (     0          0          1      )
                  (     0         -1          0      )

 cart.    s( 4) = (  1.0000000  0.0000000  0.0000000 )
                  (  0.0000000  0.0000000 -1.0000000 )
                  (  0.0000000  1.0000000  0.0000000 )


      isym =  5     inv. 180 deg rotation - cart. axis [0,0,1]   

 cryst.   s( 5) = (     1          0          0      )
                  (     0          1          0      )
                  (     0          0         -1      )

 cart.    s( 5) = (  1.0000000  0.0000000  0.0000000 )
                  (  0.0000000  1.0000000  0.0000000 )
                  (  0.0000000  0.0000000 -1.0000000 )


      isym =  6     inv. 180 deg rotation - cart. axis [0,1,0]   

 cryst.   s( 6) = (     1          0          0      )
                  (     0         -1          0      )
                  (     0          0          1      )

 cart.    s( 6) = (  1.0000000  0.0000000  0.0000000 )
                  (  0.0000000 -1.0000000  0.0000000 )
                  (  0.0000000  0.0000000  1.0000000 )


      isym =  7     inv. 180 deg rotation - cart. axis [0,1,1]   

 cryst.   s( 7) = (     1          0          0      )
                  (     0          0         -1      )
                  (     0         -1          0      )

 cart.    s( 7) = (  1.0000000  0.0000000  0.0000000 )
                  (  0.0000000  0.0000000 -1.0000000 )
                  (  0.0000000 -1.0000000  0.0000000 )


      isym =  8     inv. 180 deg rotation - cart. axis [0,1,-1]  

 cryst.   s( 8) = (     1          0          0      )
                  (     0          0          1      )
                  (     0          1          0      )

 cart.    s( 8) = (  1.0000000  0.0000000  0.0000000 )
                  (  0.0000000  0.0000000  1.0000000 )
                  (  0.0000000  1.0000000  0.0000000 )


     point group C_4v (4mm) 
     there are  5 classes
     the character table:

       E     2C4   C2    2s_v  2s_d 
A_1    1.00  1.00  1.00  1.00  1.00
A_2    1.00  1.00  1.00 -1.00 -1.00
B_1    1.00 -1.00  1.00  1.00 -1.00
B_2    1.00 -1.00  1.00 -1.00  1.00
E      2.00  0.00 -2.00  0.00  0.00

     the symmetry operations in each class and the name of the first element:

     E        1
          identity                                               
     2C4      3    4
           90 deg rotation - cart. axis [-1,0,0]                 
     C2       2
          180 deg rotation - cart. axis [1,0,0]                  
     2s_v     5    6
          inv. 180 deg rotation - cart. axis [0,0,1]             
     2s_d     7    8
          inv. 180 deg rotation - cart. axis [0,1,1]             

   Cartesian axes

     site n.     atom                  positions (alat units)
         1           Si  tau(   1) = (   0.0000000   0.0000000   0.0000000  )
         2           Si  tau(   2) = (   0.1190000   0.0000000   0.0000000  )

   Crystallographic axes

     site n.     atom                  positions (cryst. coord.)
         1           Si  tau(   1) = (  0.0000000  0.0000000  0.0000000  )
         2           Si  tau(   2) = (  0.1190000  0.0000000  0.0000000  )

     number of k points=     6  Marzari-Vanderbilt smearing, width (Ry)=  0.0500
                       cart. coord. in units 2pi/alat
        k(    1) = (   0.0000000   0.0000000   0.0000000), wk =   0.2500000
        k(    2) = (   0.0000000   0.0000000  -0.5000000), wk =   0.5000000
        k(    3) = (   0.0000000  -0.5000000  -0.5000000), wk =   0.2500000
        k(    4) = (  -0.5000000  -0.5000000  -0.5000000), wk =   0.2500000
        k(    5) = (  -0.5000000   0.0000000   0.0000000), wk =   0.2500000
        k(    6) = (  -0.5000000   0.5000000   0.0000000), wk =   0.5000000

                       cryst. coord.
        k(    1) = (   0.0000000   0.0000000   0.0000000), wk =   0.2500000
        k(    2) = (   0.0000000   0.0000000  -0.5000000), wk =   0.5000000
        k(    3) = (   0.0000000  -0.5000000  -0.5000000), wk =   0.2500000
        k(    4) = (  -0.5000000  -0.5000000  -0.5000000), wk =   0.2500000
        k(    5) = (  -0.5000000   0.0000000   0.0000000), wk =   0.2500000
        k(    6) = (  -0.5000000   0.5000000   0.0000000), wk =   0.5000000

     Dense  grid:  1985227 G-vectors     FFT dimensions: ( 160, 160, 160)

     Dynamical RAM for                 wfc:       3.79 MB

     Dynamical RAM for     wfc (w. buffer):      26.50 MB

     Dynamical RAM for           str. fact:       3.79 MB

     Dynamical RAM for           local pot:       0.00 MB

     Dynamical RAM for          nlocal pot:       4.73 MB

     Dynamical RAM for                qrad:       1.07 MB

     Dynamical RAM for          rho,v,vnew:      23.08 MB

     Dynamical RAM for               rhoin:       7.69 MB

     Dynamical RAM for            rho*nmix:      60.58 MB

     Dynamical RAM for           G-vectors:      16.09 MB

     Dynamical RAM for          h,s,v(r/c):       0.05 MB

     Dynamical RAM for          <psi|beta>:       0.00 MB

     Dynamical RAM for                 psi:      15.15 MB

     Dynamical RAM for                hpsi:      15.15 MB

     Dynamical RAM for      wfcinit/wfcrot:       7.57 MB

     Estimated static dynamical RAM per process >     170.65 MB

     Estimated max dynamical RAM per process >     200.99 MB

     Estimated total dynamical RAM >       1.57 GB

     Initial potential from superposition of free atoms
     Check: negative starting charge=   -0.000626

     starting charge    7.99888, renormalised to    8.00000

     negative rho (up, down):  6.258E-04 0.000E+00
     Starting wfc are    8 randomized atomic wfcs

     total cpu time spent up to now is        3.6 secs

     Self-consistent Calculation

     iteration #  1     ecut=    42.00 Ry     beta= 0.30
     Davidson diagonalization with overlap
     ethr =  1.00E-02,  avg # of iterations =  3.0

     Threshold (ethr) on eigenvalues was too large:
     Diagonalizing with lowered threshold

     Davidson diagonalization with overlap
     ethr =  7.64E-04,  avg # of iterations =  1.0

     negative rho (up, down):  4.057E-04 0.000E+00

     total cpu time spent up to now is       13.8 secs

     total energy              =     -15.32616802 Ry
     Harris-Foulkes estimate   =     -15.34235420 Ry
     estimated scf accuracy    <       0.05862870 Ry

     iteration #  2     ecut=    42.00 Ry     beta= 0.30
     Davidson diagonalization with overlap
     ethr =  7.33E-04,  avg # of iterations =  1.0

     negative rho (up, down):  1.213E-04 0.000E+00

     total cpu time spent up to now is       18.5 secs

     total energy              =     -15.31957642 Ry
     Harris-Foulkes estimate   =     -15.32794650 Ry
     estimated scf accuracy    <       0.01823357 Ry

     iteration #  3     ecut=    42.00 Ry     beta= 0.30
     Davidson diagonalization with overlap
     ethr =  2.28E-04,  avg # of iterations =  3.0

     negative rho (up, down):  9.628E-05 0.000E+00

     total cpu time spent up to now is       24.4 secs

     total energy              =     -15.32283815 Ry
     Harris-Foulkes estimate   =     -15.32354691 Ry
     estimated scf accuracy    <       0.00130425 Ry

     iteration #  4     ecut=    42.00 Ry     beta= 0.30
     Davidson diagonalization with overlap
     ethr =  1.63E-05,  avg # of iterations =  4.0

     negative rho (up, down):  2.456E-05 0.000E+00

     total cpu time spent up to now is       31.2 secs

     total energy              =     -15.32324709 Ry
     Harris-Foulkes estimate   =     -15.32340095 Ry
     estimated scf accuracy    <       0.00069498 Ry

     iteration #  5     ecut=    42.00 Ry     beta= 0.30
     Davidson diagonalization with overlap
     ethr =  8.69E-06,  avg # of iterations =  1.0

     negative rho (up, down):  7.676E-06 0.000E+00

     total cpu time spent up to now is       35.8 secs

     total energy              =     -15.32316811 Ry
     Harris-Foulkes estimate   =     -15.32327135 Ry
     estimated scf accuracy    <       0.00022036 Ry

     iteration #  6     ecut=    42.00 Ry     beta= 0.30
     Davidson diagonalization with overlap
     ethr =  2.75E-06,  avg # of iterations =  2.8

     negative rho (up, down):  3.262E-06 0.000E+00

     total cpu time spent up to now is       42.6 secs

     total energy              =     -15.32319403 Ry
     Harris-Foulkes estimate   =     -15.32320122 Ry
     estimated scf accuracy    <       0.00001549 Ry

     iteration #  7     ecut=    42.00 Ry     beta= 0.30
     Davidson diagonalization with overlap
     ethr =  1.94E-07,  avg # of iterations =  2.0

     negative rho (up, down):  9.998E-07 0.000E+00

     total cpu time spent up to now is       48.4 secs

     total energy              =     -15.32319949 Ry
     Harris-Foulkes estimate   =     -15.32319885 Ry
     estimated scf accuracy    <       0.00000487 Ry

     iteration #  8     ecut=    42.00 Ry     beta= 0.30
     Davidson diagonalization with overlap
     ethr =  6.09E-08,  avg # of iterations =  1.0

     negative rho (up, down):  3.425E-07 0.000E+00

     total cpu time spent up to now is       53.1 secs

     total energy              =     -15.32319653 Ry
     Harris-Foulkes estimate   =     -15.32319983 Ry
     estimated scf accuracy    <       0.00000676 Ry

     iteration #  9     ecut=    42.00 Ry     beta= 0.30
     Davidson diagonalization with overlap
     ethr =  6.09E-08,  avg # of iterations =  2.0

     negative rho (up, down):  2.168E-07 0.000E+00

     total cpu time spent up to now is       58.6 secs

     total energy              =     -15.32319758 Ry
     Harris-Foulkes estimate   =     -15.32319760 Ry
     estimated scf accuracy    <       0.00000005 Ry

     iteration # 10     ecut=    42.00 Ry     beta= 0.30
     Davidson diagonalization with overlap
     ethr =  5.73E-10,  avg # of iterations =  2.0

     negative rho (up, down):  1.739E-07 0.000E+00

     total cpu time spent up to now is       64.1 secs

     total energy              =     -15.32319760 Ry
     Harris-Foulkes estimate   =     -15.32319760 Ry
     estimated scf accuracy    <       0.00000002 Ry

     iteration # 11     ecut=    42.00 Ry     beta= 0.30
     Davidson diagonalization with overlap
     ethr =  2.10E-10,  avg # of iterations =  2.0

     negative rho (up, down):  4.567E-08 0.000E+00

     total cpu time spent up to now is       69.2 secs

     total energy              =     -15.32319760 Ry
     Harris-Foulkes estimate   =     -15.32319760 Ry
     estimated scf accuracy    <       0.00000002 Ry

     iteration # 12     ecut=    42.00 Ry     beta= 0.30
     Davidson diagonalization with overlap
     ethr =  2.10E-10,  avg # of iterations =  1.0

     total cpu time spent up to now is       73.7 secs

     End of self-consistent calculation

          k = 0.0000 0.0000 0.0000 (248049 PWs)   bands (ev):

   -12.4152  -9.2689  -5.1962  -5.0200  -5.0200  -2.7524  -2.7524  -0.3649

     occupation numbers 
     1.0000   1.0000   0.7924   0.6038   0.6038   0.0000   0.0000   0.0000

          k = 0.0000 0.0000-0.5000 (247982 PWs)   bands (ev):

   -12.4152  -9.2689  -5.1962  -5.0200  -5.0200  -2.7524  -2.7524  -0.3643

     occupation numbers 
     1.0000   1.0000   0.7924   0.6038   0.6038   0.0000   0.0000   0.0000

          k = 0.0000-0.5000-0.5000 (248312 PWs)   bands (ev):

   -12.4152  -9.2689  -5.1962  -5.0200  -5.0200  -2.7524  -2.7524  -0.3639

     occupation numbers 
     1.0000   1.0000   0.7924   0.6038   0.6038   0.0000   0.0000   0.0000

          k =-0.5000-0.5000-0.5000 (248296 PWs)   bands (ev):

   -12.4152  -9.2689  -5.1962  -5.0200  -5.0200  -2.7524  -2.7524  -0.3725

     occupation numbers 
     1.0000   1.0000   0.7924   0.6038   0.6038   0.0000   0.0000   0.0000

          k =-0.5000 0.0000 0.0000 (247982 PWs)   bands (ev):

   -12.4152  -9.2689  -5.1962  -5.0200  -5.0200  -2.7524  -2.7524  -0.3743

     occupation numbers 
     1.0000   1.0000   0.7924   0.6038   0.6038   0.0000   0.0000   0.0000

          k =-0.5000 0.5000 0.0000 (248312 PWs)   bands (ev):

   -12.4152  -9.2689  -5.1962  -5.0200  -5.0200  -2.7524  -2.7524  -0.3734

     occupation numbers 
     1.0000   1.0000   0.7924   0.6038   0.6038   0.0000   0.0000   0.0000

     the Fermi energy is    -4.8309 ev

!    total energy              =     -15.32319761 Ry
     Harris-Foulkes estimate   =     -15.32319760 Ry
     estimated scf accuracy    <          3.7E-09 Ry

     The total energy is the sum of the following terms:

     one-electron contribution =     -27.60348538 Ry
     hartree contribution      =      14.16896370 Ry
     xc contribution           =      -4.18963935 Ry
     ewald contribution        =       2.33604232 Ry
     smearing contrib. (-TS)   =      -0.03507891 Ry

     convergence has been achieved in  12 iterations

     Forces acting on atoms (cartesian axes, Ry/au):

     atom    1 type  1   force =     0.05183047    0.00000000    0.00000000
     atom    2 type  1   force =    -0.05183047    0.00000000    0.00000000
     The non-local contrib.  to forces
     atom    1 type  1   force =     0.10036246    0.00000000    0.00000000
     atom    2 type  1   force =    -0.10036386    0.00000000    0.00000000
     The ionic contribution  to forces
     atom    1 type  1   force =    -1.57033213    0.00000000   -0.00000000
     atom    2 type  1   force =     1.57033213   -0.00000000   -0.00000000
     The local contribution  to forces
     atom    1 type  1   force =     1.52175923   -0.00000000   -0.00000000
     atom    2 type  1   force =    -1.52175918    0.00000000   -0.00000000
     The core correction contribution to forces
     atom    1 type  1   force =     0.00000000    0.00000000    0.00000000
     atom    2 type  1   force =     0.00000000    0.00000000    0.00000000
     The Hubbard contrib.    to forces
     atom    1 type  1   force =     0.00000000    0.00000000    0.00000000
     atom    2 type  1   force =     0.00000000    0.00000000    0.00000000
     The SCF correction term to forces
     atom    1 type  1   force =     0.00004048   -0.00000000   -0.00000000
     atom    2 type  1   force =    -0.00004000    0.00000000    0.00000000

     Total force =     0.073299     Total SCF correction =     0.000057


     Computing stress (Cartesian axis) and pressure

          total   stress  (Ry/bohr**3)                   (kbar)     P=   -0.21
  -0.00000432   0.00000000   0.00000000         -0.64      0.00      0.00
   0.00000000  -0.00000000   0.00000000          0.00     -0.00      0.00
   0.00000000   0.00000000  -0.00000000          0.00      0.00     -0.00

     kinetic stress (kbar)      9.89      0.00      0.00
                                0.00      9.92      0.00
                                0.00      0.00      9.92

     local   stress (kbar)    -55.21      0.00      0.00
                                0.00    -24.45      0.00
                                0.00      0.00    -24.45

     nonloc. stress (kbar)     14.07      0.00      0.00
                                0.00     12.65      0.00
                                0.00      0.00     12.65

     hartree stress (kbar)     18.93     -0.00     -0.00
                               -0.00      9.84     -0.00
                               -0.00     -0.00      9.84

     exc-cor stress (kbar)     -3.47      0.00      0.00
                                0.00     -3.56      0.00
                                0.00      0.00     -3.56

     corecor stress (kbar)      0.00      0.00      0.00
                                0.00      0.00      0.00
                                0.00      0.00      0.00

     ewald   stress (kbar)     15.16      0.00     -0.00
                                0.00     -4.40     -0.00
                               -0.00     -0.00     -4.40

     hubbard stress (kbar)      0.00      0.00      0.00
                                0.00      0.00      0.00
                                0.00      0.00      0.00

     london  stress (kbar)      0.00      0.00      0.00
                                0.00      0.00      0.00
                                0.00      0.00      0.00

     DFT-D3  stress (kbar)      0.00      0.00      0.00
                                0.00      0.00      0.00
                                0.00      0.00      0.00

     XDM     stress (kbar)      0.00      0.00      0.00
                                0.00      0.00      0.00
                                0.00      0.00      0.00

     dft-nl  stress (kbar)      0.00      0.00      0.00
                                0.00      0.00      0.00
                                0.00      0.00      0.00

     TS-vdW  stress (kbar)      0.00      0.00      0.00
                                0.00      0.00      0.00
                                0.00      0.00      0.00



     Writing output data file SiSi14.save

     init_run     :      3.38s CPU      3.51s WALL (       1 calls)
     electrons    :     68.41s CPU     70.28s WALL (       1 calls)
     forces       :      0.35s CPU      0.35s WALL (       1 calls)
     stress       :      1.82s CPU      1.90s WALL (       1 calls)

     Called by init_run:
     wfcinit      :      1.79s CPU      1.81s WALL (       1 calls)
     wfcinit:atom :      0.04s CPU      0.04s WALL (       6 calls)
     wfcinit:wfcr :      1.58s CPU      1.60s WALL (       6 calls)
     potinit      :      0.53s CPU      0.57s WALL (       1 calls)

     Called by electrons:
     c_bands      :     50.51s CPU     52.08s WALL (      13 calls)
     sum_band     :     12.33s CPU     12.39s WALL (      13 calls)
     v_of_rho     :      4.58s CPU      4.62s WALL (      13 calls)
     v_h          :      0.44s CPU      0.45s WALL (      13 calls)
     v_xc         :      4.14s CPU      4.17s WALL (      13 calls)
     mix_rho      :      1.11s CPU      1.20s WALL (      13 calls)

     Called by c_bands:
     init_us_2    :      1.14s CPU      1.15s WALL (     174 calls)
     cegterg      :     49.56s CPU     49.69s WALL (      78 calls)

     Called by sum_band:

     Called by *egterg:
     h_psi        :     48.45s CPU     48.56s WALL (     239 calls)
     g_psi        :      0.19s CPU      0.19s WALL (     155 calls)
     cdiaghg      :      0.04s CPU      0.04s WALL (     227 calls)
     cegterg:over :      0.77s CPU      0.77s WALL (     155 calls)
     cegterg:upda :      0.60s CPU      0.60s WALL (     155 calls)
     cegterg:last :      0.27s CPU      0.27s WALL (      78 calls)

     Called by h_psi:
     h_psi:pot    :     48.18s CPU     48.30s WALL (     239 calls)
     h_psi:calbec :      0.44s CPU      0.44s WALL (     239 calls)
     vloc_psi     :     47.43s CPU     47.53s WALL (     239 calls)
     add_vuspsi   :      0.31s CPU      0.32s WALL (     239 calls)

     General routines
     calbec       :      0.52s CPU      0.52s WALL (     269 calls)
     fft          :      3.97s CPU      4.01s WALL (     152 calls)
     fftw         :     51.01s CPU     51.12s WALL (    3708 calls)

     Parallel routines
     fft_scatt_xy :      7.95s CPU      7.97s WALL (    3860 calls)
     fft_scatt_yz :     10.64s CPU     10.68s WALL (    3860 calls)

     PWSCF        :  1m14.36s CPU     1m16.90s WALL


   This run was terminated on:  21:10:16   1Oct2020            

=------------------------------------------------------------------------------=
   JOB DONE.
=------------------------------------------------------------------------------=
