
     Program PWSCF v.6.2 (svn rev. 14038) starts on  1Oct2020 at 21: 4:28 

     This program is part of the open-source Quantum ESPRESSO suite
     for quantum simulation of materials; please cite
         "P. Giannozzi et al., J. Phys.:Condens. Matter 21 395502 (2009);
         "P. Giannozzi et al., J. Phys.:Condens. Matter 29 465901 (2017);
          URL http://www.quantum-espresso.org", 
     in publications or presentations arising from this work. More details at
     http://www.quantum-espresso.org/quote

     Parallel version (MPI), running on     8 processors

     MPI processes distributed on     1 nodes
     R & G space division:  proc/nbgrp/npool/nimage =       8
     Waiting for input...
     Reading input from standard input

     Current dimensions of program PWSCF are:
     Max number of different atomic species (ntypx) = 10
     Max number of k-points (npk) =  40000
     Max angular momentum in pseudopotentials (lmaxx) =  3

     Subspace diagonalization in iterative solution of the eigenvalue problem:
     a serial algorithm will be used


     Parallelization info
     --------------------
     sticks:   dense  smooth     PW     G-vecs:    dense   smooth      PW
     Min        2386    2386    623               248152   248152   33108
     Max        2387    2387    625               248157   248157   33111
     Sum       19089   19089   4989              1985227  1985227  264875



     bravais-lattice index     =            1
     lattice parameter (alat)  =      37.7945  a.u.
     unit-cell volume          =   53986.6767 (a.u.)^3
     number of atoms/cell      =            2
     number of atomic types    =            1
     number of electrons       =         8.00
     number of Kohn-Sham states=            8
     kinetic-energy cutoff     =      42.0000  Ry
     charge density cutoff     =     168.0000  Ry
     convergence threshold     =      1.0E-08
     mixing beta               =       0.3000
     number of iterations used =            8  plain     mixing
     Exchange-correlation      = SLA-PW-PBX-PBC ( 1  4  3  4 0 0)

     celldm(1)=  37.794523  celldm(2)=   0.000000  celldm(3)=   0.000000
     celldm(4)=   0.000000  celldm(5)=   0.000000  celldm(6)=   0.000000

     crystal axes: (cart. coord. in units of alat)
               a(1) = (   1.000000   0.000000   0.000000 )  
               a(2) = (   0.000000   1.000000   0.000000 )  
               a(3) = (   0.000000   0.000000   1.000000 )  

     reciprocal axes: (cart. coord. in units 2 pi/alat)
               b(1) = (  1.000000  0.000000  0.000000 )  
               b(2) = (  0.000000  1.000000  0.000000 )  
               b(3) = (  0.000000  0.000000  1.000000 )  


     PseudoPot. # 1 for Si read from file:
     ./Si.pbe-hgh.UPF
     MD5 check sum: 9a9f0f6e09139bfdb36b03ff6bc35900
     Pseudo is Norm-conserving, Zval =  4.0
     Generated in analytical, separable form
     Using radial grid of 1141 points,  3 beta functions with: 
                l(1) =   0
                l(2) =   0
                l(3) =   1

     atomic species   valence    mass     pseudopotential
        Si             4.00    28.08000     Si( 1.00)

      8 Sym. Ops. (no inversion) found


                                    s                        frac. trans.

      isym =  1     identity                                     

 cryst.   s( 1) = (     1          0          0      )
                  (     0          1          0      )
                  (     0          0          1      )

 cart.    s( 1) = (  1.0000000  0.0000000  0.0000000 )
                  (  0.0000000  1.0000000  0.0000000 )
                  (  0.0000000  0.0000000  1.0000000 )


      isym =  2     180 deg rotation - cart. axis [1,0,0]        

 cryst.   s( 2) = (     1          0          0      )
                  (     0         -1          0      )
                  (     0          0         -1      )

 cart.    s( 2) = (  1.0000000  0.0000000  0.0000000 )
                  (  0.0000000 -1.0000000  0.0000000 )
                  (  0.0000000  0.0000000 -1.0000000 )


      isym =  3      90 deg rotation - cart. axis [-1,0,0]       

 cryst.   s( 3) = (     1          0          0      )
                  (     0          0         -1      )
                  (     0          1          0      )

 cart.    s( 3) = (  1.0000000  0.0000000  0.0000000 )
                  (  0.0000000  0.0000000  1.0000000 )
                  (  0.0000000 -1.0000000  0.0000000 )


      isym =  4      90 deg rotation - cart. axis [1,0,0]        

 cryst.   s( 4) = (     1          0          0      )
                  (     0          0          1      )
                  (     0         -1          0      )

 cart.    s( 4) = (  1.0000000  0.0000000  0.0000000 )
                  (  0.0000000  0.0000000 -1.0000000 )
                  (  0.0000000  1.0000000  0.0000000 )


      isym =  5     inv. 180 deg rotation - cart. axis [0,0,1]   

 cryst.   s( 5) = (     1          0          0      )
                  (     0          1          0      )
                  (     0          0         -1      )

 cart.    s( 5) = (  1.0000000  0.0000000  0.0000000 )
                  (  0.0000000  1.0000000  0.0000000 )
                  (  0.0000000  0.0000000 -1.0000000 )


      isym =  6     inv. 180 deg rotation - cart. axis [0,1,0]   

 cryst.   s( 6) = (     1          0          0      )
                  (     0         -1          0      )
                  (     0          0          1      )

 cart.    s( 6) = (  1.0000000  0.0000000  0.0000000 )
                  (  0.0000000 -1.0000000  0.0000000 )
                  (  0.0000000  0.0000000  1.0000000 )


      isym =  7     inv. 180 deg rotation - cart. axis [0,1,1]   

 cryst.   s( 7) = (     1          0          0      )
                  (     0          0         -1      )
                  (     0         -1          0      )

 cart.    s( 7) = (  1.0000000  0.0000000  0.0000000 )
                  (  0.0000000  0.0000000 -1.0000000 )
                  (  0.0000000 -1.0000000  0.0000000 )


      isym =  8     inv. 180 deg rotation - cart. axis [0,1,-1]  

 cryst.   s( 8) = (     1          0          0      )
                  (     0          0          1      )
                  (     0          1          0      )

 cart.    s( 8) = (  1.0000000  0.0000000  0.0000000 )
                  (  0.0000000  0.0000000  1.0000000 )
                  (  0.0000000  1.0000000  0.0000000 )


     point group C_4v (4mm) 
     there are  5 classes
     the character table:

       E     2C4   C2    2s_v  2s_d 
A_1    1.00  1.00  1.00  1.00  1.00
A_2    1.00  1.00  1.00 -1.00 -1.00
B_1    1.00 -1.00  1.00  1.00 -1.00
B_2    1.00 -1.00  1.00 -1.00  1.00
E      2.00  0.00 -2.00  0.00  0.00

     the symmetry operations in each class and the name of the first element:

     E        1
          identity                                               
     2C4      3    4
           90 deg rotation - cart. axis [-1,0,0]                 
     C2       2
          180 deg rotation - cart. axis [1,0,0]                  
     2s_v     5    6
          inv. 180 deg rotation - cart. axis [0,0,1]             
     2s_d     7    8
          inv. 180 deg rotation - cart. axis [0,1,1]             

   Cartesian axes

     site n.     atom                  positions (alat units)
         1           Si  tau(   1) = (   0.0000000   0.0000000   0.0000000  )
         2           Si  tau(   2) = (   0.0840000   0.0000000   0.0000000  )

   Crystallographic axes

     site n.     atom                  positions (cryst. coord.)
         1           Si  tau(   1) = (  0.0000000  0.0000000  0.0000000  )
         2           Si  tau(   2) = (  0.0840000  0.0000000  0.0000000  )

     number of k points=     6  Marzari-Vanderbilt smearing, width (Ry)=  0.0500
                       cart. coord. in units 2pi/alat
        k(    1) = (   0.0000000   0.0000000   0.0000000), wk =   0.2500000
        k(    2) = (   0.0000000   0.0000000  -0.5000000), wk =   0.5000000
        k(    3) = (   0.0000000  -0.5000000  -0.5000000), wk =   0.2500000
        k(    4) = (  -0.5000000  -0.5000000  -0.5000000), wk =   0.2500000
        k(    5) = (  -0.5000000   0.0000000   0.0000000), wk =   0.2500000
        k(    6) = (  -0.5000000   0.5000000   0.0000000), wk =   0.5000000

                       cryst. coord.
        k(    1) = (   0.0000000   0.0000000   0.0000000), wk =   0.2500000
        k(    2) = (   0.0000000   0.0000000  -0.5000000), wk =   0.5000000
        k(    3) = (   0.0000000  -0.5000000  -0.5000000), wk =   0.2500000
        k(    4) = (  -0.5000000  -0.5000000  -0.5000000), wk =   0.2500000
        k(    5) = (  -0.5000000   0.0000000   0.0000000), wk =   0.2500000
        k(    6) = (  -0.5000000   0.5000000   0.0000000), wk =   0.5000000

     Dense  grid:  1985227 G-vectors     FFT dimensions: ( 160, 160, 160)

     Dynamical RAM for                 wfc:       3.79 MB

     Dynamical RAM for     wfc (w. buffer):      26.50 MB

     Dynamical RAM for           str. fact:       3.79 MB

     Dynamical RAM for           local pot:       0.00 MB

     Dynamical RAM for          nlocal pot:       4.73 MB

     Dynamical RAM for                qrad:       1.07 MB

     Dynamical RAM for          rho,v,vnew:      23.08 MB

     Dynamical RAM for               rhoin:       7.69 MB

     Dynamical RAM for            rho*nmix:      60.58 MB

     Dynamical RAM for           G-vectors:      16.09 MB

     Dynamical RAM for          h,s,v(r/c):       0.05 MB

     Dynamical RAM for          <psi|beta>:       0.00 MB

     Dynamical RAM for                 psi:      15.15 MB

     Dynamical RAM for                hpsi:      15.15 MB

     Dynamical RAM for      wfcinit/wfcrot:       7.57 MB

     Estimated static dynamical RAM per process >     170.65 MB

     Estimated max dynamical RAM per process >     200.99 MB

     Estimated total dynamical RAM >       1.57 GB

     Initial potential from superposition of free atoms
     Check: negative starting charge=   -0.000627

     starting charge    7.99888, renormalised to    8.00000

     negative rho (up, down):  6.269E-04 0.000E+00
     Starting wfc are    8 randomized atomic wfcs

     total cpu time spent up to now is        3.7 secs

     Self-consistent Calculation

     iteration #  1     ecut=    42.00 Ry     beta= 0.30
     Davidson diagonalization with overlap
     ethr =  1.00E-02,  avg # of iterations =  5.5

     negative rho (up, down):  3.902E-04 0.000E+00

     total cpu time spent up to now is       11.1 secs

     total energy              =     -15.05255101 Ry
     Harris-Foulkes estimate   =     -15.25416517 Ry
     estimated scf accuracy    <       0.51010066 Ry

     iteration #  2     ecut=    42.00 Ry     beta= 0.30
     Davidson diagonalization with overlap
     ethr =  6.38E-03,  avg # of iterations =  1.0

     negative rho (up, down):  1.846E-04 0.000E+00

     total cpu time spent up to now is       15.7 secs

     total energy              =     -15.06412607 Ry
     Harris-Foulkes estimate   =     -15.09739129 Ry
     estimated scf accuracy    <       0.06159374 Ry

     iteration #  3     ecut=    42.00 Ry     beta= 0.30
     Davidson diagonalization with overlap
     ethr =  7.70E-04,  avg # of iterations =  4.0

     negative rho (up, down):  1.698E-04 0.000E+00

     total cpu time spent up to now is       25.1 secs

     total energy              =     -15.08949173 Ry
     Harris-Foulkes estimate   =     -15.09317633 Ry
     estimated scf accuracy    <       0.01550872 Ry

     iteration #  4     ecut=    42.00 Ry     beta= 0.30
     Davidson diagonalization with overlap
     ethr =  1.94E-04,  avg # of iterations =  1.8

     negative rho (up, down):  4.792E-05 0.000E+00

     total cpu time spent up to now is       30.0 secs

     total energy              =     -15.08826355 Ry
     Harris-Foulkes estimate   =     -15.09026533 Ry
     estimated scf accuracy    <       0.00381656 Ry

     iteration #  5     ecut=    42.00 Ry     beta= 0.30
     Davidson diagonalization with overlap
     ethr =  4.77E-05,  avg # of iterations =  3.3

     negative rho (up, down):  5.235E-06 0.000E+00

     total cpu time spent up to now is       36.0 secs

     total energy              =     -15.08938764 Ry
     Harris-Foulkes estimate   =     -15.09030947 Ry
     estimated scf accuracy    <       0.00270852 Ry

     iteration #  6     ecut=    42.00 Ry     beta= 0.30
     Davidson diagonalization with overlap
     ethr =  3.39E-05,  avg # of iterations =  1.0

     negative rho (up, down):  2.058E-06 0.000E+00

     total cpu time spent up to now is       43.2 secs

     total energy              =     -15.08954592 Ry
     Harris-Foulkes estimate   =     -15.08963503 Ry
     estimated scf accuracy    <       0.00027177 Ry

     iteration #  7     ecut=    42.00 Ry     beta= 0.30
     Davidson diagonalization with overlap
     ethr =  3.40E-06,  avg # of iterations =  4.3

     negative rho (up, down):  8.357E-07 0.000E+00

     total cpu time spent up to now is       52.6 secs

     total energy              =     -15.08960058 Ry
     Harris-Foulkes estimate   =     -15.08960439 Ry
     estimated scf accuracy    <       0.00000691 Ry

     iteration #  8     ecut=    42.00 Ry     beta= 0.30
     Davidson diagonalization with overlap
     ethr =  8.64E-08,  avg # of iterations =  3.0

     negative rho (up, down):  3.925E-07 0.000E+00

     total cpu time spent up to now is       59.2 secs

     total energy              =     -15.08960539 Ry
     Harris-Foulkes estimate   =     -15.08960888 Ry
     estimated scf accuracy    <       0.00001174 Ry

     iteration #  9     ecut=    42.00 Ry     beta= 0.30
     Davidson diagonalization with overlap
     ethr =  8.64E-08,  avg # of iterations =  1.0

     negative rho (up, down):  6.903E-07 0.000E+00

     total cpu time spent up to now is       64.0 secs

     total energy              =     -15.08960557 Ry
     Harris-Foulkes estimate   =     -15.08960621 Ry
     estimated scf accuracy    <       0.00000178 Ry

     iteration # 10     ecut=    42.00 Ry     beta= 0.30
     Davidson diagonalization with overlap
     ethr =  2.22E-08,  avg # of iterations =  2.0

     negative rho (up, down):  1.018E-07 0.000E+00

     total cpu time spent up to now is       69.3 secs

     total energy              =     -15.08960595 Ry
     Harris-Foulkes estimate   =     -15.08960595 Ry
     estimated scf accuracy    <       0.00000003 Ry

     iteration # 11     ecut=    42.00 Ry     beta= 0.30
     Davidson diagonalization with overlap
     ethr =  3.44E-10,  avg # of iterations =  3.0

     negative rho (up, down):  9.839E-08 0.000E+00

     total cpu time spent up to now is       75.3 secs

     total energy              =     -15.08960596 Ry
     Harris-Foulkes estimate   =     -15.08960597 Ry
     estimated scf accuracy    <       0.00000001 Ry

     iteration # 12     ecut=    42.00 Ry     beta= 0.30
     Davidson diagonalization with overlap
     ethr =  1.38E-10,  avg # of iterations =  1.0

     total cpu time spent up to now is       81.6 secs

     End of self-consistent calculation

          k = 0.0000 0.0000 0.0000 (248049 PWs)   bands (ev):

   -14.0996  -8.2122  -5.8500  -5.8500  -5.0608  -1.4711  -1.4711  -0.1966

     occupation numbers 
     1.0000   1.0000   0.9165   0.9165   0.1670   0.0000   0.0000   0.0000

          k = 0.0000 0.0000-0.5000 (247982 PWs)   bands (ev):

   -14.0996  -8.2122  -5.8500  -5.8500  -5.0608  -1.4711  -1.4711  -0.1809

     occupation numbers 
     1.0000   1.0000   0.9165   0.9165   0.1670   0.0000   0.0000   0.0000

          k = 0.0000-0.5000-0.5000 (248312 PWs)   bands (ev):

   -14.0996  -8.2122  -5.8500  -5.8500  -5.0608  -1.4711  -1.4711  -0.1680

     occupation numbers 
     1.0000   1.0000   0.9165   0.9165   0.1670   0.0000   0.0000   0.0000

          k =-0.5000-0.5000-0.5000 (248296 PWs)   bands (ev):

   -14.0996  -8.2122  -5.8500  -5.8500  -5.0608  -1.4711  -1.4711  -0.1590

     occupation numbers 
     1.0000   1.0000   0.9165   0.9165   0.1670   0.0000   0.0000   0.0000

          k =-0.5000 0.0000 0.0000 (247982 PWs)   bands (ev):

   -14.0996  -8.2122  -5.8500  -5.8500  -5.0608  -1.4711  -1.4711  -0.1826

     occupation numbers 
     1.0000   1.0000   0.9165   0.9165   0.1670   0.0000   0.0000   0.0000

          k =-0.5000 0.5000 0.0000 (248312 PWs)   bands (ev):

   -14.0996  -8.2122  -5.8500  -5.8500  -5.0608  -1.4711  -1.4711  -0.1699

     occupation numbers 
     1.0000   1.0000   0.9165   0.9165   0.1670   0.0000   0.0000   0.0000

     the Fermi energy is    -5.3473 ev

!    total energy              =     -15.08960596 Ry
     Harris-Foulkes estimate   =     -15.08960596 Ry
     estimated scf accuracy    <          2.2E-09 Ry

     The total energy is the sum of the following terms:

     one-electron contribution =     -32.55378564 Ry
     hartree contribution      =      16.72301799 Ry
     xc contribution           =      -4.53639974 Ry
     ewald contribution        =       5.28762327 Ry
     smearing contrib. (-TS)   =      -0.01006183 Ry

     convergence has been achieved in  12 iterations

     Forces acting on atoms (cartesian axes, Ry/au):

     atom    1 type  1   force =    -0.67682906    0.00000000    0.00000000
     atom    2 type  1   force =     0.67682906    0.00000000    0.00000000
     The non-local contrib.  to forces
     atom    1 type  1   force =    -1.03305842    0.00000000    0.00000000
     atom    2 type  1   force =     1.03305478    0.00000000    0.00000000
     The ionic contribution  to forces
     atom    1 type  1   force =    -3.16687866    0.00000000   -0.00000000
     atom    2 type  1   force =     3.16687866   -0.00000000   -0.00000000
     The local contribution  to forces
     atom    1 type  1   force =     3.52308062   -0.00000000   -0.00000000
     atom    2 type  1   force =    -3.52307731    0.00000000   -0.00000000
     The core correction contribution to forces
     atom    1 type  1   force =     0.00000000    0.00000000    0.00000000
     atom    2 type  1   force =     0.00000000    0.00000000    0.00000000
     The Hubbard contrib.    to forces
     atom    1 type  1   force =     0.00000000    0.00000000    0.00000000
     atom    2 type  1   force =     0.00000000    0.00000000    0.00000000
     The SCF correction term to forces
     atom    1 type  1   force =     0.00002673    0.00000000   -0.00000000
     atom    2 type  1   force =    -0.00002773   -0.00000000    0.00000000

     Total force =     0.957181     Total SCF correction =     0.000039


     Computing stress (Cartesian axis) and pressure

          total   stress  (Ry/bohr**3)                   (kbar)     P=    1.95
   0.00003978   0.00000000   0.00000000          5.85      0.00      0.00
   0.00000000  -0.00000001   0.00000000          0.00     -0.00      0.00
   0.00000000   0.00000000  -0.00000001          0.00      0.00     -0.00

     kinetic stress (kbar)      9.48      0.00      0.00
                                0.00     12.31      0.00
                                0.00      0.00     12.31

     local   stress (kbar)    -58.40      0.00      0.00
                                0.00    -31.88     -0.00
                                0.00     -0.00    -31.88

     nonloc. stress (kbar)     16.58      0.00      0.00
                                0.00     14.42      0.00
                                0.00      0.00     14.42

     hartree stress (kbar)     18.79      0.00      0.00
                                0.00     13.39      0.00
                                0.00      0.00     13.39

     exc-cor stress (kbar)     -3.78      0.00      0.00
                                0.00     -3.85     -0.00
                                0.00     -0.00     -3.85

     corecor stress (kbar)      0.00      0.00      0.00
                                0.00      0.00      0.00
                                0.00      0.00      0.00

     ewald   stress (kbar)     23.17      0.00     -0.00
                                0.00     -4.38     -0.00
                               -0.00     -0.00     -4.38

     hubbard stress (kbar)      0.00      0.00      0.00
                                0.00      0.00      0.00
                                0.00      0.00      0.00

     london  stress (kbar)      0.00      0.00      0.00
                                0.00      0.00      0.00
                                0.00      0.00      0.00

     DFT-D3  stress (kbar)      0.00      0.00      0.00
                                0.00      0.00      0.00
                                0.00      0.00      0.00

     XDM     stress (kbar)      0.00      0.00      0.00
                                0.00      0.00      0.00
                                0.00      0.00      0.00

     dft-nl  stress (kbar)      0.00      0.00      0.00
                                0.00      0.00      0.00
                                0.00      0.00      0.00

     TS-vdW  stress (kbar)      0.00      0.00      0.00
                                0.00      0.00      0.00
                                0.00      0.00      0.00



     Writing output data file SiSi4.save

     init_run     :      3.39s CPU      3.53s WALL (       1 calls)
     electrons    :     66.09s CPU     78.25s WALL (       1 calls)
     forces       :      0.35s CPU      0.36s WALL (       1 calls)
     stress       :      1.73s CPU      1.86s WALL (       1 calls)

     Called by init_run:
     wfcinit      :      1.81s CPU      1.83s WALL (       1 calls)
     wfcinit:atom :      0.04s CPU      0.04s WALL (       6 calls)
     wfcinit:wfcr :      1.60s CPU      1.62s WALL (       6 calls)
     potinit      :      0.54s CPU      0.58s WALL (       1 calls)

     Called by electrons:
     c_bands      :     49.40s CPU     60.98s WALL (      12 calls)
     sum_band     :     11.22s CPU     11.45s WALL (      12 calls)
     v_of_rho     :      4.51s CPU      4.62s WALL (      13 calls)
     v_h          :      0.45s CPU      0.46s WALL (      13 calls)
     v_xc         :      4.07s CPU      4.16s WALL (      13 calls)
     mix_rho      :      1.09s CPU      1.20s WALL (      12 calls)

     Called by c_bands:
     init_us_2    :      1.12s CPU      1.14s WALL (     162 calls)
     cegterg      :     48.49s CPU     49.31s WALL (      72 calls)

     Called by sum_band:

     Called by *egterg:
     h_psi        :     47.10s CPU     47.86s WALL (     264 calls)
     g_psi        :      0.20s CPU      0.20s WALL (     186 calls)
     cdiaghg      :      0.04s CPU      0.04s WALL (     258 calls)
     cegterg:over :      0.93s CPU      0.95s WALL (     186 calls)
     cegterg:upda :      0.78s CPU      0.80s WALL (     186 calls)
     cegterg:last :      0.26s CPU      0.27s WALL (      72 calls)

     Called by h_psi:
     h_psi:pot    :     46.84s CPU     47.59s WALL (     264 calls)
     h_psi:calbec :      0.42s CPU      0.45s WALL (     264 calls)
     vloc_psi     :     46.08s CPU     46.80s WALL (     264 calls)
     add_vuspsi   :      0.33s CPU      0.34s WALL (     264 calls)

     General routines
     calbec       :      0.48s CPU      0.50s WALL (     294 calls)
     fft          :      3.90s CPU      3.99s WALL (     150 calls)
     fftw         :     48.82s CPU     49.58s WALL (    3612 calls)

     Parallel routines
     fft_scatt_xy :      7.66s CPU      7.77s WALL (    3762 calls)
     fft_scatt_yz :      9.05s CPU      9.20s WALL (    3762 calls)

     PWSCF        :  1m12.05s CPU     1m25.23s WALL


   This run was terminated on:  21: 5:54   1Oct2020            

=------------------------------------------------------------------------------=
   JOB DONE.
=------------------------------------------------------------------------------=
