
     Program PWSCF v.6.2 (svn rev. 14038) starts on  1Oct2020 at 21:27: 0 

     This program is part of the open-source Quantum ESPRESSO suite
     for quantum simulation of materials; please cite
         "P. Giannozzi et al., J. Phys.:Condens. Matter 21 395502 (2009);
         "P. Giannozzi et al., J. Phys.:Condens. Matter 29 465901 (2017);
          URL http://www.quantum-espresso.org", 
     in publications or presentations arising from this work. More details at
     http://www.quantum-espresso.org/quote

     Parallel version (MPI), running on     8 processors

     MPI processes distributed on     1 nodes
     R & G space division:  proc/nbgrp/npool/nimage =       8
     Waiting for input...
     Reading input from standard input

     Current dimensions of program PWSCF are:
     Max number of different atomic species (ntypx) = 10
     Max number of k-points (npk) =  40000
     Max angular momentum in pseudopotentials (lmaxx) =  3

     Subspace diagonalization in iterative solution of the eigenvalue problem:
     a serial algorithm will be used


     Parallelization info
     --------------------
     sticks:   dense  smooth     PW     G-vecs:    dense   smooth      PW
     Min        2386    2386    623               248152   248152   33108
     Max        2387    2387    625               248157   248157   33111
     Sum       19089   19089   4989              1985227  1985227  264875



     bravais-lattice index     =            1
     lattice parameter (alat)  =      37.7945  a.u.
     unit-cell volume          =   53986.6767 (a.u.)^3
     number of atoms/cell      =            2
     number of atomic types    =            1
     number of electrons       =         8.00
     number of Kohn-Sham states=            8
     kinetic-energy cutoff     =      42.0000  Ry
     charge density cutoff     =     168.0000  Ry
     convergence threshold     =      1.0E-08
     mixing beta               =       0.3000
     number of iterations used =            8  plain     mixing
     Exchange-correlation      = SLA-PW-PBX-PBC ( 1  4  3  4 0 0)

     celldm(1)=  37.794523  celldm(2)=   0.000000  celldm(3)=   0.000000
     celldm(4)=   0.000000  celldm(5)=   0.000000  celldm(6)=   0.000000

     crystal axes: (cart. coord. in units of alat)
               a(1) = (   1.000000   0.000000   0.000000 )  
               a(2) = (   0.000000   1.000000   0.000000 )  
               a(3) = (   0.000000   0.000000   1.000000 )  

     reciprocal axes: (cart. coord. in units 2 pi/alat)
               b(1) = (  1.000000  0.000000  0.000000 )  
               b(2) = (  0.000000  1.000000  0.000000 )  
               b(3) = (  0.000000  0.000000  1.000000 )  


     PseudoPot. # 1 for Si read from file:
     ./Si.pbe-hgh.UPF
     MD5 check sum: 9a9f0f6e09139bfdb36b03ff6bc35900
     Pseudo is Norm-conserving, Zval =  4.0
     Generated in analytical, separable form
     Using radial grid of 1141 points,  3 beta functions with: 
                l(1) =   0
                l(2) =   0
                l(3) =   1

     atomic species   valence    mass     pseudopotential
        Si             4.00    28.08000     Si( 1.00)

      8 Sym. Ops. (no inversion) found


                                    s                        frac. trans.

      isym =  1     identity                                     

 cryst.   s( 1) = (     1          0          0      )
                  (     0          1          0      )
                  (     0          0          1      )

 cart.    s( 1) = (  1.0000000  0.0000000  0.0000000 )
                  (  0.0000000  1.0000000  0.0000000 )
                  (  0.0000000  0.0000000  1.0000000 )


      isym =  2     180 deg rotation - cart. axis [1,0,0]        

 cryst.   s( 2) = (     1          0          0      )
                  (     0         -1          0      )
                  (     0          0         -1      )

 cart.    s( 2) = (  1.0000000  0.0000000  0.0000000 )
                  (  0.0000000 -1.0000000  0.0000000 )
                  (  0.0000000  0.0000000 -1.0000000 )


      isym =  3      90 deg rotation - cart. axis [-1,0,0]       

 cryst.   s( 3) = (     1          0          0      )
                  (     0          0         -1      )
                  (     0          1          0      )

 cart.    s( 3) = (  1.0000000  0.0000000  0.0000000 )
                  (  0.0000000  0.0000000  1.0000000 )
                  (  0.0000000 -1.0000000  0.0000000 )


      isym =  4      90 deg rotation - cart. axis [1,0,0]        

 cryst.   s( 4) = (     1          0          0      )
                  (     0          0          1      )
                  (     0         -1          0      )

 cart.    s( 4) = (  1.0000000  0.0000000  0.0000000 )
                  (  0.0000000  0.0000000 -1.0000000 )
                  (  0.0000000  1.0000000  0.0000000 )


      isym =  5     inv. 180 deg rotation - cart. axis [0,0,1]   

 cryst.   s( 5) = (     1          0          0      )
                  (     0          1          0      )
                  (     0          0         -1      )

 cart.    s( 5) = (  1.0000000  0.0000000  0.0000000 )
                  (  0.0000000  1.0000000  0.0000000 )
                  (  0.0000000  0.0000000 -1.0000000 )


      isym =  6     inv. 180 deg rotation - cart. axis [0,1,0]   

 cryst.   s( 6) = (     1          0          0      )
                  (     0         -1          0      )
                  (     0          0          1      )

 cart.    s( 6) = (  1.0000000  0.0000000  0.0000000 )
                  (  0.0000000 -1.0000000  0.0000000 )
                  (  0.0000000  0.0000000  1.0000000 )


      isym =  7     inv. 180 deg rotation - cart. axis [0,1,1]   

 cryst.   s( 7) = (     1          0          0      )
                  (     0          0         -1      )
                  (     0         -1          0      )

 cart.    s( 7) = (  1.0000000  0.0000000  0.0000000 )
                  (  0.0000000  0.0000000 -1.0000000 )
                  (  0.0000000 -1.0000000  0.0000000 )


      isym =  8     inv. 180 deg rotation - cart. axis [0,1,-1]  

 cryst.   s( 8) = (     1          0          0      )
                  (     0          0          1      )
                  (     0          1          0      )

 cart.    s( 8) = (  1.0000000  0.0000000  0.0000000 )
                  (  0.0000000  0.0000000  1.0000000 )
                  (  0.0000000  1.0000000  0.0000000 )


     point group C_4v (4mm) 
     there are  5 classes
     the character table:

       E     2C4   C2    2s_v  2s_d 
A_1    1.00  1.00  1.00  1.00  1.00
A_2    1.00  1.00  1.00 -1.00 -1.00
B_1    1.00 -1.00  1.00  1.00 -1.00
B_2    1.00 -1.00  1.00 -1.00  1.00
E      2.00  0.00 -2.00  0.00  0.00

     the symmetry operations in each class and the name of the first element:

     E        1
          identity                                               
     2C4      3    4
           90 deg rotation - cart. axis [-1,0,0]                 
     C2       2
          180 deg rotation - cart. axis [1,0,0]                  
     2s_v     5    6
          inv. 180 deg rotation - cart. axis [0,0,1]             
     2s_d     7    8
          inv. 180 deg rotation - cart. axis [0,1,1]             

   Cartesian axes

     site n.     atom                  positions (alat units)
         1           Si  tau(   1) = (   0.0000000   0.0000000   0.0000000  )
         2           Si  tau(   2) = (   0.0920000   0.0000000   0.0000000  )

   Crystallographic axes

     site n.     atom                  positions (cryst. coord.)
         1           Si  tau(   1) = (  0.0000000  0.0000000  0.0000000  )
         2           Si  tau(   2) = (  0.0920000  0.0000000  0.0000000  )

     number of k points=     6  Marzari-Vanderbilt smearing, width (Ry)=  0.0500
                       cart. coord. in units 2pi/alat
        k(    1) = (   0.0000000   0.0000000   0.0000000), wk =   0.2500000
        k(    2) = (   0.0000000   0.0000000  -0.5000000), wk =   0.5000000
        k(    3) = (   0.0000000  -0.5000000  -0.5000000), wk =   0.2500000
        k(    4) = (  -0.5000000  -0.5000000  -0.5000000), wk =   0.2500000
        k(    5) = (  -0.5000000   0.0000000   0.0000000), wk =   0.2500000
        k(    6) = (  -0.5000000   0.5000000   0.0000000), wk =   0.5000000

                       cryst. coord.
        k(    1) = (   0.0000000   0.0000000   0.0000000), wk =   0.2500000
        k(    2) = (   0.0000000   0.0000000  -0.5000000), wk =   0.5000000
        k(    3) = (   0.0000000  -0.5000000  -0.5000000), wk =   0.2500000
        k(    4) = (  -0.5000000  -0.5000000  -0.5000000), wk =   0.2500000
        k(    5) = (  -0.5000000   0.0000000   0.0000000), wk =   0.2500000
        k(    6) = (  -0.5000000   0.5000000   0.0000000), wk =   0.5000000

     Dense  grid:  1985227 G-vectors     FFT dimensions: ( 160, 160, 160)

     Dynamical RAM for                 wfc:       3.79 MB

     Dynamical RAM for     wfc (w. buffer):      26.50 MB

     Dynamical RAM for           str. fact:       3.79 MB

     Dynamical RAM for           local pot:       0.00 MB

     Dynamical RAM for          nlocal pot:       4.73 MB

     Dynamical RAM for                qrad:       1.07 MB

     Dynamical RAM for          rho,v,vnew:      23.08 MB

     Dynamical RAM for               rhoin:       7.69 MB

     Dynamical RAM for            rho*nmix:      60.58 MB

     Dynamical RAM for           G-vectors:      16.09 MB

     Dynamical RAM for          h,s,v(r/c):       0.05 MB

     Dynamical RAM for          <psi|beta>:       0.00 MB

     Dynamical RAM for                 psi:      15.15 MB

     Dynamical RAM for                hpsi:      15.15 MB

     Dynamical RAM for      wfcinit/wfcrot:       7.57 MB

     Estimated static dynamical RAM per process >     170.65 MB

     Estimated max dynamical RAM per process >     200.99 MB

     Estimated total dynamical RAM >       1.57 GB

     Initial potential from superposition of free atoms
     Check: negative starting charge=   -0.000629

     starting charge    7.99888, renormalised to    8.00000

     negative rho (up, down):  6.293E-04 0.000E+00
     Starting wfc are    8 randomized atomic wfcs

     total cpu time spent up to now is        3.9 secs

     Self-consistent Calculation

     iteration #  1     ecut=    42.00 Ry     beta= 0.30
     Davidson diagonalization with overlap
     ethr =  1.00E-02,  avg # of iterations =  6.3

     negative rho (up, down):  3.814E-04 0.000E+00

     total cpu time spent up to now is       12.1 secs

     total energy              =     -15.19833464 Ry
     Harris-Foulkes estimate   =     -15.33629361 Ry
     estimated scf accuracy    <       0.34887303 Ry

     iteration #  2     ecut=    42.00 Ry     beta= 0.30
     Davidson diagonalization with overlap
     ethr =  4.36E-03,  avg # of iterations =  1.0

     negative rho (up, down):  2.189E-04 0.000E+00

     total cpu time spent up to now is       17.3 secs

     total energy              =     -15.23153323 Ry
     Harris-Foulkes estimate   =     -15.24095210 Ry
     estimated scf accuracy    <       0.02322107 Ry

     iteration #  3     ecut=    42.00 Ry     beta= 0.30
     Davidson diagonalization with overlap
     ethr =  2.90E-04,  avg # of iterations =  5.5

     negative rho (up, down):  1.001E-04 0.000E+00

     total cpu time spent up to now is       24.9 secs

     total energy              =     -15.23765426 Ry
     Harris-Foulkes estimate   =     -15.23918592 Ry
     estimated scf accuracy    <       0.00456268 Ry

     iteration #  4     ecut=    42.00 Ry     beta= 0.30
     Davidson diagonalization with overlap
     ethr =  5.70E-05,  avg # of iterations =  5.7

     negative rho (up, down):  5.164E-05 0.000E+00

     total cpu time spent up to now is       31.5 secs

     total energy              =     -15.23783688 Ry
     Harris-Foulkes estimate   =     -15.23897168 Ry
     estimated scf accuracy    <       0.00206745 Ry

     iteration #  5     ecut=    42.00 Ry     beta= 0.30
     Davidson diagonalization with overlap
     ethr =  2.58E-05,  avg # of iterations =  2.0

     negative rho (up, down):  3.555E-06 0.000E+00

     total cpu time spent up to now is       39.9 secs

     total energy              =     -15.23835607 Ry
     Harris-Foulkes estimate   =     -15.23857943 Ry
     estimated scf accuracy    <       0.00063454 Ry

     iteration #  6     ecut=    42.00 Ry     beta= 0.30
     Davidson diagonalization with overlap
     ethr =  7.93E-06,  avg # of iterations =  3.5

     negative rho (up, down):  1.671E-06 0.000E+00

     total cpu time spent up to now is       45.8 secs

     total energy              =     -15.23844042 Ry
     Harris-Foulkes estimate   =     -15.23844547 Ry
     estimated scf accuracy    <       0.00001114 Ry

     iteration #  7     ecut=    42.00 Ry     beta= 0.30
     Davidson diagonalization with overlap
     ethr =  1.39E-07,  avg # of iterations =  3.8

     negative rho (up, down):  3.549E-07 0.000E+00

     total cpu time spent up to now is       53.8 secs

     total energy              =     -15.23844754 Ry
     Harris-Foulkes estimate   =     -15.23844981 Ry
     estimated scf accuracy    <       0.00000682 Ry

     iteration #  8     ecut=    42.00 Ry     beta= 0.30
     Davidson diagonalization with overlap
     ethr =  8.52E-08,  avg # of iterations =  1.0

     negative rho (up, down):  1.584E-08 0.000E+00

     total cpu time spent up to now is       62.3 secs

     total energy              =     -15.23844761 Ry
     Harris-Foulkes estimate   =     -15.23844804 Ry
     estimated scf accuracy    <       0.00000095 Ry

     iteration #  9     ecut=    42.00 Ry     beta= 0.30
     Davidson diagonalization with overlap
     ethr =  1.19E-08,  avg # of iterations =  2.0

     total cpu time spent up to now is       68.3 secs

     total energy              =     -15.23844783 Ry
     Harris-Foulkes estimate   =     -15.23844785 Ry
     estimated scf accuracy    <       0.00000004 Ry

     iteration # 10     ecut=    42.00 Ry     beta= 0.30
     Davidson diagonalization with overlap
     ethr =  4.40E-10,  avg # of iterations =  2.2

     total cpu time spent up to now is       74.2 secs

     End of self-consistent calculation

          k = 0.0000 0.0000 0.0000 (248049 PWs)   bands (ev):

   -13.8469  -8.4855  -5.6808  -5.6808  -5.2272  -1.8334  -1.8334  -0.2447

     occupation numbers 
     1.0000   1.0000   0.8261   0.8261   0.3479   0.0000   0.0000   0.0000

          k = 0.0000 0.0000-0.5000 (247982 PWs)   bands (ev):

   -13.8469  -8.4855  -5.6808  -5.6808  -5.2272  -1.8334  -1.8334  -0.2326

     occupation numbers 
     1.0000   1.0000   0.8261   0.8261   0.3479   0.0000   0.0000   0.0000

          k = 0.0000-0.5000-0.5000 (248312 PWs)   bands (ev):

   -13.8469  -8.4855  -5.6808  -5.6808  -5.2272  -1.8334  -1.8334  -0.2224

     occupation numbers 
     1.0000   1.0000   0.8261   0.8261   0.3479   0.0000   0.0000   0.0000

          k =-0.5000-0.5000-0.5000 (248296 PWs)   bands (ev):

   -13.8469  -8.4855  -5.6808  -5.6808  -5.2272  -1.8334  -1.8334  -0.2157

     occupation numbers 
     1.0000   1.0000   0.8261   0.8261   0.3479   0.0000   0.0000   0.0000

          k =-0.5000 0.0000 0.0000 (247982 PWs)   bands (ev):

   -13.8469  -8.4855  -5.6808  -5.6808  -5.2272  -1.8334  -1.8334  -0.2346

     occupation numbers 
     1.0000   1.0000   0.8261   0.8261   0.3479   0.0000   0.0000   0.0000

          k =-0.5000 0.5000 0.0000 (248312 PWs)   bands (ev):

   -13.8469  -8.4855  -5.6808  -5.6808  -5.2272  -1.8334  -1.8334  -0.2245

     occupation numbers 
     1.0000   1.0000   0.8261   0.8261   0.3479   0.0000   0.0000   0.0000

     the Fermi energy is    -5.2812 ev

!    total energy              =     -15.23844784 Ry
     Harris-Foulkes estimate   =     -15.23844784 Ry
     estimated scf accuracy    <          2.6E-09 Ry

     The total energy is the sum of the following terms:

     one-electron contribution =     -31.19912721 Ry
     hartree contribution      =      15.99854371 Ry
     xc contribution           =      -4.42524046 Ry
     ewald contribution        =       4.41369371 Ry
     smearing contrib. (-TS)   =      -0.02631759 Ry

     convergence has been achieved in  10 iterations

     Forces acting on atoms (cartesian axes, Ry/au):

     atom    1 type  1   force =    -0.33716584    0.00000000    0.00000000
     atom    2 type  1   force =     0.33716584    0.00000000    0.00000000
     The non-local contrib.  to forces
     atom    1 type  1   force =    -0.63193512    0.00000000    0.00000000
     atom    2 type  1   force =     0.63193912    0.00000000    0.00000000
     The ionic contribution  to forces
     atom    1 type  1   force =    -2.63792182    0.00000000   -0.00000000
     atom    2 type  1   force =     2.63792182   -0.00000000   -0.00000000
     The local contribution  to forces
     atom    1 type  1   force =     2.93269618    0.00000000   -0.00000000
     atom    2 type  1   force =    -2.93270334   -0.00000000   -0.00000000
     The core correction contribution to forces
     atom    1 type  1   force =     0.00000000    0.00000000    0.00000000
     atom    2 type  1   force =     0.00000000    0.00000000    0.00000000
     The Hubbard contrib.    to forces
     atom    1 type  1   force =     0.00000000    0.00000000    0.00000000
     atom    2 type  1   force =     0.00000000    0.00000000    0.00000000
     The SCF correction term to forces
     atom    1 type  1   force =    -0.00000522    0.00000000   -0.00000000
     atom    2 type  1   force =     0.00000810    0.00000000    0.00000000

     Total force =     0.476824     Total SCF correction =     0.000010


     Computing stress (Cartesian axis) and pressure

          total   stress  (Ry/bohr**3)                   (kbar)     P=    1.06
   0.00002170   0.00000000   0.00000000          3.19      0.00      0.00
   0.00000000  -0.00000001   0.00000000          0.00     -0.00      0.00
   0.00000000   0.00000000  -0.00000001          0.00      0.00     -0.00

     kinetic stress (kbar)      9.58      0.00      0.00
                                0.00     11.56      0.00
                                0.00      0.00     11.56

     local   stress (kbar)    -58.05     -0.00      0.00
                               -0.00    -29.35      0.00
                                0.00      0.00    -29.35

     nonloc. stress (kbar)     15.63      0.00      0.00
                                0.00     13.59      0.00
                                0.00      0.00     13.59

     hartree stress (kbar)     18.92     -0.00     -0.00
                               -0.00     12.33     -0.00
                               -0.00     -0.00     12.33

     exc-cor stress (kbar)     -3.68      0.00      0.00
                                0.00     -3.76      0.00
                                0.00      0.00     -3.76

     corecor stress (kbar)      0.00      0.00      0.00
                                0.00      0.00      0.00
                                0.00      0.00      0.00

     ewald   stress (kbar)     20.80      0.00     -0.00
                                0.00     -4.38     -0.00
                               -0.00     -0.00     -4.38

     hubbard stress (kbar)      0.00      0.00      0.00
                                0.00      0.00      0.00
                                0.00      0.00      0.00

     london  stress (kbar)      0.00      0.00      0.00
                                0.00      0.00      0.00
                                0.00      0.00      0.00

     DFT-D3  stress (kbar)      0.00      0.00      0.00
                                0.00      0.00      0.00
                                0.00      0.00      0.00

     XDM     stress (kbar)      0.00      0.00      0.00
                                0.00      0.00      0.00
                                0.00      0.00      0.00

     dft-nl  stress (kbar)      0.00      0.00      0.00
                                0.00      0.00      0.00
                                0.00      0.00      0.00

     TS-vdW  stress (kbar)      0.00      0.00      0.00
                                0.00      0.00      0.00
                                0.00      0.00      0.00



     Writing output data file SiSi7.save

     init_run     :      3.63s CPU      3.77s WALL (       1 calls)
     electrons    :     64.55s CPU     70.63s WALL (       1 calls)
     forces       :      0.43s CPU      0.43s WALL (       1 calls)
     stress       :      1.86s CPU      1.96s WALL (       1 calls)

     Called by init_run:
     wfcinit      :      1.98s CPU      2.00s WALL (       1 calls)
     wfcinit:atom :      0.04s CPU      0.04s WALL (       6 calls)
     wfcinit:wfcr :      1.77s CPU      1.79s WALL (       6 calls)
     potinit      :      0.56s CPU      0.60s WALL (       1 calls)

     Called by electrons:
     c_bands      :     49.14s CPU     54.82s WALL (      10 calls)
     sum_band     :     10.41s CPU     10.45s WALL (      10 calls)
     v_of_rho     :      4.19s CPU      4.25s WALL (      11 calls)
     v_h          :      0.39s CPU      0.40s WALL (      11 calls)
     v_xc         :      3.80s CPU      3.85s WALL (      11 calls)
     mix_rho      :      0.94s CPU      1.02s WALL (      10 calls)

     Called by c_bands:
     init_us_2    :      0.88s CPU      0.89s WALL (     138 calls)
     cegterg      :     48.38s CPU     48.49s WALL (      60 calls)

     Called by sum_band:

     Called by *egterg:
     h_psi        :     47.23s CPU     47.33s WALL (     264 calls)
     g_psi        :      0.17s CPU      0.17s WALL (     198 calls)
     cdiaghg      :      0.04s CPU      0.05s WALL (     258 calls)
     cegterg:over :      0.97s CPU      0.98s WALL (     198 calls)
     cegterg:upda :      0.80s CPU      0.81s WALL (     198 calls)
     cegterg:last :      0.23s CPU      0.23s WALL (      60 calls)

     Called by h_psi:
     h_psi:pot    :     47.00s CPU     47.09s WALL (     264 calls)
     h_psi:calbec :      0.57s CPU      0.58s WALL (     264 calls)
     vloc_psi     :     46.09s CPU     46.18s WALL (     264 calls)
     add_vuspsi   :      0.33s CPU      0.33s WALL (     264 calls)

     General routines
     calbec       :      0.67s CPU      0.68s WALL (     294 calls)
     fft          :      3.75s CPU      3.78s WALL (     128 calls)
     fftw         :     49.35s CPU     49.45s WALL (    3150 calls)

     Parallel routines
     fft_scatt_xy :      6.90s CPU      6.92s WALL (    3278 calls)
     fft_scatt_yz :     14.27s CPU     14.30s WALL (    3278 calls)

     PWSCF        :  1m10.94s CPU     1m20.17s WALL


   This run was terminated on:  21:28:20   1Oct2020            

=------------------------------------------------------------------------------=
   JOB DONE.
=------------------------------------------------------------------------------=
