
     Program PWSCF v.6.2 (svn rev. 14038) starts on  1Oct2020 at 21: 2:14 

     This program is part of the open-source Quantum ESPRESSO suite
     for quantum simulation of materials; please cite
         "P. Giannozzi et al., J. Phys.:Condens. Matter 21 395502 (2009);
         "P. Giannozzi et al., J. Phys.:Condens. Matter 29 465901 (2017);
          URL http://www.quantum-espresso.org", 
     in publications or presentations arising from this work. More details at
     http://www.quantum-espresso.org/quote

     Parallel version (MPI), running on     8 processors

     MPI processes distributed on     1 nodes
     R & G space division:  proc/nbgrp/npool/nimage =       8
     Waiting for input...
     Reading input from standard input

     Current dimensions of program PWSCF are:
     Max number of different atomic species (ntypx) = 10
     Max number of k-points (npk) =  40000
     Max angular momentum in pseudopotentials (lmaxx) =  3

     Subspace diagonalization in iterative solution of the eigenvalue problem:
     a serial algorithm will be used


     Parallelization info
     --------------------
     sticks:   dense  smooth     PW     G-vecs:    dense   smooth      PW
     Min        2386    2386    623               248152   248152   33108
     Max        2387    2387    625               248157   248157   33111
     Sum       19089   19089   4989              1985227  1985227  264875



     bravais-lattice index     =            1
     lattice parameter (alat)  =      37.7945  a.u.
     unit-cell volume          =   53986.6767 (a.u.)^3
     number of atoms/cell      =            2
     number of atomic types    =            1
     number of electrons       =         8.00
     number of Kohn-Sham states=            8
     kinetic-energy cutoff     =      42.0000  Ry
     charge density cutoff     =     168.0000  Ry
     convergence threshold     =      1.0E-08
     mixing beta               =       0.3000
     number of iterations used =            8  plain     mixing
     Exchange-correlation      = SLA-PW-PBX-PBC ( 1  4  3  4 0 0)

     celldm(1)=  37.794523  celldm(2)=   0.000000  celldm(3)=   0.000000
     celldm(4)=   0.000000  celldm(5)=   0.000000  celldm(6)=   0.000000

     crystal axes: (cart. coord. in units of alat)
               a(1) = (   1.000000   0.000000   0.000000 )  
               a(2) = (   0.000000   1.000000   0.000000 )  
               a(3) = (   0.000000   0.000000   1.000000 )  

     reciprocal axes: (cart. coord. in units 2 pi/alat)
               b(1) = (  1.000000  0.000000  0.000000 )  
               b(2) = (  0.000000  1.000000  0.000000 )  
               b(3) = (  0.000000  0.000000  1.000000 )  


     PseudoPot. # 1 for Si read from file:
     ./Si.pbe-hgh.UPF
     MD5 check sum: 9a9f0f6e09139bfdb36b03ff6bc35900
     Pseudo is Norm-conserving, Zval =  4.0
     Generated in analytical, separable form
     Using radial grid of 1141 points,  3 beta functions with: 
                l(1) =   0
                l(2) =   0
                l(3) =   1

     atomic species   valence    mass     pseudopotential
        Si             4.00    28.08000     Si( 1.00)

      8 Sym. Ops. (no inversion) found


                                    s                        frac. trans.

      isym =  1     identity                                     

 cryst.   s( 1) = (     1          0          0      )
                  (     0          1          0      )
                  (     0          0          1      )

 cart.    s( 1) = (  1.0000000  0.0000000  0.0000000 )
                  (  0.0000000  1.0000000  0.0000000 )
                  (  0.0000000  0.0000000  1.0000000 )


      isym =  2     180 deg rotation - cart. axis [1,0,0]        

 cryst.   s( 2) = (     1          0          0      )
                  (     0         -1          0      )
                  (     0          0         -1      )

 cart.    s( 2) = (  1.0000000  0.0000000  0.0000000 )
                  (  0.0000000 -1.0000000  0.0000000 )
                  (  0.0000000  0.0000000 -1.0000000 )


      isym =  3      90 deg rotation - cart. axis [-1,0,0]       

 cryst.   s( 3) = (     1          0          0      )
                  (     0          0         -1      )
                  (     0          1          0      )

 cart.    s( 3) = (  1.0000000  0.0000000  0.0000000 )
                  (  0.0000000  0.0000000  1.0000000 )
                  (  0.0000000 -1.0000000  0.0000000 )


      isym =  4      90 deg rotation - cart. axis [1,0,0]        

 cryst.   s( 4) = (     1          0          0      )
                  (     0          0          1      )
                  (     0         -1          0      )

 cart.    s( 4) = (  1.0000000  0.0000000  0.0000000 )
                  (  0.0000000  0.0000000 -1.0000000 )
                  (  0.0000000  1.0000000  0.0000000 )


      isym =  5     inv. 180 deg rotation - cart. axis [0,0,1]   

 cryst.   s( 5) = (     1          0          0      )
                  (     0          1          0      )
                  (     0          0         -1      )

 cart.    s( 5) = (  1.0000000  0.0000000  0.0000000 )
                  (  0.0000000  1.0000000  0.0000000 )
                  (  0.0000000  0.0000000 -1.0000000 )


      isym =  6     inv. 180 deg rotation - cart. axis [0,1,0]   

 cryst.   s( 6) = (     1          0          0      )
                  (     0         -1          0      )
                  (     0          0          1      )

 cart.    s( 6) = (  1.0000000  0.0000000  0.0000000 )
                  (  0.0000000 -1.0000000  0.0000000 )
                  (  0.0000000  0.0000000  1.0000000 )


      isym =  7     inv. 180 deg rotation - cart. axis [0,1,1]   

 cryst.   s( 7) = (     1          0          0      )
                  (     0          0         -1      )
                  (     0         -1          0      )

 cart.    s( 7) = (  1.0000000  0.0000000  0.0000000 )
                  (  0.0000000  0.0000000 -1.0000000 )
                  (  0.0000000 -1.0000000  0.0000000 )


      isym =  8     inv. 180 deg rotation - cart. axis [0,1,-1]  

 cryst.   s( 8) = (     1          0          0      )
                  (     0          0          1      )
                  (     0          1          0      )

 cart.    s( 8) = (  1.0000000  0.0000000  0.0000000 )
                  (  0.0000000  0.0000000  1.0000000 )
                  (  0.0000000  1.0000000  0.0000000 )


     point group C_4v (4mm) 
     there are  5 classes
     the character table:

       E     2C4   C2    2s_v  2s_d 
A_1    1.00  1.00  1.00  1.00  1.00
A_2    1.00  1.00  1.00 -1.00 -1.00
B_1    1.00 -1.00  1.00  1.00 -1.00
B_2    1.00 -1.00  1.00 -1.00  1.00
E      2.00  0.00 -2.00  0.00  0.00

     the symmetry operations in each class and the name of the first element:

     E        1
          identity                                               
     2C4      3    4
           90 deg rotation - cart. axis [-1,0,0]                 
     C2       2
          180 deg rotation - cart. axis [1,0,0]                  
     2s_v     5    6
          inv. 180 deg rotation - cart. axis [0,0,1]             
     2s_d     7    8
          inv. 180 deg rotation - cart. axis [0,1,1]             

   Cartesian axes

     site n.     atom                  positions (alat units)
         1           Si  tau(   1) = (   0.0000000   0.0000000   0.0000000  )
         2           Si  tau(   2) = (   0.0870000   0.0000000   0.0000000  )

   Crystallographic axes

     site n.     atom                  positions (cryst. coord.)
         1           Si  tau(   1) = (  0.0000000  0.0000000  0.0000000  )
         2           Si  tau(   2) = (  0.0870000  0.0000000  0.0000000  )

     number of k points=     6  Marzari-Vanderbilt smearing, width (Ry)=  0.0500
                       cart. coord. in units 2pi/alat
        k(    1) = (   0.0000000   0.0000000   0.0000000), wk =   0.2500000
        k(    2) = (   0.0000000   0.0000000  -0.5000000), wk =   0.5000000
        k(    3) = (   0.0000000  -0.5000000  -0.5000000), wk =   0.2500000
        k(    4) = (  -0.5000000  -0.5000000  -0.5000000), wk =   0.2500000
        k(    5) = (  -0.5000000   0.0000000   0.0000000), wk =   0.2500000
        k(    6) = (  -0.5000000   0.5000000   0.0000000), wk =   0.5000000

                       cryst. coord.
        k(    1) = (   0.0000000   0.0000000   0.0000000), wk =   0.2500000
        k(    2) = (   0.0000000   0.0000000  -0.5000000), wk =   0.5000000
        k(    3) = (   0.0000000  -0.5000000  -0.5000000), wk =   0.2500000
        k(    4) = (  -0.5000000  -0.5000000  -0.5000000), wk =   0.2500000
        k(    5) = (  -0.5000000   0.0000000   0.0000000), wk =   0.2500000
        k(    6) = (  -0.5000000   0.5000000   0.0000000), wk =   0.5000000

     Dense  grid:  1985227 G-vectors     FFT dimensions: ( 160, 160, 160)

     Dynamical RAM for                 wfc:       3.79 MB

     Dynamical RAM for     wfc (w. buffer):      26.50 MB

     Dynamical RAM for           str. fact:       3.79 MB

     Dynamical RAM for           local pot:       0.00 MB

     Dynamical RAM for          nlocal pot:       4.73 MB

     Dynamical RAM for                qrad:       1.07 MB

     Dynamical RAM for          rho,v,vnew:      23.08 MB

     Dynamical RAM for               rhoin:       7.69 MB

     Dynamical RAM for            rho*nmix:      60.58 MB

     Dynamical RAM for           G-vectors:      16.09 MB

     Dynamical RAM for          h,s,v(r/c):       0.05 MB

     Dynamical RAM for          <psi|beta>:       0.00 MB

     Dynamical RAM for                 psi:      15.15 MB

     Dynamical RAM for                hpsi:      15.15 MB

     Dynamical RAM for      wfcinit/wfcrot:       7.57 MB

     Estimated static dynamical RAM per process >     170.65 MB

     Estimated max dynamical RAM per process >     200.99 MB

     Estimated total dynamical RAM >       1.57 GB

     Initial potential from superposition of free atoms
     Check: negative starting charge=   -0.000621

     starting charge    7.99888, renormalised to    8.00000

     negative rho (up, down):  6.215E-04 0.000E+00
     Starting wfc are    8 randomized atomic wfcs

     total cpu time spent up to now is        3.6 secs

     Self-consistent Calculation

     iteration #  1     ecut=    42.00 Ry     beta= 0.30
     Davidson diagonalization with overlap
     ethr =  1.00E-02,  avg # of iterations =  6.0

     negative rho (up, down):  3.864E-04 0.000E+00

     total cpu time spent up to now is       11.1 secs

     total energy              =     -15.11472361 Ry
     Harris-Foulkes estimate   =     -15.29645526 Ry
     estimated scf accuracy    <       0.45951808 Ry

     iteration #  2     ecut=    42.00 Ry     beta= 0.30
     Davidson diagonalization with overlap
     ethr =  5.74E-03,  avg # of iterations =  1.0

     negative rho (up, down):  2.013E-04 0.000E+00

     total cpu time spent up to now is       17.8 secs

     total energy              =     -15.14193209 Ry
     Harris-Foulkes estimate   =     -15.16139256 Ry
     estimated scf accuracy    <       0.03870796 Ry

     iteration #  3     ecut=    42.00 Ry     beta= 0.30
     Davidson diagonalization with overlap
     ethr =  4.84E-04,  avg # of iterations =  4.0

     negative rho (up, down):  2.052E-04 0.000E+00

     total cpu time spent up to now is       24.4 secs

     total energy              =     -15.15974274 Ry
     Harris-Foulkes estimate   =     -15.15942504 Ry
     estimated scf accuracy    <       0.00899757 Ry

     iteration #  4     ecut=    42.00 Ry     beta= 0.30
     Davidson diagonalization with overlap
     ethr =  1.12E-04,  avg # of iterations =  2.5

     negative rho (up, down):  6.350E-05 0.000E+00

     total cpu time spent up to now is       30.0 secs

     total energy              =     -15.15438483 Ry
     Harris-Foulkes estimate   =     -15.15977628 Ry
     estimated scf accuracy    <       0.01022907 Ry

     iteration #  5     ecut=    42.00 Ry     beta= 0.30
     Davidson diagonalization with overlap
     ethr =  1.12E-04,  avg # of iterations =  2.0

     negative rho (up, down):  2.524E-05 0.000E+00

     total cpu time spent up to now is       35.5 secs

     total energy              =     -15.15762845 Ry
     Harris-Foulkes estimate   =     -15.16006728 Ry
     estimated scf accuracy    <       0.00920386 Ry

     iteration #  6     ecut=    42.00 Ry     beta= 0.30
     Davidson diagonalization with overlap
     ethr =  1.12E-04,  avg # of iterations =  1.0

     negative rho (up, down):  8.179E-08 0.000E+00

     total cpu time spent up to now is       40.1 secs

     total energy              =     -15.15722269 Ry
     Harris-Foulkes estimate   =     -15.15810308 Ry
     estimated scf accuracy    <       0.00213681 Ry

     iteration #  7     ecut=    42.00 Ry     beta= 0.30
     Davidson diagonalization with overlap
     ethr =  2.67E-05,  avg # of iterations =  2.5

     negative rho (up, down):  3.409E-07 0.000E+00

     total cpu time spent up to now is       45.5 secs

     total energy              =     -15.15765511 Ry
     Harris-Foulkes estimate   =     -15.15766217 Ry
     estimated scf accuracy    <       0.00003318 Ry

     iteration #  8     ecut=    42.00 Ry     beta= 0.30
     Davidson diagonalization with overlap
     ethr =  4.15E-07,  avg # of iterations =  4.8

     negative rho (up, down):  5.704E-07 0.000E+00

     total cpu time spent up to now is       52.3 secs

     total energy              =     -15.15766048 Ry
     Harris-Foulkes estimate   =     -15.15766146 Ry
     estimated scf accuracy    <       0.00001220 Ry

     iteration #  9     ecut=    42.00 Ry     beta= 0.30
     Davidson diagonalization with overlap
     ethr =  1.53E-07,  avg # of iterations =  1.0

     negative rho (up, down):  3.534E-07 0.000E+00

     total cpu time spent up to now is       59.3 secs

     total energy              =     -15.15765975 Ry
     Harris-Foulkes estimate   =     -15.15766080 Ry
     estimated scf accuracy    <       0.00001032 Ry

     iteration # 10     ecut=    42.00 Ry     beta= 0.30
     Davidson diagonalization with overlap
     ethr =  1.29E-07,  avg # of iterations =  1.0

     negative rho (up, down):  4.370E-07 0.000E+00

     total cpu time spent up to now is       64.0 secs

     total energy              =     -15.15765942 Ry
     Harris-Foulkes estimate   =     -15.15765986 Ry
     estimated scf accuracy    <       0.00000696 Ry

     iteration # 11     ecut=    42.00 Ry     beta= 0.30
     Davidson diagonalization with overlap
     ethr =  8.70E-08,  avg # of iterations =  1.0

     negative rho (up, down):  9.793E-08 0.000E+00

     total cpu time spent up to now is       68.7 secs

     total energy              =     -15.15765790 Ry
     Harris-Foulkes estimate   =     -15.15765947 Ry
     estimated scf accuracy    <       0.00000567 Ry

     iteration # 12     ecut=    42.00 Ry     beta= 0.30
     Davidson diagonalization with overlap
     ethr =  7.09E-08,  avg # of iterations =  1.0

     total cpu time spent up to now is       73.6 secs

     total energy              =     -15.15765804 Ry
     Harris-Foulkes estimate   =     -15.15765833 Ry
     estimated scf accuracy    <       0.00000083 Ry

     iteration # 13     ecut=    42.00 Ry     beta= 0.30
     Davidson diagonalization with overlap
     ethr =  1.04E-08,  avg # of iterations =  2.0

     negative rho (up, down):  3.125E-08 0.000E+00

     total cpu time spent up to now is       79.8 secs

     total energy              =     -15.15765819 Ry
     Harris-Foulkes estimate   =     -15.15765821 Ry
     estimated scf accuracy    <       0.00000001 Ry

     iteration # 14     ecut=    42.00 Ry     beta= 0.30
     Davidson diagonalization with overlap
     ethr =  1.53E-10,  avg # of iterations =  3.0

     total cpu time spent up to now is       85.6 secs

     End of self-consistent calculation

          k = 0.0000 0.0000 0.0000 (248049 PWs)   bands (ev):

   -14.0254  -8.3193  -5.7879  -5.7879  -5.1408  -1.6121  -1.6121  -0.2157

     occupation numbers 
     1.0000   1.0000   0.8822   0.8822   0.2355   0.0000   0.0000   0.0000

          k = 0.0000 0.0000-0.5000 (247982 PWs)   bands (ev):

   -14.0254  -8.3193  -5.7879  -5.7879  -5.1408  -1.6121  -1.6121  -0.2015

     occupation numbers 
     1.0000   1.0000   0.8822   0.8822   0.2355   0.0000   0.0000   0.0000

          k = 0.0000-0.5000-0.5000 (248312 PWs)   bands (ev):

   -14.0254  -8.3193  -5.7879  -5.7879  -5.1408  -1.6121  -1.6121  -0.1898

     occupation numbers 
     1.0000   1.0000   0.8822   0.8822   0.2355   0.0000   0.0000   0.0000

          k =-0.5000-0.5000-0.5000 (248296 PWs)   bands (ev):

   -14.0254  -8.3193  -5.7879  -5.7879  -5.1408  -1.6121  -1.6121  -0.1819

     occupation numbers 
     1.0000   1.0000   0.8822   0.8822   0.2355   0.0000   0.0000   0.0000

          k =-0.5000 0.0000 0.0000 (247982 PWs)   bands (ev):

   -14.0254  -8.3193  -5.7879  -5.7879  -5.1408  -1.6121  -1.6121  -0.2034

     occupation numbers 
     1.0000   1.0000   0.8822   0.8822   0.2355   0.0000   0.0000   0.0000

          k =-0.5000 0.5000 0.0000 (248312 PWs)   bands (ev):

   -14.0254  -8.3193  -5.7879  -5.7879  -5.1408  -1.6121  -1.6121  -0.1918

     occupation numbers 
     1.0000   1.0000   0.8822   0.8822   0.2355   0.0000   0.0000   0.0000

     the Fermi energy is    -5.3266 ev

!    total energy              =     -15.15765820 Ry
     Harris-Foulkes estimate   =     -15.15765819 Ry
     estimated scf accuracy    <          8.4E-10 Ry

     The total energy is the sum of the following terms:

     one-electron contribution =     -32.02998353 Ry
     hartree contribution      =      16.44033963 Ry
     xc contribution           =      -4.49172115 Ry
     ewald contribution        =       4.94098151 Ry
     smearing contrib. (-TS)   =      -0.01727467 Ry

     convergence has been achieved in  14 iterations

     Forces acting on atoms (cartesian axes, Ry/au):

     atom    1 type  1   force =    -0.52833005    0.00000000    0.00000000
     atom    2 type  1   force =     0.52833005    0.00000000    0.00000000
     The non-local contrib.  to forces
     atom    1 type  1   force =    -0.87322231    0.00000000    0.00000000
     atom    2 type  1   force =     0.87322257    0.00000000    0.00000000
     The ionic contribution  to forces
     atom    1 type  1   force =    -2.95139348   -0.00000000   -0.00000000
     atom    2 type  1   force =     2.95139348    0.00000000   -0.00000000
     The local contribution  to forces
     atom    1 type  1   force =     3.29629636    0.00000000   -0.00000000
     atom    2 type  1   force =    -3.29629838   -0.00000000   -0.00000000
     The core correction contribution to forces
     atom    1 type  1   force =     0.00000000    0.00000000    0.00000000
     atom    2 type  1   force =     0.00000000    0.00000000    0.00000000
     The Hubbard contrib.    to forces
     atom    1 type  1   force =     0.00000000    0.00000000    0.00000000
     atom    2 type  1   force =     0.00000000    0.00000000    0.00000000
     The SCF correction term to forces
     atom    1 type  1   force =    -0.00001099    0.00000000   -0.00000000
     atom    2 type  1   force =     0.00001201    0.00000000   -0.00000000

     Total force =     0.747172     Total SCF correction =     0.000016


     Computing stress (Cartesian axis) and pressure

          total   stress  (Ry/bohr**3)                   (kbar)     P=    1.58
   0.00003216   0.00000000   0.00000000          4.73      0.00      0.00
   0.00000000  -0.00000001   0.00000000          0.00     -0.00      0.00
   0.00000000   0.00000000  -0.00000001          0.00      0.00     -0.00

     kinetic stress (kbar)      9.51      0.00      0.00
                                0.00     12.02      0.00
                                0.00      0.00     12.02

     local   stress (kbar)    -58.31      0.00     -0.00
                                0.00    -30.85     -0.00
                               -0.00     -0.00    -30.85

     nonloc. stress (kbar)     16.19      0.00      0.00
                                0.00     14.06      0.00
                                0.00      0.00     14.06

     hartree stress (kbar)     18.85      0.00      0.00
                                0.00     12.97      0.00
                                0.00      0.00     12.97

     exc-cor stress (kbar)     -3.74      0.00     -0.00
                                0.00     -3.81      0.00
                               -0.00      0.00     -3.81

     corecor stress (kbar)      0.00      0.00      0.00
                                0.00      0.00      0.00
                                0.00      0.00      0.00

     ewald   stress (kbar)     22.23     -0.00     -0.00
                               -0.00     -4.38     -0.00
                               -0.00     -0.00     -4.38

     hubbard stress (kbar)      0.00      0.00      0.00
                                0.00      0.00      0.00
                                0.00      0.00      0.00

     london  stress (kbar)      0.00      0.00      0.00
                                0.00      0.00      0.00
                                0.00      0.00      0.00

     DFT-D3  stress (kbar)      0.00      0.00      0.00
                                0.00      0.00      0.00
                                0.00      0.00      0.00

     XDM     stress (kbar)      0.00      0.00      0.00
                                0.00      0.00      0.00
                                0.00      0.00      0.00

     dft-nl  stress (kbar)      0.00      0.00      0.00
                                0.00      0.00      0.00
                                0.00      0.00      0.00

     TS-vdW  stress (kbar)      0.00      0.00      0.00
                                0.00      0.00      0.00
                                0.00      0.00      0.00



     Writing output data file SiSi5.save

     init_run     :      3.34s CPU      3.47s WALL (       1 calls)
     electrons    :     75.68s CPU     82.21s WALL (       1 calls)
     forces       :      0.36s CPU      0.36s WALL (       1 calls)
     stress       :      1.73s CPU      1.83s WALL (       1 calls)

     Called by init_run:
     wfcinit      :      1.73s CPU      1.75s WALL (       1 calls)
     wfcinit:atom :      0.04s CPU      0.04s WALL (       6 calls)
     wfcinit:wfcr :      1.52s CPU      1.53s WALL (       6 calls)
     potinit      :      0.53s CPU      0.57s WALL (       1 calls)

     Called by electrons:
     c_bands      :     56.25s CPU     61.59s WALL (      14 calls)
     sum_band     :     13.03s CPU     13.08s WALL (      14 calls)
     v_of_rho     :      5.15s CPU      5.20s WALL (      15 calls)
     v_h          :      0.51s CPU      0.52s WALL (      15 calls)
     v_xc         :      4.65s CPU      4.68s WALL (      15 calls)
     mix_rho      :      1.36s CPU      1.44s WALL (      14 calls)

     Called by c_bands:
     init_us_2    :      1.17s CPU      1.18s WALL (     186 calls)
     cegterg      :     55.21s CPU     55.39s WALL (      84 calls)

     Called by sum_band:

     Called by *egterg:
     h_psi        :     53.50s CPU     53.66s WALL (     287 calls)
     g_psi        :      0.21s CPU      0.21s WALL (     197 calls)
     cdiaghg      :      0.05s CPU      0.05s WALL (     281 calls)
     cegterg:over :      0.98s CPU      0.98s WALL (     197 calls)
     cegterg:upda :      0.79s CPU      0.80s WALL (     197 calls)
     cegterg:last :      0.29s CPU      0.29s WALL (      84 calls)

     Called by h_psi:
     h_psi:pot    :     53.21s CPU     53.37s WALL (     287 calls)
     h_psi:calbec :      0.49s CPU      0.49s WALL (     287 calls)
     vloc_psi     :     52.35s CPU     52.49s WALL (     287 calls)
     add_vuspsi   :      0.37s CPU      0.38s WALL (     287 calls)

     General routines
     calbec       :      0.55s CPU      0.56s WALL (     317 calls)
     fft          :      4.47s CPU      4.49s WALL (     172 calls)
     fftw         :     55.92s CPU     56.06s WALL (    4052 calls)

     Parallel routines
     fft_scatt_xy :      8.58s CPU      8.61s WALL (    4224 calls)
     fft_scatt_yz :     11.85s CPU     11.89s WALL (    4224 calls)

     PWSCF        :  1m21.51s CPU     1m28.81s WALL


   This run was terminated on:  21: 3:43   1Oct2020            

=------------------------------------------------------------------------------=
   JOB DONE.
=------------------------------------------------------------------------------=
