
     Program PWSCF v.6.2 (svn rev. 14038) starts on  1Oct2020 at 21:22:30 

     This program is part of the open-source Quantum ESPRESSO suite
     for quantum simulation of materials; please cite
         "P. Giannozzi et al., J. Phys.:Condens. Matter 21 395502 (2009);
         "P. Giannozzi et al., J. Phys.:Condens. Matter 29 465901 (2017);
          URL http://www.quantum-espresso.org", 
     in publications or presentations arising from this work. More details at
     http://www.quantum-espresso.org/quote

     Parallel version (MPI), running on     8 processors

     MPI processes distributed on     1 nodes
     R & G space division:  proc/nbgrp/npool/nimage =       8
     Waiting for input...
     Reading input from standard input

     Current dimensions of program PWSCF are:
     Max number of different atomic species (ntypx) = 10
     Max number of k-points (npk) =  40000
     Max angular momentum in pseudopotentials (lmaxx) =  3

     Subspace diagonalization in iterative solution of the eigenvalue problem:
     a serial algorithm will be used


     Parallelization info
     --------------------
     sticks:   dense  smooth     PW     G-vecs:    dense   smooth      PW
     Min        2386    2386    623               248152   248152   33108
     Max        2387    2387    625               248157   248157   33111
     Sum       19089   19089   4989              1985227  1985227  264875



     bravais-lattice index     =            1
     lattice parameter (alat)  =      37.7945  a.u.
     unit-cell volume          =   53986.6767 (a.u.)^3
     number of atoms/cell      =            2
     number of atomic types    =            1
     number of electrons       =         8.00
     number of Kohn-Sham states=            8
     kinetic-energy cutoff     =      42.0000  Ry
     charge density cutoff     =     168.0000  Ry
     convergence threshold     =      1.0E-08
     mixing beta               =       0.3000
     number of iterations used =            8  plain     mixing
     Exchange-correlation      = SLA-PW-PBX-PBC ( 1  4  3  4 0 0)

     celldm(1)=  37.794523  celldm(2)=   0.000000  celldm(3)=   0.000000
     celldm(4)=   0.000000  celldm(5)=   0.000000  celldm(6)=   0.000000

     crystal axes: (cart. coord. in units of alat)
               a(1) = (   1.000000   0.000000   0.000000 )  
               a(2) = (   0.000000   1.000000   0.000000 )  
               a(3) = (   0.000000   0.000000   1.000000 )  

     reciprocal axes: (cart. coord. in units 2 pi/alat)
               b(1) = (  1.000000  0.000000  0.000000 )  
               b(2) = (  0.000000  1.000000  0.000000 )  
               b(3) = (  0.000000  0.000000  1.000000 )  


     PseudoPot. # 1 for Si read from file:
     ./Si.pbe-hgh.UPF
     MD5 check sum: 9a9f0f6e09139bfdb36b03ff6bc35900
     Pseudo is Norm-conserving, Zval =  4.0
     Generated in analytical, separable form
     Using radial grid of 1141 points,  3 beta functions with: 
                l(1) =   0
                l(2) =   0
                l(3) =   1

     atomic species   valence    mass     pseudopotential
        Si             4.00    28.08000     Si( 1.00)

     16 Sym. Ops., with inversion, found ( 8 have fractional translation)


                                    s                        frac. trans.

      isym =  1     identity                                     

 cryst.   s( 1) = (     1          0          0      )
                  (     0          1          0      )
                  (     0          0          1      )

 cart.    s( 1) = (  1.0000000  0.0000000  0.0000000 )
                  (  0.0000000  1.0000000  0.0000000 )
                  (  0.0000000  0.0000000  1.0000000 )


      isym =  2     180 deg rotation - cart. axis [0,0,1]        

 cryst.   s( 2) = (    -1          0          0      )    f =( -0.1250000 )
                  (     0         -1          0      )       (  0.0000000 )
                  (     0          0          1      )       (  0.0000000 )

 cart.    s( 2) = ( -1.0000000  0.0000000  0.0000000 )    f =( -0.1250000 )
                  (  0.0000000 -1.0000000  0.0000000 )       (  0.0000000 )
                  (  0.0000000  0.0000000  1.0000000 )       (  0.0000000 )


      isym =  3     180 deg rotation - cart. axis [0,1,0]        

 cryst.   s( 3) = (    -1          0          0      )    f =( -0.1250000 )
                  (     0          1          0      )       (  0.0000000 )
                  (     0          0         -1      )       (  0.0000000 )

 cart.    s( 3) = ( -1.0000000  0.0000000  0.0000000 )    f =( -0.1250000 )
                  (  0.0000000  1.0000000  0.0000000 )       (  0.0000000 )
                  (  0.0000000  0.0000000 -1.0000000 )       (  0.0000000 )


      isym =  4     180 deg rotation - cart. axis [1,0,0]        

 cryst.   s( 4) = (     1          0          0      )
                  (     0         -1          0      )
                  (     0          0         -1      )

 cart.    s( 4) = (  1.0000000  0.0000000  0.0000000 )
                  (  0.0000000 -1.0000000  0.0000000 )
                  (  0.0000000  0.0000000 -1.0000000 )


      isym =  5     180 deg rotation - cart. axis [0,1,1]        

 cryst.   s( 5) = (    -1          0          0      )    f =( -0.1250000 )
                  (     0          0          1      )       (  0.0000000 )
                  (     0          1          0      )       (  0.0000000 )

 cart.    s( 5) = ( -1.0000000  0.0000000  0.0000000 )    f =( -0.1250000 )
                  (  0.0000000  0.0000000  1.0000000 )       (  0.0000000 )
                  (  0.0000000  1.0000000  0.0000000 )       (  0.0000000 )


      isym =  6     180 deg rotation - cart. axis [0,1,-1]       

 cryst.   s( 6) = (    -1          0          0      )    f =( -0.1250000 )
                  (     0          0         -1      )       (  0.0000000 )
                  (     0         -1          0      )       (  0.0000000 )

 cart.    s( 6) = ( -1.0000000  0.0000000  0.0000000 )    f =( -0.1250000 )
                  (  0.0000000  0.0000000 -1.0000000 )       (  0.0000000 )
                  (  0.0000000 -1.0000000  0.0000000 )       (  0.0000000 )


      isym =  7      90 deg rotation - cart. axis [-1,0,0]       

 cryst.   s( 7) = (     1          0          0      )
                  (     0          0         -1      )
                  (     0          1          0      )

 cart.    s( 7) = (  1.0000000  0.0000000  0.0000000 )
                  (  0.0000000  0.0000000  1.0000000 )
                  (  0.0000000 -1.0000000  0.0000000 )


      isym =  8      90 deg rotation - cart. axis [1,0,0]        

 cryst.   s( 8) = (     1          0          0      )
                  (     0          0          1      )
                  (     0         -1          0      )

 cart.    s( 8) = (  1.0000000  0.0000000  0.0000000 )
                  (  0.0000000  0.0000000 -1.0000000 )
                  (  0.0000000  1.0000000  0.0000000 )


      isym =  9     inversion                                    

 cryst.   s( 9) = (    -1          0          0      )    f =( -0.1250000 )
                  (     0         -1          0      )       (  0.0000000 )
                  (     0          0         -1      )       (  0.0000000 )

 cart.    s( 9) = ( -1.0000000  0.0000000  0.0000000 )    f =( -0.1250000 )
                  (  0.0000000 -1.0000000  0.0000000 )       (  0.0000000 )
                  (  0.0000000  0.0000000 -1.0000000 )       (  0.0000000 )


      isym = 10     inv. 180 deg rotation - cart. axis [0,0,1]   

 cryst.   s(10) = (     1          0          0      )
                  (     0          1          0      )
                  (     0          0         -1      )

 cart.    s(10) = (  1.0000000  0.0000000  0.0000000 )
                  (  0.0000000  1.0000000  0.0000000 )
                  (  0.0000000  0.0000000 -1.0000000 )


      isym = 11     inv. 180 deg rotation - cart. axis [0,1,0]   

 cryst.   s(11) = (     1          0          0      )
                  (     0         -1          0      )
                  (     0          0          1      )

 cart.    s(11) = (  1.0000000  0.0000000  0.0000000 )
                  (  0.0000000 -1.0000000  0.0000000 )
                  (  0.0000000  0.0000000  1.0000000 )


      isym = 12     inv. 180 deg rotation - cart. axis [1,0,0]   

 cryst.   s(12) = (    -1          0          0      )    f =( -0.1250000 )
                  (     0          1          0      )       (  0.0000000 )
                  (     0          0          1      )       (  0.0000000 )

 cart.    s(12) = ( -1.0000000  0.0000000  0.0000000 )    f =( -0.1250000 )
                  (  0.0000000  1.0000000  0.0000000 )       (  0.0000000 )
                  (  0.0000000  0.0000000  1.0000000 )       (  0.0000000 )


      isym = 13     inv. 180 deg rotation - cart. axis [0,1,1]   

 cryst.   s(13) = (     1          0          0      )
                  (     0          0         -1      )
                  (     0         -1          0      )

 cart.    s(13) = (  1.0000000  0.0000000  0.0000000 )
                  (  0.0000000  0.0000000 -1.0000000 )
                  (  0.0000000 -1.0000000  0.0000000 )


      isym = 14     inv. 180 deg rotation - cart. axis [0,1,-1]  

 cryst.   s(14) = (     1          0          0      )
                  (     0          0          1      )
                  (     0          1          0      )

 cart.    s(14) = (  1.0000000  0.0000000  0.0000000 )
                  (  0.0000000  0.0000000  1.0000000 )
                  (  0.0000000  1.0000000  0.0000000 )


      isym = 15     inv.  90 deg rotation - cart. axis [-1,0,0]  

 cryst.   s(15) = (    -1          0          0      )    f =( -0.1250000 )
                  (     0          0          1      )       (  0.0000000 )
                  (     0         -1          0      )       (  0.0000000 )

 cart.    s(15) = ( -1.0000000  0.0000000  0.0000000 )    f =( -0.1250000 )
                  (  0.0000000  0.0000000 -1.0000000 )       (  0.0000000 )
                  (  0.0000000  1.0000000  0.0000000 )       (  0.0000000 )


      isym = 16     inv.  90 deg rotation - cart. axis [1,0,0]   

 cryst.   s(16) = (    -1          0          0      )    f =( -0.1250000 )
                  (     0          0         -1      )       (  0.0000000 )
                  (     0          1          0      )       (  0.0000000 )

 cart.    s(16) = ( -1.0000000  0.0000000  0.0000000 )    f =( -0.1250000 )
                  (  0.0000000  0.0000000  1.0000000 )       (  0.0000000 )
                  (  0.0000000 -1.0000000  0.0000000 )       (  0.0000000 )


     point group D_4h(4/mmm)
     there are 10 classes
     the character table:

       E     2C4   C2    2C2'  2C2'' i     2S4   s_h   2s_v  2s_d 
A_1g   1.00  1.00  1.00  1.00  1.00  1.00  1.00  1.00  1.00  1.00
A_2g   1.00  1.00  1.00 -1.00 -1.00  1.00  1.00  1.00 -1.00 -1.00
B_1g   1.00 -1.00  1.00  1.00 -1.00  1.00 -1.00  1.00  1.00 -1.00
B_2g   1.00 -1.00  1.00 -1.00  1.00  1.00 -1.00  1.00 -1.00  1.00
E_g    2.00  0.00 -2.00  0.00  0.00  2.00  0.00 -2.00  0.00  0.00
A_1u   1.00  1.00  1.00  1.00  1.00 -1.00 -1.00 -1.00 -1.00 -1.00
A_2u   1.00  1.00  1.00 -1.00 -1.00 -1.00 -1.00 -1.00  1.00  1.00
B_1u   1.00 -1.00  1.00  1.00 -1.00 -1.00  1.00 -1.00 -1.00  1.00
B_2u   1.00 -1.00  1.00 -1.00  1.00 -1.00  1.00 -1.00  1.00 -1.00
E_u    2.00  0.00 -2.00  0.00  0.00 -2.00  0.00  2.00  0.00  0.00

     the symmetry operations in each class and the name of the first element:

     E        1
          identity                                               
     2C4      7    8
           90 deg rotation - cart. axis [-1,0,0]                 
     C2       4
          180 deg rotation - cart. axis [1,0,0]                  
     2C2'     2    3
          180 deg rotation - cart. axis [0,0,1]                  
     2C2''    5    6
          180 deg rotation - cart. axis [0,1,1]                  
     i        9
          inversion                                              
     2S4     15   16
          inv.  90 deg rotation - cart. axis [-1,0,0]            
     s_h     12
          inv. 180 deg rotation - cart. axis [1,0,0]             
     2s_v    10   11
          inv. 180 deg rotation - cart. axis [0,0,1]             
     2s_d    13   14
          inv. 180 deg rotation - cart. axis [0,1,1]             

   Cartesian axes

     site n.     atom                  positions (alat units)
         1           Si  tau(   1) = (   0.0000000   0.0000000   0.0000000  )
         2           Si  tau(   2) = (   0.1250000   0.0000000   0.0000000  )

   Crystallographic axes

     site n.     atom                  positions (cryst. coord.)
         1           Si  tau(   1) = (  0.0000000  0.0000000  0.0000000  )
         2           Si  tau(   2) = (  0.1250000  0.0000000  0.0000000  )

     number of k points=     6  Marzari-Vanderbilt smearing, width (Ry)=  0.0500
                       cart. coord. in units 2pi/alat
        k(    1) = (   0.0000000   0.0000000   0.0000000), wk =   0.2500000
        k(    2) = (   0.0000000   0.0000000  -0.5000000), wk =   0.5000000
        k(    3) = (   0.0000000  -0.5000000  -0.5000000), wk =   0.2500000
        k(    4) = (  -0.5000000  -0.5000000  -0.5000000), wk =   0.2500000
        k(    5) = (  -0.5000000   0.0000000   0.0000000), wk =   0.2500000
        k(    6) = (  -0.5000000  -0.5000000   0.0000000), wk =   0.5000000

                       cryst. coord.
        k(    1) = (   0.0000000   0.0000000   0.0000000), wk =   0.2500000
        k(    2) = (   0.0000000   0.0000000  -0.5000000), wk =   0.5000000
        k(    3) = (   0.0000000  -0.5000000  -0.5000000), wk =   0.2500000
        k(    4) = (  -0.5000000  -0.5000000  -0.5000000), wk =   0.2500000
        k(    5) = (  -0.5000000   0.0000000   0.0000000), wk =   0.2500000
        k(    6) = (  -0.5000000  -0.5000000   0.0000000), wk =   0.5000000

     Dense  grid:  1985227 G-vectors     FFT dimensions: ( 160, 160, 160)

     Dynamical RAM for                 wfc:       3.79 MB

     Dynamical RAM for     wfc (w. buffer):      26.50 MB

     Dynamical RAM for           str. fact:       3.79 MB

     Dynamical RAM for           local pot:       0.00 MB

     Dynamical RAM for          nlocal pot:       4.73 MB

     Dynamical RAM for                qrad:       1.07 MB

     Dynamical RAM for          rho,v,vnew:      23.08 MB

     Dynamical RAM for               rhoin:       7.69 MB

     Dynamical RAM for            rho*nmix:      60.58 MB

     Dynamical RAM for           G-vectors:      16.09 MB

     Dynamical RAM for          h,s,v(r/c):       0.05 MB

     Dynamical RAM for          <psi|beta>:       0.00 MB

     Dynamical RAM for                 psi:      15.15 MB

     Dynamical RAM for                hpsi:      15.15 MB

     Dynamical RAM for      wfcinit/wfcrot:       7.57 MB

     Estimated static dynamical RAM per process >     170.65 MB

     Estimated max dynamical RAM per process >     200.99 MB

     Estimated total dynamical RAM >       1.57 GB

     Initial potential from superposition of free atoms
     Check: negative starting charge=   -0.000617

     starting charge    7.99888, renormalised to    8.00000

     negative rho (up, down):  6.168E-04 0.000E+00
     Starting wfc are    8 randomized atomic wfcs

     total cpu time spent up to now is        3.9 secs

     Self-consistent Calculation

     iteration #  1     ecut=    42.00 Ry     beta= 0.30
     Davidson diagonalization with overlap
     ethr =  1.00E-02,  avg # of iterations =  3.0

     Threshold (ethr) on eigenvalues was too large:
     Diagonalizing with lowered threshold

     Davidson diagonalization with overlap
     ethr =  6.69E-04,  avg # of iterations =  2.5

     negative rho (up, down):  3.985E-04 0.000E+00

     total cpu time spent up to now is       15.3 secs

     total energy              =     -15.31181201 Ry
     Harris-Foulkes estimate   =     -15.32605865 Ry
     estimated scf accuracy    <       0.05673892 Ry

     iteration #  2     ecut=    42.00 Ry     beta= 0.30
     Davidson diagonalization with overlap
     ethr =  7.09E-04,  avg # of iterations =  1.0

     negative rho (up, down):  1.143E-04 0.000E+00

     total cpu time spent up to now is       21.6 secs

     total energy              =     -15.30555415 Ry
     Harris-Foulkes estimate   =     -15.31332838 Ry
     estimated scf accuracy    <       0.01802840 Ry

     iteration #  3     ecut=    42.00 Ry     beta= 0.30
     Davidson diagonalization with overlap
     ethr =  2.25E-04,  avg # of iterations =  3.0

     negative rho (up, down):  9.908E-05 0.000E+00

     total cpu time spent up to now is       29.5 secs

     total energy              =     -15.30865456 Ry
     Harris-Foulkes estimate   =     -15.30911597 Ry
     estimated scf accuracy    <       0.00114108 Ry

     iteration #  4     ecut=    42.00 Ry     beta= 0.30
     Davidson diagonalization with overlap
     ethr =  1.43E-05,  avg # of iterations =  3.0

     negative rho (up, down):  1.423E-05 0.000E+00

     total cpu time spent up to now is       36.4 secs

     total energy              =     -15.30880728 Ry
     Harris-Foulkes estimate   =     -15.30884499 Ry
     estimated scf accuracy    <       0.00025870 Ry

     iteration #  5     ecut=    42.00 Ry     beta= 0.30
     Davidson diagonalization with overlap
     ethr =  3.23E-06,  avg # of iterations =  2.5

     negative rho (up, down):  1.328E-05 0.000E+00

     total cpu time spent up to now is       42.5 secs

     total energy              =     -15.30883458 Ry
     Harris-Foulkes estimate   =     -15.30883779 Ry
     estimated scf accuracy    <       0.00003347 Ry

     iteration #  6     ecut=    42.00 Ry     beta= 0.30
     Davidson diagonalization with overlap
     ethr =  4.18E-07,  avg # of iterations =  1.0

     total cpu time spent up to now is       47.6 secs

     total energy              =     -15.30881891 Ry
     Harris-Foulkes estimate   =     -15.30883606 Ry
     estimated scf accuracy    <       0.00002721 Ry

     iteration #  7     ecut=    42.00 Ry     beta= 0.30
     Davidson diagonalization with overlap
     ethr =  3.40E-07,  avg # of iterations =  2.0

     negative rho (up, down):  3.171E-07 0.000E+00

     total cpu time spent up to now is       54.0 secs

     total energy              =     -15.30882709 Ry
     Harris-Foulkes estimate   =     -15.30882995 Ry
     estimated scf accuracy    <       0.00000809 Ry

     iteration #  8     ecut=    42.00 Ry     beta= 0.30
     Davidson diagonalization with overlap
     ethr =  1.01E-07,  avg # of iterations =  1.0

     negative rho (up, down):  6.139E-08 0.000E+00

     total cpu time spent up to now is       61.3 secs

     total energy              =     -15.30882668 Ry
     Harris-Foulkes estimate   =     -15.30882781 Ry
     estimated scf accuracy    <       0.00000257 Ry

     iteration #  9     ecut=    42.00 Ry     beta= 0.30
     Davidson diagonalization with overlap
     ethr =  3.21E-08,  avg # of iterations =  2.0

     total cpu time spent up to now is       67.4 secs

     total energy              =     -15.30882724 Ry
     Harris-Foulkes estimate   =     -15.30882725 Ry
     estimated scf accuracy    <       0.00000002 Ry

     iteration # 10     ecut=    42.00 Ry     beta= 0.30
     Davidson diagonalization with overlap
     ethr =  2.95E-10,  avg # of iterations =  2.0

     negative rho (up, down):  1.980E-08 0.000E+00

     total cpu time spent up to now is       75.6 secs

     total energy              =     -15.30882727 Ry
     Harris-Foulkes estimate   =     -15.30882725 Ry
     estimated scf accuracy    <       0.00000001 Ry

     iteration # 11     ecut=    42.00 Ry     beta= 0.30
     Davidson diagonalization with overlap
     ethr =  1.68E-10,  avg # of iterations =  1.0

     total cpu time spent up to now is       80.8 secs

     End of self-consistent calculation

          k = 0.0000 0.0000 0.0000 (248049 PWs)   bands (ev):

   -12.1183  -9.4274  -5.1419  -4.8813  -4.8813  -2.9037  -2.9037  -0.5914

     occupation numbers 
     1.0000   1.0000   0.8491   0.5755   0.5755   0.0000   0.0000   0.0000

          k = 0.0000 0.0000-0.5000 (247982 PWs)   bands (ev):

   -12.1183  -9.4274  -5.1419  -4.8813  -4.8813  -2.9037  -2.9037  -0.5912

     occupation numbers 
     1.0000   1.0000   0.8491   0.5755   0.5755   0.0000   0.0000   0.0000

          k = 0.0000-0.5000-0.5000 (248312 PWs)   bands (ev):

   -12.1183  -9.4274  -5.1419  -4.8813  -4.8813  -2.9037  -2.9037  -0.5911

     occupation numbers 
     1.0000   1.0000   0.8491   0.5755   0.5755   0.0000   0.0000   0.0000

          k =-0.5000-0.5000-0.5000 (248296 PWs)   bands (ev):

   -12.1183  -9.4274  -5.1419  -4.8813  -4.8813  -2.9037  -2.9037  -0.5947

     occupation numbers 
     1.0000   1.0000   0.8491   0.5755   0.5755   0.0000   0.0000   0.0000

          k =-0.5000 0.0000 0.0000 (247982 PWs)   bands (ev):

   -12.1183  -9.4274  -5.1419  -4.8813  -4.8813  -2.9037  -2.9037  -0.5951

     occupation numbers 
     1.0000   1.0000   0.8491   0.5755   0.5755   0.0000   0.0000   0.0000

          k =-0.5000-0.5000 0.0000 (248312 PWs)   bands (ev):

   -12.1183  -9.4274  -5.1419  -4.8813  -4.8813  -2.9037  -2.9037  -0.5949

     occupation numbers 
     1.0000   1.0000   0.8491   0.5755   0.5755   0.0000   0.0000   0.0000

     the Fermi energy is    -4.7178 ev

!    total energy              =     -15.30882724 Ry
     Harris-Foulkes estimate   =     -15.30882727 Ry
     estimated scf accuracy    <          3.2E-09 Ry

     The total energy is the sum of the following terms:

     one-electron contribution =     -26.97413625 Ry
     hartree contribution      =      13.85598839 Ry
     xc contribution           =      -4.15464563 Ry
     ewald contribution        =       1.99723430 Ry
     smearing contrib. (-TS)   =      -0.03326805 Ry

     convergence has been achieved in  11 iterations

     Forces acting on atoms (cartesian axes, Ry/au):

     atom    1 type  1   force =     0.07318952    0.00000000    0.00000000
     atom    2 type  1   force =    -0.07318952    0.00000000    0.00000000
     The non-local contrib.  to forces
     atom    1 type  1   force =     0.16411235    0.00000000    0.00000000
     atom    2 type  1   force =    -0.16411235    0.00000000   -0.00000000
     The ionic contribution  to forces
     atom    1 type  1   force =    -1.42146958    0.00000000   -0.00000000
     atom    2 type  1   force =     1.42146958   -0.00000000   -0.00000000
     The local contribution  to forces
     atom    1 type  1   force =     1.33052396   -0.00000000   -0.00000000
     atom    2 type  1   force =    -1.33052396    0.00000000   -0.00000000
     The core correction contribution to forces
     atom    1 type  1   force =     0.00000000    0.00000000    0.00000000
     atom    2 type  1   force =     0.00000000    0.00000000    0.00000000
     The Hubbard contrib.    to forces
     atom    1 type  1   force =     0.00000000    0.00000000    0.00000000
     atom    2 type  1   force =     0.00000000    0.00000000    0.00000000
     The SCF correction term to forces
     atom    1 type  1   force =     0.00002279   -0.00000000   -0.00000000
     atom    2 type  1   force =    -0.00002279   -0.00000000   -0.00000000

     Total force =     0.103506     Total SCF correction =     0.000032


     Computing stress (Cartesian axis) and pressure

          total   stress  (Ry/bohr**3)                   (kbar)     P=   -0.31
  -0.00000641   0.00000000   0.00000000         -0.94      0.00      0.00
   0.00000000  -0.00000000   0.00000000          0.00     -0.00      0.00
   0.00000000   0.00000000  -0.00000000          0.00      0.00     -0.00

     kinetic stress (kbar)      9.91      0.00      0.00
                                0.00      9.71      0.00
                                0.00      0.00      9.71

     local   stress (kbar)    -54.43     -0.00     -0.00
                               -0.00    -23.84      0.00
                               -0.00      0.00    -23.84

     nonloc. stress (kbar)     13.93      0.00      0.00
                                0.00     12.60      0.00
                                0.00      0.00     12.60

     hartree stress (kbar)     18.85      0.00      0.00
                                0.00      9.45     -0.00
                                0.00     -0.00      9.45

     exc-cor stress (kbar)     -3.44     -0.00      0.00
                               -0.00     -3.53     -0.00
                                0.00     -0.00     -3.53

     corecor stress (kbar)      0.00      0.00      0.00
                                0.00      0.00      0.00
                                0.00      0.00      0.00

     ewald   stress (kbar)     14.24      0.00     -0.00
                                0.00     -4.40     -0.00
                               -0.00     -0.00     -4.40

     hubbard stress (kbar)      0.00      0.00      0.00
                                0.00      0.00      0.00
                                0.00      0.00      0.00

     london  stress (kbar)      0.00      0.00      0.00
                                0.00      0.00      0.00
                                0.00      0.00      0.00

     DFT-D3  stress (kbar)      0.00      0.00      0.00
                                0.00      0.00      0.00
                                0.00      0.00      0.00

     XDM     stress (kbar)      0.00      0.00      0.00
                                0.00      0.00      0.00
                                0.00      0.00      0.00

     dft-nl  stress (kbar)      0.00      0.00      0.00
                                0.00      0.00      0.00
                                0.00      0.00      0.00

     TS-vdW  stress (kbar)      0.00      0.00      0.00
                                0.00      0.00      0.00
                                0.00      0.00      0.00



     Writing output data file SiSi15.save

     init_run     :      3.67s CPU      3.81s WALL (       1 calls)
     electrons    :     70.25s CPU     77.09s WALL (       1 calls)
     forces       :      0.48s CPU      0.49s WALL (       1 calls)
     stress       :      1.89s CPU      1.99s WALL (       1 calls)

     Called by init_run:
     wfcinit      :      1.94s CPU      1.96s WALL (       1 calls)
     wfcinit:atom :      0.04s CPU      0.04s WALL (       6 calls)
     wfcinit:wfcr :      1.74s CPU      1.75s WALL (       6 calls)
     potinit      :      0.56s CPU      0.60s WALL (       1 calls)

     Called by electrons:
     c_bands      :     51.56s CPU     55.67s WALL (      12 calls)
     sum_band     :     13.14s CPU     13.18s WALL (      12 calls)
     v_of_rho     :      4.55s CPU      4.60s WALL (      12 calls)
     v_h          :      0.42s CPU      0.43s WALL (      12 calls)
     v_xc         :      4.13s CPU      4.17s WALL (      12 calls)
     mix_rho      :      1.10s CPU      1.18s WALL (      12 calls)

     Called by c_bands:
     init_us_2    :      1.07s CPU      1.07s WALL (     162 calls)
     cegterg      :     50.63s CPU     50.79s WALL (      72 calls)

     Called by sum_band:

     Called by *egterg:
     h_psi        :     49.87s CPU     50.01s WALL (     222 calls)
     g_psi        :      0.17s CPU      0.17s WALL (     144 calls)
     cdiaghg      :      0.03s CPU      0.03s WALL (     210 calls)
     cegterg:over :      0.72s CPU      0.72s WALL (     144 calls)
     cegterg:upda :      0.55s CPU      0.55s WALL (     144 calls)
     cegterg:last :      0.25s CPU      0.25s WALL (      72 calls)

     Called by h_psi:
     h_psi:pot    :     49.62s CPU     49.76s WALL (     222 calls)
     h_psi:calbec :      0.54s CPU      0.55s WALL (     222 calls)
     vloc_psi     :     48.77s CPU     48.91s WALL (     222 calls)
     add_vuspsi   :      0.30s CPU      0.30s WALL (     222 calls)

     General routines
     calbec       :      0.60s CPU      0.61s WALL (     252 calls)
     fft          :      4.11s CPU      4.14s WALL (     141 calls)
     fftw         :     53.20s CPU     53.33s WALL (    3408 calls)

     Parallel routines
     fft_scatt_xy :      7.50s CPU      7.51s WALL (    3549 calls)
     fft_scatt_yz :     15.18s CPU     15.23s WALL (    3549 calls)

     PWSCF        :  1m16.75s CPU     1m24.42s WALL


   This run was terminated on:  21:23:55   1Oct2020            

=------------------------------------------------------------------------------=
   JOB DONE.
=------------------------------------------------------------------------------=
