
     Program PWSCF v.6.2 (svn rev. 14038) starts on  1Oct2020 at 21:40:31 

     This program is part of the open-source Quantum ESPRESSO suite
     for quantum simulation of materials; please cite
         "P. Giannozzi et al., J. Phys.:Condens. Matter 21 395502 (2009);
         "P. Giannozzi et al., J. Phys.:Condens. Matter 29 465901 (2017);
          URL http://www.quantum-espresso.org", 
     in publications or presentations arising from this work. More details at
     http://www.quantum-espresso.org/quote

     Parallel version (MPI), running on     8 processors

     MPI processes distributed on     1 nodes
     R & G space division:  proc/nbgrp/npool/nimage =       8
     Waiting for input...
     Reading input from standard input

     Current dimensions of program PWSCF are:
     Max number of different atomic species (ntypx) = 10
     Max number of k-points (npk) =  40000
     Max angular momentum in pseudopotentials (lmaxx) =  3

     Subspace diagonalization in iterative solution of the eigenvalue problem:
     a serial algorithm will be used


     Parallelization info
     --------------------
     sticks:   dense  smooth     PW     G-vecs:    dense   smooth      PW
     Min        2386    2386    623               248152   248152   33108
     Max        2387    2387    625               248157   248157   33111
     Sum       19089   19089   4989              1985227  1985227  264875



     bravais-lattice index     =            1
     lattice parameter (alat)  =      37.7945  a.u.
     unit-cell volume          =   53986.6767 (a.u.)^3
     number of atoms/cell      =            2
     number of atomic types    =            1
     number of electrons       =         8.00
     number of Kohn-Sham states=            8
     kinetic-energy cutoff     =      42.0000  Ry
     charge density cutoff     =     168.0000  Ry
     convergence threshold     =      1.0E-08
     mixing beta               =       0.3000
     number of iterations used =            8  plain     mixing
     Exchange-correlation      = SLA-PW-PBX-PBC ( 1  4  3  4 0 0)

     celldm(1)=  37.794523  celldm(2)=   0.000000  celldm(3)=   0.000000
     celldm(4)=   0.000000  celldm(5)=   0.000000  celldm(6)=   0.000000

     crystal axes: (cart. coord. in units of alat)
               a(1) = (   1.000000   0.000000   0.000000 )  
               a(2) = (   0.000000   1.000000   0.000000 )  
               a(3) = (   0.000000   0.000000   1.000000 )  

     reciprocal axes: (cart. coord. in units 2 pi/alat)
               b(1) = (  1.000000  0.000000  0.000000 )  
               b(2) = (  0.000000  1.000000  0.000000 )  
               b(3) = (  0.000000  0.000000  1.000000 )  


     PseudoPot. # 1 for Si read from file:
     ./Si.pbe-hgh.UPF
     MD5 check sum: 9a9f0f6e09139bfdb36b03ff6bc35900
     Pseudo is Norm-conserving, Zval =  4.0
     Generated in analytical, separable form
     Using radial grid of 1141 points,  3 beta functions with: 
                l(1) =   0
                l(2) =   0
                l(3) =   1

     atomic species   valence    mass     pseudopotential
        Si             4.00    28.08000     Si( 1.00)

      8 Sym. Ops. (no inversion) found


                                    s                        frac. trans.

      isym =  1     identity                                     

 cryst.   s( 1) = (     1          0          0      )
                  (     0          1          0      )
                  (     0          0          1      )

 cart.    s( 1) = (  1.0000000  0.0000000  0.0000000 )
                  (  0.0000000  1.0000000  0.0000000 )
                  (  0.0000000  0.0000000  1.0000000 )


      isym =  2     180 deg rotation - cart. axis [1,0,0]        

 cryst.   s( 2) = (     1          0          0      )
                  (     0         -1          0      )
                  (     0          0         -1      )

 cart.    s( 2) = (  1.0000000  0.0000000  0.0000000 )
                  (  0.0000000 -1.0000000  0.0000000 )
                  (  0.0000000  0.0000000 -1.0000000 )


      isym =  3      90 deg rotation - cart. axis [-1,0,0]       

 cryst.   s( 3) = (     1          0          0      )
                  (     0          0         -1      )
                  (     0          1          0      )

 cart.    s( 3) = (  1.0000000  0.0000000  0.0000000 )
                  (  0.0000000  0.0000000  1.0000000 )
                  (  0.0000000 -1.0000000  0.0000000 )


      isym =  4      90 deg rotation - cart. axis [1,0,0]        

 cryst.   s( 4) = (     1          0          0      )
                  (     0          0          1      )
                  (     0         -1          0      )

 cart.    s( 4) = (  1.0000000  0.0000000  0.0000000 )
                  (  0.0000000  0.0000000 -1.0000000 )
                  (  0.0000000  1.0000000  0.0000000 )


      isym =  5     inv. 180 deg rotation - cart. axis [0,0,1]   

 cryst.   s( 5) = (     1          0          0      )
                  (     0          1          0      )
                  (     0          0         -1      )

 cart.    s( 5) = (  1.0000000  0.0000000  0.0000000 )
                  (  0.0000000  1.0000000  0.0000000 )
                  (  0.0000000  0.0000000 -1.0000000 )


      isym =  6     inv. 180 deg rotation - cart. axis [0,1,0]   

 cryst.   s( 6) = (     1          0          0      )
                  (     0         -1          0      )
                  (     0          0          1      )

 cart.    s( 6) = (  1.0000000  0.0000000  0.0000000 )
                  (  0.0000000 -1.0000000  0.0000000 )
                  (  0.0000000  0.0000000  1.0000000 )


      isym =  7     inv. 180 deg rotation - cart. axis [0,1,1]   

 cryst.   s( 7) = (     1          0          0      )
                  (     0          0         -1      )
                  (     0         -1          0      )

 cart.    s( 7) = (  1.0000000  0.0000000  0.0000000 )
                  (  0.0000000  0.0000000 -1.0000000 )
                  (  0.0000000 -1.0000000  0.0000000 )


      isym =  8     inv. 180 deg rotation - cart. axis [0,1,-1]  

 cryst.   s( 8) = (     1          0          0      )
                  (     0          0          1      )
                  (     0          1          0      )

 cart.    s( 8) = (  1.0000000  0.0000000  0.0000000 )
                  (  0.0000000  0.0000000  1.0000000 )
                  (  0.0000000  1.0000000  0.0000000 )


     point group C_4v (4mm) 
     there are  5 classes
     the character table:

       E     2C4   C2    2s_v  2s_d 
A_1    1.00  1.00  1.00  1.00  1.00
A_2    1.00  1.00  1.00 -1.00 -1.00
B_1    1.00 -1.00  1.00  1.00 -1.00
B_2    1.00 -1.00  1.00 -1.00  1.00
E      2.00  0.00 -2.00  0.00  0.00

     the symmetry operations in each class and the name of the first element:

     E        1
          identity                                               
     2C4      3    4
           90 deg rotation - cart. axis [-1,0,0]                 
     C2       2
          180 deg rotation - cart. axis [1,0,0]                  
     2s_v     5    6
          inv. 180 deg rotation - cart. axis [0,0,1]             
     2s_d     7    8
          inv. 180 deg rotation - cart. axis [0,1,1]             

   Cartesian axes

     site n.     atom                  positions (alat units)
         1           Si  tau(   1) = (   0.0000000   0.0000000   0.0000000  )
         2           Si  tau(   2) = (   0.0760000   0.0000000   0.0000000  )

   Crystallographic axes

     site n.     atom                  positions (cryst. coord.)
         1           Si  tau(   1) = (  0.0000000  0.0000000  0.0000000  )
         2           Si  tau(   2) = (  0.0760000  0.0000000  0.0000000  )

     number of k points=     6  Marzari-Vanderbilt smearing, width (Ry)=  0.0500
                       cart. coord. in units 2pi/alat
        k(    1) = (   0.0000000   0.0000000   0.0000000), wk =   0.2500000
        k(    2) = (   0.0000000   0.0000000  -0.5000000), wk =   0.5000000
        k(    3) = (   0.0000000  -0.5000000  -0.5000000), wk =   0.2500000
        k(    4) = (  -0.5000000  -0.5000000  -0.5000000), wk =   0.2500000
        k(    5) = (  -0.5000000   0.0000000   0.0000000), wk =   0.2500000
        k(    6) = (  -0.5000000   0.5000000   0.0000000), wk =   0.5000000

                       cryst. coord.
        k(    1) = (   0.0000000   0.0000000   0.0000000), wk =   0.2500000
        k(    2) = (   0.0000000   0.0000000  -0.5000000), wk =   0.5000000
        k(    3) = (   0.0000000  -0.5000000  -0.5000000), wk =   0.2500000
        k(    4) = (  -0.5000000  -0.5000000  -0.5000000), wk =   0.2500000
        k(    5) = (  -0.5000000   0.0000000   0.0000000), wk =   0.2500000
        k(    6) = (  -0.5000000   0.5000000   0.0000000), wk =   0.5000000

     Dense  grid:  1985227 G-vectors     FFT dimensions: ( 160, 160, 160)

     Dynamical RAM for                 wfc:       3.79 MB

     Dynamical RAM for     wfc (w. buffer):      26.50 MB

     Dynamical RAM for           str. fact:       3.79 MB

     Dynamical RAM for           local pot:       0.00 MB

     Dynamical RAM for          nlocal pot:       4.73 MB

     Dynamical RAM for                qrad:       1.07 MB

     Dynamical RAM for          rho,v,vnew:      23.08 MB

     Dynamical RAM for               rhoin:       7.69 MB

     Dynamical RAM for            rho*nmix:      60.58 MB

     Dynamical RAM for           G-vectors:      16.09 MB

     Dynamical RAM for          h,s,v(r/c):       0.05 MB

     Dynamical RAM for          <psi|beta>:       0.00 MB

     Dynamical RAM for                 psi:      15.15 MB

     Dynamical RAM for                hpsi:      15.15 MB

     Dynamical RAM for      wfcinit/wfcrot:       7.57 MB

     Estimated static dynamical RAM per process >     170.65 MB

     Estimated max dynamical RAM per process >     200.99 MB

     Estimated total dynamical RAM >       1.57 GB

     Initial potential from superposition of free atoms
     Check: negative starting charge=   -0.000624

     starting charge    7.99888, renormalised to    8.00000

     negative rho (up, down):  6.243E-04 0.000E+00
     Starting wfc are    8 randomized atomic wfcs

     total cpu time spent up to now is        3.9 secs

     Self-consistent Calculation

     iteration #  1     ecut=    42.00 Ry     beta= 0.30
     Davidson diagonalization with overlap
     ethr =  1.00E-02,  avg # of iterations =  5.0

     negative rho (up, down):  3.924E-04 0.000E+00

     total cpu time spent up to now is       12.3 secs

     total energy              =     -14.73983236 Ry
     Harris-Foulkes estimate   =     -15.03438797 Ry
     estimated scf accuracy    <       0.75287831 Ry

     iteration #  2     ecut=    42.00 Ry     beta= 0.30
     Davidson diagonalization with overlap
     ethr =  9.41E-03,  avg # of iterations =  1.0

     negative rho (up, down):  1.901E-04 0.000E+00

     total cpu time spent up to now is       17.4 secs

     total energy              =     -14.77639967 Ry
     Harris-Foulkes estimate   =     -14.82067398 Ry
     estimated scf accuracy    <       0.08461062 Ry

     iteration #  3     ecut=    42.00 Ry     beta= 0.30
     Davidson diagonalization with overlap
     ethr =  1.06E-03,  avg # of iterations =  4.0

     negative rho (up, down):  1.289E-04 0.000E+00

     total cpu time spent up to now is       24.5 secs

     total energy              =     -14.80406767 Ry
     Harris-Foulkes estimate   =     -14.80786658 Ry
     estimated scf accuracy    <       0.00652091 Ry

     iteration #  4     ecut=    42.00 Ry     beta= 0.30
     Davidson diagonalization with overlap
     ethr =  8.15E-05,  avg # of iterations =  5.7

     negative rho (up, down):  3.182E-05 0.000E+00

     total cpu time spent up to now is       32.3 secs

     total energy              =     -14.80587840 Ry
     Harris-Foulkes estimate   =     -14.80667972 Ry
     estimated scf accuracy    <       0.00210660 Ry

     iteration #  5     ecut=    42.00 Ry     beta= 0.30
     Davidson diagonalization with overlap
     ethr =  2.63E-05,  avg # of iterations =  1.5

     negative rho (up, down):  1.274E-07 0.000E+00

     total cpu time spent up to now is       38.7 secs

     total energy              =     -14.80591622 Ry
     Harris-Foulkes estimate   =     -14.80605635 Ry
     estimated scf accuracy    <       0.00022609 Ry

     iteration #  6     ecut=    42.00 Ry     beta= 0.30
     Davidson diagonalization with overlap
     ethr =  2.83E-06,  avg # of iterations =  5.0

     negative rho (up, down):  9.547E-07 0.000E+00

     total cpu time spent up to now is       47.6 secs

     total energy              =     -14.80602308 Ry
     Harris-Foulkes estimate   =     -14.80610907 Ry
     estimated scf accuracy    <       0.00023704 Ry

     iteration #  7     ecut=    42.00 Ry     beta= 0.30
     Davidson diagonalization with overlap
     ethr =  2.83E-06,  avg # of iterations =  1.0

     negative rho (up, down):  5.878E-07 0.000E+00

     total cpu time spent up to now is       52.7 secs

     total energy              =     -14.80603244 Ry
     Harris-Foulkes estimate   =     -14.80604353 Ry
     estimated scf accuracy    <       0.00002412 Ry

     iteration #  8     ecut=    42.00 Ry     beta= 0.30
     Davidson diagonalization with overlap
     ethr =  3.01E-07,  avg # of iterations =  2.0

     negative rho (up, down):  4.706E-08 0.000E+00

     total cpu time spent up to now is       58.8 secs

     total energy              =     -14.80603863 Ry
     Harris-Foulkes estimate   =     -14.80603870 Ry
     estimated scf accuracy    <       0.00000025 Ry

     iteration #  9     ecut=    42.00 Ry     beta= 0.30
     Davidson diagonalization with overlap
     ethr =  3.13E-09,  avg # of iterations =  2.0

     total cpu time spent up to now is       65.2 secs

     total energy              =     -14.80603869 Ry
     Harris-Foulkes estimate   =     -14.80603869 Ry
     estimated scf accuracy    <       0.00000012 Ry

     iteration # 10     ecut=    42.00 Ry     beta= 0.30
     Davidson diagonalization with overlap
     ethr =  1.55E-09,  avg # of iterations =  2.0

     total cpu time spent up to now is       73.1 secs

     total energy              =     -14.80603868 Ry
     Harris-Foulkes estimate   =     -14.80603871 Ry
     estimated scf accuracy    <       0.00000002 Ry

     iteration # 11     ecut=    42.00 Ry     beta= 0.30
     Davidson diagonalization with overlap
     ethr =  1.95E-10,  avg # of iterations =  2.0

     total cpu time spent up to now is       78.4 secs

     End of self-consistent calculation

          k = 0.0000 0.0000 0.0000 (248049 PWs)   bands (ev):

   -14.1651  -7.8793  -6.0547  -6.0547  -4.6933  -1.0697  -1.0697  -0.1430

     occupation numbers 
     1.0000   1.0001   0.9899   0.9899   0.0201   0.0000   0.0000   0.0000

          k = 0.0000 0.0000-0.5000 (247982 PWs)   bands (ev):

   -14.1651  -7.8793  -6.0546  -6.0546  -4.6933  -1.0697  -1.0697  -0.1213

     occupation numbers 
     1.0000   1.0001   0.9899   0.9899   0.0201   0.0000   0.0000   0.0000

          k = 0.0000-0.5000-0.5000 (248312 PWs)   bands (ev):

   -14.1651  -7.8793  -6.0547  -6.0547  -4.6933  -1.0697  -1.0697  -0.1039

     occupation numbers 
     1.0000   1.0001   0.9899   0.9899   0.0201   0.0000   0.0000   0.0000

          k =-0.5000-0.5000-0.5000 (248296 PWs)   bands (ev):

   -14.1651  -7.8793  -6.0546  -6.0546  -4.6933  -1.0697  -1.0697  -0.0914

     occupation numbers 
     1.0000   1.0001   0.9899   0.9899   0.0201   0.0000   0.0000   0.0000

          k =-0.5000 0.0000 0.0000 (247982 PWs)   bands (ev):

   -14.1651  -7.8793  -6.0546  -6.0546  -4.6933  -1.0697  -1.0697  -0.1227

     occupation numbers 
     1.0000   1.0001   0.9899   0.9899   0.0201   0.0000   0.0000   0.0000

          k =-0.5000 0.5000 0.0000 (248312 PWs)   bands (ev):

   -14.1651  -7.8793  -6.0547  -6.0547  -4.6933  -1.0697  -1.0697  -0.1057

     occupation numbers 
     1.0000   1.0001   0.9899   0.9899   0.0201   0.0000   0.0000   0.0000

     the Fermi energy is    -5.4457 ev

!    total energy              =     -14.80603868 Ry
     Harris-Foulkes estimate   =     -14.80603869 Ry
     estimated scf accuracy    <          2.7E-09 Ry

     The total energy is the sum of the following terms:

     one-electron contribution =     -34.01604221 Ry
     hartree contribution      =      17.52541101 Ry
     xc contribution           =      -4.67353395 Ry
     ewald contribution        =       6.34631706 Ry
     smearing contrib. (-TS)   =       0.01180940 Ry

     convergence has been achieved in  11 iterations

     Forces acting on atoms (cartesian axes, Ry/au):

     atom    1 type  1   force =    -1.24952484    0.00000000    0.00000000
     atom    2 type  1   force =     1.24952484    0.00000000    0.00000000
     The non-local contrib.  to forces
     atom    1 type  1   force =    -1.50110377    0.00000000    0.00000000
     atom    2 type  1   force =     1.50109982    0.00000000    0.00000000
     The ionic contribution  to forces
     atom    1 type  1   force =    -3.87125714    0.00000000   -0.00000000
     atom    2 type  1   force =     3.87125714   -0.00000000   -0.00000000
     The local contribution  to forces
     atom    1 type  1   force =     4.12286923    0.00000000   -0.00000000
     atom    2 type  1   force =    -4.12286239   -0.00000000   -0.00000000
     The core correction contribution to forces
     atom    1 type  1   force =     0.00000000    0.00000000    0.00000000
     atom    2 type  1   force =     0.00000000    0.00000000    0.00000000
     The Hubbard contrib.    to forces
     atom    1 type  1   force =     0.00000000    0.00000000    0.00000000
     atom    2 type  1   force =     0.00000000    0.00000000    0.00000000
     The SCF correction term to forces
     atom    1 type  1   force =    -0.00003174   -0.00000000   -0.00000000
     atom    2 type  1   force =     0.00003169   -0.00000000   -0.00000000

     Total force =     1.767095     Total SCF correction =     0.000045


     Computing stress (Cartesian axis) and pressure

          total   stress  (Ry/bohr**3)                   (kbar)     P=    3.26
   0.00006645   0.00000000   0.00000000          9.78      0.00      0.00
   0.00000000  -0.00000002   0.00000000          0.00     -0.00      0.00
   0.00000000   0.00000000  -0.00000002          0.00      0.00     -0.00

     kinetic stress (kbar)      9.65      0.00      0.00
                                0.00     13.13      0.00
                                0.00      0.00     13.13

     local   stress (kbar)    -58.62     -0.00     -0.00
                               -0.00    -34.99     -0.00
                               -0.00     -0.00    -34.99

     nonloc. stress (kbar)     17.89      0.00      0.00
                                0.00     15.69      0.00
                                0.00      0.00     15.69

     hartree stress (kbar)     18.71     -0.00      0.00
                               -0.00     14.52      0.00
                                0.00      0.00     14.52

     exc-cor stress (kbar)     -3.90      0.00     -0.00
                                0.00     -3.97      0.00
                               -0.00      0.00     -3.97

     corecor stress (kbar)      0.00      0.00      0.00
                                0.00      0.00      0.00
                                0.00      0.00      0.00

     ewald   stress (kbar)     26.05      0.00     -0.00
                                0.00     -4.38     -0.00
                               -0.00     -0.00     -4.38

     hubbard stress (kbar)      0.00      0.00      0.00
                                0.00      0.00      0.00
                                0.00      0.00      0.00

     london  stress (kbar)      0.00      0.00      0.00
                                0.00      0.00      0.00
                                0.00      0.00      0.00

     DFT-D3  stress (kbar)      0.00      0.00      0.00
                                0.00      0.00      0.00
                                0.00      0.00      0.00

     XDM     stress (kbar)      0.00      0.00      0.00
                                0.00      0.00      0.00
                                0.00      0.00      0.00

     dft-nl  stress (kbar)      0.00      0.00      0.00
                                0.00      0.00      0.00
                                0.00      0.00      0.00

     TS-vdW  stress (kbar)      0.00      0.00      0.00
                                0.00      0.00      0.00
                                0.00      0.00      0.00



     Writing output data file SiSi1.save

     init_run     :      3.61s CPU      3.75s WALL (       1 calls)
     electrons    :     70.97s CPU     74.84s WALL (       1 calls)
     forces       :      0.37s CPU      0.38s WALL (       1 calls)
     stress       :      1.83s CPU      1.94s WALL (       1 calls)

     Called by init_run:
     wfcinit      :      1.95s CPU      1.97s WALL (       1 calls)
     wfcinit:atom :      0.04s CPU      0.04s WALL (       6 calls)
     wfcinit:wfcr :      1.74s CPU      1.76s WALL (       6 calls)
     potinit      :      0.56s CPU      0.61s WALL (       1 calls)

     Called by electrons:
     c_bands      :     54.11s CPU     56.59s WALL (      11 calls)
     sum_band     :     11.41s CPU     11.48s WALL (      11 calls)
     v_of_rho     :      4.45s CPU      4.51s WALL (      12 calls)
     v_h          :      0.43s CPU      0.44s WALL (      12 calls)
     v_xc         :      4.03s CPU      4.07s WALL (      12 calls)
     mix_rho      :      1.10s CPU      1.18s WALL (      11 calls)

     Called by c_bands:
     init_us_2    :      0.95s CPU      0.95s WALL (     150 calls)
     cegterg      :     53.29s CPU     53.46s WALL (      66 calls)

     Called by sum_band:

     Called by *egterg:
     h_psi        :     51.99s CPU     52.15s WALL (     259 calls)
     g_psi        :      0.19s CPU      0.19s WALL (     187 calls)
     cdiaghg      :      0.05s CPU      0.05s WALL (     253 calls)
     cegterg:over :      0.98s CPU      0.98s WALL (     187 calls)
     cegterg:upda :      0.79s CPU      0.80s WALL (     187 calls)
     cegterg:last :      0.27s CPU      0.27s WALL (      69 calls)

     Called by h_psi:
     h_psi:pot    :     51.74s CPU     51.89s WALL (     259 calls)
     h_psi:calbec :      0.61s CPU      0.62s WALL (     259 calls)
     vloc_psi     :     50.78s CPU     50.93s WALL (     259 calls)
     add_vuspsi   :      0.34s CPU      0.34s WALL (     259 calls)

     General routines
     calbec       :      0.68s CPU      0.68s WALL (     289 calls)
     fft          :      4.09s CPU      4.13s WALL (     139 calls)
     fftw         :     54.39s CPU     54.56s WALL (    3470 calls)

     Parallel routines
     fft_scatt_xy :      7.44s CPU      7.47s WALL (    3609 calls)
     fft_scatt_yz :     16.82s CPU     16.88s WALL (    3609 calls)

     PWSCF        :  1m17.25s CPU     1m22.10s WALL


   This run was terminated on:  21:41:53   1Oct2020            

=------------------------------------------------------------------------------=
   JOB DONE.
=------------------------------------------------------------------------------=
