
     Program PWSCF v.6.2 (svn rev. 14038) starts on  1Oct2020 at 21:16:30 

     This program is part of the open-source Quantum ESPRESSO suite
     for quantum simulation of materials; please cite
         "P. Giannozzi et al., J. Phys.:Condens. Matter 21 395502 (2009);
         "P. Giannozzi et al., J. Phys.:Condens. Matter 29 465901 (2017);
          URL http://www.quantum-espresso.org", 
     in publications or presentations arising from this work. More details at
     http://www.quantum-espresso.org/quote

     Parallel version (MPI), running on     8 processors

     MPI processes distributed on     1 nodes
     R & G space division:  proc/nbgrp/npool/nimage =       8
     Waiting for input...
     Reading input from standard input

     Current dimensions of program PWSCF are:
     Max number of different atomic species (ntypx) = 10
     Max number of k-points (npk) =  40000
     Max angular momentum in pseudopotentials (lmaxx) =  3

     Subspace diagonalization in iterative solution of the eigenvalue problem:
     a serial algorithm will be used


     Parallelization info
     --------------------
     sticks:   dense  smooth     PW     G-vecs:    dense   smooth      PW
     Min        2386    2386    623               248152   248152   33108
     Max        2387    2387    625               248157   248157   33111
     Sum       19089   19089   4989              1985227  1985227  264875



     bravais-lattice index     =            1
     lattice parameter (alat)  =      37.7945  a.u.
     unit-cell volume          =   53986.6767 (a.u.)^3
     number of atoms/cell      =            2
     number of atomic types    =            1
     number of electrons       =         8.00
     number of Kohn-Sham states=            8
     kinetic-energy cutoff     =      42.0000  Ry
     charge density cutoff     =     168.0000  Ry
     convergence threshold     =      1.0E-08
     mixing beta               =       0.3000
     number of iterations used =            8  plain     mixing
     Exchange-correlation      = SLA-PW-PBX-PBC ( 1  4  3  4 0 0)

     celldm(1)=  37.794523  celldm(2)=   0.000000  celldm(3)=   0.000000
     celldm(4)=   0.000000  celldm(5)=   0.000000  celldm(6)=   0.000000

     crystal axes: (cart. coord. in units of alat)
               a(1) = (   1.000000   0.000000   0.000000 )  
               a(2) = (   0.000000   1.000000   0.000000 )  
               a(3) = (   0.000000   0.000000   1.000000 )  

     reciprocal axes: (cart. coord. in units 2 pi/alat)
               b(1) = (  1.000000  0.000000  0.000000 )  
               b(2) = (  0.000000  1.000000  0.000000 )  
               b(3) = (  0.000000  0.000000  1.000000 )  


     PseudoPot. # 1 for Si read from file:
     ./Si.pbe-hgh.UPF
     MD5 check sum: 9a9f0f6e09139bfdb36b03ff6bc35900
     Pseudo is Norm-conserving, Zval =  4.0
     Generated in analytical, separable form
     Using radial grid of 1141 points,  3 beta functions with: 
                l(1) =   0
                l(2) =   0
                l(3) =   1

     atomic species   valence    mass     pseudopotential
        Si             4.00    28.08000     Si( 1.00)

      8 Sym. Ops. (no inversion) found


                                    s                        frac. trans.

      isym =  1     identity                                     

 cryst.   s( 1) = (     1          0          0      )
                  (     0          1          0      )
                  (     0          0          1      )

 cart.    s( 1) = (  1.0000000  0.0000000  0.0000000 )
                  (  0.0000000  1.0000000  0.0000000 )
                  (  0.0000000  0.0000000  1.0000000 )


      isym =  2     180 deg rotation - cart. axis [1,0,0]        

 cryst.   s( 2) = (     1          0          0      )
                  (     0         -1          0      )
                  (     0          0         -1      )

 cart.    s( 2) = (  1.0000000  0.0000000  0.0000000 )
                  (  0.0000000 -1.0000000  0.0000000 )
                  (  0.0000000  0.0000000 -1.0000000 )


      isym =  3      90 deg rotation - cart. axis [-1,0,0]       

 cryst.   s( 3) = (     1          0          0      )
                  (     0          0         -1      )
                  (     0          1          0      )

 cart.    s( 3) = (  1.0000000  0.0000000  0.0000000 )
                  (  0.0000000  0.0000000  1.0000000 )
                  (  0.0000000 -1.0000000  0.0000000 )


      isym =  4      90 deg rotation - cart. axis [1,0,0]        

 cryst.   s( 4) = (     1          0          0      )
                  (     0          0          1      )
                  (     0         -1          0      )

 cart.    s( 4) = (  1.0000000  0.0000000  0.0000000 )
                  (  0.0000000  0.0000000 -1.0000000 )
                  (  0.0000000  1.0000000  0.0000000 )


      isym =  5     inv. 180 deg rotation - cart. axis [0,0,1]   

 cryst.   s( 5) = (     1          0          0      )
                  (     0          1          0      )
                  (     0          0         -1      )

 cart.    s( 5) = (  1.0000000  0.0000000  0.0000000 )
                  (  0.0000000  1.0000000  0.0000000 )
                  (  0.0000000  0.0000000 -1.0000000 )


      isym =  6     inv. 180 deg rotation - cart. axis [0,1,0]   

 cryst.   s( 6) = (     1          0          0      )
                  (     0         -1          0      )
                  (     0          0          1      )

 cart.    s( 6) = (  1.0000000  0.0000000  0.0000000 )
                  (  0.0000000 -1.0000000  0.0000000 )
                  (  0.0000000  0.0000000  1.0000000 )


      isym =  7     inv. 180 deg rotation - cart. axis [0,1,1]   

 cryst.   s( 7) = (     1          0          0      )
                  (     0          0         -1      )
                  (     0         -1          0      )

 cart.    s( 7) = (  1.0000000  0.0000000  0.0000000 )
                  (  0.0000000  0.0000000 -1.0000000 )
                  (  0.0000000 -1.0000000  0.0000000 )


      isym =  8     inv. 180 deg rotation - cart. axis [0,1,-1]  

 cryst.   s( 8) = (     1          0          0      )
                  (     0          0          1      )
                  (     0          1          0      )

 cart.    s( 8) = (  1.0000000  0.0000000  0.0000000 )
                  (  0.0000000  0.0000000  1.0000000 )
                  (  0.0000000  1.0000000  0.0000000 )


     point group C_4v (4mm) 
     there are  5 classes
     the character table:

       E     2C4   C2    2s_v  2s_d 
A_1    1.00  1.00  1.00  1.00  1.00
A_2    1.00  1.00  1.00 -1.00 -1.00
B_1    1.00 -1.00  1.00  1.00 -1.00
B_2    1.00 -1.00  1.00 -1.00  1.00
E      2.00  0.00 -2.00  0.00  0.00

     the symmetry operations in each class and the name of the first element:

     E        1
          identity                                               
     2C4      3    4
           90 deg rotation - cart. axis [-1,0,0]                 
     C2       2
          180 deg rotation - cart. axis [1,0,0]                  
     2s_v     5    6
          inv. 180 deg rotation - cart. axis [0,0,1]             
     2s_d     7    8
          inv. 180 deg rotation - cart. axis [0,1,1]             

   Cartesian axes

     site n.     atom                  positions (alat units)
         1           Si  tau(   1) = (   0.0000000   0.0000000   0.0000000  )
         2           Si  tau(   2) = (   0.0815000   0.0000000   0.0000000  )

   Crystallographic axes

     site n.     atom                  positions (cryst. coord.)
         1           Si  tau(   1) = (  0.0000000  0.0000000  0.0000000  )
         2           Si  tau(   2) = (  0.0815000  0.0000000  0.0000000  )

     number of k points=     6  Marzari-Vanderbilt smearing, width (Ry)=  0.0500
                       cart. coord. in units 2pi/alat
        k(    1) = (   0.0000000   0.0000000   0.0000000), wk =   0.2500000
        k(    2) = (   0.0000000   0.0000000  -0.5000000), wk =   0.5000000
        k(    3) = (   0.0000000  -0.5000000  -0.5000000), wk =   0.2500000
        k(    4) = (  -0.5000000  -0.5000000  -0.5000000), wk =   0.2500000
        k(    5) = (  -0.5000000   0.0000000   0.0000000), wk =   0.2500000
        k(    6) = (  -0.5000000   0.5000000   0.0000000), wk =   0.5000000

                       cryst. coord.
        k(    1) = (   0.0000000   0.0000000   0.0000000), wk =   0.2500000
        k(    2) = (   0.0000000   0.0000000  -0.5000000), wk =   0.5000000
        k(    3) = (   0.0000000  -0.5000000  -0.5000000), wk =   0.2500000
        k(    4) = (  -0.5000000  -0.5000000  -0.5000000), wk =   0.2500000
        k(    5) = (  -0.5000000   0.0000000   0.0000000), wk =   0.2500000
        k(    6) = (  -0.5000000   0.5000000   0.0000000), wk =   0.5000000

     Dense  grid:  1985227 G-vectors     FFT dimensions: ( 160, 160, 160)

     Dynamical RAM for                 wfc:       3.79 MB

     Dynamical RAM for     wfc (w. buffer):      26.50 MB

     Dynamical RAM for           str. fact:       3.79 MB

     Dynamical RAM for           local pot:       0.00 MB

     Dynamical RAM for          nlocal pot:       4.73 MB

     Dynamical RAM for                qrad:       1.07 MB

     Dynamical RAM for          rho,v,vnew:      23.08 MB

     Dynamical RAM for               rhoin:       7.69 MB

     Dynamical RAM for            rho*nmix:      60.58 MB

     Dynamical RAM for           G-vectors:      16.09 MB

     Dynamical RAM for          h,s,v(r/c):       0.05 MB

     Dynamical RAM for          <psi|beta>:       0.00 MB

     Dynamical RAM for                 psi:      15.15 MB

     Dynamical RAM for                hpsi:      15.15 MB

     Dynamical RAM for      wfcinit/wfcrot:       7.57 MB

     Estimated static dynamical RAM per process >     170.65 MB

     Estimated max dynamical RAM per process >     200.99 MB

     Estimated total dynamical RAM >       1.57 GB

     Initial potential from superposition of free atoms
     Check: negative starting charge=   -0.000634

     starting charge    7.99888, renormalised to    8.00000

     negative rho (up, down):  6.344E-04 0.000E+00
     Starting wfc are    8 randomized atomic wfcs

     total cpu time spent up to now is        3.6 secs

     Self-consistent Calculation

     iteration #  1     ecut=    42.00 Ry     beta= 0.30
     Davidson diagonalization with overlap
     ethr =  1.00E-02,  avg # of iterations =  5.0

     negative rho (up, down):  3.937E-04 0.000E+00

     total cpu time spent up to now is       10.6 secs

     total energy              =     -14.99424089 Ry
     Harris-Foulkes estimate   =     -15.20346156 Ry
     estimated scf accuracy    <       0.53006135 Ry

     iteration #  2     ecut=    42.00 Ry     beta= 0.30
     Davidson diagonalization with overlap
     ethr =  6.63E-03,  avg # of iterations =  1.0

     negative rho (up, down):  1.674E-04 0.000E+00

     total cpu time spent up to now is       15.3 secs

     total energy              =     -14.98231927 Ry
     Harris-Foulkes estimate   =     -15.03339013 Ry
     estimated scf accuracy    <       0.08962060 Ry

     iteration #  3     ecut=    42.00 Ry     beta= 0.30
     Davidson diagonalization with overlap
     ethr =  1.12E-03,  avg # of iterations =  4.0

     negative rho (up, down):  1.572E-04 0.000E+00

     total cpu time spent up to now is       21.9 secs

     total energy              =     -15.01545659 Ry
     Harris-Foulkes estimate   =     -15.02507033 Ry
     estimated scf accuracy    <       0.02416490 Ry

     iteration #  4     ecut=    42.00 Ry     beta= 0.30
     Davidson diagonalization with overlap
     ethr =  3.02E-04,  avg # of iterations =  2.0

     negative rho (up, down):  4.714E-05 0.000E+00

     total cpu time spent up to now is       27.0 secs

     total energy              =     -15.01866514 Ry
     Harris-Foulkes estimate   =     -15.01891168 Ry
     estimated scf accuracy    <       0.00074294 Ry

     iteration #  5     ecut=    42.00 Ry     beta= 0.30
     Davidson diagonalization with overlap
     ethr =  9.29E-06,  avg # of iterations =  7.0

     negative rho (up, down):  4.679E-06 0.000E+00

     total cpu time spent up to now is       35.2 secs

     total energy              =     -15.01860528 Ry
     Harris-Foulkes estimate   =     -15.01929319 Ry
     estimated scf accuracy    <       0.00158478 Ry

     iteration #  6     ecut=    42.00 Ry     beta= 0.30
     Davidson diagonalization with overlap
     ethr =  9.29E-06,  avg # of iterations =  2.0

     negative rho (up, down):  4.561E-07 0.000E+00

     total cpu time spent up to now is       40.5 secs

     total energy              =     -15.01886040 Ry
     Harris-Foulkes estimate   =     -15.01886279 Ry
     estimated scf accuracy    <       0.00000575 Ry

     iteration #  7     ecut=    42.00 Ry     beta= 0.30
     Davidson diagonalization with overlap
     ethr =  7.19E-08,  avg # of iterations =  3.0

     negative rho (up, down):  1.411E-07 0.000E+00

     total cpu time spent up to now is       47.2 secs

     total energy              =     -15.01886890 Ry
     Harris-Foulkes estimate   =     -15.01886970 Ry
     estimated scf accuracy    <       0.00001157 Ry

     iteration #  8     ecut=    42.00 Ry     beta= 0.30
     Davidson diagonalization with overlap
     ethr =  7.19E-08,  avg # of iterations =  1.0

     negative rho (up, down):  1.276E-07 0.000E+00

     total cpu time spent up to now is       51.9 secs

     total energy              =     -15.01886591 Ry
     Harris-Foulkes estimate   =     -15.01886900 Ry
     estimated scf accuracy    <       0.00000840 Ry

     iteration #  9     ecut=    42.00 Ry     beta= 0.30
     Davidson diagonalization with overlap
     ethr =  7.19E-08,  avg # of iterations =  2.0

     negative rho (up, down):  4.639E-08 0.000E+00

     total cpu time spent up to now is       57.0 secs

     total energy              =     -15.01886673 Ry
     Harris-Foulkes estimate   =     -15.01886688 Ry
     estimated scf accuracy    <       0.00000035 Ry

     iteration # 10     ecut=    42.00 Ry     beta= 0.30
     Davidson diagonalization with overlap
     ethr =  4.40E-09,  avg # of iterations =  2.0

     total cpu time spent up to now is       62.3 secs

     total energy              =     -15.01886680 Ry
     Harris-Foulkes estimate   =     -15.01886680 Ry
     estimated scf accuracy    <       0.00000002 Ry

     iteration # 11     ecut=    42.00 Ry     beta= 0.30
     Davidson diagonalization with overlap
     ethr =  3.09E-10,  avg # of iterations =  1.0

     total cpu time spent up to now is       66.7 secs

     End of self-consistent calculation

          k = 0.0000 0.0000 0.0000 (248049 PWs)   bands (ev):

   -14.1397  -8.1168  -5.9034  -5.9034  -4.9730  -1.3489  -1.3489  -0.1798

     occupation numbers 
     1.0000   1.0000   0.9440   0.9440   0.1119   0.0000   0.0000   0.0000

          k = 0.0000 0.0000-0.5000 (247982 PWs)   bands (ev):

   -14.1397  -8.1168  -5.9034  -5.9034  -4.9730  -1.3489  -1.3489  -0.1625

     occupation numbers 
     1.0000   1.0000   0.9440   0.9440   0.1119   0.0000   0.0000   0.0000

          k = 0.0000-0.5000-0.5000 (248312 PWs)   bands (ev):

   -14.1397  -8.1168  -5.9034  -5.9034  -4.9730  -1.3489  -1.3489  -0.1484

     occupation numbers 
     1.0000   1.0000   0.9440   0.9440   0.1119   0.0000   0.0000   0.0000

          k =-0.5000-0.5000-0.5000 (248296 PWs)   bands (ev):

   -14.1397  -8.1168  -5.9034  -5.9034  -4.9730  -1.3489  -1.3489  -0.1384

     occupation numbers 
     1.0000   1.0000   0.9440   0.9440   0.1119   0.0000   0.0000   0.0000

          k =-0.5000 0.0000 0.0000 (247982 PWs)   bands (ev):

   -14.1397  -8.1168  -5.9034  -5.9034  -4.9730  -1.3489  -1.3489  -0.1639

     occupation numbers 
     1.0000   1.0000   0.9440   0.9440   0.1119   0.0000   0.0000   0.0000

          k =-0.5000 0.5000 0.0000 (248312 PWs)   bands (ev):

   -14.1397  -8.1168  -5.9034  -5.9034  -4.9730  -1.3489  -1.3489  -0.1501

     occupation numbers 
     1.0000   1.0000   0.9440   0.9440   0.1119   0.0000   0.0000   0.0000

     the Fermi energy is    -5.3643 ev

!    total energy              =     -15.01886681 Ry
     Harris-Foulkes estimate   =     -15.01886681 Ry
     estimated scf accuracy    <          5.5E-09 Ry

     The total energy is the sum of the following terms:

     one-electron contribution =     -33.00325789 Ry
     hartree contribution      =      16.96800714 Ry
     xc contribution           =      -4.57655585 Ry
     ewald contribution        =       5.59606376 Ry
     smearing contrib. (-TS)   =      -0.00312396 Ry

     convergence has been achieved in  11 iterations

     Forces acting on atoms (cartesian axes, Ry/au):

     atom    1 type  1   force =    -0.82448783    0.00000000    0.00000000
     atom    2 type  1   force =     0.82448783    0.00000000    0.00000000
     The non-local contrib.  to forces
     atom    1 type  1   force =    -1.17337114    0.00000000    0.00000000
     atom    2 type  1   force =     1.17337139    0.00000000    0.00000000
     The ionic contribution  to forces
     atom    1 type  1   force =    -3.36489581   -0.00000000   -0.00000000
     atom    2 type  1   force =     3.36489581    0.00000000   -0.00000000
     The local contribution  to forces
     atom    1 type  1   force =     3.71373344   -0.00000000   -0.00000000
     atom    2 type  1   force =    -3.71373453    0.00000000   -0.00000000
     The core correction contribution to forces
     atom    1 type  1   force =     0.00000000    0.00000000    0.00000000
     atom    2 type  1   force =     0.00000000    0.00000000    0.00000000
     The Hubbard contrib.    to forces
     atom    1 type  1   force =     0.00000000    0.00000000    0.00000000
     atom    2 type  1   force =     0.00000000    0.00000000    0.00000000
     The SCF correction term to forces
     atom    1 type  1   force =     0.00004562    0.00000000   -0.00000000
     atom    2 type  1   force =    -0.00004491    0.00000000   -0.00000000

     Total force =     1.166002     Total SCF correction =     0.000064


     Computing stress (Cartesian axis) and pressure

          total   stress  (Ry/bohr**3)                   (kbar)     P=    2.30
   0.00004702   0.00000000   0.00000000          6.92      0.00      0.00
   0.00000000  -0.00000002   0.00000000          0.00     -0.00      0.00
   0.00000000   0.00000000  -0.00000002          0.00      0.00     -0.00

     kinetic stress (kbar)      9.47      0.00      0.00
                                0.00     12.57      0.00
                                0.00      0.00     12.57

     local   stress (kbar)    -58.44     -0.00      0.00
                               -0.00    -32.81      0.00
                                0.00      0.00    -32.81

     nonloc. stress (kbar)     16.94      0.00      0.00
                                0.00     14.76      0.00
                                0.00      0.00     14.76

     hartree stress (kbar)     18.75      0.00      0.00
                                0.00     13.74      0.00
                                0.00      0.00     13.74

     exc-cor stress (kbar)     -3.82     -0.00     -0.00
                               -0.00     -3.88     -0.00
                               -0.00     -0.00     -3.88

     corecor stress (kbar)      0.00      0.00      0.00
                                0.00      0.00      0.00
                                0.00      0.00      0.00

     ewald   stress (kbar)     24.01     -0.00     -0.00
                               -0.00     -4.38     -0.00
                               -0.00     -0.00     -4.38

     hubbard stress (kbar)      0.00      0.00      0.00
                                0.00      0.00      0.00
                                0.00      0.00      0.00

     london  stress (kbar)      0.00      0.00      0.00
                                0.00      0.00      0.00
                                0.00      0.00      0.00

     DFT-D3  stress (kbar)      0.00      0.00      0.00
                                0.00      0.00      0.00
                                0.00      0.00      0.00

     XDM     stress (kbar)      0.00      0.00      0.00
                                0.00      0.00      0.00
                                0.00      0.00      0.00

     dft-nl  stress (kbar)      0.00      0.00      0.00
                                0.00      0.00      0.00
                                0.00      0.00      0.00

     TS-vdW  stress (kbar)      0.00      0.00      0.00
                                0.00      0.00      0.00
                                0.00      0.00      0.00



     Writing output data file SiSi3.save

     init_run     :      3.28s CPU      3.43s WALL (       1 calls)
     electrons    :     62.69s CPU     63.32s WALL (       1 calls)
     forces       :      0.34s CPU      0.35s WALL (       1 calls)
     stress       :      1.74s CPU      1.84s WALL (       1 calls)

     Called by init_run:
     wfcinit      :      1.71s CPU      1.73s WALL (       1 calls)
     wfcinit:atom :      0.03s CPU      0.03s WALL (       6 calls)
     wfcinit:wfcr :      1.51s CPU      1.52s WALL (       6 calls)
     potinit      :      0.53s CPU      0.58s WALL (       1 calls)

     Called by electrons:
     c_bands      :     47.50s CPU     47.69s WALL (      11 calls)
     sum_band     :     10.20s CPU     10.23s WALL (      11 calls)
     v_of_rho     :      4.15s CPU      4.20s WALL (      12 calls)
     v_h          :      0.40s CPU      0.41s WALL (      12 calls)
     v_xc         :      3.75s CPU      3.79s WALL (      12 calls)
     mix_rho      :      0.98s CPU      1.06s WALL (      11 calls)

     Called by c_bands:
     init_us_2    :      0.96s CPU      0.97s WALL (     150 calls)
     cegterg      :     46.71s CPU     46.84s WALL (      66 calls)

     Called by sum_band:

     Called by *egterg:
     h_psi        :     45.28s CPU     45.39s WALL (     252 calls)
     g_psi        :      0.19s CPU      0.19s WALL (     180 calls)
     cdiaghg      :      0.04s CPU      0.04s WALL (     246 calls)
     cegterg:over :      0.93s CPU      0.94s WALL (     180 calls)
     cegterg:upda :      0.77s CPU      0.78s WALL (     180 calls)
     cegterg:last :      0.28s CPU      0.28s WALL (      70 calls)

     Called by h_psi:
     h_psi:pot    :     45.03s CPU     45.14s WALL (     252 calls)
     h_psi:calbec :      0.43s CPU      0.44s WALL (     252 calls)
     vloc_psi     :     44.28s CPU     44.38s WALL (     252 calls)
     add_vuspsi   :      0.32s CPU      0.32s WALL (     252 calls)

     General routines
     calbec       :      0.50s CPU      0.50s WALL (     282 calls)
     fft          :      3.63s CPU      3.66s WALL (     139 calls)
     fftw         :     46.65s CPU     46.75s WALL (    3460 calls)

     Parallel routines
     fft_scatt_xy :      7.16s CPU      7.17s WALL (    3599 calls)
     fft_scatt_yz :      9.68s CPU      9.70s WALL (    3599 calls)

     PWSCF        :  1m 8.49s CPU     1m10.04s WALL


   This run was terminated on:  21:17:40   1Oct2020            

=------------------------------------------------------------------------------=
   JOB DONE.
=------------------------------------------------------------------------------=
