
     Program PWSCF v.6.2 (svn rev. 14038) starts on  1Oct2020 at 21:21: 1 

     This program is part of the open-source Quantum ESPRESSO suite
     for quantum simulation of materials; please cite
         "P. Giannozzi et al., J. Phys.:Condens. Matter 21 395502 (2009);
         "P. Giannozzi et al., J. Phys.:Condens. Matter 29 465901 (2017);
          URL http://www.quantum-espresso.org", 
     in publications or presentations arising from this work. More details at
     http://www.quantum-espresso.org/quote

     Parallel version (MPI), running on     8 processors

     MPI processes distributed on     1 nodes
     R & G space division:  proc/nbgrp/npool/nimage =       8
     Waiting for input...
     Reading input from standard input

     Current dimensions of program PWSCF are:
     Max number of different atomic species (ntypx) = 10
     Max number of k-points (npk) =  40000
     Max angular momentum in pseudopotentials (lmaxx) =  3

     Subspace diagonalization in iterative solution of the eigenvalue problem:
     a serial algorithm will be used


     Parallelization info
     --------------------
     sticks:   dense  smooth     PW     G-vecs:    dense   smooth      PW
     Min        2386    2386    623               248152   248152   33108
     Max        2387    2387    625               248157   248157   33111
     Sum       19089   19089   4989              1985227  1985227  264875



     bravais-lattice index     =            1
     lattice parameter (alat)  =      37.7945  a.u.
     unit-cell volume          =   53986.6767 (a.u.)^3
     number of atoms/cell      =            2
     number of atomic types    =            1
     number of electrons       =         8.00
     number of Kohn-Sham states=            8
     kinetic-energy cutoff     =      42.0000  Ry
     charge density cutoff     =     168.0000  Ry
     convergence threshold     =      1.0E-08
     mixing beta               =       0.3000
     number of iterations used =            8  plain     mixing
     Exchange-correlation      = SLA-PW-PBX-PBC ( 1  4  3  4 0 0)

     celldm(1)=  37.794523  celldm(2)=   0.000000  celldm(3)=   0.000000
     celldm(4)=   0.000000  celldm(5)=   0.000000  celldm(6)=   0.000000

     crystal axes: (cart. coord. in units of alat)
               a(1) = (   1.000000   0.000000   0.000000 )  
               a(2) = (   0.000000   1.000000   0.000000 )  
               a(3) = (   0.000000   0.000000   1.000000 )  

     reciprocal axes: (cart. coord. in units 2 pi/alat)
               b(1) = (  1.000000  0.000000  0.000000 )  
               b(2) = (  0.000000  1.000000  0.000000 )  
               b(3) = (  0.000000  0.000000  1.000000 )  


     PseudoPot. # 1 for Si read from file:
     ./Si.pbe-hgh.UPF
     MD5 check sum: 9a9f0f6e09139bfdb36b03ff6bc35900
     Pseudo is Norm-conserving, Zval =  4.0
     Generated in analytical, separable form
     Using radial grid of 1141 points,  3 beta functions with: 
                l(1) =   0
                l(2) =   0
                l(3) =   1

     atomic species   valence    mass     pseudopotential
        Si             4.00    28.08000     Si( 1.00)

      8 Sym. Ops. (no inversion) found


                                    s                        frac. trans.

      isym =  1     identity                                     

 cryst.   s( 1) = (     1          0          0      )
                  (     0          1          0      )
                  (     0          0          1      )

 cart.    s( 1) = (  1.0000000  0.0000000  0.0000000 )
                  (  0.0000000  1.0000000  0.0000000 )
                  (  0.0000000  0.0000000  1.0000000 )


      isym =  2     180 deg rotation - cart. axis [1,0,0]        

 cryst.   s( 2) = (     1          0          0      )
                  (     0         -1          0      )
                  (     0          0         -1      )

 cart.    s( 2) = (  1.0000000  0.0000000  0.0000000 )
                  (  0.0000000 -1.0000000  0.0000000 )
                  (  0.0000000  0.0000000 -1.0000000 )


      isym =  3      90 deg rotation - cart. axis [-1,0,0]       

 cryst.   s( 3) = (     1          0          0      )
                  (     0          0         -1      )
                  (     0          1          0      )

 cart.    s( 3) = (  1.0000000  0.0000000  0.0000000 )
                  (  0.0000000  0.0000000  1.0000000 )
                  (  0.0000000 -1.0000000  0.0000000 )


      isym =  4      90 deg rotation - cart. axis [1,0,0]        

 cryst.   s( 4) = (     1          0          0      )
                  (     0          0          1      )
                  (     0         -1          0      )

 cart.    s( 4) = (  1.0000000  0.0000000  0.0000000 )
                  (  0.0000000  0.0000000 -1.0000000 )
                  (  0.0000000  1.0000000  0.0000000 )


      isym =  5     inv. 180 deg rotation - cart. axis [0,0,1]   

 cryst.   s( 5) = (     1          0          0      )
                  (     0          1          0      )
                  (     0          0         -1      )

 cart.    s( 5) = (  1.0000000  0.0000000  0.0000000 )
                  (  0.0000000  1.0000000  0.0000000 )
                  (  0.0000000  0.0000000 -1.0000000 )


      isym =  6     inv. 180 deg rotation - cart. axis [0,1,0]   

 cryst.   s( 6) = (     1          0          0      )
                  (     0         -1          0      )
                  (     0          0          1      )

 cart.    s( 6) = (  1.0000000  0.0000000  0.0000000 )
                  (  0.0000000 -1.0000000  0.0000000 )
                  (  0.0000000  0.0000000  1.0000000 )


      isym =  7     inv. 180 deg rotation - cart. axis [0,1,1]   

 cryst.   s( 7) = (     1          0          0      )
                  (     0          0         -1      )
                  (     0         -1          0      )

 cart.    s( 7) = (  1.0000000  0.0000000  0.0000000 )
                  (  0.0000000  0.0000000 -1.0000000 )
                  (  0.0000000 -1.0000000  0.0000000 )


      isym =  8     inv. 180 deg rotation - cart. axis [0,1,-1]  

 cryst.   s( 8) = (     1          0          0      )
                  (     0          0          1      )
                  (     0          1          0      )

 cart.    s( 8) = (  1.0000000  0.0000000  0.0000000 )
                  (  0.0000000  0.0000000  1.0000000 )
                  (  0.0000000  1.0000000  0.0000000 )


     point group C_4v (4mm) 
     there are  5 classes
     the character table:

       E     2C4   C2    2s_v  2s_d 
A_1    1.00  1.00  1.00  1.00  1.00
A_2    1.00  1.00  1.00 -1.00 -1.00
B_1    1.00 -1.00  1.00  1.00 -1.00
B_2    1.00 -1.00  1.00 -1.00  1.00
E      2.00  0.00 -2.00  0.00  0.00

     the symmetry operations in each class and the name of the first element:

     E        1
          identity                                               
     2C4      3    4
           90 deg rotation - cart. axis [-1,0,0]                 
     C2       2
          180 deg rotation - cart. axis [1,0,0]                  
     2s_v     5    6
          inv. 180 deg rotation - cart. axis [0,0,1]             
     2s_d     7    8
          inv. 180 deg rotation - cart. axis [0,1,1]             

   Cartesian axes

     site n.     atom                  positions (alat units)
         1           Si  tau(   1) = (   0.0000000   0.0000000   0.0000000  )
         2           Si  tau(   2) = (   0.0730000   0.0000000   0.0000000  )

   Crystallographic axes

     site n.     atom                  positions (cryst. coord.)
         1           Si  tau(   1) = (  0.0000000  0.0000000  0.0000000  )
         2           Si  tau(   2) = (  0.0730000  0.0000000  0.0000000  )

     number of k points=     6  Marzari-Vanderbilt smearing, width (Ry)=  0.0500
                       cart. coord. in units 2pi/alat
        k(    1) = (   0.0000000   0.0000000   0.0000000), wk =   0.2500000
        k(    2) = (   0.0000000   0.0000000  -0.5000000), wk =   0.5000000
        k(    3) = (   0.0000000  -0.5000000  -0.5000000), wk =   0.2500000
        k(    4) = (  -0.5000000  -0.5000000  -0.5000000), wk =   0.2500000
        k(    5) = (  -0.5000000   0.0000000   0.0000000), wk =   0.2500000
        k(    6) = (  -0.5000000   0.5000000   0.0000000), wk =   0.5000000

                       cryst. coord.
        k(    1) = (   0.0000000   0.0000000   0.0000000), wk =   0.2500000
        k(    2) = (   0.0000000   0.0000000  -0.5000000), wk =   0.5000000
        k(    3) = (   0.0000000  -0.5000000  -0.5000000), wk =   0.2500000
        k(    4) = (  -0.5000000  -0.5000000  -0.5000000), wk =   0.2500000
        k(    5) = (  -0.5000000   0.0000000   0.0000000), wk =   0.2500000
        k(    6) = (  -0.5000000   0.5000000   0.0000000), wk =   0.5000000

     Dense  grid:  1985227 G-vectors     FFT dimensions: ( 160, 160, 160)

     Dynamical RAM for                 wfc:       3.79 MB

     Dynamical RAM for     wfc (w. buffer):      26.50 MB

     Dynamical RAM for           str. fact:       3.79 MB

     Dynamical RAM for           local pot:       0.00 MB

     Dynamical RAM for          nlocal pot:       4.73 MB

     Dynamical RAM for                qrad:       1.07 MB

     Dynamical RAM for          rho,v,vnew:      23.08 MB

     Dynamical RAM for               rhoin:       7.69 MB

     Dynamical RAM for            rho*nmix:      60.58 MB

     Dynamical RAM for           G-vectors:      16.09 MB

     Dynamical RAM for          h,s,v(r/c):       0.05 MB

     Dynamical RAM for          <psi|beta>:       0.00 MB

     Dynamical RAM for                 psi:      15.15 MB

     Dynamical RAM for                hpsi:      15.15 MB

     Dynamical RAM for      wfcinit/wfcrot:       7.57 MB

     Estimated static dynamical RAM per process >     170.65 MB

     Estimated max dynamical RAM per process >     200.99 MB

     Estimated total dynamical RAM >       1.57 GB

     Initial potential from superposition of free atoms
     Check: negative starting charge=   -0.000624

     starting charge    7.99888, renormalised to    8.00000

     negative rho (up, down):  6.238E-04 0.000E+00
     Starting wfc are    8 randomized atomic wfcs

     total cpu time spent up to now is        3.9 secs

     Self-consistent Calculation

     iteration #  1     ecut=    42.00 Ry     beta= 0.30
     Davidson diagonalization with overlap
     ethr =  1.00E-02,  avg # of iterations =  5.0

     negative rho (up, down):  4.277E-04 0.000E+00

     total cpu time spent up to now is       12.6 secs

     total energy              =     -14.53758030 Ry
     Harris-Foulkes estimate   =     -14.91366912 Ry
     estimated scf accuracy    <       0.96796521 Ry

     iteration #  2     ecut=    42.00 Ry     beta= 0.30
     Davidson diagonalization with overlap
     ethr =  1.00E-02,  avg # of iterations =  2.0

     negative rho (up, down):  2.577E-04 0.000E+00

     total cpu time spent up to now is       18.3 secs

     total energy              =     -14.63835314 Ry
     Harris-Foulkes estimate   =     -14.66025399 Ry
     estimated scf accuracy    <       0.04817539 Ry

     iteration #  3     ecut=    42.00 Ry     beta= 0.30
     Davidson diagonalization with overlap
     ethr =  6.02E-04,  avg # of iterations =  4.8

     negative rho (up, down):  7.896E-05 0.000E+00

     total cpu time spent up to now is       25.3 secs

     total energy              =     -14.64730099 Ry
     Harris-Foulkes estimate   =     -14.64790828 Ry
     estimated scf accuracy    <       0.00178560 Ry

     iteration #  4     ecut=    42.00 Ry     beta= 0.30
     Davidson diagonalization with overlap
     ethr =  2.23E-05,  avg # of iterations =  7.3

     negative rho (up, down):  1.407E-05 0.000E+00

     total cpu time spent up to now is       33.2 secs

     total energy              =     -14.64742543 Ry
     Harris-Foulkes estimate   =     -14.64746236 Ry
     estimated scf accuracy    <       0.00017753 Ry

     iteration #  5     ecut=    42.00 Ry     beta= 0.30
     Davidson diagonalization with overlap
     ethr =  2.22E-06,  avg # of iterations =  3.5

     negative rho (up, down):  1.069E-05 0.000E+00

     total cpu time spent up to now is       42.7 secs

     total energy              =     -14.64742857 Ry
     Harris-Foulkes estimate   =     -14.64746120 Ry
     estimated scf accuracy    <       0.00005381 Ry

     iteration #  6     ecut=    42.00 Ry     beta= 0.30
     Davidson diagonalization with overlap
     ethr =  6.73E-07,  avg # of iterations =  2.0

     negative rho (up, down):  1.465E-06 0.000E+00

     total cpu time spent up to now is       50.3 secs

     total energy              =     -14.64744300 Ry
     Harris-Foulkes estimate   =     -14.64745663 Ry
     estimated scf accuracy    <       0.00003687 Ry

     iteration #  7     ecut=    42.00 Ry     beta= 0.30
     Davidson diagonalization with overlap
     ethr =  4.61E-07,  avg # of iterations =  2.0

     negative rho (up, down):  9.001E-07 0.000E+00

     total cpu time spent up to now is       56.0 secs

     total energy              =     -14.64744502 Ry
     Harris-Foulkes estimate   =     -14.64744673 Ry
     estimated scf accuracy    <       0.00000326 Ry

     iteration #  8     ecut=    42.00 Ry     beta= 0.30
     Davidson diagonalization with overlap
     ethr =  4.08E-08,  avg # of iterations =  2.0

     negative rho (up, down):  4.620E-07 0.000E+00

     total cpu time spent up to now is       61.9 secs

     total energy              =     -14.64744597 Ry
     Harris-Foulkes estimate   =     -14.64744598 Ry
     estimated scf accuracy    <       0.00000027 Ry

     iteration #  9     ecut=    42.00 Ry     beta= 0.30
     Davidson diagonalization with overlap
     ethr =  3.41E-09,  avg # of iterations =  1.5

     negative rho (up, down):  4.902E-08 0.000E+00

     total cpu time spent up to now is       68.7 secs

     total energy              =     -14.64744593 Ry
     Harris-Foulkes estimate   =     -14.64744598 Ry
     estimated scf accuracy    <       0.00000020 Ry

     iteration # 10     ecut=    42.00 Ry     beta= 0.30
     Davidson diagonalization with overlap
     ethr =  2.45E-09,  avg # of iterations =  2.0

     total cpu time spent up to now is       74.7 secs

     total energy              =     -14.64744599 Ry
     Harris-Foulkes estimate   =     -14.64744599 Ry
     estimated scf accuracy    <       0.00000002 Ry

     iteration # 11     ecut=    42.00 Ry     beta= 0.30
     Davidson diagonalization with overlap
     ethr =  2.13E-10,  avg # of iterations =  2.0

     total cpu time spent up to now is       80.5 secs

     End of self-consistent calculation

          k = 0.0000 0.0000 0.0000 (248049 PWs)   bands (ev):

   -14.1552  -7.7316  -6.1833  -6.1833  -4.4823  -0.9172  -0.9172  -0.1249

     occupation numbers 
     1.0000   1.0006   0.9983   0.9983   0.0027   0.0000   0.0000   0.0000

          k = 0.0000 0.0000-0.5000 (247982 PWs)   bands (ev):

   -14.1552  -7.7316  -6.1833  -6.1833  -4.4823  -0.9172  -0.9172  -0.1004

     occupation numbers 
     1.0000   1.0006   0.9983   0.9983   0.0027   0.0000   0.0000   0.0000

          k = 0.0000-0.5000-0.5000 (248312 PWs)   bands (ev):

   -14.1552  -7.7316  -6.1833  -6.1833  -4.4823  -0.9172  -0.9172  -0.0811

     occupation numbers 
     1.0000   1.0006   0.9984   0.9984   0.0027   0.0000   0.0000   0.0000

          k =-0.5000-0.5000-0.5000 (248296 PWs)   bands (ev):

   -14.1552  -7.7316  -6.1833  -6.1833  -4.4823  -0.9173  -0.9173  -0.0673

     occupation numbers 
     1.0000   1.0006   0.9983   0.9983   0.0027   0.0000   0.0000   0.0000

          k =-0.5000 0.0000 0.0000 (247982 PWs)   bands (ev):

   -14.1552  -7.7316  -6.1833  -6.1833  -4.4823  -0.9173  -0.9173  -0.1021

     occupation numbers 
     1.0000   1.0006   0.9983   0.9983   0.0027   0.0000   0.0000   0.0000

          k =-0.5000 0.5000 0.0000 (248312 PWs)   bands (ev):

   -14.1552  -7.7316  -6.1833  -6.1833  -4.4823  -0.9173  -0.9173  -0.0832

     occupation numbers 
     1.0000   1.0006   0.9984   0.9984   0.0027   0.0000   0.0000   0.0000

     the Fermi energy is    -5.5597 ev

!    total energy              =     -14.64744600 Ry
     Harris-Foulkes estimate   =     -14.64744599 Ry
     estimated scf accuracy    <          2.5E-10 Ry

     The total energy is the sum of the following terms:

     one-electron contribution =     -34.56298209 Ry
     hartree contribution      =      17.82587394 Ry
     xc contribution           =      -4.72941241 Ry
     ewald contribution        =       6.80334302 Ry
     smearing contrib. (-TS)   =       0.01573153 Ry

     convergence has been achieved in  11 iterations

     Forces acting on atoms (cartesian axes, Ry/au):

     atom    1 type  1   force =    -1.55806151    0.00000000    0.00000000
     atom    2 type  1   force =     1.55806151    0.00000000    0.00000000
     The non-local contrib.  to forces
     atom    1 type  1   force =    -1.69166298    0.00000000    0.00000000
     atom    2 type  1   force =     1.69165286    0.00000000    0.00000000
     The ionic contribution  to forces
     atom    1 type  1   force =    -4.19688467   -0.00000000   -0.00000000
     atom    2 type  1   force =     4.19688467    0.00000000   -0.00000000
     The local contribution  to forces
     atom    1 type  1   force =     4.33047812   -0.00000000   -0.00000000
     atom    2 type  1   force =    -4.33047036    0.00000000   -0.00000000
     The core correction contribution to forces
     atom    1 type  1   force =     0.00000000    0.00000000    0.00000000
     atom    2 type  1   force =     0.00000000    0.00000000    0.00000000
     The Hubbard contrib.    to forces
     atom    1 type  1   force =     0.00000000    0.00000000    0.00000000
     atom    2 type  1   force =     0.00000000    0.00000000    0.00000000
     The SCF correction term to forces
     atom    1 type  1   force =     0.00000566    0.00000000    0.00000000
     atom    2 type  1   force =    -0.00000802    0.00000000    0.00000000

     Total force =     2.203432     Total SCF correction =     0.000010


     Computing stress (Cartesian axis) and pressure

          total   stress  (Ry/bohr**3)                   (kbar)     P=    3.90
   0.00007959   0.00000000   0.00000000         11.71      0.00      0.00
   0.00000000  -0.00000002   0.00000000          0.00     -0.00      0.00
   0.00000000   0.00000000  -0.00000002          0.00      0.00     -0.00

     kinetic stress (kbar)      9.95      0.00      0.00
                                0.00     13.40      0.00
                                0.00      0.00     13.40

     local   stress (kbar)    -58.89      0.00     -0.00
                                0.00    -36.20     -0.00
                               -0.00     -0.00    -36.20

     nonloc. stress (kbar)     18.54      0.00      0.00
                                0.00     16.28      0.00
                                0.00      0.00     16.28

     hartree stress (kbar)     18.77      0.00     -0.00
                                0.00     14.90      0.00
                               -0.00      0.00     14.90

     exc-cor stress (kbar)     -3.95     -0.00      0.00
                               -0.00     -4.02     -0.00
                                0.00     -0.00     -4.02

     corecor stress (kbar)      0.00      0.00      0.00
                                0.00      0.00      0.00
                                0.00      0.00      0.00

     ewald   stress (kbar)     27.29      0.00     -0.00
                                0.00     -4.38     -0.00
                               -0.00     -0.00     -4.38

     hubbard stress (kbar)      0.00      0.00      0.00
                                0.00      0.00      0.00
                                0.00      0.00      0.00

     london  stress (kbar)      0.00      0.00      0.00
                                0.00      0.00      0.00
                                0.00      0.00      0.00

     DFT-D3  stress (kbar)      0.00      0.00      0.00
                                0.00      0.00      0.00
                                0.00      0.00      0.00

     XDM     stress (kbar)      0.00      0.00      0.00
                                0.00      0.00      0.00
                                0.00      0.00      0.00

     dft-nl  stress (kbar)      0.00      0.00      0.00
                                0.00      0.00      0.00
                                0.00      0.00      0.00

     TS-vdW  stress (kbar)      0.00      0.00      0.00
                                0.00      0.00      0.00
                                0.00      0.00      0.00



     Writing output data file SiSi25.save

     init_run     :      3.59s CPU      3.74s WALL (       1 calls)
     electrons    :     70.90s CPU     76.92s WALL (       1 calls)
     forces       :      0.36s CPU      0.37s WALL (       1 calls)
     stress       :      1.81s CPU      1.91s WALL (       1 calls)

     Called by init_run:
     wfcinit      :      1.94s CPU      1.95s WALL (       1 calls)
     wfcinit:atom :      0.04s CPU      0.04s WALL (       6 calls)
     wfcinit:wfcr :      1.73s CPU      1.75s WALL (       6 calls)
     potinit      :      0.56s CPU      0.61s WALL (       1 calls)

     Called by electrons:
     c_bands      :     53.76s CPU     59.35s WALL (      11 calls)
     sum_band     :     11.61s CPU     11.65s WALL (      11 calls)
     v_of_rho     :      4.53s CPU      4.58s WALL (      12 calls)
     v_h          :      0.43s CPU      0.44s WALL (      12 calls)
     v_xc         :      4.11s CPU      4.14s WALL (      12 calls)
     mix_rho      :      1.10s CPU      1.19s WALL (      11 calls)

     Called by c_bands:
     init_us_2    :      0.96s CPU      0.96s WALL (     150 calls)
     cegterg      :     52.90s CPU     53.02s WALL (      66 calls)

     Called by sum_band:

     Called by *egterg:
     h_psi        :     51.56s CPU     51.66s WALL (     277 calls)
     g_psi        :      0.19s CPU      0.19s WALL (     205 calls)
     cdiaghg      :      0.05s CPU      0.05s WALL (     271 calls)
     cegterg:over :      1.00s CPU      1.01s WALL (     205 calls)
     cegterg:upda :      0.85s CPU      0.85s WALL (     205 calls)
     cegterg:last :      0.25s CPU      0.25s WALL (      66 calls)

     Called by h_psi:
     h_psi:pot    :     51.30s CPU     51.41s WALL (     277 calls)
     h_psi:calbec :      0.63s CPU      0.64s WALL (     277 calls)
     vloc_psi     :     50.32s CPU     50.41s WALL (     277 calls)
     add_vuspsi   :      0.35s CPU      0.35s WALL (     277 calls)

     General routines
     calbec       :      0.71s CPU      0.72s WALL (     307 calls)
     fft          :      4.13s CPU      4.16s WALL (     139 calls)
     fftw         :     54.12s CPU     54.21s WALL (    3418 calls)

     Parallel routines
     fft_scatt_xy :      7.41s CPU      7.42s WALL (    3557 calls)
     fft_scatt_yz :     16.91s CPU     16.95s WALL (    3557 calls)

     PWSCF        :  1m17.13s CPU     1m24.04s WALL


   This run was terminated on:  21:22:25   1Oct2020            

=------------------------------------------------------------------------------=
   JOB DONE.
=------------------------------------------------------------------------------=
