
     Program PWSCF v.6.2 (svn rev. 14038) starts on  1Oct2020 at 21:33: 0 

     This program is part of the open-source Quantum ESPRESSO suite
     for quantum simulation of materials; please cite
         "P. Giannozzi et al., J. Phys.:Condens. Matter 21 395502 (2009);
         "P. Giannozzi et al., J. Phys.:Condens. Matter 29 465901 (2017);
          URL http://www.quantum-espresso.org", 
     in publications or presentations arising from this work. More details at
     http://www.quantum-espresso.org/quote

     Parallel version (MPI), running on     8 processors

     MPI processes distributed on     1 nodes
     R & G space division:  proc/nbgrp/npool/nimage =       8
     Waiting for input...
     Reading input from standard input

     Current dimensions of program PWSCF are:
     Max number of different atomic species (ntypx) = 10
     Max number of k-points (npk) =  40000
     Max angular momentum in pseudopotentials (lmaxx) =  3

     Subspace diagonalization in iterative solution of the eigenvalue problem:
     a serial algorithm will be used


     Parallelization info
     --------------------
     sticks:   dense  smooth     PW     G-vecs:    dense   smooth      PW
     Min        2386    2386    623               248152   248152   33108
     Max        2387    2387    625               248157   248157   33111
     Sum       19089   19089   4989              1985227  1985227  264875



     bravais-lattice index     =            1
     lattice parameter (alat)  =      37.7945  a.u.
     unit-cell volume          =   53986.6767 (a.u.)^3
     number of atoms/cell      =            2
     number of atomic types    =            1
     number of electrons       =         8.00
     number of Kohn-Sham states=            8
     kinetic-energy cutoff     =      42.0000  Ry
     charge density cutoff     =     168.0000  Ry
     convergence threshold     =      1.0E-08
     mixing beta               =       0.3000
     number of iterations used =            8  plain     mixing
     Exchange-correlation      = SLA-PW-PBX-PBC ( 1  4  3  4 0 0)

     celldm(1)=  37.794523  celldm(2)=   0.000000  celldm(3)=   0.000000
     celldm(4)=   0.000000  celldm(5)=   0.000000  celldm(6)=   0.000000

     crystal axes: (cart. coord. in units of alat)
               a(1) = (   1.000000   0.000000   0.000000 )  
               a(2) = (   0.000000   1.000000   0.000000 )  
               a(3) = (   0.000000   0.000000   1.000000 )  

     reciprocal axes: (cart. coord. in units 2 pi/alat)
               b(1) = (  1.000000  0.000000  0.000000 )  
               b(2) = (  0.000000  1.000000  0.000000 )  
               b(3) = (  0.000000  0.000000  1.000000 )  


     PseudoPot. # 1 for Si read from file:
     ./Si.pbe-hgh.UPF
     MD5 check sum: 9a9f0f6e09139bfdb36b03ff6bc35900
     Pseudo is Norm-conserving, Zval =  4.0
     Generated in analytical, separable form
     Using radial grid of 1141 points,  3 beta functions with: 
                l(1) =   0
                l(2) =   0
                l(3) =   1

     atomic species   valence    mass     pseudopotential
        Si             4.00    28.08000     Si( 1.00)

      8 Sym. Ops. (no inversion) found


                                    s                        frac. trans.

      isym =  1     identity                                     

 cryst.   s( 1) = (     1          0          0      )
                  (     0          1          0      )
                  (     0          0          1      )

 cart.    s( 1) = (  1.0000000  0.0000000  0.0000000 )
                  (  0.0000000  1.0000000  0.0000000 )
                  (  0.0000000  0.0000000  1.0000000 )


      isym =  2     180 deg rotation - cart. axis [1,0,0]        

 cryst.   s( 2) = (     1          0          0      )
                  (     0         -1          0      )
                  (     0          0         -1      )

 cart.    s( 2) = (  1.0000000  0.0000000  0.0000000 )
                  (  0.0000000 -1.0000000  0.0000000 )
                  (  0.0000000  0.0000000 -1.0000000 )


      isym =  3      90 deg rotation - cart. axis [-1,0,0]       

 cryst.   s( 3) = (     1          0          0      )
                  (     0          0         -1      )
                  (     0          1          0      )

 cart.    s( 3) = (  1.0000000  0.0000000  0.0000000 )
                  (  0.0000000  0.0000000  1.0000000 )
                  (  0.0000000 -1.0000000  0.0000000 )


      isym =  4      90 deg rotation - cart. axis [1,0,0]        

 cryst.   s( 4) = (     1          0          0      )
                  (     0          0          1      )
                  (     0         -1          0      )

 cart.    s( 4) = (  1.0000000  0.0000000  0.0000000 )
                  (  0.0000000  0.0000000 -1.0000000 )
                  (  0.0000000  1.0000000  0.0000000 )


      isym =  5     inv. 180 deg rotation - cart. axis [0,0,1]   

 cryst.   s( 5) = (     1          0          0      )
                  (     0          1          0      )
                  (     0          0         -1      )

 cart.    s( 5) = (  1.0000000  0.0000000  0.0000000 )
                  (  0.0000000  1.0000000  0.0000000 )
                  (  0.0000000  0.0000000 -1.0000000 )


      isym =  6     inv. 180 deg rotation - cart. axis [0,1,0]   

 cryst.   s( 6) = (     1          0          0      )
                  (     0         -1          0      )
                  (     0          0          1      )

 cart.    s( 6) = (  1.0000000  0.0000000  0.0000000 )
                  (  0.0000000 -1.0000000  0.0000000 )
                  (  0.0000000  0.0000000  1.0000000 )


      isym =  7     inv. 180 deg rotation - cart. axis [0,1,1]   

 cryst.   s( 7) = (     1          0          0      )
                  (     0          0         -1      )
                  (     0         -1          0      )

 cart.    s( 7) = (  1.0000000  0.0000000  0.0000000 )
                  (  0.0000000  0.0000000 -1.0000000 )
                  (  0.0000000 -1.0000000  0.0000000 )


      isym =  8     inv. 180 deg rotation - cart. axis [0,1,-1]  

 cryst.   s( 8) = (     1          0          0      )
                  (     0          0          1      )
                  (     0          1          0      )

 cart.    s( 8) = (  1.0000000  0.0000000  0.0000000 )
                  (  0.0000000  0.0000000  1.0000000 )
                  (  0.0000000  1.0000000  0.0000000 )


     point group C_4v (4mm) 
     there are  5 classes
     the character table:

       E     2C4   C2    2s_v  2s_d 
A_1    1.00  1.00  1.00  1.00  1.00
A_2    1.00  1.00  1.00 -1.00 -1.00
B_1    1.00 -1.00  1.00  1.00 -1.00
B_2    1.00 -1.00  1.00 -1.00  1.00
E      2.00  0.00 -2.00  0.00  0.00

     the symmetry operations in each class and the name of the first element:

     E        1
          identity                                               
     2C4      3    4
           90 deg rotation - cart. axis [-1,0,0]                 
     C2       2
          180 deg rotation - cart. axis [1,0,0]                  
     2s_v     5    6
          inv. 180 deg rotation - cart. axis [0,0,1]             
     2s_d     7    8
          inv. 180 deg rotation - cart. axis [0,1,1]             

   Cartesian axes

     site n.     atom                  positions (alat units)
         1           Si  tau(   1) = (   0.0000000   0.0000000   0.0000000  )
         2           Si  tau(   2) = (   0.0545000   0.0000000   0.0000000  )

   Crystallographic axes

     site n.     atom                  positions (cryst. coord.)
         1           Si  tau(   1) = (  0.0000000  0.0000000  0.0000000  )
         2           Si  tau(   2) = (  0.0545000  0.0000000  0.0000000  )

     number of k points=     6  Marzari-Vanderbilt smearing, width (Ry)=  0.0500
                       cart. coord. in units 2pi/alat
        k(    1) = (   0.0000000   0.0000000   0.0000000), wk =   0.2500000
        k(    2) = (   0.0000000   0.0000000  -0.5000000), wk =   0.5000000
        k(    3) = (   0.0000000  -0.5000000  -0.5000000), wk =   0.2500000
        k(    4) = (  -0.5000000  -0.5000000  -0.5000000), wk =   0.2500000
        k(    5) = (  -0.5000000   0.0000000   0.0000000), wk =   0.2500000
        k(    6) = (  -0.5000000   0.5000000   0.0000000), wk =   0.5000000

                       cryst. coord.
        k(    1) = (   0.0000000   0.0000000   0.0000000), wk =   0.2500000
        k(    2) = (   0.0000000   0.0000000  -0.5000000), wk =   0.5000000
        k(    3) = (   0.0000000  -0.5000000  -0.5000000), wk =   0.2500000
        k(    4) = (  -0.5000000  -0.5000000  -0.5000000), wk =   0.2500000
        k(    5) = (  -0.5000000   0.0000000   0.0000000), wk =   0.2500000
        k(    6) = (  -0.5000000   0.5000000   0.0000000), wk =   0.5000000

     Dense  grid:  1985227 G-vectors     FFT dimensions: ( 160, 160, 160)

     Dynamical RAM for                 wfc:       3.79 MB

     Dynamical RAM for     wfc (w. buffer):      26.50 MB

     Dynamical RAM for           str. fact:       3.79 MB

     Dynamical RAM for           local pot:       0.00 MB

     Dynamical RAM for          nlocal pot:       4.73 MB

     Dynamical RAM for                qrad:       1.07 MB

     Dynamical RAM for          rho,v,vnew:      23.08 MB

     Dynamical RAM for               rhoin:       7.69 MB

     Dynamical RAM for            rho*nmix:      60.58 MB

     Dynamical RAM for           G-vectors:      16.09 MB

     Dynamical RAM for          h,s,v(r/c):       0.05 MB

     Dynamical RAM for          <psi|beta>:       0.00 MB

     Dynamical RAM for                 psi:      15.15 MB

     Dynamical RAM for                hpsi:      15.15 MB

     Dynamical RAM for      wfcinit/wfcrot:       7.57 MB

     Estimated static dynamical RAM per process >     170.65 MB

     Estimated max dynamical RAM per process >     200.99 MB

     Estimated total dynamical RAM >       1.57 GB

     Initial potential from superposition of free atoms
     Check: negative starting charge=   -0.000644

     starting charge    7.99888, renormalised to    8.00000

     negative rho (up, down):  6.439E-04 0.000E+00
     Starting wfc are    8 randomized atomic wfcs

     total cpu time spent up to now is        3.9 secs

     Self-consistent Calculation

     iteration #  1     ecut=    42.00 Ry     beta= 0.30
     Davidson diagonalization with overlap
     ethr =  1.00E-02,  avg # of iterations =  4.0

     negative rho (up, down):  4.265E-04 0.000E+00

     total cpu time spent up to now is       12.1 secs

     total energy              =     -12.52814769 Ry
     Harris-Foulkes estimate   =     -12.93363108 Ry
     estimated scf accuracy    <       1.11968063 Ry

     iteration #  2     ecut=    42.00 Ry     beta= 0.30
     Davidson diagonalization with overlap
     ethr =  1.00E-02,  avg # of iterations =  2.0

     negative rho (up, down):  2.139E-04 0.000E+00

     total cpu time spent up to now is       19.0 secs

     total energy              =     -12.52401805 Ry
     Harris-Foulkes estimate   =     -12.60624482 Ry
     estimated scf accuracy    <       0.16648052 Ry

     iteration #  3     ecut=    42.00 Ry     beta= 0.30
     Davidson diagonalization with overlap
     ethr =  2.08E-03,  avg # of iterations =  2.0

     negative rho (up, down):  1.427E-04 0.000E+00

     total cpu time spent up to now is       25.4 secs

     total energy              =     -12.55232935 Ry
     Harris-Foulkes estimate   =     -12.55556334 Ry
     estimated scf accuracy    <       0.01403955 Ry

     iteration #  4     ecut=    42.00 Ry     beta= 0.30
     Davidson diagonalization with overlap
     ethr =  1.75E-04,  avg # of iterations =  6.3

     negative rho (up, down):  2.645E-05 0.000E+00

     total cpu time spent up to now is       35.0 secs

     total energy              =     -12.55157076 Ry
     Harris-Foulkes estimate   =     -12.55319719 Ry
     estimated scf accuracy    <       0.00408574 Ry

     iteration #  5     ecut=    42.00 Ry     beta= 0.30
     Davidson diagonalization with overlap
     ethr =  5.11E-05,  avg # of iterations =  4.5

     negative rho (up, down):  2.652E-06 0.000E+00

     total cpu time spent up to now is       41.4 secs

     total energy              =     -12.55175129 Ry
     Harris-Foulkes estimate   =     -12.55233094 Ry
     estimated scf accuracy    <       0.00136646 Ry

     iteration #  6     ecut=    42.00 Ry     beta= 0.30
     Davidson diagonalization with overlap
     ethr =  1.71E-05,  avg # of iterations =  3.2

     negative rho (up, down):  9.797E-06 0.000E+00

     total cpu time spent up to now is       48.1 secs

     total energy              =     -12.55198752 Ry
     Harris-Foulkes estimate   =     -12.55219598 Ry
     estimated scf accuracy    <       0.00050432 Ry

     iteration #  7     ecut=    42.00 Ry     beta= 0.30
     Davidson diagonalization with overlap
     ethr =  6.30E-06,  avg # of iterations =  3.8

     negative rho (up, down):  2.786E-06 0.000E+00

     total cpu time spent up to now is       54.8 secs

     total energy              =     -12.55206525 Ry
     Harris-Foulkes estimate   =     -12.55208554 Ry
     estimated scf accuracy    <       0.00005341 Ry

     iteration #  8     ecut=    42.00 Ry     beta= 0.30
     Davidson diagonalization with overlap
     c_bands:  1 eigenvalues not converged
     ethr =  6.68E-07,  avg # of iterations =  6.0

     negative rho (up, down):  1.814E-06 0.000E+00

     total cpu time spent up to now is       61.7 secs

     total energy              =     -12.55207103 Ry
     Harris-Foulkes estimate   =     -12.55207153 Ry
     estimated scf accuracy    <       0.00000384 Ry

     iteration #  9     ecut=    42.00 Ry     beta= 0.30
     Davidson diagonalization with overlap
     ethr =  4.80E-08,  avg # of iterations =  4.3

     negative rho (up, down):  1.338E-06 0.000E+00

     total cpu time spent up to now is       67.9 secs

     total energy              =     -12.55207195 Ry
     Harris-Foulkes estimate   =     -12.55207202 Ry
     estimated scf accuracy    <       0.00000474 Ry

     iteration # 10     ecut=    42.00 Ry     beta= 0.30
     Davidson diagonalization with overlap
     ethr =  4.80E-08,  avg # of iterations =  1.0

     negative rho (up, down):  1.156E-08 0.000E+00

     total cpu time spent up to now is       73.1 secs

     total energy              =     -12.55206998 Ry
     Harris-Foulkes estimate   =     -12.55207206 Ry
     estimated scf accuracy    <       0.00000654 Ry

     iteration # 11     ecut=    42.00 Ry     beta= 0.30
     Davidson diagonalization with overlap
     ethr =  4.80E-08,  avg # of iterations =  2.0

     total cpu time spent up to now is       78.9 secs

     total energy              =     -12.55207124 Ry
     Harris-Foulkes estimate   =     -12.55207203 Ry
     estimated scf accuracy    <       0.00000209 Ry

     iteration # 12     ecut=    42.00 Ry     beta= 0.30
     Davidson diagonalization with overlap
     ethr =  2.62E-08,  avg # of iterations =  1.0

     total cpu time spent up to now is       84.2 secs

     total energy              =     -12.55207158 Ry
     Harris-Foulkes estimate   =     -12.55207159 Ry
     estimated scf accuracy    <       0.00000007 Ry

     iteration # 13     ecut=    42.00 Ry     beta= 0.30
     Davidson diagonalization with overlap
     ethr =  9.08E-10,  avg # of iterations =  2.0

     total cpu time spent up to now is       89.8 secs

     total energy              =     -12.55207157 Ry
     Harris-Foulkes estimate   =     -12.55207159 Ry
     estimated scf accuracy    <       0.00000009 Ry

     iteration # 14     ecut=    42.00 Ry     beta= 0.30
     Davidson diagonalization with overlap
     ethr =  9.08E-10,  avg # of iterations =  1.0

     total cpu time spent up to now is       94.9 secs

     total energy              =     -12.55207152 Ry
     Harris-Foulkes estimate   =     -12.55207158 Ry
     estimated scf accuracy    <       0.00000005 Ry

     iteration # 15     ecut=    42.00 Ry     beta= 0.30
     Davidson diagonalization with overlap
     ethr =  5.65E-10,  avg # of iterations =  2.0

     total cpu time spent up to now is      101.1 secs

     total energy              =     -12.55207155 Ry
     Harris-Foulkes estimate   =     -12.55207154 Ry
     estimated scf accuracy    <       0.00000001 Ry

     iteration # 16     ecut=    42.00 Ry     beta= 0.30
     Davidson diagonalization with overlap
     ethr =  1.30E-10,  avg # of iterations =  2.0

     total cpu time spent up to now is      106.4 secs

     End of self-consistent calculation

          k = 0.0000 0.0000 0.0000 (248049 PWs)   bands (ev):

   -13.3905  -7.2902  -7.2902  -6.9559  -2.5512  -0.0945  -0.0945   0.2527

     occupation numbers 
     1.0000   1.0632   1.0632   0.8736   0.0000   0.0000   0.0000   0.0000

          k = 0.0000 0.0000-0.5000 (247982 PWs)   bands (ev):

   -13.3905  -7.2902  -7.2902  -6.9559  -2.5512  -0.0952  -0.0944   0.0036

     occupation numbers 
     1.0000   1.0632   1.0632   0.8736   0.0000   0.0000   0.0000   0.0000

          k = 0.0000-0.5000-0.5000 (248312 PWs)   bands (ev):

   -13.3905  -7.2902  -7.2902  -6.9559  -2.5512  -0.0951  -0.0951   0.1503

     occupation numbers 
     1.0000   1.0632   1.0632   0.8736   0.0000   0.0000   0.0000   0.0000

          k =-0.5000-0.5000-0.5000 (248296 PWs)   bands (ev):

   -13.3905  -7.2902  -7.2902  -6.9559  -2.5512  -0.0965  -0.0965   0.1946

     occupation numbers 
     1.0000   1.0632   1.0632   0.8736   0.0000   0.0000   0.0000   0.0000

          k =-0.5000 0.0000 0.0000 (247982 PWs)   bands (ev):

   -13.3905  -7.2902  -7.2902  -6.9559  -2.5512  -0.0953  -0.0953   0.2766

     occupation numbers 
     1.0000   1.0632   1.0632   0.8736   0.0000   0.0000   0.0000   0.0000

          k =-0.5000 0.5000 0.0000 (248312 PWs)   bands (ev):

   -13.3905  -7.2902  -7.2902  -6.9559  -2.5512  -0.0970  -0.0952   0.1550

     occupation numbers 
     1.0000   1.0632   1.0632   0.8736   0.0000   0.0000   0.0000   0.0000

     the Fermi energy is    -6.5045 ev

!    total energy              =     -12.55207155 Ry
     Harris-Foulkes estimate   =     -12.55207156 Ry
     estimated scf accuracy    <          1.5E-09 Ry

     The total energy is the sum of the following terms:

     one-electron contribution =     -37.89256345 Ry
     hartree contribution      =      19.67764366 Ry
     xc contribution           =      -5.10083842 Ry
     ewald contribution        =      10.73618188 Ry
     smearing contrib. (-TS)   =       0.02750477 Ry

     convergence has been achieved in  16 iterations

     Forces acting on atoms (cartesian axes, Ry/au):

     atom    1 type  1   force =    -4.82272985    0.00000000    0.00000000
     atom    2 type  1   force =     4.82272985    0.00000000    0.00000000
     The non-local contrib.  to forces
     atom    1 type  1   force =    -2.48659778    0.00000000    0.00000000
     atom    2 type  1   force =     2.48659221    0.00000000    0.00000000
     The ionic contribution  to forces
     atom    1 type  1   force =    -7.53706152   -0.00000000   -0.00000000
     atom    2 type  1   force =     7.53706152    0.00000000   -0.00000000
     The local contribution  to forces
     atom    1 type  1   force =     5.20094523   -0.00000000   -0.00000000
     atom    2 type  1   force =    -5.20094460   -0.00000000   -0.00000000
     The core correction contribution to forces
     atom    1 type  1   force =     0.00000000    0.00000000    0.00000000
     atom    2 type  1   force =     0.00000000    0.00000000    0.00000000
     The Hubbard contrib.    to forces
     atom    1 type  1   force =     0.00000000    0.00000000    0.00000000
     atom    2 type  1   force =     0.00000000    0.00000000    0.00000000
     The SCF correction term to forces
     atom    1 type  1   force =    -0.00001799   -0.00000000   -0.00000000
     atom    2 type  1   force =     0.00001851   -0.00000000    0.00000000

     Total force =     6.820370     Total SCF correction =     0.000026


     Computing stress (Cartesian axis) and pressure

          total   stress  (Ry/bohr**3)                   (kbar)     P=    9.01
   0.00018387   0.00000000   0.00000000         27.05      0.00      0.00
   0.00000000  -0.00000009   0.00000000          0.00     -0.01      0.00
   0.00000000   0.00000000  -0.00000009          0.00      0.00     -0.01

     kinetic stress (kbar)     11.64      0.00      0.00
                                0.00     16.03      0.00
                                0.00      0.00     16.03

     local   stress (kbar)    -57.26     -0.00     -0.00
                               -0.00    -46.17     -0.00
                               -0.00     -0.00    -46.17

     nonloc. stress (kbar)     19.88      0.00      0.00
                                0.00     21.57      0.00
                                0.00      0.00     21.57

     hartree stress (kbar)     19.05      0.00      0.00
                                0.00     17.28      0.00
                                0.00      0.00     17.28

     exc-cor stress (kbar)     -4.27      0.00      0.00
                                0.00     -4.35      0.00
                                0.00      0.00     -4.35

     corecor stress (kbar)      0.00      0.00      0.00
                                0.00      0.00      0.00
                                0.00      0.00      0.00

     ewald   stress (kbar)     38.00     -0.00     -0.00
                               -0.00     -4.37     -0.00
                               -0.00     -0.00     -4.37

     hubbard stress (kbar)      0.00      0.00      0.00
                                0.00      0.00      0.00
                                0.00      0.00      0.00

     london  stress (kbar)      0.00      0.00      0.00
                                0.00      0.00      0.00
                                0.00      0.00      0.00

     DFT-D3  stress (kbar)      0.00      0.00      0.00
                                0.00      0.00      0.00
                                0.00      0.00      0.00

     XDM     stress (kbar)      0.00      0.00      0.00
                                0.00      0.00      0.00
                                0.00      0.00      0.00

     dft-nl  stress (kbar)      0.00      0.00      0.00
                                0.00      0.00      0.00
                                0.00      0.00      0.00

     TS-vdW  stress (kbar)      0.00      0.00      0.00
                                0.00      0.00      0.00
                                0.00      0.00      0.00



     Writing output data file SiSi19.save

     init_run     :      3.59s CPU      3.74s WALL (       1 calls)
     electrons    :     98.47s CPU    102.81s WALL (       1 calls)
     forces       :      0.37s CPU      0.37s WALL (       1 calls)
     stress       :      1.86s CPU      1.95s WALL (       1 calls)

     Called by init_run:
     wfcinit      :      1.94s CPU      1.97s WALL (       1 calls)
     wfcinit:atom :      0.04s CPU      0.04s WALL (       6 calls)
     wfcinit:wfcr :      1.73s CPU      1.76s WALL (       6 calls)
     potinit      :      0.57s CPU      0.61s WALL (       1 calls)

     Called by electrons:
     c_bands      :     74.00s CPU     76.43s WALL (      16 calls)
     sum_band     :     16.46s CPU     16.52s WALL (      16 calls)
     v_of_rho     :      6.21s CPU      6.27s WALL (      17 calls)
     v_h          :      0.61s CPU      0.62s WALL (      17 calls)
     v_xc         :      5.60s CPU      5.64s WALL (      17 calls)
     mix_rho      :      1.85s CPU      1.96s WALL (      16 calls)

     Called by c_bands:
     init_us_2    :      1.30s CPU      1.32s WALL (     210 calls)
     cegterg      :     72.80s CPU     72.97s WALL (      96 calls)

     Called by sum_band:

     Called by *egterg:
     h_psi        :     70.31s CPU     70.47s WALL (     385 calls)
     g_psi        :      0.26s CPU      0.26s WALL (     283 calls)
     cdiaghg      :      0.06s CPU      0.06s WALL (     379 calls)
     cegterg:over :      1.33s CPU      1.34s WALL (     283 calls)
     cegterg:upda :      1.10s CPU      1.11s WALL (     283 calls)
     cegterg:last :      0.36s CPU      0.37s WALL (      98 calls)

     Called by h_psi:
     h_psi:pot    :     69.96s CPU     70.12s WALL (     385 calls)
     h_psi:calbec :      0.87s CPU      0.88s WALL (     385 calls)
     vloc_psi     :     68.60s CPU     68.75s WALL (     385 calls)
     add_vuspsi   :      0.49s CPU      0.49s WALL (     385 calls)

     General routines
     calbec       :      0.97s CPU      0.98s WALL (     415 calls)
     fft          :      5.67s CPU      5.71s WALL (     194 calls)
     fftw         :     74.19s CPU     74.33s WALL (    4766 calls)

     Parallel routines
     fft_scatt_xy :     10.23s CPU     10.25s WALL (    4960 calls)
     fft_scatt_yz :     22.54s CPU     22.61s WALL (    4960 calls)

     PWSCF        :  1m44.83s CPU     1m50.22s WALL


   This run was terminated on:  21:34:50   1Oct2020            

=------------------------------------------------------------------------------=
   JOB DONE.
=------------------------------------------------------------------------------=
