72
config_type=amorph dft_energy=-6895.174941142098 dft_virial="50.91721631000853 -9.215484126755241 3.1669972746239528 -9.215484126755241 52.60888085900344 -3.599660921355739 3.1669972746239523 -3.599660921355739 12.667989098495811" pbc="T T T" Lattice="11.105996452100001 0.0 0.0 0.0 11.105996452100001 0.0 0.0 0.0 11.105996452100001" Properties=species:S:1:pos:R:3:Z:I:1:dft_force:R:3
Si	-0.5510817651524925	-2.8777313812855367	-4.585629285283798	14	0.700702047347296	0.8435539444873832	-1.1318951786049658
Si	-0.13989890550816808	4.41534548408233	1.3852587116679496	14	1.1045579012884914	0.30667270082917436	0.33413339120101593
Si	-0.8688254342467188	-4.98598268778768	-3.849199545342209	14	1.4947755841694932	-1.3786894076332115	-1.8944436217652316
Si	4.803928751546277	4.428723767408529	0.0026987571378603004	14	1.2297504186476735	0.26140479212051926	1.402938787460188
Si	1.1180595430268758	2.5462995715640973	0.26097203643038147	14	0.37934576403475584	0.5239786658301098	0.8734630984556018
Si	3.6049975635544986	-3.3078066514945283	0.6824890257733849	14	0.9944410599739975	-0.1813678261675016	-0.08321562346031668
Si	1.7983229271112597	0.4978229591664469	3.422542700841174	14	-1.870241293165614	-0.4691696423889172	1.37150599647925
Si	5.05256313651802	2.5058359840905164	4.5599855394759	14	-1.5643442948115283	0.4300232783370026	0.039589108388044074
Si	-1.542909441905154	2.649007826753118	-3.183046329750218	14	2.466513012834987	0.12969143744837738	-1.467455276148132
Si	2.155307413469691	-0.23283832621792175	-3.8934758213977965	14	-0.2291217366102079	0.21801790406408442	-0.2567420926224307
Si	4.191435268412252	-5.304553753617588	1.8994696791991152	14	-0.16978525381076656	0.20966438287892328	1.024834610184532
Si	1.7122325744135163	-2.560883966104995	-3.9753869876306145	14	0.5687287539272871	-0.9394718566713595	-1.3206089097826625
Si	-1.3889981006733716	-1.2664201072318988	-1.205850223781436	14	-0.8617404008589186	0.4656001768729555	1.1895475874197103
Si	4.501933385421128	-0.5256379272807314	-4.129830306092453	14	0.9912883706304317	0.6975385593613856	0.3927841602115738
Si	5.467803016666297	-2.0967999135603828	-2.3459407319703423	14	-0.28188544576922275	-0.5709550740240034	-1.6717051683333555
Si	-1.9178334443326626	-1.2758857480080237	-3.4770886918160175	14	1.613101707660688	-0.09060086638191003	0.23433670953106425
Si	0.642878378827325	5.349026605810377	-2.2869801074057885	14	0.1148497319878226	0.02046651256944274	1.3230082652674247
Si	0.8525673660404895	3.0174403742543743	-2.6126701169614925	14	-0.7873835207791723	-0.7616578122773666	0.7239921477793253
Si	-3.555863524650763	-4.967831047186368	-0.7307023775712415	14	-1.6340423320511663	-1.2368312426993615	0.958476695866298
Si	-1.3799766997553309	0.682881067448144	-4.670020420524371	14	1.7758562739735095	0.46621698503925907	2.251574521612844
Si	-0.5193263894970029	-2.779695418803915	4.058102228006565	14	-0.1462020473722403	-1.401700800248537	0.7753677171759922
Si	-0.6719116747524049	4.575817137418368	5.437038295894334	14	0.2810485509875145	-0.07334309325201209	-0.8377113647578788
Si	-2.7693979388935275	-2.512648402314235	3.5338325594887325	14	0.9508711092187679	1.5091377784878406	0.3941167640990066
Si	-5.096807205183896	1.492111724732894	-4.68931819995954	14	-0.7539959184233254	-0.9343774685900181	1.3802788649421271
Si	5.29895855260502	-0.786362299990231	2.9969698015938637	14	0.944570101410681	2.3998486227625917	-0.9392139748077486
Si	2.739518366038798	-5.287869215147598	3.9889340821028867	14	0.7914533233904346	-0.37892050321480336	-0.16608029104443314
Si	-3.6779761768408927	-2.796678708578466	-3.6563539123482993	14	-2.803458679035181	-30.181553835130174	12.824038788105605
Si	3.8340865053701916	1.2944660800723868	2.9316298926672233	14	2.0882370857239447	-0.2576571490058714	-1.101149644076103
Si	1.863050895633389	0.7937477876308775	-1.7427507420642419	14	0.23938044683759874	-0.24657234263911695	-0.029311371981284143
Si	-2.7924584299266684	-4.993772433699183	-2.913450487074781	14	6.9901913035999295	-5.4864111943782135	4.937332627081223
Si	-4.252159525213399	-3.1526136782721736	5.15994812681302	14	8.299153620503386	-5.858659165066169	-45.70159709762601
Si	4.305287280441309	4.891239653254106	-3.744775413701339	14	-2.503829778341084	0.104404359514189	0.8701288890764338
Si	-4.512214206336837	2.944023074108122	-2.7864856250347283	14	-0.8953411478458058	0.385789468188111	-2.1005017723221155
Si	-2.809256249560469	2.3692233429325245	-1.429864835818164	14	-0.6869772300378134	0.8225091903314393	1.7423812540367778
Si	0.7443316564172586	1.094009507709853	-5.492346158225792	14	1.63469616413408	-0.8130508651902104	-0.4126906860422883
Si	-2.189512771942514	3.448659562097932	2.104188732999965	14	-0.5403254963450793	-1.0259784949414656	-0.5802997563100816
Si	4.21744329090378	-4.026040326848998	-1.5109952505003998	14	0.6980412104514746	0.5691349885678704	1.0120683009384006
Si	-3.510507745740032	-3.3462111872258906	1.5347809631018625	14	0.6134112219545446	-1.3091266105334132	-0.16200920288051068
Si	1.2677905871940878	-2.915501764619484	0.923214830671588	14	0.9671832298119154	1.4030647716208755	-0.1553839786915531
Si	3.5318878995099694	2.554067105482696	0.8170337303919957	14	-0.20422161002670186	-0.6052376781417937	0.5610771444945264
Si	4.8451475467786	-1.6481631914809967	4.983653760331675	14	-0.31748754113731326	-1.9765845232017263	0.5302943289385215
Si	-2.0764759400530397	0.9653931839973734	1.5760019795334765	14	0.21849921498001615	0.7539182710426569	0.6492457452435764
Si	-3.159290603339176	0.9366697453733072	5.325391934760663	14	-1.5717840451659084	1.5402669219304694	-2.7656449188706995
Si	-4.821776087844801	-4.8649439854544685	3.0260664016987198	14	-0.5272359991602054	0.9718911807636385	-0.2662469547699541
Si	-5.340558283515651	-2.0225396682834162	1.124206712063113	14	-2.3054049823691884	-0.03524599728124994	-0.36261429616389224
Si	1.287040610844513	3.328612625247893	-4.8897803253203	14	-1.475148537487079	-0.7763586211663772	-0.3023995237870883
Si	1.3390555452279231	-1.812840685673445	3.1615206874267576	14	0.8740562524529599	-0.9755444643130372	0.16560489367073777
Si	0.11212947197933724	-4.751990448538385	-0.11979705192986707	14	0.15072050786186852	-0.7343907261361321	0.26970637697821337
Si	3.325914978709678	3.932821035028651	5.503258910339626	14	0.9072523074624559	0.5832465001175031	-1.3562999653948302
Si	2.79963401423437	-3.0308930677568027	4.768290719531133	14	-0.17268931726987377	0.7923902341690965	0.5648759526050452
Si	0.38292587287124635	0.636812283565188	1.6145986490034598	14	-1.4176961606662422	1.7825444902428111	-0.25426688953072407
Si	-2.723404675786446	3.5056921856784014	4.4489933215332576	14	2.65763047037649	-1.8115630133281304	0.16291526039533086
Si	-3.175318777418847	0.3828525732946625	-0.4684942437357413	14	0.9346476917591656	-1.3989090940919202	0.3208713728491601
Si	4.174123241142718	1.135688091195294	-1.1609642285206283	14	-1.4261720664646422	0.06269357501595874	0.8141613255779825
Si	-1.80474996725809	-3.477927194548151	-0.33444819835782985	14	-0.4205487552322569	0.9722848169881534	1.9713826629180027
Si	-5.339527647044896	-0.5096819421779993	-0.7084337440851357	14	0.6397493677436095	-0.13272585594721617	0.6539223287103936
Si	-3.754739713718163	3.8930648995290684	0.2449849545375835	14	0.23379523475064107	0.46953113979692995	0.10013889578806334
Si	0.4966923687276232	-5.359036440412655	3.352988066260962	14	-1.2211757824049796	0.146856393676218	1.0795855266454892
Si	-4.720265059073316	4.394924888405854	4.37195102414504	14	-0.5841715838116925	0.6004585075727026	0.8003961419149737
Si	-4.680706610310581	4.903917148204178	-4.332018303301869	14	1.355928697786601	-0.6747171714292193	-0.736628616206789
Si	0.6890548908758665	-0.6719061217541789	-0.16329368703451674	14	0.5624336596614365	-1.6201226249584164	-1.2068675812983556
Si	-3.2844629575518596	-0.18255925907997458	3.2526887017024015	14	-1.0747276802536014	-0.2914653841920945	0.35538100556671964
Si	2.5555597514058586	-4.714220065204438	-2.953046696225453	14	0.8719569449590591	1.234718565457796	-0.709505769074015
Si	4.458314584355505	3.296028742257077	-1.9024905102340866	14	-0.20114913916912486	0.43040508747704453	-1.7470555235088072
H	34.96793172841262	37.185486030797044	35.83922047267242	1	-0.6945463069897974	0.13512546854251037	-0.6409513594807786
H	3.692005271559186	3.8636839859150385	2.456312124711312	1	-0.30207685006940965	0.4063786224813248	-0.43225834019180726
H	41.684338612802364	40.5641889212432	42.579089885166866	1	0.24602212610060528	1.8554378971743293	1.3910507677914195
H	51.0746229818004	52.484335987056234	50.46388757790475	1	-10.84604169964099	4.318112763987399	43.214527069314315
H	29.54012473676928	28.503750908247245	29.784735419226426	1	-10.863699793869236	1.8379415254707216	-7.103635412309227
H	7.504806024129282	9.23032137029951	7.14122790767724	1	1.4646728259706676	32.33268992718515	-12.083303602481477
H	43.50115302400637	41.932820845622715	41.948062715153576	1	0.5157138477784938	-0.026870107479803545	0.06826053225514335
H	20.22718474826295	18.47720955550662	19.645055059428966	1	1.7894255394111234	1.6622201036967972	0.2503978902449653
