72
config_type=amorph dft_energy=-6909.289094960916 dft_virial="51.37880804939971 -5.493822118966412 0.17608404227456448 -5.493822118966412 63.25819218713728 -2.433733012866302 0.17608404227456442 -2.433733012866302 71.07255043465065" pbc="T T T" Lattice="11.105996452100001 0.0 0.0 0.0 11.105996452100001 0.0 0.0 0.0 11.105996452100001" Properties=species:S:1:pos:R:3:Z:I:1:dft_force:R:3
Si	-0.2932316243247963	-3.1792614061593425	-4.837429989844035	14	-1.32014533949344	-0.04581863946823086	0.8520157092065225
Si	-0.022900564684230202	4.546235205268554	1.7805688811829326	14	-0.34718046514810735	0.6274545992131934	-1.3392897897072622
Si	-0.9663005439075101	-5.27148342798217	-3.7905654370733473	14	1.974093893478099	-0.5527218235356413	-0.8080624066480592
Si	4.963316459628589	4.189598336599074	0.43615580326651643	14	0.8207053028388231	-0.321719323383745	0.5946213271643703
Si	1.3840192824638953	2.976034998281655	0.5418382443054097	14	-0.6685894561197104	-0.35059103635528377	-0.2666025386357306
Si	3.840494665323053	-3.4926826214344113	0.7700920151879046	14	0.7534665278379068	1.2944060041334375	-0.6241694979456401
Si	1.68382676728798	0.19212263262487791	3.2525021209620064	14	-0.2199603741334563	0.22438447505783507	0.9622755039768168
Si	4.526676434916761	2.8755834815717005	4.4160140650687465	14	-0.5442060656047788	1.037393945452391	0.590691392682524
Si	-1.4650297523844482	2.1231411159454736	-2.8142661645600113	14	1.7861286110590977	-1.5082648882316503	-1.5345043035764216
Si	2.2717882148589608	-0.4242301842762514	-4.098736847825508	14	0.3871542108920456	-0.2951528634422509	0.724125331034909
Si	4.3177171116704995	-5.344801884759998	2.0186214727351155	14	-0.96497105079446	-0.08622201691116584	1.2123988001735901
Si	1.8934668881167551	-2.7829017199796358	-4.256899564499155	14	0.20275890821006962	0.21975802814476064	1.4409371529866566
Si	-1.5807275810238455	-0.9600567527021394	-1.1185304372764446	14	-1.6260713913376432	0.5214044751835776	-1.769402542509406
Si	4.679889208971707	-0.5845507960605411	-4.467151625732441	14	-0.43489063781857484	0.561346082111014	-1.2974301382109956
Si	5.409045631836816	-1.9758967043838866	-2.6709255107513377	14	0.4859797860825773	0.10348338958851197	-0.4282867538037745
Si	-1.6375269786788202	-1.4693066716181522	-3.513676286527816	14	1.775911295627361	-0.6016404446883745	0.6641450434633025
Si	0.5470191916503143	5.264664346160581	-1.931527137958102	14	0.33600027077397543	0.52946720435703	-0.4137744069347307
Si	0.7023720912215795	2.7096898807677476	-2.256774018255367	14	0.7349504557643284	0.15118433526162325	0.7479443078312927
Si	-3.6635072846630967	-4.673015707767502	-0.8652137642004959	14	-0.24874029864506583	1.0202783544466973	1.2322675307560986
Si	-1.5357971617772295	0.41416148789277757	-4.901647082529369	14	0.8177099651408507	1.331033199192671	0.882877714806388
Si	-0.34283100447987497	-3.2197938508109263	3.923894035080453	14	1.7397620690471431	-0.8933577972018436	0.38748511214674863
Si	-0.8449331040793159	4.206955898454061	5.512703449722491	14	0.1832120800136438	0.8074921354880503	-0.0068018591244517436
Si	-2.3059402645488136	-2.4065028412232885	3.410910280157244	14	-1.6869636499663063	1.8051817870340547	-1.5428552536562625
Si	5.518999439111187	1.7959706770627049	-4.959870268929502	14	1.1812868831366066	-2.9287201020169435	0.38369427446272236
Si	-5.537856310487207	-0.4875732350408038	2.81510577789179	14	0.4700828989986337	-0.18304290128357809	0.2813131177249578
Si	2.8506216439459613	-5.4642246646094295	4.099389880416893	14	-0.24450903061969811	0.680355348285772	0.7436173946880156
Si	-3.8268465062830677	-2.8372544666162134	-3.844746040764917	14	-7.637904155851633	-9.025385972348156	1.1441686069612247
Si	3.89561261511518	1.1149998410043223	3.0459761215384002	14	-0.5139081605121538	0.28788203470740414	-1.4541824591539314
Si	1.9463780764138503	0.487013492819618	-1.837734776720827	14	-1.6836926897780138	-0.5391566718665399	-0.8119203501809413
Si	-3.279272014810148	-5.08051137658973	-3.1206084176965123	14	-5.422968399271964	-12.60335001983495	-4.696892627741191
Si	-3.772874695324797	-3.2253046462504584	4.877511531039665	14	-2.615138069860935	-0.4175973834352589	0.36307632378992283
Si	3.7025759589822944	4.970690841272784	-3.08963490419125	14	1.2847921271203397	-0.36541268719434145	-0.7651802265659694
Si	-4.906374905219027	2.8247746584029882	-3.0626073512254197	14	-0.19560480765675756	0.7418415322433893	-0.39514237801121366
Si	-3.1140714281848063	2.950210224731587	-1.726489342059077	14	-1.1049942178613203	0.15381663288839084	2.3195072379396686
Si	0.8571885711642083	0.6970456553231523	5.4992074428338995	14	-0.5007027064773413	0.7944054665190285	0.19003939308076503
Si	-2.280509753872795	3.6099141881838435	1.7749225925866852	14	0.8292711973234287	-0.5601014100255302	1.8643578328615187
Si	4.751319646352679	-3.861865934295829	-1.3575725731125095	14	0.06114345561844147	-0.3957805263516744	-0.09905748889040907
Si	-3.354866090261012	-3.221098805394049	1.3377861298334481	14	-0.9297949875779182	0.11629109363029762	1.5281534163251238
Si	1.6323449207342704	-2.8530327557757116	0.7196219249109813	14	-0.9877726412156613	0.22092659551276794	0.6088493097850057
Si	3.74681780644888	2.188197821962585	0.7443472048122916	14	0.019480236568633937	-0.3399949971098895	2.0221697063068875
Si	4.959991324290831	-1.9810665457323393	4.522719368380878	14	1.6048091216716147	0.1300789030201237	1.7135967015355922
Si	-1.9580049440995535	1.1906749902292864	1.5433025941795588	14	0.002470060881066259	0.8655757186649836	1.3688374462674682
Si	-3.3320799173402382	1.540257329952393	5.144439713367308	14	-0.1710160419275214	-0.9474708224328721	-0.6577849002328522
Si	-4.784974147401477	-4.785572760610245	3.042031271598614	14	0.9432932905086955	1.8693385780877099	-0.6088369684794691
Si	-5.423590044790486	-1.930680861028452	1.0262018463715565	14	-0.1597713128098538	-0.0031583457752699007	-0.6018569317563311
Si	0.9715770028219027	3.035824130181535	-4.632191175409227	14	-0.14007098962581518	-1.3640577614773128	-0.5742674290079501
Si	1.6034115787772594	-2.148036317592501	3.179914438750726	14	0.3531960802656578	-0.8884410724981244	-0.18023962515302067
Si	0.03873105202705354	-4.616103028948716	0.09357357310716857	14	0.42287097755741465	-0.6434075363931161	0.6884671855708392
Si	3.011397601584787	4.098795709606704	-5.101137433200569	14	0.10520525882141515	-0.20043257211639962	-2.0640632963933805
Si	3.0588679622199972	-3.2223415663970387	4.978637181734261	14	-0.006525465302535825	-0.43592113683089023	-2.363458740724408
Si	0.41746107943869654	0.9656797187058377	1.465964877285715	14	-0.07448286424043372	-0.7199639970742492	-1.2164626892426165
Si	-2.872510452353405	3.742199933124097	4.3127260768649265	14	1.6926267665444643	-1.284274820729926	-0.9640773345851766
Si	-3.099353761686483	0.663085739371921	-0.3233455337046655	14	-0.8975710674899703	0.37439227252495855	-2.0022981475085273
Si	4.039205375043317	1.0693808499776762	-1.24204688741812	14	0.5175979537570984	-0.18545048430536473	0.25093165170942805
Si	-1.6403312427829755	-3.0102936655374477	-0.2163303730915203	14	-1.1941578363692675	-2.105685634868598	-0.024024665221995662
Si	-5.244141575316744	-0.4564808873735047	-0.9247041447958146	14	0.43456410744291607	-0.017017631892996106	0.9280895734190641
Si	-3.8155195005015705	4.416106244839299	0.2611075295870971	14	0.3307760418739666	-0.8232766652695034	-0.7793624435119062
Si	0.4736518684880965	5.437293733812733	3.866792554321981	14	-0.1851146979505534	0.7421513504344671	0.13107854876859729
Si	-4.907235619944065	4.663986532651945	4.488081986646069	14	-1.009035682213286	-0.962158261574218	1.4926053141687563
Si	-5.164396078392087	4.933139246068944	-4.208188664060245	14	0.004440555998427746	0.44708179080458904	0.024002296605710374
Si	0.4962270274762801	-0.9910569205988862	-0.38635651517530006	14	3.0478898051636785	1.8720639497270666	1.0675026171934534
Si	-3.180553033546722	-0.07314409263353061	3.188383871645097	14	0.07721672052734717	0.4016555020082127	0.7916155601361359
Si	2.584832936854304	-4.2857573856802915	-2.4411102367676776	14	-1.067358378184993	0.221413562860404	-0.18716823976975566
Si	4.519023292761619	3.344210997264867	-1.584263730294194	14	-0.9108796228481209	0.18950897405321848	-1.6906714409484918
H	44.17090347184919	42.71054823337143	41.979404947741045	1	0.2897309165431226	0.09934570979679767	-0.33818339630131317
H	31.053066868447733	28.857905586709677	30.2881746807987	1	9.697287783451813	6.685298578983893	1.3035192869407022
H	38.75325180336164	40.933451086679426	39.73401235464979	1	0.33103495217970547	-0.11010527134055337	0.26334032020552667
H	3.6344051315600145	4.0898587142617	2.46550344737507	1	-0.33438844484877467	0.01466327075133651	-0.04051984851393768
H	7.937231323187538	9.218199175172042	6.995789331138764	1	5.666093403897826	9.710149480705322	-3.2381698537024097
H	35.00537448485124	37.224586912505956	36.08639775090965	1	-0.25292708654839496	0.006623938636297497	-0.2569233555475011
H	18.183549239718772	18.01626849995795	19.569185555266092	1	-5.226784064476044	5.802561503638517	3.2616620430126027
H	2.685876403175155	3.5872313010300743	1.5672093621423493	1	0.16379894929386576	0.04316294478304991	1.0159437279874597
