72
config_type=amorph dft_energy=-6884.01080537646 dft_virial="49.381511912742496 -5.037261352211648 13.642740046801435 -5.037261352211647 5.578090910626381 -8.805459856887326 13.642740046801434 -8.805459856887326 47.265987919129515" pbc="T T T" Lattice="11.105996452100001 0.0 0.0 0.0 11.105996452100001 0.0 0.0 0.0 11.105996452100001" Properties=species:S:1:pos:R:3:Z:I:1:dft_force:R:3
Si	-0.14572400064729454	-2.864107655437746	-4.724156600230133	14	-1.8463153583879117	-0.49324727238050786	-0.21069231078591852
Si	-0.33006132975925034	4.669347397139374	1.585665307046449	14	2.393704195268502	1.2608530797055049	-0.5458600576572299
Si	-0.8760099033515821	-5.006489910236483	-4.009138110848546	14	-0.31625546746789823	-0.4649406883583376	-0.08792434574363586
Si	4.542252594940831	4.136577198937103	0.6162073283476068	14	1.919504699541779	2.798245505888049	-1.0578501736005532
Si	1.223684232884218	3.0496688653587234	0.7833070403662583	14	-0.23533995482698605	-0.8735271189780736	-1.0613875003000128
Si	3.8394829090462665	-3.2699074386017375	0.6604602818106445	14	1.009643748621501	-0.5096146717380384	1.032895282473728
Si	1.3086017923566198	0.21197904368158751	3.225435697008593	14	1.2687399452750592	0.9398742346539626	0.6578643473872448
Si	4.956259709482925	2.6354052022985863	4.775476299235641	14	3.2921710358520118	-0.5811783029979761	0.9029927572785665
Si	-1.1622336439151033	1.6592969529242267	-2.4395831622555137	14	0.06548039607246725	1.7349975537783764	0.6953292085597824
Si	2.393093461107023	-0.557029026252592	-3.7885885697048733	14	-3.0838631681399984	2.1941455418504203	0.4097421424611425
Si	4.381571038271849	-5.146989650152709	2.2689028769807056	14	0.6783714834207458	0.22000588269762292	-2.7900148835371907
Si	2.045436901168711	-2.739477273851925	-4.2036862930985635	14	0.5513092582727519	-0.16448517730381326	-1.9219428787168757
Si	-1.210531401285996	-1.5455504478614637	-1.349462974503186	14	-0.7086688742923067	0.5604914467025968	-0.7786368775905604
Si	4.450069492589466	-0.6880820055866624	-4.355298693064761	14	3.4094535476937584	0.26378255032059217	-1.7520349831823376
Si	-5.477518542362594	-2.0534909697957735	-2.841766832974702	14	-4.709424195071593	5.407588047246838	5.202853244598234
Si	-1.8195353803347707	-1.473965637129808	-3.670086476961321	14	1.1339672323824732	-0.20228402505743825	0.5355926056717506
Si	0.4456825270231279	-5.284003217782622	-2.0791191672086398	14	1.5322964954380103	-1.5476362239990777	-1.2860961917387188
Si	0.7837535014236328	3.1026344730384334	-1.961586627955356	14	0.6143676731336395	-0.563032727201031	0.20898946773238442
Si	-4.036293382773576	-4.778196157766761	-0.8470765613945713	14	-0.3433353771418259	0.42118870334644176	-1.69849248622185
Si	-1.113741531606299	0.5890687154172554	-4.536751794898106	14	-1.1158270559067005	-0.0962017622113206	0.44587414263571545
Si	-0.6796403376834212	-3.169212700569483	4.084209093866517	14	1.451380725686566	-0.627466169187134	-0.07351278620314186
Si	-0.49394030280679274	4.356633633838303	5.409115599614464	14	1.9975966243201049	0.9429515906116478	1.1604516740642543
Si	-2.8095494478668046	-2.3810045839689122	3.643727504981907	14	0.16387222579549	0.4899279754121966	-1.3135738514056732
Si	-5.326199340702731	1.434946939794645	-4.372290867636474	14	0.3520051442813652	-0.7929121685490866	-1.1681629331404426
Si	-5.5379740340496	-0.43957533957411804	2.977542082000205	14	0.29460161846161115	0.9957857480564348	0.5012261835205234
Si	2.931186763408785	5.550516035842956	3.8489007940376476	14	-1.744365376012336	0.3615478016770948	1.4021995946806456
Si	-3.7596196885592157	-2.7695978468296656	-3.8978193766102125	14	8.292657465801499	2.5073748183565048	-2.483345010923869
Si	3.885639430301194	1.2485894299280522	3.1109706339753793	14	-0.7429689619262742	-1.4470157601845508	-1.7455154314220385
Si	2.047865782592785	0.7030384510087055	-1.6878371426068335	14	0.30815082927772747	0.026662619280467596	-0.9233718522671243
Si	-3.1744469566973574	-4.9454435795382246	-3.272994905615421	14	1.2304201915835722	-0.9154124815275418	4.087604687388568
Si	-4.32012600230096	-3.4865787657843375	4.953419906190123	14	-2.3212604746574774	5.663580919778978	-2.550546504897643
Si	4.081526995723334	5.090463460010456	-4.014895459409315	14	-0.8315083160624895	-0.03436796481441937	1.2394846233897543
Si	-4.717193140454666	3.22906735784843	-3.0343181570626307	14	-0.9420607026182166	0.23051244747787603	0.360318813334064
Si	-3.059414377245441	3.0226979529747986	-1.374156047014785	14	0.07117333747233913	-0.5904216837344406	-0.37630517488314874
Si	0.925356066787553	0.6687187007724261	5.537370978442251	14	1.2269877659811743	-0.16911728064859205	0.7899952495633786
Si	-2.282524381629206	3.6883602835236062	1.8601055853742923	14	-1.8169975586433271	-1.8022095892839638	0.9243455298518642
Si	4.623042055531988	-3.8644469678712974	-1.4256701009582058	14	0.7706091154494621	-0.16065525881892068	-0.4417629452287986
Si	-3.550749213284571	-3.526986823275658	1.5136351458570638	14	0.04359617602949485	2.3731564357709427	-0.26743660520158663
Si	1.5988314658404135	-2.9548947340350824	0.6874833923778942	14	-2.1413322103587267	1.6634982001514427	0.6620663048119628
Si	3.5567098015804133	2.2672269821160835	0.9151740892402676	14	-1.7581763253500438	-0.8257248717553485	3.028384628873439
Si	4.789338804007152	-1.8612983693932474	4.570038687464341	14	0.5859137647766248	-0.9975986344176713	1.4785567946994673
Si	-2.5691623758603908	1.2584282321849676	1.5758942513678913	14	1.7249535308452182	-0.0034537657765549147	0.4767184076088719
Si	-3.1122655931616947	1.1946231719680078	5.534136912275399	14	-0.041621310033089116	1.5864784262916187	0.4045734494360488
Si	-4.532790285963642	-4.898843929024858	3.1109628597778634	14	1.4999345069943706	1.530781343072847	-9.021268090067407
Si	5.462836415052917	-1.6260056179594118	1.0575129821689622	14	1.0107405821510762	-1.3267739061193136	-0.3454066595877372
Si	1.141891900813437	2.8313749520944715	-4.530999999335564	14	-0.2518518503035091	0.6382612119843077	-0.676602305849952
Si	1.1099754882093922	-2.0457378736725627	3.0584714781466578	14	1.1435294301786358	-2.0758186470276296	-0.4742761146652632
Si	-0.1132012006369649	-4.600170366438533	-0.02340699812244596	14	0.16465152781802686	0.16233033393499716	1.5490158791138693
Si	3.117408780118662	3.779750417728292	5.419630757055312	14	-1.3848942561023247	1.513697119552059	1.2582122974311811
Si	2.877419302785233	-3.2187809839344954	4.475970897515054	14	-1.034875547791306	0.8239688068216874	0.6928295799675345
Si	0.12385629363310963	1.0163175095291876	1.4049285419842639	14	-1.0921194079706789	-0.2052989031558439	-0.8327023373731663
Si	-2.185574585600599	3.3501271615749006	4.3799351249944545	14	-1.9142730144363416	-1.3559695783611911	-1.06598489372297
Si	-2.8749037945888323	0.5802205680438672	-0.7678297237106118	14	-10.783942821285581	0.91354020263341	-0.7348967196631373
Si	4.287454381938173	1.2956877396821178	-0.9068634720951613	14	0.3298910674227716	-1.7722191883876282	-2.192900355543873
Si	-2.0883249276677853	-3.436039818329411	-0.473088794467975	14	-0.6653958862015545	-0.664534308808773	1.2411694687060473
Si	-4.984522249254229	-0.6282406755034572	-0.9520970850449194	14	-0.3873272462800915	1.0631492216653786	-0.0074289517120358604
Si	-4.130418923904414	4.414217114842796	0.4893435308752686	14	0.1944442107152427	-0.9513269661920302	-0.3704528249534277
Si	0.5737113435232915	-5.493159117166086	3.588761707341174	14	-1.6021678251762264	0.3646914921520399	0.3786441093928874
Si	-4.4162650605885645	4.176098997911547	4.381888669770379	14	3.8709314714069207	-7.085214471132495	0.0919355271535989
Si	-4.741011060445839	5.095100213529208	-4.632511028107048	14	-2.5508465528885043	-4.630232351437307	2.678760842339595
Si	0.7534474583051423	-0.7299793772022097	-0.37917093547079134	14	0.20754167832660908	-0.36070447913208625	1.3316731473068557
Si	-3.2399212481810675	0.007943008662541922	3.6490095168945262	14	-0.4896826919646546	-0.860236818467696	-2.232750688232444
Si	2.672604737414895	-4.335075784125132	-2.7798009257702097	14	0.5267927406030118	-2.1266915653342076	0.6885288920985227
Si	3.9771839378565645	3.319987708403192	-2.206788149423755	14	0.9519172919735363	0.845738098456849	0.8036359917288923
H	17.46651501198113	17.017891617097483	15.490533902024206	1	3.8797375071284272	14.935229673685706	9.74483626257944
H	18.204417407052265	17.92262384847349	17.440915690159038	1	-20.519663229952435	88.24528165122857	17.382627032686454
H	42.751808120790635	44.94317337294136	43.778861797090066	1	10.53612940610843	-0.765901678718803	0.9817243730605448
H	28.358466705059453	27.591181175174995	26.451045132400633	1	-10.108057082488354	-10.85415405114712	-2.9418157698545855
H	3.5549317315484323	2.382985893735967	4.344516991709062	1	-2.785380466197624	-0.6024413439956007	-0.7436220226775918
H	7.518671860699729	6.345716487809768	5.734517963862058	1	8.260135811717477	-3.897065728544098	-12.030324691807166
H	39.463739046190774	41.360557724036774	40.9197085266696	1	-4.094268992378391	-6.095695020962324	-0.8717309448014181
H	62.70574204294576	62.006752838243486	61.80679825692059	1	15.404761584814228	-84.18653659261653	-6.355023645536825
