72
config_type=amorph dft_energy=-6899.975195889388 dft_virial="50.300922162047556 -1.657705483699114 4.991982598483903 -1.657705483699114 29.889008432948216 14.685409125698676 4.991982598483903 14.685409125698676 49.08468452719396" pbc="T T T" Lattice="11.105996452100001 0.0 0.0 0.0 11.105996452100001 0.0 0.0 0.0 11.105996452100001" Properties=species:S:1:pos:R:3:Z:I:1:dft_force:R:3
Si	-0.13700246163346042	-2.655532599668727	-4.736005587844878	14	-3.826397356156636	-1.1458362258718726	0.1884514784350416
Si	-0.20283103440399275	4.422458874809901	1.573057779874025	14	0.45308429328500677	-1.3343036451598993	0.5570518220053027
Si	-0.8629314819295891	-4.9077065141936345	-3.995939744664871	14	2.777460947590504	-1.0216109583341302	-0.7934266467236483
Si	4.930161728420135	4.514500931006324	0.45118110586656257	14	-1.612145256481593	-0.8775421570460166	-0.015108843303318171
Si	1.0444945331278106	2.5155048646017146	0.3337696219746065	14	0.6443596166931669	2.5978011066871765	0.26962821537648085
Si	3.6932424795639496	-3.068654566293588	0.5119297958599044	14	-0.6550821543203125	-0.040236512707657365	1.70443276795352
Si	1.4581829055717286	0.3834200897133648	3.484568580426507	14	1.0102273895291747	-0.33367830555934974	-1.795084542220769
Si	5.009529621465423	2.551448311519291	4.740931097271384	14	0.3469961168966527	-0.1115039526347139	-0.07111651604476385
Si	-1.1897665197195044	2.6745704987869168	-3.267635151727638	14	1.0157742921468622	1.2933785904475064	1.567380255973559
Si	2.2648269762827846	-0.2061139669552335	-3.808169552049571	14	-1.441204805050484	0.202470944414213	-0.22652877689483858
Si	4.000047852752503	-4.858351465960502	2.1142596505827296	14	0.9152137350862944	-0.4745252547707856	-0.962784068609142
Si	2.006090576938211	-2.5077662062738915	-4.519971744858628	14	1.8277815456876245	0.12184570956394554	1.107673566715447
Si	-1.4816198898845954	-1.3707209623121506	-1.3433091418690775	14	0.5299446586149813	-2.198158008813044	2.698356521537104
Si	4.475199030761633	-0.44144114697807085	-3.79065983804319	14	0.9218649274389854	-1.0955397493780719	-1.9649171043694267
Si	5.433894188298744	-2.161485679295994	-2.663132433040899	14	-0.48072496102925855	0.5097239437141448	2.50198526738441
Si	-1.9031080036368233	-1.427161636281723	-3.4519424946491726	14	2.804973831400344	0.9846603182256218	-2.5326019895367335
Si	0.6502971844573279	5.336278032483011	-2.1897648780619763	14	0.5111128548080888	0.795124347566542	-0.5807188464772657
Si	1.109948833817907	2.923927884127692	-2.2095368835456504	14	-0.9048848336836635	0.29312966066582635	-0.5591475299517553
Si	-3.7998955846927567	-5.136402303734923	-0.8869970656416448	14	-0.24612574164500722	1.3913626428667534	0.7253723171151807
Si	-1.2951268868612869	0.7921240909495805	-4.485342137321336	14	-0.7100734691287036	-1.4894464541724226	-0.8859231890581034
Si	-0.5760924691626217	-3.136086844951804	4.07410152649546	14	-0.20092982388531624	2.519641561838931	-0.11190041707508075
Si	-0.598136761520395	4.7418284617847135	5.0983076253045745	14	-0.37826512846869764	0.5696756920166977	0.7390523971920926
Si	-2.7545880926246524	-2.341702683724221	3.5587888441162465	14	-0.5127920436926776	-2.7032447069717693	0.22056766921007526
Si	-5.154358478798678	1.110334211894795	-4.507543024229084	14	0.36623724067051283	0.5672205435464882	-2.460617982556952
Si	5.451624911634522	-0.4908239602023335	3.0623052681219223	14	0.37725365563575136	-1.9098429999697266	-0.44229722091432544
Si	2.546838212392024	-5.48984953022336	3.8120644250053224	14	-0.7863535359879208	1.2305312633334027	-0.6450674419878037
Si	-3.730628595420654	-2.9354636826424882	-3.4780793466995448	14	-2.94688881776177	-4.028553083058599	5.0985195904803495
Si	4.100468272672391	1.332200924217687	2.8992770144026108	14	-1.5372451018476994	-0.1358975714701508	1.2952251582884367
Si	2.0747967133894822	0.6487701099451642	-1.5184562589169206	14	0.47946100565387384	-0.28832632170672573	-0.5754660783082032
Si	-3.051697930910522	-5.0235331723918755	-3.002452832042265	14	-21.0588217015927	-15.734474988859379	7.982970915316047
Si	-4.636419228258542	-3.560423646793995	5.16232925245235	14	-0.8711902413525909	1.720764171836569	-5.298948820159834
Si	4.117330507085614	4.936595432164837	-3.7083044319522878	14	-0.08795699878120176	0.4348541281230288	-0.3036488238621482
Si	-4.777910733657941	2.7753263197996585	-3.1259348535949387	14	2.162821251513993	0.37539860314726453	1.880143905306164
Si	-2.8115674074221513	2.613298716360681	-1.4891597508759262	14	-1.4940813857330533	-0.21407485694510534	-0.6677366204850174
Si	0.9184792337844127	1.039869996205156	-5.4775585239498215	14	-0.33773576686507534	0.03794411520421334	1.1062594587893653
Si	-2.3365928147566097	3.264979707975941	1.9881277382765845	14	0.17374655577751869	1.6879833503362769	0.8980739756905913
Si	4.404464939358208	-3.9335906805827814	-1.378368551469067	14	0.3384952713766471	-0.7653830867757291	-2.517320110845369
Si	-3.6055972873629116	-3.5371121602410374	1.2778004217963657	14	-0.7230732347379043	0.9524888486862052	2.204893019199172
Si	1.3418575881327879	-2.85942314613425	0.777705175755819	14	0.5052185958616494	-1.2980862842886973	-0.2084137972512033
Si	3.338840137380632	2.5647621800660687	1.1469862213860154	14	0.4699124347159079	1.026001891999879	-0.411956378362854
Si	4.872875888120558	-1.9686855808875383	4.9772256095852	14	-1.1215493079072218	1.9892492737877117	0.1830017635984557
Si	-2.2504724758684453	1.038314046102217	1.688908871264461	14	-0.7007588687748711	-0.9217777669686325	-0.7999695955423611
Si	-3.1738239102963948	1.2757313746573395	5.109707930662655	14	-0.017272685540754795	-2.36287072893769	1.208226153349522
Si	-4.884771520920403	-4.799903938432036	2.992508522819055	14	0.15472886105597938	2.300185638569288	-1.7326827876586475
Si	-5.477030989118346	-1.9496321333743154	1.0810810172399636	14	0.32175429041609893	0.8486403621422322	0.8889905177050402
Si	1.0067918963722213	3.4316729405244453	-5.082169501860028	14	1.6724559310868385	-1.338641356945521	0.7833160321626979
Si	1.3481324761282245	-1.9967126735340577	2.9349017192220126	14	-1.2151617099506216	0.7358328591102032	0.9832492956259247
Si	0.11969376616286255	-5.012961374369121	0.05655950813160968	14	-0.08072293685243312	1.5887492265103735	-0.8664138989993518
Si	3.354422961002573	4.064926862826381	5.293203425243542	14	-1.104967221255459	-0.3871768366188629	1.5288242177031504
Si	2.757626693253947	-2.9695268843607248	4.434112396887088	14	1.1624990452306885	-1.2049886175303914	0.2675402207459886
Si	-0.02123355461676999	0.7922951232949428	1.4848306334588972	14	1.399498391431298	-1.5642712754204358	1.0450854070176143
Si	-2.255339123513756	3.2255811855621164	4.6089640944293055	14	-1.1349139133613517	2.104708100625878	-2.1106666372053207
Si	-2.740281347995057	0.3206656567607738	-0.535811020030855	14	-5.106104608285318	0.20125892536629522	0.5310756878453146
Si	4.284256965559613	1.413606767611935	-0.6568164043747106	14	-0.6119636896593011	-1.3085532540470202	-0.7507187875822645
Si	-1.904892737266676	-3.691820912018081	-0.18312788609832212	14	0.6608599421957494	0.25756330366168595	-1.1361171906511809
Si	-5.122543130762347	-0.44883885121481465	-0.6961171940197568	14	-0.21930962737692683	-0.06769900285322303	-0.8616745805627228
Si	-3.8896631328157905	4.013212900946822	0.27687249155085303	14	0.9856352813630223	-1.1600711504768726	0.29390536314091503
Si	0.17906309139685356	-5.073491276232358	3.292154970694584	14	0.870427908625167	-1.7693066402809647	0.22458296438855055
Si	-4.445562679229203	4.502393173674244	4.687915512607639	14	8.716218785137375	-15.570526658346413	6.841497855172466
Si	-4.557853188157096	4.75574094354026	-4.2300063940903945	14	-0.7214750356709003	1.1265102556224476	0.9122441084415233
Si	0.6160129734096952	-1.0177146438828617	-0.33422718902843307	14	-0.08844782278681802	1.3408846463373503	0.05563203425417204
Si	-3.3312203132148457	-0.24799912197468346	3.227347038998	14	-0.5044151254491032	1.8636016707868635	1.1306217101398963
Si	2.5785136248730587	-4.398704258998504	-3.1271787251975742	14	0.6353334943562551	-0.5620227970312769	1.3890769302371417
Si	4.614339396712122	3.4647532615566705	-1.825301613692701	14	-1.0539940298413952	0.6688447668780011	0.5188793926486601
H	22.995227755589323	23.22504302957298	22.07094452805904	1	0.1296029914253643	-0.632727164893221	-0.7864620366324311
H	20.77771343479213	22.94154470053881	21.659497345699158	1	4.174530415825858	1.5397005074284407	-0.4617337486925169
H	29.472171586877458	29.576858930634245	28.57208055141879	1	1.370499408746412	0.0024080972428506906	1.652003559596657
H	31.076741521084674	28.843714344443185	30.00556816327963	1	20.531811702590137	14.17052227338811	-7.426306815993023
H	7.733320785928402	9.26720993751516	7.094763750320589	1	1.2752031898288474	6.731704458907247	-4.148867185183332
H	35.04752507318589	37.249764206462864	35.83489801885326	1	-0.4656166319470045	0.2821880648654042	-0.24815562929526416
H	7.446774971467769	6.523487951819242	5.640602326064165	1	1.0917620243311785	-2.320481943966537	-1.0822623043942954
H	28.347134146279732	27.54016800167156	26.375709826667105	1	-8.82611631116806	11.306826710470373	-6.741027543908635
