72
config_type=amorph dft_energy=-6839.147369036012 dft_virial="-1.803603690155182 9.353835874256685 -54.777230065298795 9.353835874256685 15.053927871316159 42.02371443198391 -54.7772300652988 42.02371443198391 -69.61105288377175" pbc="T T T" Lattice="11.105996452100001 0.0 0.0 0.0 11.105996452100001 0.0 0.0 0.0 11.105996452100001" Properties=species:S:1:pos:R:3:Z:I:1:dft_force:R:3
Si	-0.3775161419994284	-3.1069080604732013	-4.699790044014224	14	0.27684942177864874	1.0896850854535627	-1.4706200496867023
Si	-0.18304903352351223	4.524576290987669	1.4719476775744613	14	-0.0006085806292790503	1.40210189267848	0.7264575806708153
Si	-0.6081332689269302	-5.116469261302694	-3.7772204717365034	14	-1.517477929925337	-1.693787106375447	0.40900346390266396
Si	4.80257159877983	4.3605573823848305	0.27725231662951483	14	-0.6641288454997855	0.34052721591116014	1.2935783653308819
Si	1.1300162588072065	2.8652193656826013	0.5486417777319661	14	1.1342546819572659	0.1633271514676186	0.8096508355148466
Si	3.8768568083068735	-3.507019352254427	0.6995211819323255	14	0.5329705924662637	1.6168326385907552	-2.217333312290708
Si	1.6142377041187668	0.36947540056810807	3.3831597268223823	14	0.6700716983367757	-0.5124678273118068	2.172217870127538
Si	4.553132029065309	2.6389291349728374	4.739014202283752	14	0.25545885395714474	0.8563151115228742	0.950627882655482
Si	-1.2478997475483768	2.0231071847021185	-2.0662928519061095	14	0.6698654956900999	0.028438738835625886	0.2697997081013347
Si	2.448474623015065	-0.797235070516837	-3.962782792257126	14	-0.7512173249038413	1.697157054118565	-0.1600405075368733
Si	4.004730140856708	-5.144686266488544	2.116867338549682	14	0.7187406651629228	-1.8546567953780684	0.22911993683648385
Si	1.9149547700522784	-3.074248656706511	-4.358860386126949	14	0.3695310836961546	0.8299489406858197	0.29785432380213045
Si	-1.4593234914073594	-1.3135783893668058	-1.295296808607004	14	1.2693996909002092	3.196048720795084	0.45982984520294723
Si	4.805147079357072	-0.9001476760405763	-4.46973710170649	14	-1.6593798036496297	2.911110858789781	-1.1259384417992466
Si	-5.549505390165815	-1.8051997601143999	-2.7104828489144275	14	1.6150179524557946	-1.527792176027643	2.3799418398213454
Si	-1.77257034253813	-1.5692639714859877	-3.6631152429883382	14	0.701138363920125	0.04985270371554319	0.42311368989963666
Si	0.9807683254856606	5.511128619425584	-1.957128680979483	14	-0.4196617238968058	0.16950474622033837	0.5680831493813979
Si	1.2039255545962868	3.0386550486771755	-1.7475529749301297	14	-0.9184762106270303	-0.5846312974429351	-2.0913684348933534
Si	-3.903370153636972	-4.529591758985438	-0.7434020845142177	14	-1.5457246071935475	-1.384636117128182	-2.0767406453954345
Si	-1.5219146662121046	0.6917192194247253	-4.1561659554793176	14	1.0234518697433561	0.7332645820059072	-0.8419968831055015
Si	-0.47055662727689623	-3.074688454166014	3.8573991025227947	14	-0.036138427937873335	-0.3566961259379754	1.0679757005723605
Si	-0.6878565538586848	4.530022671647779	5.328758162285294	14	-0.3383345772941379	-0.7707104169990759	1.776951821950425
Si	-2.4869702279173342	-2.1004182472044772	3.2190153204596346	14	-0.7504087122806546	-2.1533778387836207	0.6656506827387811
Si	-5.109529124119777	1.110619636003614	-5.166761655636383	14	-1.2050343832050903	0.6049576847724296	1.1827411003056822
Si	5.274107774943801	-0.32560782518195824	3.0546776697586204	14	2.02467370577818	-2.0833108479305413	-0.2528808066526323
Si	2.4441643857920052	-5.452108022480188	3.843396662195987	14	1.1344950803046996	1.1008105152843755	0.6561532767966862
Si	-3.72791206868847	-2.6965825837549793	-3.978885376513026	14	-0.42764063503682137	-0.8120424776836483	-0.063843887536193
Si	3.8390253419924405	1.3931983885315558	2.9621480603179493	14	-1.458127048936103	0.6322905912098598	-0.7842691409048768
Si	1.9250556738254634	0.4174888444298268	-1.8606375626043477	14	0.45657662564136386	0.10367776515071517	-0.22845376344803345
Si	-3.0425199354425065	-5.143351325715002	-3.146394320258998	14	73.69926770068061	-48.673135616313104	80.933532489659
Si	-4.151852386457322	-3.254854371010561	4.774942100806295	14	0.5645638204191792	0.20384082932878791	-0.9358494263858029
Si	3.984990342762745	4.717845062446404	-3.3350663197862085	14	0.3840475443337107	-0.425151805086918	-2.0655360255207618
Si	-4.715408406824813	2.7394284074675355	-3.3683198943630863	14	-0.894301135743806	-2.0335198507426817	0.373844627091767
Si	-3.42215176976606	2.9951362015796215	-1.5703679075333263	14	1.2817355971157476	-0.38991300690056446	1.3027464126814656
Si	0.7667268982629183	0.9318630701088384	-5.2819397236418215	14	0.400184058433492	-1.6187347423066007	-0.05550167921444054
Si	-2.3092454090929584	3.5813306851150735	1.8000554625577871	14	-0.23515457813340337	-0.27100581360701614	1.2281913003815357
Si	4.829575829153111	-3.731199443638292	-1.6149618150874436	14	-0.34114273852480365	-0.3994474367592696	1.4270958646061715
Si	-3.4276125882215576	-2.968420727114095	1.1976728785937545	14	-0.17092656746238027	-0.16913450705423705	1.7402824607639409
Si	1.6927770898287273	-2.866709790406473	0.8830755382944082	14	-0.09247417371816992	1.258371191739966	-0.663146426156957
Si	3.4960977153434323	2.5123774160008034	0.8820593396190411	14	-0.1865102939183298	-0.025105300788053904	1.3880927111205892
Si	4.963213173861584	-2.04030148840926	4.744803758234232	14	-0.6175779552363765	-0.57235581220242	-1.5800848586920067
Si	-2.0856717051153786	1.2132723612103742	1.4584372328904815	14	-2.7931863419495935	0.18979822340173513	-0.3573941810323956
Si	-2.9791213546956934	1.31523984643604	5.111628157449223	14	0.6332856089687572	0.2849000667570964	-0.13040003407461018
Si	-4.811025483279169	-4.923693596086433	2.6824435396718105	14	0.2666107661727551	0.140258937424718	0.23108734662746114
Si	-5.512793408293753	-2.0573347551678456	1.306890358303351	14	-0.7863995587731515	1.6362066885096669	0.07120007696766867
Si	0.9833749028529686	3.1473660949485565	-4.647841745609527	14	-0.6619261795720147	-0.07534315608055527	0.18641464880042027
Si	1.3957361087208608	-1.9974023559137333	2.9807828117649278	14	0.10647821306542046	0.5199510293460978	1.0963085098687964
Si	0.31818013475479373	-4.553949430404184	0.251280943926279	14	-1.2767386539260397	-1.6106427025324985	-1.3652926633625802
Si	2.85947423371793	4.177901501135723	-5.451744856396205	14	1.4711103594712545	-0.6844259222286304	0.07505982027427496
Si	2.7256280962761563	-3.0831378962667713	4.589390886282125	14	1.3896613424764115	-0.6314002174374925	-0.6916939227476251
Si	0.1960086207834677	1.0071239656661393	1.474219964448561	14	-5.77284004035867	36.842879685219536	-56.49810259661638
Si	-2.770019874694845	3.6889555649334387	4.422288953064183	14	0.8731062290371652	-1.3450714342406793	-1.1390626489059426
Si	-2.944949314212227	0.437597361605999	-0.9151963012331719	14	-0.7718684428352707	1.1886119621937083	1.7239515711019566
Si	3.929015010044516	0.9244664764717397	-0.6732155187358814	14	0.9009266170432955	-0.3843604478511727	-1.4962493417390024
Si	-1.9083866837505066	-3.571797297760591	-0.38665859827879717	14	-14.122974822702613	-24.22823531393424	23.4155287197464
Si	-5.192834092907333	-0.7338598123625735	-0.6303485936300658	14	-0.08907388693227408	1.681214658470455	-0.426175876335933
Si	-4.049301836417921	4.6262006009229655	0.6126212020932238	14	0.7156607380999174	-0.3486974172869947	-0.3410362947645495
Si	0.1866340491782501	-5.43958267968151	3.5971711678547034	14	-0.5213293989082293	0.5078650345676777	-1.4208933301318463
Si	-4.934475297442131	4.682444698755335	4.564516786028356	14	-12.129489910010488	-7.0765814707990335	-9.883961342557972
Si	-4.810063703986416	4.799157615470453	-4.234564295034337	14	-18.629484300581733	18.52849668292749	44.729413067966405
Si	0.8107432940015261	-0.9274628743145164	-0.25254591692217315	14	-0.5803036129680618	0.2753795208671201	-0.11471037807947057
Si	-3.2674785571776632	-0.03344348711620874	3.1336335303355347	14	-0.5899923091459757	1.868097762660206	0.3355639542011463
Si	2.918573683238135	-4.4936816300572175	-2.7469171808751867	14	-0.6573910068978055	0.6083991092434479	0.08171846883239445
Si	4.602885782571072	3.1772845387908686	-1.6967497047596434	14	-0.4490445726059901	-1.3193069020485395	-0.8497963310941706
H	44.87250369631736	45.16402277598923	46.566211468648774	1	27.810375350682026	-29.796125093018482	74.56706948233177
H	33.019703392989854	34.8127320915924	33.06459049885031	1	-0.6583996515148995	0.6292332898736718	-1.6504025323138005
H	32.787551417352674	34.062278809930746	34.15005394229027	1	-21.38091023570042	-8.726870874478747	-19.133727161974385
H	29.856987700344852	28.451833706632613	29.71839930241803	1	-73.32912237992346	49.98648501022433	-80.43462647157938
H	9.671535954949958	8.166517951740078	10.162201099403026	1	19.764091223967856	20.966499223088416	-18.294504501509326
H	42.314219643981794	41.58276094805216	42.866514183946855	1	-3.679495968137315	0.45511649493005174	-5.2875796495446705
H	28.821743351661997	26.688179258046226	28.316658181415523	1	17.075514672847536	-19.493534839570806	-40.36555879767038
H	18.150624402636875	16.290363333312254	16.18214206148441	1	12.921301645482552	8.734751826506065	5.248919995729859
