72
config_type=amorph dft_energy=-6773.746359596063 dft_virial="-63.311017399819654 63.02173647322574 -64.6656067821747 63.02173647322574 0.37354971825389754 -11.802661805032237 -64.66560678217469 -11.802661805032237 -45.2938466456544" pbc="T T T" Lattice="11.105996452100001 0.0 0.0 0.0 11.105996452100001 0.0 0.0 0.0 11.105996452100001" Properties=species:S:1:pos:R:3:Z:I:1:dft_force:R:3
Si	-0.44182208265637785	-3.111342684856525	-4.580981425768595	14	-1.1510699678615661	1.426043254088103	-0.08519254634097853
Si	-0.15563943427972943	4.7087892329393615	1.6985910789714018	14	-0.40924694757648195	1.3328936510023301	0.6013324262710209
Si	-1.0085866253988807	-5.166240784402779	-3.7916016265423282	14	-0.15997545857227352	-1.9942408176562472	-0.7870083965129626
Si	4.580589384093836	4.039601859116656	0.27586184587371193	14	0.16243677769525133	-0.5930053874706572	-0.6925457299401901
Si	1.1143956747973278	3.0972269633659057	0.6973643974213277	14	-0.07337291807372581	-1.9686464926363014	-0.7710559735541038
Si	3.6841500002686156	-3.329307860625794	0.6493487323603185	14	-0.2002063148482266	-0.25286332313645526	-0.799724826315883
Si	1.4245606119126413	0.32727483524941847	3.5490788714181756	14	1.0651991639371325	-1.1987858259455344	1.417677905818469
Si	5.013943144455487	2.7168910088672895	4.347935417417019	14	2.0828837873368644	-2.4097016125704633	-0.7876097780473452
Si	-1.1250818645835385	2.1474899025670577	-2.611715001266612	14	-0.13023908288156893	0.5357815819127816	0.5557284740970223
Si	2.470917620645469	-0.6083487252581009	-3.703642134641696	14	-0.3268149970177464	1.1154953833204013	-0.38978290897136497
Si	4.137083632375319	-5.286308822646078	1.8120232843345703	14	1.4933655900119243	0.13934208126755318	-1.3771056067560004
Si	1.7792828067937794	-2.757470098703972	-4.4233373591292615	14	2.4379192363485567	-0.8628377486095579	-0.03415816262029529
Si	-1.4918218582254943	-1.3622904004053615	-1.1086383262365593	14	-1.18068884403914	-0.06188290550851605	1.1596903697789587
Si	4.961911551077399	-0.4128787453025601	-4.045971148081936	14	-1.486349557814304	1.0129309067733103	-1.1339122107286221
Si	-5.403323822464694	-1.666899007495689	-2.3293528156694854	14	0.6120277101817728	-1.5832717437363302	0.25350944190340846
Si	-1.648986145818097	-1.302854439192658	-3.3932361974033727	14	1.0211368465130948	-1.5191985136055801	-0.2756857395107497
Si	0.7071809876853388	5.254657843357238	-2.2420141489705263	14	0.28543922754273143	0.489308596140573	0.9176439438348984
Si	1.1648113456916358	2.8380740891543783	-1.8982846693776763	14	-1.1660096324348186	1.0137544318073535	-0.2137634960908354
Si	-3.8289932953972587	-4.900407653325314	-1.2625307872743734	14	-0.31771379840548625	-0.6734498736169183	-1.4489183781214603
Si	-1.3048635139508429	0.6402584742642746	-4.533485521341544	14	1.0616176142261664	0.4842861990081958	1.738688118354917
Si	-0.6682755715139873	-3.0490802475467618	4.129521559391084	14	-0.2833088096744567	1.4499797303976174	0.8513855312925542
Si	-0.6736375466010612	4.391374301340118	5.212647190577879	14	1.3503506847945395	0.7852479607002572	2.4036145207250126
Si	-2.672835742141099	-2.342695559807039	3.3283716251248823	14	-0.9052195915963468	-1.3393653802036747	0.6013316549394248
Si	-4.994780858177034	1.6300337628725885	-5.066755489384159	14	-0.8811589308998691	-0.9859579550807008	2.05731131671214
Si	5.5240082435110835	-0.696985682942311	3.1055497971071095	14	0.10653889115097595	0.7510165215783376	0.21742680695098238
Si	2.622314564280496	-5.332838505381797	3.880806100645241	14	-5.676241299485919	4.206380754310788	5.033976105186545
Si	-3.554515256681478	-2.696027283932374	-3.4553387083642253	14	-5.730181289328901	-16.880651114854576	10.874858133848146
Si	3.824777459144041	1.1215179503220598	3.0983020238224688	14	0.28035101011415836	-1.2560415132093798	-0.28417218684096246
Si	1.8002131677074074	0.5695887976402719	-1.5950920768349917	14	0.8225284736213402	-1.0200222723568109	-1.2986251879638004
Si	-3.258444939663525	5.158957471929493	-3.4667678893130813	14	0.4340051491463158	1.0665639066410673	1.0775949769066304
Si	-4.120908859142481	-3.0757723994197392	5.279754063540048	14	1.1350059589318129	-1.1527010770766681	0.5007415301676754
Si	4.253713254117047	5.064837483796881	-3.800739640423116	14	-1.4697273619195468	0.28576807191317843	0.3489375585238965
Si	-4.6310961241590505	3.2915030487028463	-3.4266285969359016	14	0.6993316482116569	-1.4071266038056454	1.1356284235298209
Si	-3.304652548502132	2.6079856076579966	-1.4640790790881484	14	0.8854817302746341	-1.1775556950960075	-0.7753592325284356
Si	0.9290910133943941	0.76848164570235	-5.122798568680746	14	1.1197011974030995	0.8704070826720739	-0.6959277618783128
Si	-2.3102927045583916	3.700484699850364	1.9330308898777164	14	0.1443667923947186	-0.5722187722888561	-0.34031329994852383
Si	5.073952175085119	-3.9806279073563604	-1.6294218224680777	14	-2.018863779086242	0.9939528070737013	0.5453952018153472
Si	-3.716497325535002	-3.4785824483388255	1.5113250985950273	14	0.5617785420258629	0.5592179782375273	0.22135725565389272
Si	1.3659331672416504	-2.6327453161483083	0.9868510797424759	14	0.3056835966125134	-1.9136446362960973	-3.2434431907140335
Si	3.461039416343088	2.0273207997560454	0.9610840573739586	14	110.43461939053252	-134.01376759642142	-80.53886036681084
Si	5.18850830728924	-1.7787263963715292	5.167352494647635	14	-2.251084726049356	-0.13279039069075188	-1.196887835998201
Si	-2.3437428552724717	1.2588891310377297	1.7039030770744412	14	0.10982244975533705	0.017104278142285094	1.00959386917829
Si	-2.9010706328296254	1.3339867684471847	5.239321572856533	14	-0.38271416911468187	0.8676817110327169	-1.2392048871309223
Si	-4.402664657333323	5.406283570519179	2.046057726370383	14	-0.8000189607645078	1.3068085019767677	1.2298609761764399
Si	5.502784684291121	-2.007575448663857	1.1047101352914515	14	0.1349506333807403	-0.460919736748158	1.926117068204136
Si	1.1169800401717316	3.2872128022734	-4.615115705864124	14	0.46887370816656804	-1.2832175822222809	-0.7775672977773789
Si	1.1761394620727779	-2.1610025684503276	3.0873093085341807	14	1.0270658153813563	1.8778239969757944	2.5805626168471796
Si	-0.06511556779830752	-4.790596002805531	-0.06830632057899585	14	1.2477867224685124	0.3486105139271737	0.17551341935352444
Si	3.3698514112738303	4.081635834488565	5.358744352705965	14	-4.364706077488591	4.13877045459111	7.745329307006464
Si	3.0325567460253278	-3.07934741967767	4.3691234374483345	14	0.08704528483467724	1.0803941392686756	1.702936384657194
Si	-0.0281092770202651	0.963709514935235	1.5415256347472228	14	-46.00153221696374	6.647348293126912	-49.15537907214445
Si	-2.526475367897099	3.548867857485585	4.285294265628239	14	-0.6311539055478224	-1.249238882753332	-0.039003924817178376
Si	-3.136558849801018	0.4733864351728913	-0.2933737810793832	14	0.1785357536573585	-0.37810263461246424	-1.370085203679336
Si	4.0568583564039296	1.0658535855044893	-1.1232682553629105	14	-0.3527849605249661	0.8853863422672564	0.09244126357007201
Si	-2.101310058719581	-3.738831484400175	-0.24337014265344817	14	-0.32084051958531834	1.7660554776036375	-0.22686379191805386
Si	-5.3590975233931415	-0.3810178626807756	-0.3935865188656172	14	0.9045981554404668	0.649481515601434	-0.8806246552143423
Si	-4.113015827463974	4.252980258351209	0.09301272028633752	14	0.2347815107514499	-0.9103759433159038	-0.6972367115968003
Si	0.09487408529170946	-5.069693025445739	3.8205571804922434	14	1.7718972860015456	-2.959833047496055	-1.566202689736931
Si	-4.649590940050733	4.5828327953771595	4.303806851114245	14	1.2587619997486286	-0.2617326080488381	-0.32366565011109705
Si	-4.918046196890539	-5.315067800458791	-4.879385112641134	14	232.6226713707452	-29.660719631106605	195.01845294741852
Si	0.5377456846128108	-0.7299449486132082	-0.09521726058207935	14	-0.1268855902124998	0.572911170951572	0.20409202631856638
Si	-3.1566173899931558	-0.15464433699762126	3.517272408179006	14	-1.158479122062637	1.155532892476279	-1.4119505116073072
Si	2.6892115339097202	-4.483387481945766	-2.7623334145503464	14	0.4731864802305844	0.0824833726651385	-0.9252916966096788
Si	4.498874793998219	3.443307582407665	-2.1603073330724265	14	-0.690719473831289	-0.8208513416210077	1.367236676095144
H	5.099890229798999	4.627825408203908	3.4677052354136384	1	-1.1077851526863411	0.42508547056965823	-0.32231684826014734
H	48.08723099154683	48.078815978035074	47.38745326109647	1	0.5049342316132409	-0.1349246652170068	-0.5850722420053404
H	37.07328325924113	36.77354796339398	37.63436375299944	1	-0.414908521491448	-2.476645738901691	-6.182193174584874
H	44.96814631656355	45.31509653512751	46.5478521459138	1	46.573033907978804	-5.775024451438668	47.98565444963254
H	36.46202809471151	35.734202170221366	34.51258143147795	1	-110.43860460377873	135.050368098772	80.63357088793647
H	7.845031561841494	9.275905932737155	7.081067835495858	1	5.351574203852624	17.61924534107862	-11.634366502077867
H	25.672809090014404	27.38841788734936	25.320584633735344	1	3.7881467651982605	-3.570410911387796	-3.8001939362863464
H	28.064333273822744	28.04763540815701	28.15492155508359	1	-232.63082820237335	31.9022622139813	-195.8779194627323
