72
config_type=amorph dft_energy=-6884.73569084296 dft_virial="50.099683256590914 -9.441877895393969 -0.7709965565307715 -9.441877895393967 35.18033390329888 37.20655813261547 -0.7709965565307716 37.20655813261547 16.0349675354173" pbc="T T T" Lattice="11.105996452100001 0.0 0.0 0.0 11.105996452100001 0.0 0.0 0.0 11.105996452100001" Properties=species:S:1:pos:R:3:Z:I:1:dft_force:R:3
Si	-0.27628387373889174	-2.88607753761929	-4.5339486413935965	14	-0.4343568763541122	-1.8824211332882193	-0.9864824605660109
Si	-0.17198301865863977	4.531910691044636	1.6945596022592895	14	0.07023668380420918	0.30370744506344755	0.49835065933046974
Si	-1.1980449294748998	-5.165306770101158	-3.8906060319145737	14	0.7813979875938675	0.6645134828556798	0.781286144512441
Si	5.178477371293703	4.244639655015682	0.8847103409721573	14	-1.3928531126208432	-0.08599884496937699	-0.4037108436011392
Si	1.1196887927063988	2.85939760234241	0.464986970056168	14	-0.8432497827280097	0.4393764452706373	-0.6365452562936409
Si	3.9301589276790825	-3.3295521925477405	0.5083758769952323	14	-0.8351873106650893	-1.0563645889465718	0.5662913460837867
Si	1.6849706849225463	0.22111039396450413	3.1843912659205675	14	2.509172792306884	-1.878233316942762	2.114767807301489
Si	4.63812177751465	2.6964426481996826	4.4359959738853645	14	0.3231935951743179	0.17202160121823132	0.8510345754163542
Si	-1.3897633038289214	1.8968275626431608	-2.9265688900840012	14	0.7911342492202043	0.8788050839792734	1.4657305786993766
Si	2.241089019466066	-0.20647491183992678	-3.9247325378125866	14	0.36963881300906876	-0.6646818902541493	-0.35390441978135856
Si	4.3988641853474135	-4.990799358448956	2.416399394661755	14	0.29903214714929033	-0.03761475661270237	-1.3583308814872153
Si	2.0630310207481277	-2.633581597681151	-4.115346976119269	14	-0.265238567263392	-0.04385200100884959	-1.1748485783044238
Si	-1.5020782459490085	-1.1543117366458204	-1.6122841593428423	14	0.3001539204004709	-0.6176779712333302	1.097916479136017
Si	4.592783768198241	-0.4858140452027912	-4.254488452669404	14	-0.1283737459718015	-0.710707503700652	0.25702902797615923
Si	5.428417821448214	-2.0328749085817406	-2.5069265929421127	14	-0.3775791575692822	0.05264235298790386	-0.09170232790106146
Si	-2.0310135435763685	-1.447887646860632	-3.9897092806552426	14	14.352605895276742	5.195694516055346	1.3185196295995103
Si	0.5389662336228965	5.278936662201174	-2.179096457870089	14	-0.20859377462361367	0.6127473625608822	0.7964037295738478
Si	0.7552010951449288	2.7135203389440767	-2.028857869665016	14	-1.1710302297934718	1.5943169550811545	-0.9801045767088518
Si	-3.8214967477920907	-4.484793501096601	-0.7892054350819686	14	-1.1553449446773765	-2.1358400722843585	-0.7132097033982203
Si	-1.2394081026611012	0.6227754146493789	-4.894030590162518	14	-0.7561456195815011	-0.11554727286117877	-0.1906446312731279
Si	-0.3189331213142461	-3.215782364892428	4.114111989313796	14	0.7315313999095955	1.0603652288247223	-0.07038632213384179
Si	-0.7164922551107795	4.503694796458431	5.441947146326163	14	-1.9274103341801703	0.025962250191259254	-0.899770390980825
Si	-2.4709531598341155	-2.344120459151843	3.403554778707018	14	-0.6997057440357386	-0.1545745947367705	0.4414991498229515
Si	-5.33378584687916	1.3462877701175306	-5.023643121756751	14	0.7938375093538079	0.9938358217816344	0.838499151427972
Si	5.528553927858928	-0.7114823401112372	2.87417635182122	14	-0.16814874527449228	0.9667299439439734	0.5369295804382277
Si	2.803622177560319	5.332854053776829	4.032014242340582	14	-0.42718503517409107	1.5259800609980028	-0.1049406920839719
Si	-3.8030907798720257	-2.807614783284849	-3.722584522190398	14	-8.375605180087456	-6.909671998288852	7.397379310036038
Si	3.918050059747358	1.1842968164668453	2.7204538125291227	14	1.4749389924034868	-1.6933057954595154	1.5245520691031924
Si	1.7874945805704623	0.7231280879909092	-1.804421229763108	14	2.5537405890368627	-0.8404297944128712	-0.0023685022209204106
Si	-3.4982667164505274	-5.0424933295349	-3.1758474228499667	14	2.1407010040026306	0.3680372715051486	1.8371851062855338
Si	-4.44969299930974	-3.2174193887694673	4.950276909194179	14	2.9280220469225227	-1.9485890429232942	-1.3892782477837093
Si	3.6300327007568227	4.8394090784118005	-3.421286612642441	14	1.103332255382377	0.12847299063715922	0.7459483587712618
Si	-4.585607073290895	2.8792018152157954	-3.1188703292517586	14	-1.935532455886518	0.316893615808359	-0.940816544753797
Si	-3.0585503307214674	2.9915123149373013	-1.4965929943013165	14	0.9210025787146079	-0.2447723118044813	-0.0023260789831379674
Si	1.0568788297715472	0.9984412976398874	5.474133434643993	14	-0.5306465703673818	-1.6233375350507298	-0.27658922592024976
Si	-2.2954162223108034	3.521486023232933	2.055907634623751	14	0.9396842299708038	-0.21025676554468542	-0.12599881598758073
Si	4.597629314450293	-4.451828682427479	-1.487895888479677	14	0.8437650322341673	1.361508510552386	0.31255024759103284
Si	-3.7446621325375276	-3.1135172389618457	1.379956708961717	14	3.033766980750637	-0.5746003871469093	0.05735210371335111
Si	1.5697348657355568	-2.8124392281436412	0.7944308064126817	14	0.3103776635955078	-0.010422489636284267	-0.4733890833298121
Si	3.4337730844535375	2.5019588807290885	0.8085165417128801	14	25.306051663008937	39.05127454986475	-38.11303373842068
Si	5.091055409621353	-1.8472792700717617	4.980725109067256	14	-3.5926568859493138	2.269000702141212	-0.6586801591053276
Si	-2.1566701192343634	1.2200858900337377	1.6092588859092902	14	-0.08536712439221658	-0.9108431131525747	-1.2215555346607658
Si	-3.218125730143821	1.2858378314287504	5.027660160673475	14	0.6739841493024451	0.019824250460469747	1.1532070706036734
Si	-4.380221659702919	-4.601587491585821	3.0115086615493074	14	-1.165114373562343	-1.5863390723832669	1.2875879470454685
Si	-5.456845840566655	-1.8358611951193577	0.8692841119001904	14	-1.577833598873685	-0.12265097975021591	1.597328490742644
Si	0.7121675800923318	3.0697796037341862	-4.779521103143496	14	1.4519607670467916	-0.6475722127906919	1.289517818698772
Si	1.8814624165516802	-2.196816075209415	3.104996718483795	14	-2.1685401610775976	-0.1097136920002948	-0.22319739573152272
Si	0.09092257175405229	-4.819005141730003	0.1831456556926455	14	-0.1458426068484836	0.9990513089235551	-1.3140888438012992
Si	2.9339921381125853	3.765998972921302	-5.375293398019239	14	0.03748131624658668	-0.35408491137483294	-0.11510607118824136
Si	3.1548271033650774	-3.412853829536362	4.650510516556967	14	0.6389307278096743	0.4147673678093719	1.5099574468639037
Si	0.27185147055485864	0.8120104881967107	1.3427938236337	14	-12.236396469222244	18.10670094161496	-49.95256390351455
Si	-2.7120354672184313	3.424722807944721	4.300669407116526	14	0.8327488743794609	0.6446496373732795	1.0801102892413315
Si	-2.852108736870897	0.7062503051826529	-0.8951144384484846	14	-0.2725014255717463	-0.5961159106869724	1.415767831676131
Si	4.229803154355322	1.2007858893992782	-0.9967276423873284	14	-1.4722555297808484	-1.4120078472559465	0.0028048187937495393
Si	-1.8929338002870544	-3.4596755999787705	-0.3613235991722667	14	0.8788927586706905	1.3495544134768895	0.49967015058076975
Si	-5.057039963687862	-0.4633066327929653	-0.7526467159609458	14	0.31370801631669554	2.0113422675826804	-2.2808889789205127
Si	-3.6368562249769925	4.392806974882438	0.4608677559720841	14	-0.42826747051387337	0.7464944615412612	-1.3722788707384863
Si	0.42271643695983024	-5.453277483906595	3.8038981858140932	14	0.050590096721361666	-0.2235267543230337	-1.0617613390135625
Si	-4.701487040272106	4.514673073951332	4.69923696539091	14	-0.8685242622461294	0.5412798906399182	-0.8667355442749023
Si	-5.13643784292357	5.020261345837087	-4.126361903400461	14	-1.6103961335322965	-1.040425535735378	-1.1257574359847082
Si	0.7159169644945607	-0.673789698752455	-0.276512657265805	14	-0.5134530748704876	-2.0158594425196483	-1.1533567089333059
Si	-3.287277217052822	-0.12276235298257777	3.2981555405776537	14	0.3243225675203949	-0.46828363949559415	-1.536495110425812
Si	2.451494343450391	-4.318497863221083	-2.516427772906884	14	-0.2705257882437445	-1.0139341520692322	-0.47659782276935697
Si	4.683596390587418	3.3595905811517355	-1.49597772209787	14	0.2201583492431077	1.9100322333212896	-1.458412184516107
H	34.51219161100248	36.193954884149655	35.50462789636071	1	0.02477979885452316	0.7243641867191506	0.5039001330534774
H	36.40675355036941	35.26042258277407	34.66427934761683	1	-24.011900455412725	-38.92837083046157	37.5514541999466
H	7.966023618989607	9.287178519136036	7.08435743164497	1	-6.840328002251799	4.448054884204492	-2.4895287763293568
H	44.86456624065303	44.94589545267177	46.57319380861821	1	9.410190450088118	-17.275886823988913	49.016366349468406
H	12.96365649705554	12.890687879165954	14.438043051450883	1	-0.24990552357615695	1.2506141669890793	0.10024611087991353
H	1.8826540899709907	2.1591456458435365	2.2645282249782235	1	-0.7731578521533248	0.8944654293737635	1.0527442155452713
H	30.046012870559238	30.1519352011215	28.42795914605953	1	2.242486435637717	-2.035416812247887	-5.107225867315435
H	15.867496965400319	17.571716563373645	15.90793056668348	1	-0.062397383683077685	0.1368506802123297	0.20272316984611954
