72
config_type=amorph dft_energy=-6700.771686526704 dft_virial="-22.47335476687084 -69.07525429799344 57.111601368595885 -69.07525429799344 -132.2604973819027 56.32299640783766 57.11160136859588 56.32299640783766 -59.76669717746449" pbc="T T T" Lattice="11.105996452100001 0.0 0.0 0.0 11.105996452100001 0.0 0.0 0.0 11.105996452100001" Properties=species:S:1:pos:R:3:Z:I:1:dft_force:R:3
Si	-0.6083587206549078	-3.1432157840744064	-4.78340153830386	14	1.8307038639945046	-1.438840416598076	0.607480196202027
Si	-0.1351477602259597	4.531895142649603	1.5519141838285169	14	1.2813507026493214	-0.2202727634298543	0.6324816243351469
Si	-1.1046312827166416	-5.23322215960504	-3.623546798828796	14	3.2326203799794015	-0.9188551915512201	-1.0270856128923216
Si	4.882078316780769	4.141717054095135	0.5503843085753006	14	0.7130724063741244	0.6278772889278257	-0.8845892996180106
Si	1.2347446947508645	2.5842820794302797	0.6205675425547014	14	260.1151912551186	438.9456658302256	-234.8562175589637
Si	3.720099000184418	-3.172196881816162	0.5901126790837526	14	1.3680622580134434	-1.004297649329317	-0.05700680426885522
Si	1.3878775056313548	0.6130054695704664	3.5168037351287276	14	1.3888468163109886	-1.6776341372016168	0.7129569637452496
Si	4.855337298523402	2.55321305435553	4.757602308545632	14	-0.12595176476022202	-0.2307410187408372	0.15074879002039016
Si	-1.2342937912949092	2.450574766944157	-2.819768075202382	14	-0.5546758635789537	0.09546231232124601	0.4562012442646223
Si	2.4021059772279023	-0.5248927149187955	-3.700737916569472	14	-0.5402216236901453	-0.8304595622024011	-1.1932314671224185
Si	4.404627086906408	-5.226711824484819	2.0835504597930274	14	-2.9758345785665283	1.3881706156117897	-0.36127423607103104
Si	1.796895806567165	-2.8807677607155413	-4.047363840037029	14	-0.3098511012259414	1.2395447872542458	-2.3358399273753774
Si	-1.4237254409794433	-1.1078786760792356	-1.1154873942485695	14	-0.8389274975743088	-0.45454648088057487	-1.8063932918609085
Si	4.649889691355295	-0.6773536130139338	-4.373373702290554	14	0.25283864052538185	-0.6615523408584651	1.378503002497501
Si	-5.3202731809958905	-2.0316799033634947	-2.6375808670035528	14	-1.1949476799236174	0.5792741423978744	0.9757352403277921
Si	-1.4672054170894149	-1.4572844304587538	-3.6404123650409557	14	1.2714678880197363	-0.04027970727703585	3.2113673662925257
Si	0.9655197923569273	5.474338895578358	-1.722661105082038	14	-0.6806391983131164	-0.3692757729378639	-1.1515093697607794
Si	1.0009134924501248	2.5786935420155825	-1.9824914450771438	14	-0.26451043023672605	1.5765873841250093	0.047302938569552345
Si	-3.794330369870609	-4.574904224510005	-1.0526007999381983	14	-1.197549124286543	-2.2644655294670026	-0.45264566271738943
Si	-1.197050942792437	0.616149577166056	-4.3863255153529925	14	-0.6698271862208297	1.2630994544237184	0.35826912817284196
Si	-0.8315292769612764	-3.0040110033444947	4.012813085074547	14	3.9577057617408546	-0.8744131218713965	-0.20446329392679577
Si	-0.7466006114924225	4.2913181581038575	5.446098567799957	14	0.9761137070309179	1.2060283725218595	0.7831517385327404
Si	-2.755386613769558	-2.739395089478179	3.06670879571518	14	-2.1952004663632776	1.9603528782050998	-1.253140020855593
Si	-5.011671968181033	1.0484205028736278	-4.81196171878008	14	-0.3875817857067862	1.2774973871060156	-0.3892524899438184
Si	5.545230692131402	-0.3557428359550864	3.20032170723146	14	-0.11218298154976501	-0.5916594138355598	-1.577346374415517
Si	2.6510035743155607	-5.231316370613859	4.036110133832117	14	0.19413850629267712	-1.6204265296072582	-1.3542528513389283
Si	-3.4892830759204236	-2.809031908432137	-3.92742129955364	14	12.566680915759001	-115.90535815532122	14.009169730806367
Si	3.838674392504554	1.2285042353444293	3.025202355174747	14	-0.8606757061458453	0.6409981535976054	0.34048170734699357
Si	2.169300968999337	0.5367494767310574	-1.673322715843584	14	0.5103921739868512	0.34436921859105746	0.06301599162310531
Si	-3.244515798913301	-5.02529680462847	-3.342327420266591	14	-0.7578829154463251	0.22785906678748322	1.583474861056622
Si	-4.111385467184805	-3.3776067285963323	4.849876480067905	14	-1.6915854688898042	0.0503077893572094	0.09779173374130017
Si	3.998591856617632	4.912328829916999	-3.7462158614411765	14	-0.6748786368433246	2.053854465609201	5.686955866686572
Si	-5.125752763737004	2.7245008376362683	-3.148945367644045	14	1.1604532167274466	0.5274956807975404	0.9226933375731372
Si	-3.3410913228614727	2.5471247471004883	-1.4294361443551131	14	0.4245470811156192	0.6505089292873651	-2.25219544354766
Si	0.9109415939923723	0.709899735616813	-5.164914728426399	14	1.6649467608888142	0.8734774966453946	-0.9250222447721272
Si	-2.086043755996524	3.404556539586998	1.7550373059392	14	-1.8354776352424238	1.0586564722289518	0.9947609054758236
Si	4.878644342677779	-4.062371373042752	-1.526110511671708	14	-0.02077504520786051	1.5866959418017035	1.1123594061614168
Si	-3.9371823598353903	-3.0898081577359027	0.914467747865914	14	0.47002813445531455	0.45547824944859666	0.7590687092199774
Si	1.4347859028460896	-2.6691085697317742	0.963635104759006	14	-0.19288612089123297	-1.4680214335396284	-0.644291739512715
Si	3.4368727680633184	2.3904091417645508	0.9740214326410099	14	1.1937225482385665	-0.7354047700743985	1.4171994231183895
Si	5.068212596118674	-1.8920675325637906	4.873594446091009	14	-0.8326010358235525	-1.3837760823985925	-1.20822461068633
Si	-2.202607852359185	1.1685862738857047	1.538772458226747	14	0.24375569676089476	-0.7950688116916268	-0.39897255360663825
Si	-2.862104133677787	0.9193477227069669	5.1982627039731195	14	-0.6312852890296818	1.4821257459943646	-0.86186947034599
Si	-4.601439781833008	-4.701578109443013	2.555128838743517	14	1.7979551813107146	0.404680407417367	0.46038571817316326
Si	5.347475098106019	-1.4383287157143094	1.0113053733303548	14	-0.1813485428776005	-1.2516976307709895	1.576910829174284
Si	1.1175808745797902	3.091194186093125	-4.524579622786605	14	-1.0858474536527098	-0.7576378891093151	0.12050564947108433
Si	1.4486939422030543	-1.9669730362346243	3.1991155960167617	14	-3.0766100800318603	2.0748935633334407	-0.8533326293515026
Si	-0.14267207282225744	-4.708933610893239	0.20943577049405662	14	0.7632878930503404	1.8319955873073472	-0.8114531803442705
Si	3.01506480161327	3.9489980294607796	-5.541286952791261	14	-5.958535293890513	-5.718900307626219	-4.989869307640468
Si	2.822128099448453	-3.0443024478730685	4.433859180167981	14	2.68519554762433	0.41838799832120444	3.650297210569054
Si	0.1728404015847419	1.0057823612947256	1.5563854580001324	14	-0.9298901184747637	-2.325558077200105	0.6323430417583908
Si	-2.5428356112706876	3.333805789188895	4.213364058406922	14	-0.703515350788602	-0.6400285897813776	0.12605332342036787
Si	-3.0937985422611423	0.47339198817111733	-0.5296582979963916	14	1.2878774535045174	-0.056356057512325745	0.34677500183911997
Si	4.237138665011933	1.5034176291211319	-0.985868199056465	14	0.2807310194804763	-1.885209239897388	-0.30586357398492375
Si	-1.9589467325986916	-3.3089172511397384	-0.658442322255298	14	0.5087654356507936	-0.43367707610746503	1.1870867825177966
Si	-5.1910782348682565	-0.26306551676160234	-0.804850452284042	14	-1.1649117704631153	-0.3884132811673221	-1.546576671496645
Si	-3.7063009101923288	4.247405048132255	0.11693281544487048	14	-0.6334002802660358	0.6845665616896427	0.5633705704400986
Si	0.25362541977731734	-5.303206596247948	3.6181615011491726	14	-0.3154982769511146	-0.6855253268635259	0.6233775975070345
Si	-4.6918725791435225	4.54216485756886	4.452485046817798	14	18.581077586498242	-2.556762409119633	24.057624478205174
Si	-4.815637803605726	4.919649902778223	-4.353879346718182	14	106.28926999164821	-40.585275173908954	-185.56528750034627
Si	0.6101068044964684	-0.7593236410279484	-0.10560469906372849	14	0.5249127483929197	-0.1730937521367331	3.8218570412717865
Si	-3.1857661882813377	-0.17284817578225836	3.1416376219785636	14	-0.06322322271190924	-1.073750917342477	0.8599437124611992
Si	2.847596370512409	-4.335746586310838	-2.6588410760118077	14	-0.16463584407557394	-1.6854834646334969	-0.30961173132063563
Si	3.9977022663018196	3.6134192406641263	-1.8114846435066434	14	0.4473481573157564	0.4386825039447293	0.14786812361969626
H	16.768876296447434	17.349587749534482	16.289344913437596	1	0.8416014471072628	0.7780504084670348	-0.17410599630127535
H	16.921169493996146	15.676974706864188	14.75761365696148	1	-18.126214088331693	1.3042497379621565	-23.916857747479728
H	48.336432892937275	49.12188783301737	50.42866602075656	1	5.848439792750176	4.628964282293411	-0.9063305662051828
H	1.0835398848544584	2.3314040932141884	0.7563461233791403	1	-260.8145684118944	-435.66454103416055	233.56367380641368
H	11.740659725351707	10.713145150199512	9.634145396694674	1	-0.06612420084463232	0.6400175340285008	-3.287985533501343
H	7.872943152124913	9.27484531007598	7.075330477728704	1	29.043968029120126	40.906507015724	-4.8587159397070545
H	17.141334767662578	16.11822372010364	18.303402932230544	1	-106.87253346106081	39.0560565486497	185.4348684400923
H	63.000509626579884	64.53535611506081	62.62736591538364	1	-44.01426320849361	76.08882007507812	-10.753297559864206
