72
config_type=amorph dft_energy=-6887.223734495513 dft_virial="64.45556367460433 -3.5795370308100747 10.739868835589329 -3.5795370308100747 45.26491855299501 -13.655317478392476 10.739868835589329 -13.655317478392476 -3.1091410893051674" pbc="T T T" Lattice="11.105996452100001 0.0 0.0 0.0 11.105996452100001 0.0 0.0 0.0 11.105996452100001" Properties=species:S:1:pos:R:3:Z:I:1:dft_force:R:3
Si	-0.8473542113058739	-3.052156608563994	-4.448851164778671	14	1.4832264361819203	-1.4696785109184638	-0.0700721330637197
Si	0.0023789044400398204	4.817141555525339	1.6293940574769477	14	1.177944189109882	1.1373551778628324	-0.8788752751545136
Si	-1.1781962926157068	-5.459328030773698	-3.8536186213305	14	1.3916979150005007	1.5730294885829883	0.9013603625108045
Si	5.027254791802974	4.193476550560147	0.5300647774665385	14	0.047042742711153364	-0.8529675323960413	-1.7232182918646501
Si	1.317562110294174	3.1732341818847876	0.3757458461649637	14	-1.1025095016799291	-0.03178528952033062	1.216735997738148
Si	3.5623816339685006	-3.4682560928376622	0.4476149704057932	14	0.5471237559220828	0.200161320505124	0.6950232470266848
Si	1.381061755608701	0.5524944479011996	3.2736157308170934	14	1.6061931476654503	-1.4581357906941912	1.013953949580197
Si	4.945212574812021	2.631731338672232	4.617179200004924	14	-0.4436797042449691	0.2300244516881119	-0.04212498956530612
Si	-0.8093561550446589	1.79261222373559	-2.766421531844365	14	-0.05716132769859612	1.0936114203879608	1.5724142230798768
Si	2.181315435961219	-0.3781425201993269	-4.1049140030521665	14	1.2965503059704409	-1.1954714140773315	1.2759323552976414
Si	3.740452959882181	-5.439688186647805	1.785357786853078	14	0.25932502502705146	1.0021404919657129	0.6139634953773123
Si	1.6470925734230142	-2.69225124513866	-4.299770932003551	14	0.10172732465485083	-0.4283672294002952	-0.6753350080376509
Si	-1.6091411623468979	-1.4520879347188163	-0.7473136164646473	14	3.2864238441298848	2.404799543167069	-0.11701845932536752
Si	4.614503765459613	-0.3396902286832211	-4.203948394614833	14	-1.0093241602302065	-1.1889670318384207	0.1570976203874318
Si	5.415638151330783	-1.9049727004411308	-2.5453455664688622	14	-0.6033216904572194	1.0543706967707969	-0.12040614769519462
Si	-1.7506448843423945	-1.3977040912921728	-3.1486343997433868	14	1.5006988966060504	0.6695924443051002	0.4854912760717492
Si	0.8137352494457218	5.326970096856507	-2.279470232604879	14	-1.084060021234143	1.8559906848181613	0.13829769828650906
Si	1.043713781577228	3.0542534206941503	-1.9751992478066949	14	0.05355792359240858	-1.351206605755617	-0.1234984160637367
Si	-4.01669352023491	-4.506727844089499	-1.5088206963950785	14	-3.7188202526773844	-3.380532726610605	0.020147181288680347
Si	-1.0631148467794014	0.429421127017963	-4.59452296724264	14	-1.6535338814832088	-0.196445816206978	0.5825656714287281
Si	-0.5785657745725044	-3.0681059300688545	4.316293322925341	14	-0.41844713374356785	-0.7274207167237428	-0.33699348875914864
Si	-0.576638884188065	4.247964790353441	-5.497912483647585	14	1.7972789806115155	-0.11126946782951641	-1.142714646902681
Si	-2.772721963631641	-2.453369035651505	3.639723793260925	14	-0.4002959015149184	0.32085594621723923	-0.042827672649302595
Si	-5.186546988315799	1.4788644921648293	-4.657983741569585	14	0.7944612595044758	0.587081046591972	-0.40154648714263846
Si	-5.467012269718907	-0.4485567589049313	2.8495077125018153	14	-1.0678612863856138	0.6380997465702024	1.0410454292280655
Si	2.812650242076231	-5.282281788332547	4.110660245616483	14	-0.009986944395051182	-0.08007398986962774	-1.2451793645633502
Si	-3.6787569283914756	-2.652121948158287	-3.303671889015412	14	-3.176712466124378	-14.989234712493287	14.749583528265475
Si	3.7912584512519585	1.4117176376154328	2.9579544360576357	14	0.04765517999841263	-1.3840889859160546	-0.32434802146306435
Si	1.8861913498409846	0.32121873538408835	-1.8310311972623396	14	-0.4404627372683998	0.5283706279379867	0.7912324654434338
Si	-3.3417132586627902	5.006181163535114	-3.590759676102907	14	-1.1080507478659125	0.7043846414973439	1.2479469023299579
Si	-4.222898556361051	-3.1374184539264105	5.550426077271695	14	14.75663966970609	-11.528373970807424	-68.42620219777871
Si	4.399975895592268	5.048490567619035	-3.54199213508209	14	-1.0655935714932434	-0.2371533554092865	0.05072507975066944
Si	-4.1491447445223	2.8927700110813257	-3.072959250518422	14	-0.7526743702887692	-0.06628772314299373	0.6093979836603254
Si	-2.729418572865258	2.2916512895135415	-1.3492952739567594	14	0.6674735964107661	1.2843717514004958	-1.0644358027675807
Si	0.9707140668975746	0.9004741923362681	-5.465690656141106	14	0.31710264667088706	1.4518214131384395	-1.2082253820179258
Si	-1.9832211090440468	3.7379041336964245	1.7391368508187284	14	-1.9454214411688715	-1.0093426721885115	0.4812417531986084
Si	4.514643087760911	-3.8909136680162963	-1.7026580948721608	14	0.042468232125545895	-0.1146430151200827	0.7705443235953944
Si	-3.934369210934074	-3.3661331236616676	1.6778439669992338	14	0.6570228246159602	0.009631360529274704	-0.3373526721723733
Si	1.271503321808025	-3.074227555313252	0.9552345290426375	14	0.9828682578174788	2.204312977838946	0.9980714606860465
Si	3.4381666166499882	2.561212703599977	0.9148064807577031	14	1.4440021676388053	-1.6465381610176177	-0.17002513793713636
Si	4.920890442581922	-1.5972899535328617	4.901703723111274	14	0.2993512213195207	-0.7553233801001178	-0.4696897769951831
Si	-2.361890053475203	1.293038959528292	1.645806499033861	14	0.6359934970919372	0.9696833726252276	-1.4045966361706197
Si	-3.0735689697236426	1.1063638181631692	5.433994142266814	14	0.6955145852533652	1.0795647006923959	-0.9192226025014693
Si	-4.8807467078061615	5.541529063513917	2.049330663524817	14	0.08385557157450153	0.6015062329906629	0.7657903498584405
Si	5.343695727513369	-1.9100181546293198	1.049785429837591	14	-0.43790268770112833	-1.2837706269766447	1.4647173060927061
Si	1.4454376640432987	3.0716176461470086	-4.298932429271417	14	-0.5257254747846183	-0.002201894596174815	-2.25480254434229
Si	1.2253434687541618	-2.0461487955412903	3.3140271201073497	14	0.4448606129185131	0.6937472074562954	-1.0393554417011321
Si	-0.026932041396342504	-4.419991122398244	-0.2763904913048319	14	-0.6337319528523349	-2.3632101148399496	-0.1641727880074153
Si	3.339162211277743	4.0778597956948515	5.52993329261828	14	0.17259290082036824	-0.23181214121721086	1.370031210467613
Si	2.8912662591617115	-3.0455252180824446	4.669107507616008	14	0.402996590543202	1.252468962367034	0.8555728334169475
Si	0.06611510747899652	1.3735318900141773	1.598167327252578	14	2.388136466697721	14.449606242800499	21.20660857828428
Si	-2.2831674188237825	3.4354911821046774	4.20539106355396	14	-0.9844260905309565	-0.8014330686905893	0.36785369458529
Si	-3.1087694254785734	0.28728880562327763	-0.4993633608743532	14	-0.8887007541354595	-0.36845533323020463	1.423546196601175
Si	4.169764137535269	1.0319836281245198	-1.2602884865906945	14	-1.493726573198873	1.5831940963556619	0.8212187525712569
Si	-2.2800255324274836	-3.587743287466516	-0.3374834671881888	14	0.4023283602704955	-0.9738038260112967	2.841165224107813
Si	-5.372734576436675	-0.5278613477704418	-0.6261649647665598	14	1.1144779969452188	0.46529447245038996	-1.099983904923948
Si	-3.696105605449301	4.467080547355147	-0.018126096809472414	14	0.6415792233999589	-0.4738333703291338	0.3619494083281019
Si	0.4522961479103534	-5.333619256932378	3.856521728803079	14	-0.9052715279238138	-0.4229432256169108	0.31560497782190083
Si	-4.564626735393232	4.337917808617225	4.158120610854887	14	0.44510641058711925	-0.7871994296382496	-1.6939861099272266
Si	-5.051489186661102	-5.282039677609891	-5.302323669530006	14	-10.348157181705064	-0.5784878983909733	2.2768911672582144
Si	0.6119837178968732	-0.8153034161447584	0.18243487191971108	14	0.7353515481942715	-0.6955924897445657	-1.4312952509255694
Si	-3.0960819351316946	0.0801941791813237	3.3528214763141806	14	-1.4515128805000217	-2.088649491017297	1.074515564064689
Si	2.6620073956003014	-4.389742830461304	-2.9805173784497225	14	-0.4936136548886289	-0.7112230103173418	-0.3629161439284776
Si	4.928063805690334	3.367486944629179	-1.824565286127927	14	-0.16554575824837436	0.19573130603850886	-0.22386511178316518
H	29.43702888230408	28.16832982460021	27.72961964214971	1	10.580506426823653	1.8174202483579596	-2.5798571055473314
H	28.77005271237499	26.627662683378734	28.141915322638535	1	0.5044814599663628	-2.748973100643263	0.8139255552201249
H	52.61805107373988	53.378086609140404	54.4857065155023	1	-2.488320099718355	-0.6579800471266514	-0.6533286604919715
H	41.6176348875114	40.52256475714038	42.40933583999616	1	3.025608349348744	0.8031194566700744	-1.4641259518690721
H	33.281911526825354	34.14799155874912	34.048233056217775	1	-2.5853700695747923	-13.887699916840226	-22.344484662084973
H	51.12621588831863	52.55475355756077	50.74902959441384	1	-16.134189820571944	12.789501130340057	65.31480017766513
H	38.65291578901479	40.09815576632125	40.08155785462358	1	-0.7315278003621473	0.7443586443518143	0.5847549676088342
H	7.600761833475426	9.228430019103717	7.090075909218157	1	3.494414437445391	16.88537577799088	-14.715634653618242
