72
config_type=amorph dft_energy=-6882.373287784075 dft_virial="17.319123300862522 8.125020807812046 -25.024057893533822 8.125020807812046 54.913066326482024 -1.6363238499943458 -25.024057893533822 -1.6363238499943458 34.599256563792814" pbc="T T T" Lattice="11.105996452100001 0.0 0.0 0.0 11.105996452100001 0.0 0.0 0.0 11.105996452100001" Properties=species:S:1:pos:R:3:Z:I:1:dft_force:R:3
Si	-0.6752290358926472	-3.396063784100077	-4.649512087475923	14	2.0948173155698	-0.07250337025445172	0.1709705333633548
Si	-0.03553252504884874	4.760279964290233	1.6099941028744191	14	0.41255493168138446	0.195907426752939	-0.12072342209170088
Si	-0.8946046732113332	5.430117038905386	-3.691335579973124	14	-0.2923210480426398	1.6650303218117188	0.39093990636543163
Si	5.112494425172486	4.0850964629830395	0.2638851392997673	14	-0.5632363587423868	-1.2033683069576342	0.009262406915833453
Si	1.4040578318624193	3.083467744361399	0.7340275129090001	14	-0.24097324658343047	-0.8329159962252706	-0.9327656426648172
Si	3.912839126212033	-3.565556838354156	0.7752229855487747	14	-1.6653506815346093	1.092380375160674	-0.8151645708739043
Si	1.4804892994457715	0.3119430071472944	3.6562239721898098	14	0.24007335972137867	-1.1260783099286626	-2.527099824151616
Si	4.452261816289111	2.9938590119876305	4.862300758298868	14	0.8287086394793802	-2.195819331413837	-1.7287153150391268
Si	-1.2732391890534882	2.187805780287826	-3.178936000463296	14	0.4354439396834707	1.1945846398524125	1.6123730564129581
Si	2.3817098147436204	-0.7668945988093449	-4.031731039431054	14	0.5504355966849656	0.9292686823188838	-2.283503021699507
Si	4.0437066354053535	5.5272989502598415	1.9634257809678235	14	0.7377560458896739	0.423745924697861	0.3252990733209871
Si	1.8610240512808809	-2.9084949914578537	-4.288740456327326	14	-1.3402094740802795	-0.7757058175255916	-2.0790248153618545
Si	-1.6043722474703663	-0.8745527966170666	-1.303308674447549	14	-0.5429981603253732	-1.1416106142782094	1.7357992244171987
Si	4.79202423394927	-0.6278142052396966	-4.738005777805901	14	-1.0251079186800636	0.8587322076343454	2.118043909700422
Si	-5.223307836572251	-1.5746115087776738	-2.8187085631408513	14	-1.9835882140938097	-0.8822117985284696	-0.15930748541009906
Si	-1.6981390649158015	-1.5927809189733093	-3.4649776026850025	14	2.5911655980769384	0.3592559183947148	-0.7243155928285999
Si	0.7456321686017995	-5.470767207119361	-2.0471516670209153	14	-0.13828278587565218	-0.8958309434092939	1.2205995977027346
Si	1.2066065421398238	2.843506032019101	-2.2125910325699776	14	-0.3798083058818505	-0.10786018217500006	0.18460279088131193
Si	-3.4955890607059263	-4.4986126924819505	-0.7661827044367653	14	-1.7494098846504669	-2.185736741900876	-1.1904181636811122
Si	-1.5873656351032654	0.38161203349096295	-4.596234401295908	14	0.8056375972206276	0.48104660630480917	-0.30739106765562374
Si	-0.35262427215133674	-3.5322288536010493	4.100122876182731	14	-0.7243140501654078	1.8558410464885284	-0.9090235419175059
Si	-0.6165560566362028	4.168372556179821	-5.5160208108627335	14	-0.19964529966737027	-1.2195937813014928	-1.7442897855159238
Si	-2.595935601507468	-2.1647197454628455	3.3144769129636598	14	1.0645448176331547	-2.3196969855122953	0.6986868149973637
Si	-5.33936438889705	1.4789655567325433	-4.965659824879983	14	-1.4092593356687082	0.5817634865688418	1.096011547204319
Si	-5.406878851929011	-0.39359651426242404	2.7528233497884136	14	-0.7774096890212537	-0.6629412519524092	0.20470009272678139
Si	2.875493523000439	-5.218407870937583	4.177407284293604	14	-0.7816689820946111	-0.006860737436283134	-0.6634652432166552
Si	-3.3780942818405792	-2.92560711079125	-3.8845466002503075	14	-0.9947364799752824	-6.022371982331809	-7.274080154634611
Si	3.7800758234243386	1.0009201560479961	3.138335809233354	14	0.09517717674124158	1.2613274486370722	0.27922846553138175
Si	1.806807908400664	0.34124617878616026	-2.270348877718769	14	-1.4564645722360952	1.4446727119062999	2.290607757030672
Si	-3.0798627379130474	-5.09338877947594	-3.0956821192594184	14	-0.45933362187615867	0.07069973987236784	0.8019400906597226
Si	-4.218939268625877	-3.317986407842523	4.751916038362157	14	0.5344772601838704	0.7771911450690412	1.2834024446947998
Si	4.216192755703273	5.194863158459132	-3.2208766854650066	14	-3.180377062537185	0.5651461757741928	0.23066054314431655
Si	-5.210752507583151	3.034790161911845	-3.1579067961812446	14	1.369356038210542	-1.2900495232789784	0.5417537453504214
Si	-3.168527460588388	2.546085225832572	-1.6555342413262553	14	-0.3677068844715095	2.2471900157103954	-1.3177896927991202
Si	0.6944246401604568	0.6585611564173355	-5.3255141007216364	14	0.47028318810307324	-1.2002135607298126	0.1890297200215429
Si	-2.1107912478907385	3.7226189507793994	2.0061527705183426	14	-0.6306677095317823	-1.012454738068019	-1.184610808094494
Si	4.764328099997023	-3.580485518785069	-1.4967240450594512	14	-0.060872975338761896	-0.31940815681146384	-0.6444578329163966
Si	-3.740264157942496	-3.3484257229184395	1.5729178443187286	14	1.833572189089662	-0.4276228944101123	0.48705065144841897
Si	1.5065739533128188	-2.53303901180029	0.7378868466761049	14	1.3924921294338943	-1.3543628946466306	-0.2654956777954068
Si	3.5144148352918805	2.063671836743414	1.0372123312541686	14	1.168047233401036	0.6520639337849907	-1.2241772907557207
Si	5.111915802757332	-1.8826096659851823	4.591648735360836	14	-0.3749838838591246	-0.23248551370055767	-1.764054386332966
Si	-1.9821471591871287	1.2454608707274957	1.5980129539018937	14	0.00993012296747591	0.5458389745936048	-0.8007244720643565
Si	-3.30006688256706	1.2913952720533812	5.270231782182018	14	1.2240919300590918	0.0004157477302679443	-1.5473266629185318
Si	-5.090022551951308	-4.7322606458412295	3.0335762764996304	14	0.5849915092982877	1.1996342907011832	-4.8610008810050696
Si	-5.448549661216936	-2.0685007240007867	0.9780617941502838	14	-1.0811474731274793	1.5696826807877515	0.761301971301058
Si	1.2099960922570048	2.7900117789082706	-4.705005419948131	14	-0.7701144347858656	1.1752339869919137	0.7027967268516205
Si	1.4800828199756246	-2.164809704034108	3.0015587993278716	14	-1.5199868144967374	1.0061287905383265	1.4418025870374185
Si	0.2881306401543468	-4.418141973988969	0.16304491271398971	14	-1.5126100562227005	-0.8565948477817062	-0.5591305606566424
Si	2.9020468499177645	4.246462149033472	-5.268273795007513	14	0.40893224428529584	0.7756158288393864	1.106195695377426
Si	2.9536319822384787	-2.927008687543505	4.553336379400028	14	0.6924192315584389	-0.3470441965661395	1.0507791197490821
Si	0.4933005974111518	0.9663105393043169	1.3472584342074443	14	-1.3892232261298583	1.4033329379057669	2.22490598879014
Si	-2.664585097376834	3.355563546838204	4.225740580853143	14	-0.169567224079618	1.1056439361757218	1.6942491340014778
Si	-3.416911960639959	0.6548795185934643	-0.5324336865097714	14	1.3916074120932316	-1.2513266202732922	1.4315886140425982
Si	3.76678305627082	0.8181532148343673	-1.290711142671932	14	0.8518336749498561	1.809401999306546	1.8754958611084003
Si	-1.9083744671544092	-3.2046641518442307	-0.04013262877930856	14	1.9253151404547815	1.5213081055207616	0.1375708468125032
Si	-5.461801336183582	-0.5354334161514837	-0.7604653374632243	14	0.3186602222738327	0.44618961725849765	-0.30408488332444533
Si	-3.5339647208465124	4.329180721208357	0.11142979420285494	14	-0.35413041993899963	-0.378288268416579	-0.23461027513712804
Si	0.5088167850543807	5.393772665515888	3.784197258707713	14	0.10823453510961359	0.3122072621413251	0.5202240807310975
Si	-4.950957706776692	4.589011061203463	4.794811839058747	14	2.1140818364020735	-4.448540565999467	-2.0114646521959196
Si	-4.942642647233005	5.153658801022195	-4.212493348285078	14	2.6870971371191117	-0.010604266782418737	1.9821851619206052
Si	0.6913249565506757	-0.5403444877826022	-0.28489213158891447	14	-102.64906179835542	9.431202294095964	-52.46392213534356
Si	-3.128764661490934	0.03361896186015191	3.270007392569806	14	-0.4973235027550706	0.9716093876205504	-0.07139111009295568
Si	2.541480679703531	-4.159634358171309	-2.564199106045947	14	1.9087345964662108	-0.29444118148963394	0.18709624882079154
Si	3.965881365267262	3.3626325135799657	-1.8456433567943675	14	-0.07674003760099173	-0.9213039122581292	1.0983494532719298
H	6.574755452641427	7.472586417822095	8.432367741812222	1	-0.47392130213108274	-0.1597103776137663	0.19734441751636977
H	7.955210820843843	9.162583676738862	9.06898789163879	1	0.5137122422867586	0.22205402519565287	1.9888610368843698
H	16.984434802785533	17.03978931030209	15.420555018379522	1	-1.2847180792871193	0.4183550881731065	3.5148171866028943
H	16.632366941056446	18.5335202893177	17.097411662294164	1	0.43017188822450714	-0.2291842144694875	-0.5161943873628295
H	23.513482416428698	21.61008121448554	22.23159720913725	1	103.8068708903716	-9.868326451106153	50.916748967412644
H	27.410262271770993	28.10171272608158	28.05550955964155	1	-0.7839115001548442	1.2248923151452538	-0.3743876445353823
H	3.809492276227016	4.081910152600932	2.4336636661465447	1	-0.33355849205143084	-0.9660876818350004	0.29019525816394137
H	18.639154974571852	20.201074550604066	19.222711783949926	1	-1.3664866846732568	5.424560170575668	4.610641300229375
