72
config_type=amorph dft_energy=-6905.695856242057 dft_virial="48.996642506056666 -5.571802194830862 -12.771124037542341 -5.571802194830861 60.862191469044106 -1.1873095421942061 -12.771124037542338 -1.1873095421942061 61.2005243788431" pbc="T T T" Lattice="11.105996452100001 0.0 0.0 0.0 11.105996452100001 0.0 0.0 0.0 11.105996452100001" Properties=species:S:1:pos:R:3:Z:I:1:dft_force:R:3
Si	-0.4096513427335798	-3.199031190443726	-4.663345716656659	14	-0.562546016963927	-1.1347051396093557	0.7363913031857394
Si	0.21589946042917882	4.768331811718006	1.6348893045214465	14	-1.5258448208581628	-0.8117488574560875	-0.2496080466906158
Si	-1.1401260473775532	-5.543914631551829	-3.5892814679751317	14	0.373479273025774	0.9839290958725719	-0.8290323416391869
Si	4.895632074850911	4.290261977841263	0.9406323649074165	14	1.4783349083103385	-1.355156851969492	-1.6894241977576878
Si	1.047935170828671	2.766241614701841	0.4940080493851506	14	1.5403952200859448	2.257824878646124	-0.04007530440408408
Si	3.826061312333904	-3.07950512482729	0.6000825320988029	14	1.2209585240054273	-0.4473458433209682	-0.2111756785861064
Si	1.4308143985148185	0.37447532017084345	3.3411335256479906	14	0.1791430487339775	-1.160388424873379	1.0348968879654634
Si	4.460396958690274	2.6064563119465425	4.717074306292628	14	32.01296603864038	3.6779309363289414	10.369004989193483
Si	-0.552031327849147	2.4266935427732066	-2.994750823502734	14	-1.2265234243603558	-0.055484967029859576	-0.048125692271999726
Si	2.3217696412919917	-0.492677551010189	-3.9581615871334077	14	-0.08448832059378998	0.8320721594591979	0.014744517679453189
Si	4.20263899763313	-5.024393887116913	2.056755022153046	14	-0.49802670006013117	1.3625593212967306	1.0686313324289982
Si	1.777767948877713	-2.678591980102222	-4.354013729275253	14	0.9310211477050969	-0.9963701602957044	-0.8711994973317435
Si	-1.4580463018153678	-1.395038652143669	-1.0705247676122425	14	0.009240038299548168	-2.2561868274466574	-1.4670117604804065
Si	4.631095013559405	-0.7812635370190718	-4.271300710098593	14	0.5043649888953602	0.2627775052509463	-0.6645908731258161
Si	-5.392578770897287	-1.7601860458943936	-2.4096391746213617	14	0.22718620852520044	-1.478201467944223	-1.4711676951198938
Si	-1.4495579887270278	-1.5671171823717966	-3.321774663232335	14	0.5777636180222875	1.2526440546393363	-1.7899364180382369
Si	0.6769082625562046	5.296056555732086	-2.139669059865489	14	1.673419324250298	0.6782241590859014	0.4366068506197737
Si	1.3858539930777822	2.8937651083634335	-1.8055984653870303	14	0.07078870011644497	0.26310146452128497	-0.667175605304161
Si	-4.092797360922925	-4.796475517327272	-0.6090417394367119	14	-1.9613774636751788	-1.3365947571106833	-0.6235544895530607
Si	-1.264776419756988	0.5715123562257757	-4.448502436490075	14	1.380399449781642	-0.2451155543647211	0.6101158362657108
Si	-0.6281362791368075	-3.1152653228034066	4.069831270859628	14	-0.5541315605826784	2.2807555385543967	0.11015695055748832
Si	-0.8214205989905751	4.426136070235191	5.412150868444823	14	-0.1395346570560323	-0.6202714451697635	-0.43769622794392044
Si	-2.8140684778231644	-2.410393271780459	3.4843831102857568	14	0.7533042910922055	-0.013059929473692167	-1.1007747769204252
Si	-5.283606733709282	1.171799238659297	-5.071846478157801	14	0.31476088394529617	0.39773508061605095	1.20461837836429
Si	5.409175571995306	-0.5086313149136307	3.1610886641647715	14	1.8129570666327144	0.6811840155304558	-1.5380316029651326
Si	2.3227203145882913	-5.383618452959733	3.6342229932181995	14	0.9761715569006212	0.25640193538857514	0.4642994546914926
Si	-3.4224838390599777	-2.5098174838185945	-3.82966298698332	14	-2.205576161882735	0.7036611324602543	0.102129445526922
Si	3.6604986702242233	1.0584836462588756	2.9463742135570317	14	0.6978735743846011	-0.7188085423433748	-0.32649078063687575
Si	1.7523996317818262	0.3816708952721591	-1.8009983616565706	14	0.9874419970714903	1.01761031845598	-0.8325426717327852
Si	-3.096530617388359	-4.472729057150685	-2.7457566042459423	14	0.13521031501807523	-1.088002297021526	0.4728931171135555
Si	-4.38424647281716	-3.248041952786843	4.998762357905112	14	1.022546583560132	-0.5195118845574165	1.054388694508038
Si	4.020309632679714	4.875393617516249	-3.753559146295305	14	-1.0767218295399081	0.2427390817173082	0.8937653173950871
Si	-4.371624507849348	3.1986957893508725	-3.179746738204299	14	-0.9155135259666236	-2.0892531865464674	0.011684131016880931
Si	-2.7650221762914002	2.3971893525985575	-1.5971222529864353	14	0.387786702800802	1.553873211284693	-1.1560638257248899
Si	1.0061621863733874	0.8546952749607118	-5.45885935772342	14	-0.9780695468479544	-1.075064752161073	-0.24929462895208973
Si	-2.235087338983351	3.8949362599312476	1.8621946233069322	14	0.25153509012806674	0.24927714543591276	-0.06242952249957954
Si	4.718725767965055	-3.848160024074293	-1.5442599310737295	14	-0.25295125493840437	0.7477350198582327	0.5511210533633171
Si	-3.6172608048369073	-3.349424151999483	1.2860977117457295	14	-0.08534758399178347	-0.05480079590416816	1.2338760142443834
Si	1.5626159220097606	-2.609242806456374	0.8733733397938537	14	-0.7227914415948161	-0.6860919984760865	0.22243403456197078
Si	3.543943458658724	2.4601370298894154	0.9249795735078268	14	0.8968311033788317	-0.8371837739461844	-5.543433682389521
Si	4.91109939610975	-2.0345408080495555	4.716787771584164	14	-2.444565543601139	0.14460256275257619	1.507803374826684
Si	-2.3415205453824064	1.5848901084940923	1.559857192491059	14	0.44990177911972745	-1.2085010045082458	-0.6273083033204769
Si	-2.9974773456317245	0.8873269137362721	5.164366092201665	14	-0.6520683046640349	1.1314408642948957	-0.5624575709409139
Si	-4.709093537242149	-4.897746656575391	3.1975274385241113	14	-0.701625331267761	-0.40107314665319926	-0.2134994435744562
Si	-5.32444903566188	-1.7026036754895455	1.0952222825224225	14	-1.4089544025777385	-0.5040081194769236	0.8232404126844893
Si	1.0557604559288207	3.0522221339430606	-5.005177181455845	14	-0.714993536269339	1.223856416811766	0.5632538422585638
Si	1.343074805343938	-1.9949856910857562	3.2580118058018934	14	-0.7161019397728549	-0.19723668820345558	-1.2122576464915142
Si	0.20991554954078734	-4.708473822640122	-0.024517597767655965	14	-0.44097387300604524	1.3109726641532795	-0.39957033559357263
Si	3.0255011064793087	4.187884681346516	5.394244670365103	14	-1.3902226147678	1.2995839531376836	0.15519757355584238
Si	2.757417900520647	-3.2233288894816305	4.576988820044065	14	1.2237803120942898	0.37901563411164885	0.9032400976103648
Si	0.00219565549858017	1.0606060021808719	1.4150627637468052	14	-4.537363513052495	-3.7493117620006164	-1.9812076276778847
Si	-2.551007403460143	3.129968551506342	4.15342943795352	14	-0.6653246665841863	0.8754742170370216	1.2516806614758766
Si	-2.942051759737874	0.3852125975407338	-0.5276425596403355	14	-1.302160200668472	0.843410476810519	0.3439262171443959
Si	3.9461038067853624	0.9815612936323406	-0.9860570009961508	14	-0.1897642848115092	0.32668207087269474	0.22757881630758708
Si	-2.055177970656848	-3.5608678866520793	-0.5148873227150985	14	1.7811123845794885	-0.33058886540665977	0.47126766433015793
Si	-5.213344647155071	-0.28028647486022856	-0.685361036455898	14	0.39752476420086286	0.2922351731249469	0.17379437833647343
Si	-3.888301537650763	3.9198581159697596	0.05552776106120959	14	-0.21552367479300874	0.7006405979301443	0.38356803319150307
Si	-0.04810229183333553	-5.19003649240105	3.6792233802424636	14	0.45784238079047274	-2.3232404828645237	0.07714910045742729
Si	-4.767699880519881	4.245788015048829	4.701866865350768	14	0.22278627599083106	-1.2526520250658286	-2.3581365527117013
Si	-4.87888534280079	5.213683380046861	-4.227453125506057	14	-1.840399502156783	0.3008427195157386	3.8347459922416878
Si	0.6191026616226694	-0.681686062229898	-0.14547078392818666	14	0.3009807878714305	-0.5253362094391479	0.7298085022345643
Si	-2.954752577280496	-0.10356785931441334	3.0371946101437244	14	-1.5887124597042954	-0.330975045425746	0.9670567314301642
Si	2.714047873775552	-4.277626685677709	-2.9221042795102576	14	0.31467166659068707	-1.822860707215393	0.6696618641487442
Si	4.453162512601376	2.8831000199704824	-2.2784962367160295	14	0.5059464757777832	1.2176471974636085	-0.4247306580354777
H	25.329246200368335	24.76019160115741	24.389138038493456	1	-2.27032379293896	0.92610982232255	5.34254525329986
H	31.923628169939914	33.046129000947985	33.18151109769908	1	0.58176708611629	2.0413455240056164	1.9900203482732244
H	23.23245072920653	23.8367379915621	24.319873270420647	1	3.578414762249417	2.5142180722766105	2.5021454472458555
H	62.714321425205	62.1032728322094	61.730699969230805	1	0.7044257791824663	0.6860889131497023	-0.4088543397940953
H	59.75731433064474	60.34338442701992	59.34315617455089	1	0.1407258501508569	0.14270688680003102	0.12222880425664759
H	3.539363345721878	2.4685153936128796	4.386719778227042	1	-30.067755170997227	-4.684655966191009	-10.80007136495887
H	62.55527689241306	60.947395150063834	61.27279529311214	1	2.5569009916963887	0.7620571049335856	-2.4496051671391617
H	16.55669068123184	18.326548939436364	17.734885863247897	1	0.3036161708245823	-0.5111799606569446	-0.32513709368581784
