72
config_type=amorph dft_energy=-6903.845844314079 dft_virial="51.214043695557066 -11.397668507800738 24.942304588192055 -11.397668507800736 60.057235847217534 -6.757853993865964 24.942304588192055 -6.757853993865964 49.23812919260464" pbc="T T T" Lattice="11.105996452100001 0.0 0.0 0.0 11.105996452100001 0.0 0.0 0.0 11.105996452100001" Properties=species:S:1:pos:R:3:Z:I:1:dft_force:R:3
Si	-0.4384047675480667	-3.2801160705405077	-4.535959937351072	14	1.9673681390711237	2.0896020855384116	-2.2704474631048592
Si	-0.201838158321175	4.689642495055941	1.599869876508685	14	0.009914953446087036	-1.0070978401334902	-1.52014159503701
Si	-1.001866386945715	-5.252698745583088	-3.776891734241522	14	0.4748597555729368	-2.597292542054851	-0.30058560898372383
Si	5.11325407532981	4.4256862773788805	0.8299411194686263	14	-0.8348800635793318	-0.27232016264667586	-0.5087631216560055
Si	0.9017080685420964	2.711487941593343	0.5131036996848913	14	0.999469370648611	1.1524838186771156	0.06523896928290535
Si	3.912102798647258	-3.3755876584413405	0.6552560118731905	14	-1.514617832367204	0.7803199231331294	-0.3014682694401306
Si	1.6484019704047166	0.3578818508717609	3.3164326789388747	14	-0.7673553816668147	-1.5925572906000451	-1.3969062030475248
Si	4.824360453219205	2.5700952795623673	4.802452764617792	14	0.12705502605309754	-1.5455230325364482	-1.253648071266854
Si	-1.1554067878959975	2.030344962589952	-2.4031854800830463	14	-0.7300869529407362	-0.7385849702448897	-0.7232706956264917
Si	2.371112472929027	-0.3377189143129733	-3.9201613096729018	14	-0.35146906882211437	-0.5363035162927716	-1.3906830997306383
Si	4.293879200885712	-4.856226888839215	2.375431594949249	14	0.8462901147690849	-0.7711572751037177	-0.6225553580256511
Si	1.9753947133442518	-2.6998144287225405	-4.374873011811587	14	-0.9377240192747228	-0.01998751564829915	0.9331052856776089
Si	-1.1830029678801757	-1.5267102354801214	-1.5810307747269876	14	-5.014041040086775	0.9228913126827886	4.9449212444336395
Si	4.719453210732668	-0.4610787699046741	-4.051483054121113	14	-0.16362719945847987	-0.9839177830091633	-0.44505473137018425
Si	5.4626798205029425	-1.9184342787407211	-2.2903641045247434	14	-0.1772735980556978	-1.0448120985220823	-0.41099735607843885
Si	-1.8755207084498071	-1.6398647909319874	-3.797025795209534	14	0.2755504993709099	0.25362488453228316	-0.5532764109531971
Si	0.4826965919986867	-5.5238616443579165	-2.0331503372937525	14	1.4266045263794913	-0.812920767261011	0.4769017274181985
Si	0.913848033263887	3.0100426700176306	-1.9977377570065864	14	0.4461281678413461	-0.11727788385217046	0.48922143567022
Si	-4.153639341286465	-4.791520021710345	-0.8099225608637158	14	-0.12608931889484992	1.5850527483915968	0.6922413110702846
Si	-1.0766241808637358	0.14764200623457222	-4.976986830661479	14	-1.6499433329036222	1.4013503585934006	0.7815090593436979
Si	-0.22543395838330668	-3.055057494837282	4.054188474856845	14	-1.6550189519161265	0.007142016358307334	0.45052141550188307
Si	-0.8195614551844935	4.560880682789938	5.369504952668405	14	3.029909808549351	0.28319105305079395	0.7380458094592547
Si	-2.7429645567378844	-2.610261226331032	3.579755854818166	14	1.8689426278684071	1.3540983279091874	-1.3548138665197844
Si	-5.008739985117678	1.2175037458586242	-4.778737019793978	14	-0.27390961995559143	0.41427525825109557	-0.37136762422633635
Si	5.459899989590982	-0.3117164448196716	2.879044110066175	14	0.40894124315391633	-1.618441636300104	0.07239152717302529
Si	2.623890505177049	5.545248461725725	3.7776302830055863	14	0.6805039581732766	-0.3977263388579625	1.129154894554752
Si	-3.8452746861960367	-2.8600750681259886	-3.7407772549785827	14	8.560768729039092	7.570329080274841	-6.147011969157692
Si	3.7556204192368146	1.1688483754019743	2.917147673293685	14	1.195116601543151	2.158691799259303	-0.44625466622309734
Si	2.1581827559511395	0.5235988663321258	-1.8589339027485956	14	-0.6742332894079676	1.2245382739426696	0.5143521904009434
Si	-3.2512771295533396	-4.976236065301317	-2.863631208189951	14	-7.116012970430953	-4.998273222489904	-0.1648016803687235
Si	-4.289799968388856	-3.103494077163826	5.146680903451341	14	-2.489806455703933	-0.19428300241166943	-0.5365616552669145
Si	3.919261723960282	4.807501550604917	-3.7321856561232383	14	-0.8603635739599794	-0.44657631149864785	0.7302077948907832
Si	-4.869280877069014	2.988899073972122	-3.3549660442290814	14	0.9948362388617041	-0.017948629129421724	2.3310859536384236
Si	-3.1403782019808952	2.912995141220245	-1.5151988701575194	14	-0.2986752777308537	-0.41199134539520804	-0.605465478073159
Si	0.9782883564779067	0.748506400483603	5.409957434145533	14	0.6088313120477646	0.587826924245347	2.7931984261445986
Si	-2.208652846228063	3.4531397210667096	2.090982592618773	14	-0.3895489383872315	-0.21392984660504896	-1.4085363408526825
Si	4.520774708402115	-4.3385797260057695	-1.3574615131479886	14	0.18279607517284385	1.0222334229321381	-0.8054928439911032
Si	-3.3863626961991677	-3.1725544949019193	1.27330138263362	14	-2.3342679535826387	0.705548323765243	1.5126594214448477
Si	1.4887610456032956	-2.6633767649628455	0.6561567081854558	14	1.352148144523855	-0.4919853738893792	0.5624747973465589
Si	3.443588564117903	2.6998510785108323	0.9117190137440193	14	-0.6199603414260257	-0.4926993698367843	1.6973131202114984
Si	4.54126971425482	-1.3962369891608506	4.903550650321258	14	2.3344705566818664	-0.5859543882406831	-0.8030621210214351
Si	-2.342185794569887	0.9078319149857843	1.3002922858111585	14	1.2110356001328477	1.6490223629779448	1.023552399961374
Si	-3.018977444163345	1.1830029678801757	5.090628939357592	14	1.2954167056347876	-0.4248486717696725	-0.41817048281111996
Si	-4.679110678620415	-4.796182319020937	3.350734659580831	14	0.0722460026119049	0.7112914017188577	-0.0273902420860695
Si	5.478443671867053	-1.711608417412908	0.9398005257731542	14	1.599609061161615	0.35041491564085364	0.31276673465898935
Si	0.9423726745514606	2.971825825626309	-4.501231486445355	14	-0.0469098165661017	0.01181988537778475	-1.7589121756926698
Si	1.6402401736120684	-2.0158194298302505	3.0213052610197053	14	-0.1670223440337354	-0.9575225586819911	0.3667854003247684
Si	0.059041698338654025	-4.504003543159799	0.1013411070257673	14	-0.9011485034324244	-0.4981678537422073	-0.2720602238988089
Si	3.0348368070969434	3.738253972584666	5.471726765212823	14	-1.462389170225312	1.1164356365359793	0.5179828482235245
Si	3.081266535864593	-3.1505557371296	4.761933647161951	14	-0.8141204450033921	-0.518408623264541	-1.3901472813819196
Si	0.06257673700935745	0.720561492210829	1.4449701015926653	14	0.26542728639389085	-0.47787051990283025	-0.9543762971017259
Si	-2.457511572328139	3.4610782873306705	4.446190168028748	14	-2.0468656871279745	-1.631499251779008	-0.6978267802677743
Si	-2.8362449315387175	0.3970960137444807	-0.866229962875863	14	0.3577505362297681	0.5572369415883532	-1.0090961031883094
Si	4.137829955336901	1.1540274231366467	-0.8452474037789105	14	-0.6712158402042416	1.7267306788425043	-0.0017614642548334492
Si	-2.0004842699291907	-3.3378916852836222	-0.4579357729087297	14	0.73793165238304	-1.3579758118425027	-0.3412059877156792
Si	-5.154851585041151	-0.15029744998626932	-0.9520837578491768	14	0.8628531752414788	-0.799361786244678	1.4158660478993608
Si	-3.7166850168750423	4.447020896563364	0.33023791510283873	14	0.8883755093124606	-2.2958772373843157	1.1078694849408421
Si	0.3521700368964458	-5.305283417584491	3.474150045154792	14	-0.6710620881060969	0.006556832787441631	1.9043207799631123
Si	-4.659548576469685	4.3317317685934045	4.571924485661907	14	-0.1851650916148283	-0.6666361874079939	-4.420573110769024
Si	-4.992734023030912	5.085675664939956	-4.362577563139467	14	-6.89959300832334	12.375128170086795	13.952309993761823
Si	0.7591348390882626	-0.7649243950387424	-0.5514327146403789	14	-0.028851915460573686	0.7081741936287103	1.9474639272351975
Si	-3.2928868558607776	-0.15139028003715596	3.0859721465613474	14	-0.3159942431673712	-0.6161628188681669	1.2383096282584465
Si	2.509673105864717	-4.56165699194194	-2.9894177240064357	14	0.7143780136556955	0.09293902956005268	0.7457508978826745
Si	4.707014494706316	3.4486884376887077	-1.56173965888969	14	-0.7727559883917857	0.4015426304846582	-0.8100668403556467
H	7.741134965032098	9.25974892909864	8.917806404334932	1	-1.0441505531232085	-0.558983750542862	-0.013361520127745536
H	6.461130002939992	7.644070777240035	7.959576588049163	1	-9.491091307428704	-6.798711063097754	6.543786484826135
H	36.36832124964692	37.41364095831112	35.39814804477656	1	-0.3353207276378603	-0.2982831841695312	0.09318868388663906
H	31.151845822091996	28.95179012771751	30.266209241015737	1	6.041251094476593	4.993039737610743	-0.582427345962504
H	44.150792733473736	43.05330815947402	41.918699571133864	1	4.4040979820985795	0.5846572656066685	-4.496957050283175
H	38.73779780929855	40.931118827424484	39.80943095535671	1	0.4132987524505033	-0.2744696066943197	-0.5539127595199338
H	12.943596846263759	12.948967706147993	14.525168483017962	1	-0.12658297111631836	2.0793325766686763	0.008676452013371708
H	28.78710263812825	26.64540340211132	28.204838566737195	1	8.304968689405966	-10.793180545590342	-10.003761223618676
