72
config_type=amorph dft_energy=-6848.377127749971 dft_virial="41.060283172110225 -28.295447850363406 -23.117319264332107 -28.295447850363406 15.202341564090435 14.947019702792314 -23.117319264332107 14.947019702792314 -86.96790847940738" pbc="T T T" Lattice="11.105996452100001 0.0 0.0 0.0 11.105996452100001 0.0 0.0 0.0 11.105996452100001" Properties=species:S:1:pos:R:3:Z:I:1:dft_force:R:3
Si	-0.2839847716787779	-2.9890390095274193	-4.79339915631004	14	0.4653713484994624	-0.8552267626408555	0.08140607953599648
Si	-0.36950538675852873	4.603795363680499	1.5346887833313099	14	0.09695201074373981	-0.04219980873012243	-1.1200956049592101
Si	-0.9736649301548975	-5.261339210822822	-4.113065804448008	14	-0.5438695079183714	0.9664198686423635	0.4106487141970267
Si	4.735712389538542	3.8386888302999416	0.6799257617922402	14	0.39020765557025344	2.6556836294280743	0.14418861479603234
Si	0.9811648095590005	2.644589861364473	0.5193519332888428	14	1.8744105975527658	3.275637028869736	-0.9231713060521527
Si	4.196994930236173	-3.2129414509999807	0.6137018155480131	14	-2.240725999825011	-0.15857729149917704	2.6831520331158765
Si	1.700956656215699	0.2747223706377265	3.456669206739187	14	1.004366040730833	-0.8289714064430993	1.3411152744845674
Si	4.603673197719525	2.595671278791908	4.9419807298444605	14	-0.15150880875302594	0.21649606682508876	-0.5672136015621239
Si	-1.3840514898536063	2.407730053831246	-2.563081842802866	14	-1.0886921245789218	-0.5951239782544593	0.0973998972905096
Si	2.4875410761349723	-0.4348530698826851	-3.7791318137259102	14	-0.7048952630139254	-1.5996586834942939	-1.8075921982716936
Si	4.344015000669427	-5.259603343577359	2.052398139744887	14	-0.19534281202463447	0.24843665110675636	-1.3047505892785212
Si	2.125252365871018	-2.924163331252477	-4.206647151752693	14	-0.8694843129726726	1.2643338420879215	-0.5539937493375184
Si	-1.2766831585532843	-1.4424101694104563	-0.8716807859345537	14	-0.9122515646469517	2.520713969867965	-1.0898403802148997
Si	4.6716130204156014	-0.4142136860761025	-4.394011975497491	14	-0.16550359212112392	-0.13212370308123747	-1.5009992017074438
Si	-5.4005739777431545	-1.570666658837888	-2.796244464117189	14	0.03170558525540604	-2.1827046373968257	1.053140165764574
Si	-1.481745387644504	-1.459792164457638	-3.408405877957296	14	1.5357484614408412	0.7756677651668535	0.6523102456746609
Si	0.6409537096421761	5.302329222528233	-2.5041378772329903	14	0.9449398263557184	0.22596313372440605	1.8160007411107058
Si	0.7334722130863952	2.89326755972238	-1.9420511801961118	14	1.380800799322117	-0.5256254587876646	-0.030626749463071902
Si	-4.0609264829043346	-4.5431966046392604	-0.7770854611537918	14	-2.619857590786599	-2.4505251086227102	-0.8072851615097785
Si	-1.2287518990653112	0.7226494195438237	-4.3378189652488	14	-0.1616171093191881	-0.5157431583791435	0.04764669535085614
Si	-0.4307838327826357	-3.1060406821502924	3.87133934926947	14	-2.1210757570939407	-1.0863123094945926	1.2901911911821187
Si	-0.8523607945064805	4.3850649847556795	5.19633581358868	14	0.7420171387367553	-0.03641662153351337	-0.2735393807894901
Si	-2.7477634578048367	-2.5435141876539107	3.3726179149900486	14	0.6196163275341899	0.6862794320539253	0.16857734853136097
Si	-5.153797625977847	1.4396925320786274	-4.769239171628142	14	1.8029204999049846	0.04945778193836845	0.4086856752850936
Si	-5.408003889369609	-0.5845541278594767	2.8045672978583926	14	-1.7851035113679545	0.6721044142028849	0.5705316129777749
Si	2.7981424789108527	5.511852730394261	3.763282446189119	14	-1.185115258958307	0.11887556869811046	1.1595283901437892
Si	-3.4521635039785696	-2.571563492293335	-3.800015529454439	14	-23.742222874814097	-66.87088633929888	33.45758038645591
Si	3.99223256304916	1.1824732118494106	3.1979550193875173	14	-0.21645775735581857	-0.8636491894485966	-0.5758031502156746
Si	2.004102603573285	0.4946932893662452	-1.8410377000656815	14	-0.04248545853119089	1.7751304509416321	1.2974833600911226
Si	-3.1674090867456615	-4.94666190734902	-3.096889341073762	14	-0.16143661772571372	0.6632983784813777	-0.06034795563238766
Si	-4.3665246342785435	-3.131898773689717	5.086517499471025	14	-0.06529476226835255	-0.9320333918696391	-1.3555337760094257
Si	3.9083667414407715	5.150115988153976	-3.839557319222496	14	-0.33173532126891375	-0.3294277542440809	1.6559800310847979
Si	-4.974514635851242	3.085877745591505	-3.001508822343837	14	0.39255096095903635	0.13823573464829347	-0.0993670499709549
Si	-3.344596375341755	3.098212065251207	-1.3131441449055288	14	0.34228430928694936	0.17833520744238698	-0.9153304632678291
Si	0.9724021783582937	0.5875049911167997	-5.3235016941645155	14	-0.25506521773263013	1.2330170079569218	-0.2687190725352765
Si	-2.545241170102212	3.4555941462826234	1.9877468025982772	14	1.5190591596972278	-0.566175389233848	-0.29642324658093605
Si	4.751394056528907	-3.5211406267432728	-1.4262576081705218	14	0.943925268196388	-0.645262845992135	-2.967419350853684
Si	-3.4397703225376715	-3.4214709721835463	1.2202435951833575	14	-1.6294264266699046	1.0481951589023333	2.0362840460723723
Si	1.6508286306295004	-3.0319325890247195	0.780549421447202	14	0.5221454677368441	0.9063267095472026	0.1356129501112104
Si	3.345953528108202	2.2706265276300712	1.2324912880707333	14	-1.686649718006716	-1.3933436795159277	0.7420212525052675
Si	4.873926515384927	-1.7734499374571364	4.723630175998303	14	-0.3371858074370957	-0.49678974129060793	-0.26113842560935185
Si	-2.1665655620731847	1.0163885879064811	1.425748953533016	14	-0.46513146437309255	0.7362923156309137	-0.21347578940551085
Si	-2.8233586438553457	1.0630037868148805	5.051274840929576	14	-1.058207557240054	-0.14584003574316343	2.055149531358959
Si	-4.85453322438027	-4.774019192501126	3.247807616261704	14	0.8018213055939316	-0.12147829861369636	0.2879859073623381
Si	-5.193450475710424	-1.6405311507191134	0.7604475678689009	14	0.24033715512722584	-0.9989708333270342	1.3345805532028792
Si	0.876405276825277	3.0479452147093573	-4.997839449599942	14	-1.352238904541656	-1.7380345433825355	0.8591330429537566
Si	1.3685452976071844	-2.118113431351608	3.1702699914317223	14	2.391992096235815	0.3290261475930738	-1.1902145321397564
Si	0.0015526183040035803	-4.686875991339723	-0.2919910845210968	14	0.5737172124694384	-1.0662612875448858	0.5528454937015403
Si	2.8692974875798125	3.865909627604039	-5.343221501464865	14	1.0531836174444844	0.9680414647677811	-1.905107538191078
Si	2.9540317981107544	-3.405361724329775	4.7046100464744365	14	0.1583111820985417	1.6745570383544637	-0.4590567138331787
Si	0.2644626511152765	0.7133048341290269	1.403997859481578	14	-11.478160283904932	-6.938553224350075	-94.24347418779811
Si	-2.6580792046551935	3.1790037470416537	4.295029782118149	14	0.004269834605169914	0.9390753922309927	-0.037139616349539
Si	-2.8491489888164123	0.8466278791379064	-0.8596907521648665	14	-0.21334929102375955	-1.518815933133942	0.20370764607320424
Si	4.004179283432683	1.360114735700395	-0.7827017635596188	14	-0.16758310210405972	-0.813213616156976	-0.9951522277055503
Si	-2.0122277505776416	-3.527881966589697	-0.5227492576035402	14	29.371518876480497	-15.299377119952002	101.35621465537758
Si	-5.243552957504783	-0.22914113999901764	-1.0023883687789639	14	1.0500203865691065	2.03588938140573	0.4641346468404712
Si	-4.171340078431822	4.314515252893359	0.6139405944717332	14	1.0198091277257704	0.7571059274185764	-1.090659020148835
Si	0.3070452627119183	-5.429284089171477	3.5280552201343496	14	0.23619330468274322	0.01137174172048294	0.13383580211392407
Si	-4.742417079596676	4.241922017683852	4.594535183838738	14	-5.7946034184515955	-7.681640457121077	-7.500235607036965
Si	-4.997688408048194	5.25628042943889	-4.330071422123816	14	-5.135450947298957	6.434841810427097	8.58335151839755
Si	0.9131117056991126	-1.007583753919256	-0.4438822449982424	14	0.542734107808994	0.17128060866496467	1.5372520438320638
Si	-3.2302212708798033	-0.14027539878789427	3.192185454230651	14	1.1626911067981036	-0.9924847059358967	-0.48247305553642733
Si	2.7940921220047716	-4.43145251073681	-2.5555108850214694	14	-0.46570584930161363	-0.3170108582109578	-0.12396275768455545
Si	4.34376844754819	3.6065568454563737	-1.5931718500484233	14	-0.9465526807230474	-0.04161796759617292	-1.4733567341894678
H	11.039016187497387	13.096326509473037	12.609050915137148	1	-2.2343177769250744	5.48220332341126	1.3872671292022896
H	44.78159111996011	45.135642512655544	46.55887595799216	1	11.621824393215654	-0.5423229880683023	93.68772797307437
H	7.904108799368796	9.2069987777501	6.984938772605062	1	23.482734327488686	66.0983761485757	-33.06519886133747
H	31.125315817767223	29.892112635323908	32.1194924127695	1	-27.190971396447274	14.949709881738245	-101.81049039886794
H	18.12282054051904	16.230794100142127	16.197496101579436	1	6.912076495984255	8.92962772580456	1.4008111978077655
H	28.965939167197483	26.773983076035506	28.245430983769623	1	5.658312724977994	-7.296736734715757	-3.040848576133921
H	44.23846013766767	43.0045184064603	42.018900092324	1	0.5190367442942531	-0.019482036342358035	-0.035326987098834604
H	61.75002551365711	63.73743580456288	62.375213150735874	1	-1.6943296095979985	-0.49738829460913836	-0.6481180584501595
