72
config_type=amorph dft_energy=-6895.373498480943 dft_virial="51.0970735817604 -17.639847806434048 1.7495207343137085 -17.639847806434048 27.680411445561532 17.67506461488896 1.7495207343137085 17.67506461488896 57.69519419442016" pbc="T T T" Lattice="11.105996452100001 0.0 0.0 0.0 11.105996452100001 0.0 0.0 0.0 11.105996452100001" Properties=species:S:1:pos:R:3:Z:I:1:dft_force:R:3
Si	-0.1583703988073008	-3.191472449258426	-4.656668791589656	14	0.03967035531616076	-1.5977552942257884	0.2244749779651043
Si	-0.22782063702086297	4.76679585240868	1.2591901035415818	14	-0.9595827853750258	0.13811566402984257	1.5581546158638035
Si	-1.051240315372816	-5.438092254957638	-3.8981547777030663	14	2.4751791804270784	0.2768224251727872	-0.14375101267054313
Si	4.473057794645668	4.327749158265681	0.682367970412057	14	1.4648605166590385	0.3805549548668215	-0.7534169055052279
Si	1.1339033575654416	2.94885085076585	0.9203117231990091	14	0.9312008679669751	1.3562925091894018	0.0153906364464064
Si	3.856882673687772	-3.113182948468638	0.29444662033665603	14	-0.5848508698372756	-0.42190886994661525	1.5772551001766517
Si	1.5668584126544627	-0.098065948672043	3.3146790420990886	14	0.6480177853426737	0.6298210445498575	0.20627592317750015
Si	4.841241567826397	2.780452847761948	4.679611559060405	14	-1.0926878793569637	-0.48333077627122867	-0.8841329284236842
Si	-0.9732473446882987	1.9104779428824368	-2.8012243929263105	14	-1.2995083626412711	0.34912884875971556	0.1916951849069404
Si	2.3157768456064387	-0.31788804704810353	-3.9730258527848985	14	0.1642632909146845	-1.0511650426576362	0.08089545801941506
Si	4.34177714238433	-4.883948566583301	2.099444251315628	14	-1.2095428163839697	0.1543977026907443	-0.9587361203931012
Si	2.1764387929191016	-2.748083310502657	-4.400000328784463	14	-0.5832822384814532	0.49123538246749204	-0.6329688487933149
Si	-1.5481636888266428	-1.4044465417382428	-1.3786328741846268	14	0.10509572973477682	1.3319449131391956	0.901768396925112
Si	4.64518852305712	-0.6494897785152601	-4.517020881601305	14	0.07997294543054592	1.6632500884880483	1.60580388231998
Si	-5.436089843797324	-1.8478223532982694	-2.5691634864600355	14	-0.00042423237782443306	2.344203990092351	-0.5884607017067635
Si	-1.4663469235636675	-1.6007850106163377	-3.70112329464636	14	1.0396714305449783	0.35489378110855163	0.6942917675631027
Si	0.8416135217397833	5.4564360292975715	-2.033866674064913	14	-1.2017443968374286	0.05791774688378369	-0.6369674317872092
Si	1.0355208879945137	2.994178864685451	-2.187503697184329	14	0.8931685638502807	-0.6823800937253887	-0.30306955383351886
Si	-3.888154938497595	-4.376968713342098	-0.8330574620730854	14	-2.1552375192616835	-2.813409113734686	0.5056016905543513
Si	-1.3579590617890425	0.364006807915094	-4.883506547924508	14	-0.8005704628556797	1.0345649582686323	1.4355969672367093
Si	-0.3998847294536031	-3.61888561211785	4.184157508937191	14	0.020036880870445993	1.9067669295647016	-0.6282665542732961
Si	-0.8622462419484946	4.070671994791052	5.325389713561372	14	2.1983716676651484	0.9095920133037906	1.2039768875869132
Si	-2.593201305180961	-3.015012603429945	3.522609950073885	14	-1.0130481491759091	1.6364905385370114	-0.24931056980507466
Si	-5.346174585921478	1.6406366576854083	-4.691837039954876	14	-0.6973907208054771	-1.8017897277851833	0.8979374499980913
Si	-5.388903796671287	-0.7292374966392094	2.9187213929909475	14	-1.9227219236288804	1.2200599226960356	-1.2357688619810763
Si	2.624894487256319	5.469792100630867	3.6638238055619823	14	-0.8248586663729904	1.0746207222722832	-1.9214330285318904
Si	-3.61518509410001	-2.6139617443488716	-3.8578477847794597	14	-23.353542970025078	-55.92900668884936	24.34563532528912
Si	3.9781046249624437	1.2027494295720094	3.026693890498264	14	0.3239865240550515	-1.9997272992989112	1.9549831247439702
Si	2.059299405940222	0.5640035920245109	-1.7084787476127063	14	0.011374312825803087	0.813614965697451	-1.1190291104724128
Si	-3.0250901846105807	-4.867325111093799	-3.004730671914591	14	-0.9345520466412562	-0.2645939911596309	0.13729188188526711
Si	-4.501328108614488	-3.289245199624134	5.127328704633556	14	-0.7960589443504159	1.461157353666429	-8.012361734451723
Si	4.0872632428908435	5.364135203383814	-3.706312016188781	14	-0.48282349719156353	-2.2022324394138826	-0.7945982994180397
Si	-4.998139311504149	3.059919700084011	-2.8708489952841707	14	0.6525110490001644	0.9577894394142225	0.19674534997677526
Si	-3.0178313053294885	2.911504716496373	-1.5068982484092202	14	0.03990946811093453	0.611683439179405	-0.7300864387196722
Si	0.7987699192265171	0.6380383855734998	-5.548820150184721	14	1.5471806241363475	0.5993863566542008	-0.6981664232805659
Si	-2.3090932569415648	3.566266511527445	1.9410860691044243	14	-0.19573362003329697	0.12847864706886353	-0.10419789975698111
Si	4.599858287938229	-3.6718390032014625	-1.7790584656654471	14	0.8371734895249038	-0.8705109553270078	0.9572623628235922
Si	-4.076622587690086	-3.3526371167730753	1.466853357001883	14	0.8685831405579607	0.4247982781053976	0.12459807780916403
Si	1.5542542172809746	-2.606143122846593	0.8028191655329528	14	0.24460287596388353	-0.8202805562399348	-0.5089937498032227
Si	3.3324975028068375	2.386793029319747	1.2878957725713245	14	0.3682321612884158	0.37608508826774406	-1.0394677990036225
Si	4.864922884061209	-1.8757783675674955	4.702127856267392	14	-0.36046125256880024	-0.30729105165867	-0.6023721812624888
Si	-1.990558840899949	1.2479708259256703	1.7447120610376825	14	-1.476523307501762	-1.3298975419727614	-0.8987738305587356
Si	-3.392711994370833	1.1966089241336435	5.314505837038315	14	1.0617297144181248	-1.9050283481472174	-0.5108706566869309
Si	-4.735716831937123	-4.985046452286769	3.215991157625728	14	0.2901741751003161	0.37169055505454696	0.2595962766383271
Si	5.431752952182779	-1.5093970976109428	0.7101618371330825	14	0.8434521287167054	-0.16904246148377575	1.3785893916362577
Si	1.1764237755819518	2.9499636716103503	-4.820760999769079	14	-0.45787477671750665	0.1618654780931144	-0.24111440026550662
Si	1.6180703834943864	-2.596644164081112	3.2166597386121443	14	-2.6184118582650795	2.392992513315885	-1.5977308687252472
Si	0.059716942922941704	-4.443549162072438	-0.06548872927909809	14	0.5480565529322325	0.2369155281671728	-0.2346077040318079
Si	3.1327461612190124	4.191429715414026	5.318066419500858	14	0.33497362841964035	-1.634903909443948	3.463812113482861
Si	3.138185878281251	-3.4556008098804947	4.503048427464919	14	0.8295236798658673	-0.09764672340124382	2.101053274413287
Si	0.29200885411542016	0.9770755816653374	1.4518902479819686	14	-0.13769220298361418	-1.0459379855417752	1.6692543907421904
Si	-2.6126379095717813	3.0545766051909062	4.334752599628376	14	0.045250682303010145	1.190327917884375	-1.2475604652003394
Si	-2.8833465730917185	0.7293041326179222	-0.7568725476109699	14	2.723099810696081	-0.5702999563884295	1.3929482435176888
Si	4.020404033649557	1.1567828208564128	-0.5958222718597773	14	0.5827847296020047	0.656462323656168	-0.8657364127474929
Si	-2.0331014709093633	-3.397518669635302	-0.1331253582720323	14	1.072675166876527	1.129707939309116	0.8564403243519654
Si	-4.952275988555557	0.03756159060064741	-0.8995623900275507	14	-2.6864862424950444	-1.5752532375743842	-0.6482640972323438
Si	-4.09834702735004	4.360201990498362	0.44914426611724745	14	0.4428680062953983	-0.01309643916923827	-0.678616509757756
Si	0.19694374568473455	5.424853907186735	3.577625724698653	14	0.2314303320771689	-1.298131021521268	-0.3422758246393929
Si	-4.511544514750775	4.282290093587946	4.803847677772176	14	0.031103175278895345	0.819972023601517	-0.8568244474867955
Si	-4.7787203607993	5.352696027038151	-4.229149011164292	14	-0.3822349150830062	-1.9525883972487847	0.4938874776052248
Si	0.5342028717445909	-0.5428666595768741	-0.32364317440958174	14	1.1891015006466648	0.5407702975654648	-4.975751368327535
Si	-3.2262830845378887	-0.3961653312417948	3.4257612186129927	14	1.7837464819799802	0.5935016107974459	-0.03586769054766175
Si	2.6601926757800283	-4.304977423140295	-2.7711948891194775	14	-1.0261589865349403	0.21602709721469376	-0.1315531748106966
Si	4.103352499951002	3.5850478621275914	-1.673562605366949	14	-0.1171884093870293	-0.12293765799341243	-0.39022205376004626
H	55.63220740484336	54.50589832765187	56.35920926439676	1	-2.062056805801537	-2.3790100712533233	4.897914240086436
H	7.806856920236691	9.20471760607884	6.996134727628424	1	25.224062199675796	58.772907826128346	-21.632879328406524
H	40.36323368963997	40.62412687349554	39.60359908071136	1	2.4729387192511014	-3.743422645264817	2.8541490488640284
H	52.27746236994368	52.14046768250773	53.5489901249439	1	0.06766069338395282	1.1643528121665152	-0.08149452555900956
H	61.71122005145382	63.49391462035768	62.23072635809335	1	-3.6099028319947384	-0.5925276761021737	0.7947039718466978
H	3.95497749795059	3.9136320943587126	2.423000798952883	1	0.05622750224631834	-0.04051162097691321	-0.13934850903085355
H	7.49704848560749	6.483969484643735	5.855162403321222	1	0.14655377458003657	-0.624096992775612	-0.4744735755538506
H	35.005843157901516	37.224847903422585	35.91180926548334	1	0.11267843354495756	-0.5914470405361155	-0.44846170302991245
