72
config_type=amorph dft_energy=-6863.918652488772 dft_virial="71.10273627046914 -30.73924280850254 18.466185061965398 -30.739242808502535 -1.3596203549914585 15.984657809053141 18.4661850619654 15.984657809053141 -21.65833719977143" pbc="T T T" Lattice="11.105996452100001 0.0 0.0 0.0 11.105996452100001 0.0 0.0 0.0 11.105996452100001" Properties=species:S:1:pos:R:3:Z:I:1:dft_force:R:3
Si	-0.21068297389562743	-2.951781723229559	-4.681209711949862	14	1.22277860946156	-1.0535258315625962	-0.020752933702107235
Si	0.04102221909512177	4.805930052106945	1.523304026368262	14	0.5429395391240738	-1.190100889284606	0.6178162966995542
Si	-0.9909825104226571	-5.018168976105511	-3.707264910684371	14	0.6979399089018609	-0.5907302163728583	-0.4799186624008603
Si	5.0960631034216055	4.121012144909486	0.30885998253219143	14	-0.42156562738637543	0.5674246893089079	0.9832644651473137
Si	1.3531268427327339	2.7581375690907435	0.3230490035993944	14	0.3736255689184904	0.4954815629037166	2.509499836903607
Si	3.8173975245016205	-3.5255508179344015	0.4899310380875847	14	-0.9149275710641618	0.4311285965141342	1.0073989165664796
Si	1.5174189588482943	0.053233262194205724	3.3494174884016115	14	-0.9861983534281346	0.8360656002424519	0.6826940256849788
Si	4.502535330428832	2.8704891609991225	4.489681250135171	14	1.3444546260743757	1.6740014224947797	11.676909296257698
Si	-1.4107569689223258	2.3477798849828098	-2.995660404612161	14	0.4568982709169144	0.003989841235805789	1.2015626196912943
Si	2.3004161419135394	-0.49651689398368	-4.13299107268272	14	0.21644387338708976	-0.14393201848508155	1.33171454210251
Si	4.158689237873235	-5.386781440749291	1.9580404832882004	14	0.33865493701702837	-0.005137325540187877	0.539817188823286
Si	2.292286552510602	-2.8939594633013455	-4.471555153325699	14	-1.437835885749494	0.13798196655319486	-0.2735290963682095
Si	-1.4576442647438017	-1.5551049366092053	-1.0907165797618055	14	-4.122587403485035	0.7332560973583507	-4.463531652679122
Si	4.606835074909438	-0.656665362822962	-4.138027642073748	14	0.9623534084680173	0.7360228637933621	-2.325017373751278
Si	-5.345175046240788	-1.6626976090378598	-2.388957588028261	14	-0.04748960081579509	-2.4781909731990996	-1.5042578205901995
Si	-1.4830547846262065	-1.6272272775691428	-3.3423240884676555	14	0.5044380082864524	-0.07024851088868186	-0.20908254174497382
Si	0.5481575562866545	5.392293346788469	-2.0953661294184167	14	0.5817915116168314	-0.6870443358866692	-0.6361775882328597
Si	0.7896063615538894	2.9016692460383937	-1.8823842142572045	14	-0.6075419027297105	-0.10006484795484308	-2.350073566427717
Si	-3.57372418814503	-4.544145056736269	-0.9075698134695147	14	-1.0160823105642156	-0.4983815125943115	2.4278191633194184
Si	-1.2724173453160328	0.3771096625292816	-4.38977614845066	14	-0.12195858108750002	2.248377095036708	-0.9386696718114733
Si	-0.5052617555900635	-3.0051604739772877	4.069700220101493	14	0.9044300051525292	0.38619698838135447	-0.46374383883180864
Si	-0.5977524940431523	4.507445291460305	5.544866415447773	14	-0.1743669634912704	0.37711327328527133	-0.04805035888611939
Si	-2.5323215644294845	-2.3352023440008067	3.205370493218584	14	-0.4392093234248276	1.1344896809835272	0.8604499630987363
Si	-5.242935464102047	1.489932728228992	-5.150626863990772	14	0.4183268060145849	-1.3640320504241115	0.1459037991551031
Si	5.5432993593483815	-0.3761212288450447	3.176964686093048	14	-0.1289607293163913	0.7218002804938991	-0.3923861531080149
Si	2.7416385007615034	5.550768141962419	4.079142538285068	14	-1.174123783714674	1.1989994847976386	-1.9805532813739066
Si	-3.5459836302069747	-2.49998534515955	-3.860666486679002	14	-31.87120377593497	-114.48055365977636	44.87837545401036
Si	3.579821380197233	1.0633636210999284	3.025473341488178	14	0.6196001295706729	-0.8694118078026445	-0.982819663926928
Si	2.1689322499171273	0.5603963643768688	-1.8939200127720008	14	-1.947288320741831	-0.33271259840110207	-0.8517598842271678
Si	-3.5061608587286797	-4.7599378995995085	-3.0642454857021044	14	-17.205563751045947	-2.9267118116513755	58.57053638349002
Si	-3.9754014254260026	-3.1840758556213276	4.8799604032573525	14	-0.9259288165080115	-0.150694025477071	0.024563311786566688
Si	3.7756678534325006	4.829513635572979	-3.5421553932299363	14	0.4782546430376604	0.5298708678922932	-0.2623417028991812
Si	-4.743890845325868	2.8061054783670083	-3.287019557935133	14	-0.256122199129743	-0.7227253641880883	1.3154319892205444
Si	-3.339629773728376	2.3335775367198646	-1.4049218783863928	14	0.9343198758308469	0.3663038322983047	-0.9587260930823525
Si	0.8914872200072288	0.8176478919957967	-5.414841851385167	14	-0.4804038299747721	-0.9460893675443567	-0.9190588230925758
Si	-2.1126437280989485	3.6838257051722145	1.8179427804435397	14	-0.2638817949859499	-0.6728695751461609	-0.2161895910709271
Si	4.807934684466549	-3.9143084495426455	-1.5275498488119	14	0.5092380048086369	0.5488155432227403	-0.9634849519194144
Si	-3.899694068811327	-3.485741373651849	1.7611011800020466	14	-0.05624215754664318	0.9061055944896699	-1.3322819850466667
Si	1.5048280906705487	-2.8375343377268063	0.23470857602045536	14	0.9777882679259303	1.3215486487771766	1.6124573886674591
Si	3.725229970545288	2.352708726208252	1.0097116628394784	14	-0.9938684748192003	-1.0127283036740826	-0.9951401435105455
Si	4.971026242365637	-1.996623825562441	4.662619384488692	14	0.8871529487327302	0.14574799017270215	2.0995707750856893
Si	-2.1610014578506824	1.1104852534465435	1.461374768952062	14	0.8485663143090119	1.7044535939066134	0.9607377258848362
Si	-2.7974527965311777	1.4889554005412076	5.00782374041038	14	-0.8895505044437684	-1.105491983851301	1.2530132653633093
Si	-4.908093002870167	-4.8828190867441235	3.271992034135797	14	-0.9642807090160004	0.2786024013859257	-0.11127101049270849
Si	5.111880263568686	-1.8208980860994435	1.4155369897953096	14	1.0138395353934506	-0.3272261167584381	-0.6161381362570936
Si	1.0116263366278204	2.9620503275491705	-4.542149309173827	14	-1.5600500347058168	-0.03994134981690436	0.3331807966799011
Si	1.4701818241385776	-2.191881680985747	2.7895697602494764	14	-0.8155183549659566	-0.8591759804126029	-0.16147981229509217
Si	0.14393482461886123	-4.612110423224186	-0.15930663430821285	14	-1.5850607188180892	-0.025069562424103842	1.1571640016913813
Si	2.814148440997619	3.9555228023763886	-5.389825594376812	14	1.1484569535246998	-0.22379646327111724	-1.040895019566837
Si	3.00477953829898	-3.1623147661730826	4.280335438212377	14	-0.07987807164423247	-0.5830012166699611	0.9892654249645393
Si	0.25418738319779355	0.9615094170380741	1.549243191681787	14	0.07204468506533732	-0.26783975451578584	-0.9776108616588399
Si	-2.482824359441765	3.731522628135048	4.233053879516851	14	-0.10029084811248411	-0.36215561097477783	0.34106406270200706
Si	-3.3004567030425287	0.18470715879381078	-0.24872878594158643	14	0.35806678218414634	-0.15129617834304968	-1.9472487257199012
Si	4.189570571607944	1.1708507865622877	-1.1232016193841978	14	-0.8444941977029613	1.5895861212920819	0.9972731324841404
Si	-1.9331686042337224	-3.255495187005847	0.17303919892123448	14	-0.2582734429511109	-2.737970826757285	0.6478555485969723
Si	5.523838321765367	-0.49918344373182916	-0.5380100073283708	14	1.6304309575184863	-0.24708167860303834	1.9041703703018837
Si	-3.6778295776877252	4.32403309185281	0.059121661513109144	14	0.4876787724781311	-0.5231628541120268	0.031382654427195435
Si	0.20742003213800045	-5.1931073004200545	3.660022222976428	14	1.0959446984659953	-1.160809829035351	0.5616659276128403
Si	-4.733473420653799	4.484762404306536	4.735429186629014	14	-0.017088080178768162	-0.6696122418160654	-6.1362236112343505
Si	-4.997206407802173	4.900321026552988	-4.147491061650582	14	-8.787809413003174	9.631792732079022	17.42541922408234
Si	0.656337735927625	-0.5628829969824939	-0.3055748287816603	14	3.1321079025883214	0.541243638054904	0.5749122622222432
Si	-3.143557848765131	0.00746767201439204	3.219590611075853	14	-0.4135792600409315	-0.44343699190274705	0.3328419249987056
Si	2.539364987379406	-4.515532678076724	-2.6735331987182906	14	1.1123174971446983	0.7510460892895194	-0.3116968977352757
Si	4.468269999575168	3.426143264890945	-1.8656397034063734	14	0.31938553108464657	-0.7177657020255226	0.03328424392197696
H	19.383561041165336	17.327081447724304	17.640398266632722	1	0.5723190453963418	-0.2824837419772212	-1.6860655628779786
H	4.433149506994692	2.6493332324491647	3.303945096528133	1	0.1248094226664802	-0.7491167318572802	-10.044730244232044
H	34.95036426322469	37.179676484052955	36.05478786380768	1	-0.4700271060131865	0.37345793285161677	-0.5326479187485851
H	28.738058557795778	26.63411193551847	28.293327814668594	1	8.496606538664265	-8.725543927023018	-11.90253998606421
H	7.720542226410616	9.204787573856487	7.016748567643167	1	29.99695978600695	115.32202912272295	-45.08167737966404
H	2.159565452509426	-0.05797996507783326	0.8197846857131806	1	-0.027350647064139217	-0.06809726706731396	-0.10882820332803579
H	63.37230395920719	61.91024950327226	62.77764892757453	1	17.25847786986619	3.490812576002396	-60.48481736835286
H	43.58514212217538	43.23980893669484	44.447827050983726	1	1.7671610528913013	1.3822146501376666	4.682402649488432
