72
config_type=amorph dft_energy=-6776.268676546107 dft_virial="26.8591051626666 -72.51518183814296 -22.56894324696275 -72.51518183814298 -97.73796315081522 -37.532313610823415 -22.56894324696275 -37.532313610823415 -7.999246491901643" pbc="T T T" Lattice="11.105996452100001 0.0 0.0 0.0 11.105996452100001 0.0 0.0 0.0 11.105996452100001" Properties=species:S:1:pos:R:3:Z:I:1:dft_force:R:3
Si	-0.3187643101681742	-3.1571549202214375	-4.759474779547455	14	-0.3103167283994202	-0.11076835940261953	0.5241280470492103
Si	-0.39720263131042094	4.5998283017478085	1.5225266066166152	14	0.7218876980747841	1.4922978099724666	-0.8742004914614202
Si	-0.8571097185893984	-5.198471496706419	-3.5881242231448227	14	-1.030828370906861	0.02847216320478781	-2.4196713305598694
Si	4.9061694442846635	4.075629711607269	0.44598349952697974	14	0.475712076986566	0.822503791010267	0.8469984542847857
Si	1.0491057428547226	2.975845085742324	0.49582832220364975	14	1.2381980422875523	0.3995795915727252	-24.09389197563012
Si	3.6397970928375085	-3.433602052108175	0.5815799420096043	14	0.7188100850065667	1.0522024836543162	-0.9375520123288049
Si	1.616358949441118	0.4443375908527785	3.3328229085028838	14	0.4295717922427846	-0.7680650067351756	0.8866053032995388
Si	4.912349931310257	2.5936355496422383	4.780240771713593	14	0.35812951715395797	0.7924113172327217	0.3718059976834216
Si	-0.8712831912615684	2.0998385141896776	-2.501079285810082	14	-1.9894289940495904	0.28148769577619587	0.2839816679367395
Si	2.2894667400114135	-0.45118110586656257	-3.896800956735555	14	0.7226765131870055	-0.6291525571666191	-0.34026702005276116
Si	4.227666360637937	-5.192651954565519	1.9466179659372154	14	0.25212361613584866	-0.8157438409025336	0.5203240967280514
Si	1.959444281239746	-2.8542210973960866	-4.205005685477072	14	-0.39911165040445823	1.2757343801879901	-0.7916317580996528
Si	-1.6681062293100324	-1.4456753323673737	-1.1668726186331457	14	-0.32173860667364607	0.9235513154184706	1.3942934458211902
Si	4.559519087624912	-0.9540506298208437	-4.726790942588571	14	-0.6528545486709363	1.782508751878861	1.0353049223797708
Si	5.432848003432957	-1.9022828281004323	-2.8055701693380173	14	1.0008719086007518	0.7455989455582537	-0.11976285714409356
Si	-1.3748357339976538	-1.370557704164305	-3.416894191045636	14	-1.1777891514590773	-0.2772124618498536	-2.4181476935471498
Si	0.671562946463809	-5.500065936359647	-2.055706616087968	14	1.5279083899881136	-0.820681134448814	2.371726644102408
Si	1.2140020251772772	2.930020633781314	-2.1969948817522935	14	0.5400012799642085	0.7046381524819106	0.02644150422293486
Si	-3.896185684532109	-4.9549669714959	-1.130462719864581	14	-1.8722382706677727	-0.6901767134982058	-0.35856840483210717
Si	-1.0725604967619125	0.6210550957989485	-4.335916508056556	14	1.0082831196860784	1.4261059890579144	-1.1672180519352882
Si	-0.5320794052229494	-3.025902032951229	4.004814546429744	14	-1.7162305418255517	-1.4465241648473384	0.33032584133240867
Si	-0.5787323645192859	4.35111395360161	-5.380253336034746	14	1.2106838729250518	0.3445684792533689	-0.7388832184620269
Si	-2.7470349044375793	-2.0307792070512294	3.640642259167514	14	0.4776334639923127	-2.169359829453661	-0.16517166242429282
Si	-5.230054729416901	1.117623077366308	-4.791117984638778	14	1.065207905695221	-0.343319693399373	-0.25290548926370576
Si	5.323211827657116	-0.419684499928407	2.752636769048018	14	0.7006850780521829	-0.9596051539913112	0.15352172710816986
Si	2.8007024110930616	-5.461008368036902	3.9768218823722257	14	0.18543017257333558	1.1338548750799826	-0.873969091982607
Si	-3.6683250659240185	-2.4335514955823783	-3.9441236076179536	14	-71.93926717610591	-118.26366980030522	39.831187724136235
Si	3.951278090532396	1.4052284038884706	3.11009881325389	14	-1.4672179631270823	-0.4318281942717465	-1.16203984582051
Si	1.8951072437927303	0.4019882051816308	-1.680209544243531	14	-0.8710426599072144	0.3792236365320489	-1.7480063182561976
Si	-3.182494361726549	-4.598906504042285	-3.285560230001327	14	154.82065234412454	293.76774498576464	227.58176819360511
Si	-4.367980630413414	-3.1738694448818476	4.981251533299086	14	-0.28296531000368497	-0.22609760253264974	-0.6511367932065453
Si	4.4732499283842895	5.137412949412064	-3.6923739906413955	14	-1.356642436623474	-0.16367656468062672	0.9229147097412019
Si	-4.782474187600109	2.8941593712374836	-3.2717443704149147	14	0.4782595281377686	-0.11152015059823082	1.4947002507836131
Si	-3.089691544773156	2.634625561347649	-1.4601164595540392	14	0.4539325009301236	-0.15125349799473523	-0.5859654439935599
Si	1.1638040318134304	0.8995124130435161	-5.479961861582056	14	-1.141031087139048	-0.17830332573641713	0.5591632136942082
Si	-2.244498560376861	3.421052276117302	2.1165541494497333	14	-0.5662535508355806	0.3346717806550549	0.8451534291070474
Si	5.023901891474085	-3.8031440886549954	-1.6790223132228015	14	-1.9168474621934057	-1.5028388275640097	1.444123009588852
Si	-3.7713753858037635	-3.2476165931227277	1.8796221529395674	14	0.9070486759211002	1.7660662762459822	-1.69401207809096
Si	1.3568573469409944	-2.619089382910806	0.9212690600931801	14	0.57384756750917	-1.9932355154760693	0.11330346924828553
Si	3.164129485993356	2.6244002704142004	1.1616328095070447	14	3.312087331882943	-1.1511740976270324	-0.8123952333335727
Si	4.623976069833609	-2.131935954535892	4.414760198069304	14	4.252639824120361	2.168173521458945	-0.850219277919335
Si	-2.423967020644216	1.2693254359037682	1.3708186950809291	14	0.831602161406675	-1.4082373213039494	-0.0035147009726424236
Si	-2.8918637617708343	0.9236435221346391	5.247587766015831	14	-0.9561470173357118	1.5827791199569898	1.2304764987900834
Si	-4.619920159929302	-5.1165714364700525	2.7784981923863783	14	-1.1931941860952762	-1.0697993855759416	1.2696837980380855
Si	5.486575482469281	-1.8458454859297957	0.8031656726222582	14	-0.465920793706378	-0.9209930656249233	1.8349785836997827
Si	1.3843502411581678	3.096736078322723	-4.651241291123515	14	-0.6747577948932777	-0.22600504274112443	0.12170712698718952
Si	1.236557193371847	-1.976983981436547	3.222197188443161	14	1.8065341884324524	0.9184147612098787	-0.4897865646195886
Si	-0.2347341198122952	-4.4520208161661	0.11834994059215845	14	-0.06610363200207113	-0.34643844415271263	-0.3869318102818528
Si	3.3155364250251904	4.098358133346492	-5.4810902308215885	14	0.3427005712382813	-0.3339678120183984	0.19778947584728737
Si	2.794288698141974	-3.109798951349683	4.70018541748792	14	-3.0816383907064746	-2.128837666944935	-0.3036879046630145
Si	0.20904928181752352	0.8678603231550313	1.4865809384997484	14	-1.3619962492316182	-0.25925380540968335	-1.3209328690530011
Si	-2.3658648896054095	3.2734924542564756	4.695725249312757	14	0.12405891702352898	-1.1449795335791995	-1.1206522492610222
Si	-3.2362729283465526	0.3271260148969603	-0.7280347172234469	14	0.3766895551285109	1.1937266620070788	0.4274899682650607
Si	3.83304809470192	1.2459051105855796	-0.9998617545861109	14	1.3830901114991772	1.0456093982818604	1.3376725644608893
Si	-2.5426679107242607	-3.4579475069308234	-0.268474137033775	14	1.9092249062507634	0.8949896777485415	1.9457523424235748
Si	-5.457157919066958	-0.4251253275902907	-0.9601100614851095	14	-0.19968438046823653	0.7761251648033077	-0.5167512887751736
Si	-3.6851661989439823	4.405923156692369	0.4171612175344898	14	-0.9389095559378431	-1.5461167007548702	-0.06148386996282907
Si	0.33698480794748953	5.447396858785208	3.5767616781746794	14	-0.15165690441946647	0.9748188983916912	1.4774211374795578
Si	-4.418993803916845	4.281303881103	4.561083922525013	14	-0.5594501490479367	0.17806318449951528	-2.284630451382392
Si	-4.450232750737312	4.935529256505435	-4.461346521386928	14	-0.7131834781239548	0.04806321441272013	1.101290283537115
Si	0.5906946332978428	-0.8778812637537611	-0.28069850732860147	14	-1.3290254230481673	1.2059599811203436	0.21515652095329163
Si	-3.350403700886558	0.0634030231453937	3.1913136335091616	14	-0.8930896309169523	0.635767496934296	-0.7825562705405942
Si	2.699226921510224	-4.559831166125216	-2.9117223940268344	14	1.0255190384207553	-0.21362568484567546	0.9548486091490369
Si	4.434991991806095	3.5348221037726146	-1.7456049831524316	14	-0.0947452310474567	-0.4580514116530008	-1.5936682652088812
H	15.775232789274853	17.540001169305384	15.727566963102086	1	-0.1470775087337507	-0.2417247806685098	-0.15851172831351323
H	56.46479841506546	58.48512465825598	57.06468770282599	1	-3.1184309078377934	0.10117170879516683	24.82849301818144
H	35.15024332377172	35.01389167353035	35.10434890403306	1	0.30163770528072836	-0.8873640364795145	0.039401160589141254
H	19.959350316624814	18.529185618902446	19.424180112589248	1	1.9717621580632567	3.089357363098623	1.5547445588776911
H	30.00555927848247	28.430038188595365	29.82184832757041	1	-139.3335171728423	-311.00956235026683	-227.11677916846676
H	43.569471561181466	42.05132293836626	41.872036616440724	1	2.1358642406743678	-2.3631723195917433	1.7448574855706125
H	7.745482962643097	9.187860924663841	6.989752111467403	1	71.5688570315008	121.45481182370733	-41.54768668935721
H	62.63034565423174	62.7160728408455	63.25929156050991	1	-16.91948971759967	12.041280942907912	-1.0763461910526346
