72
config_type=amorph dft_energy=-6552.736622259401 dft_virial="-235.5086333127527 42.87017557806093 -75.37151655246822 42.87017557806093 0.9181525061459433 47.03078994837707 -75.37151655246822 47.03078994837707 -143.07079983440184" pbc="T T T" Lattice="11.105996452100001 0.0 0.0 0.0 11.105996452100001 0.0 0.0 0.0 11.105996452100001" Properties=species:S:1:pos:R:3:Z:I:1:dft_force:R:3
Si	-0.8171148041660959	-3.0384806845328773	-4.744033002080456	14	1.60306282693817	-1.114293905804296	0.27071476448477544
Si	-0.2408968372435655	4.631517041424585	1.7526472955027081	14	0.6235953701276511	0.015112185740234364	-0.2449435474188032
Si	-1.1440886669116623	-5.233809666817356	-3.4919418514710565	14	-0.36805604057398567	-0.0922795410454347	-1.2173255521880582
Si	4.730285999672047	4.162278695926553	0.5491504323694723	14	0.4262147000262672	0.1830015064879237	0.5494266949573394
Si	1.2172527503388069	3.092074891611777	0.6631479329520528	14	-0.4138955059953097	-1.5864678847598062	-0.5497444835749098
Si	3.8125719690431836	-3.476789940511456	0.5516048575853864	14	1.367703074600219	0.4368601044938083	-0.23866413689540553
Si	1.71912717701098	0.1442080321315829	3.304203866245467	14	-1.9719359647828987	-2.839096255656689	0.46685744737450796
Si	4.960613260092148	2.6484625223273204	4.51920876290237	14	-0.5912462372106119	0.3557540729486732	1.0038505341141435
Si	-1.1470017697810484	2.5132592321191	-2.6222557024993	14	-1.623947144122137	-0.776440896536622	-0.9720899272048861
Si	2.0355014767426622	-0.14010214524324152	-4.06580090474716	14	-1.2006997567458524	-0.1816573326265503	-1.577570317688902
Si	4.140807472985709	-5.215468113676713	2.1067719877747235	14	4.939428592138207	4.303382387387207	-6.4499601668201
Si	1.703579892577685	-2.488186334528839	-4.397002820342042	14	-0.6253231529027906	-1.498135504601863	-0.08135388609799746
Si	-1.3095258112614345	-1.5158663405442907	-1.1018403458082289	14	146.17380120919316	-169.14108676986183	467.73995536436934
Si	4.194228426519954	-0.572001020069668	-4.481878177027926	14	2.1789089146126908	-0.32805812644003807	0.11675877768803254
Si	5.445958632244661	-1.5824001440895317	-2.6192015534749724	14	-1.574588092628062	0.006841968367446054	1.4071268609161776
Si	-1.7733277714961635	-1.3839337662912141	-3.473340418013434	14	3.369925631612334	2.607948230943673	0.8244503748481511
Si	0.7337987293820869	-5.511953794961975	-2.111773017977104	14	-1.1577733536522563	-1.401094790724578	0.76366173176389
Si	0.8977954259920216	3.1092625317210465	-1.9893194116958948	14	2.0053670188186565	-0.08965829917154375	0.7980811186847123
Si	-3.9933942502780493	-4.8680958672475745	-1.263973456213501	14	-2.191636400168488	0.4738197434709369	4.745478547865497
Si	-1.2119252038407344	0.778429286724496	-4.397943498241535	14	1.0313847580981412	0.29589616999030566	0.7568655290711425
Si	-0.5596611474117397	-3.381015158907482	3.95994854196255	14	0.08104895300702789	0.16927720339950528	-0.17309632324205323
Si	-0.4359181349424415	4.40368529840727	-5.326365930649512	14	0.8191713814048229	0.009867130887132283	0.32970671917131694
Si	-2.9104951814188773	-2.690133331615245	3.5208129998479354	14	0.3449752281150163	0.3395597089791884	-0.6311209953997245
Si	-5.254974364256124	1.1911214512866608	-4.779134614466963	14	-1.3000518943059505	0.5907965508901181	-0.45644884170695255
Si	5.540322952299219	-0.6183630022589595	3.21211627546359	14	0.33675797551182307	0.9841784930886263	-1.879687277001306
Si	2.9151141653433057	-5.445327811646181	3.8821654746109777	14	-5.892461743820688	5.130832727922906	9.933192353007103
Si	-3.841937334262181	-1.970566936686524	-4.074373623408537	14	-868.8605437958255	230.22755589576644	-193.88985418294453
Si	3.74771961336079	1.2052527211723127	2.906239363578433	14	2.951114686465965	-0.393463189126625	0.16029093319505572
Si	1.9469977910158773	0.655708025928791	-1.966542123572283	14	-0.3232540161493413	0.8167113478345053	0.9747998722123222
Si	-3.4887055641049147	4.722417401185734	-2.8893849033627257	14	1.8406162463352715	-1.282942216842493	-2.375607984693704
Si	-4.515407180316815	-3.2980278216184544	5.303587531926255	14	0.9392839088724565	-0.6102755019060919	-1.1241252983274783
Si	4.6117883493270755	5.533901465150615	-3.7224934530194904	14	-1.455111142395569	-0.35258749963637875	0.7317581713988325
Si	-5.103893941519981	2.737118360205499	-3.027607914006272	14	1.746781443681679	-0.419612872895723	1.076301453820064
Si	-3.1857262066941097	2.6376341757865225	-1.4027839740693633	14	-0.13641924873960884	-1.1823824311135216	0.24577427154774298
Si	0.8428140799562553	1.2794119018815653	5.29536465215312	14	-0.09213581625803842	-1.0870633293586078	1.6530631120990897
Si	-2.377248535968812	3.760125011397786	2.2803065141377217	14	0.18023474005291235	-1.6258736733385237	-0.2476681477265641
Si	4.722345212208794	-4.0653033561061065	-1.6617236131490107	14	-0.14334297825623563	1.1458107719292032	-0.13095282171844203
Si	-3.576688378598096	-3.5049680747097245	1.1400971717867776	14	-1.6429118740740811	1.9371869621600335	3.2683492308397755
Si	1.5911472268952056	-3.0035545468903133	0.5243696224859016	14	-1.4080640288053716	1.1257952312329147	-0.30726765460025657
Si	3.487141839804459	2.2460567316790905	0.8592409593085564	14	-0.5392374045735926	0.1715276918862309	-0.10505099250220626
Si	4.78811048079955	-2.0344397434818413	4.777394304822918	14	-0.7941067040808274	0.4171525822148732	0.9837126088046154
Si	-2.035045020288481	0.8972556745644495	1.898139180824154	14	1.306981537364814	2.2692745248578077	-0.14881069083006254
Si	-3.1244844104582947	1.1800232290320771	5.504750445663142	14	0.7416312158282011	0.24565522937142018	-0.6719987417742268
Si	-4.515552668870337	-5.364628309626287	2.2014439439310047	14	-0.678304891792954	-0.3154990482827107	1.3319438846970673
Si	-5.470355174650989	-1.8827973573252228	1.1375849953893127	14	-0.5451272926409878	-0.04834963554538463	-0.19085546190938005
Si	1.6886656499421597	3.1334047468086217	-4.5097353479287285	14	-2.5717064445719293	-0.23714924164077428	0.2675962708419678
Si	1.3014239868496276	-2.182675920526601	2.7218198500927313	14	-0.6377868430527404	-0.6050641285326837	1.4174261946076265
Si	0.00063415239741491	-4.8256609654037455	0.03882878479583202	14	0.4716607863336086	0.3584241658236469	0.27646247042796646
Si	3.4256712600417307	4.262739097433669	-5.352461690513012	14	1.7571036602104777	-0.3627531358511802	-1.0726831373030197
Si	2.7602254964237383	-3.0222170633284224	4.4228020501002705	14	-0.9016213297007996	-0.5532712687425568	0.2801610054309995
Si	0.39948047118274665	0.8152878677497254	1.4971893863107941	14	-0.6342004082416658	1.0178144642183995	-1.2194456856350522
Si	-2.3533539846021188	3.3491920366736343	4.781011527867368	14	0.34362334093768243	-0.26750756770842266	-0.8318739272390145
Si	-2.933936608130325	0.23290607279627953	-0.015001980007496682	14	-0.41122592734139995	0.0866521628312266	-2.5708700640112854
Si	4.077796491515074	1.3604834547826048	-1.2338839800258266	14	0.03510895736768605	0.24711895963018043	0.11090771331097156
Si	-2.1203601744338676	-3.922201481221153	-0.4383037029803526	14	2.5953133051794013	1.5685046003300598	-1.1613070808042676
Si	-5.277190799558904	-0.12424389290928793	-0.5229202899489025	14	0.2748367605340368	-1.4449123389221377	-0.8646956293138969
Si	-3.9729847605980253	4.440851515534223	0.2775477361351407	14	0.707318529778165	-1.6584377506603272	0.06741463860481464
Si	0.646527809261485	5.405477275176756	3.7804967406898737	14	-2.1128129959265807	0.6442685995648337	0.38820193631000594
Si	-4.38133670174671	4.373676895993696	4.26258361348334	14	-0.6146165561286299	-0.2613986214677509	-0.7210127509343377
Si	-4.43792841726803	-5.442103740876137	-4.974695663593411	14	-0.3827625058947007	0.07895658749749139	1.0597304229211775
Si	0.782438551443704	-0.7208646859139712	-0.4291234863130467	14	0.397370754992186	-0.7177911559681921	1.0449182851718046
Si	-3.2156035583495495	-0.02439876360561849	3.4947239035823072	14	-1.2699565923125533	-2.1967372160131298	1.3977711228772225
Si	2.484590212877649	-4.42335623932323	-2.884484937728059	14	2.106053045818847	2.0213186704459187	-1.3134758922929757
Si	4.515372751727814	3.8864701588358117	-1.7532103695228294	14	-1.186958741472853	0.4762237269452754	-1.059615751623899
H	7.721392945738846	9.232428177826472	7.051373732781879	1	360.16417986101544	155.09198983031783	-3.061370110357215
H	25.75420049561326	27.335269030728185	25.191909448241667	1	1.9883018214772372	-8.36397915605081	-3.2118756738143195
H	51.6991453696917	50.75658167200127	52.92729976614789	1	0.2125154815684355	1.726892915588206	-4.648609069602534
H	35.25540267237772	33.50814400635357	34.546455831256495	1	0.8885431453793343	-0.199276088943397	0.002169241558608934
H	13.322791104327099	12.639851175097759	14.433407408531778	1	0.06810909415178665	3.250115980351414	0.08035372612845985
H	40.68957673178706	42.54662483633809	41.08842193997274	1	10.052255869504117	10.885581957027952	96.65883506028875
H	63.05919704363171	64.52861699641367	62.605038420116344	1	496.78368325225256	-397.6996212170281	99.8062639223693
H	31.9121656710017	31.9121656710017	31.9121656710017	1	-147.6001452826037	169.22055706420232	-467.58930016258256
