221
config_type=divacancy dft_energy=-22860.066886898443 dft_virial="151.56487005017658 -19.819131175953263 13.082382600639306 -19.819131175953263 160.14943532594694 14.391419053662396 13.082382600639306 14.391419053662396 149.8766919415523" pbc="T T T" Lattice="16.3199774331 0.0 0.0 0.0 16.3199774331 0.0 0.0 0.0 16.3199774331" Properties=species:S:1:pos:R:3:Z:I:1:dft_force:R:3
Si	0.7070793422664906	0.5487102812556882	0.6320237660516637	14	-12.175533521194232	23.186717829769396	-14.33921429321675
Si	2.589197059716181	2.4828724067395345	-0.0357081106236228	14	42.94210560511802	34.7321719103291	-12.692307435696224
Si	3.9115069112556755	4.044449447425708	1.3283482431897413	14	0.9271053543025113	-0.17446723659875618	-0.14885234273624892
Si	2.577234516257719	0.3252081903093837	2.659878881978937	14	0.24002450872029588	-0.46278661632111756	0.14807329782424408
Si	4.0320299445991195	1.4592344622032032	4.124841656261158	14	1.2302168171527486	-1.7528446242476525	-1.370988175867772
Si	0.06862550510618551	2.2463796137564827	2.6680715106503534	14	0.03608366339455418	0.3606643698890919	-0.5347243434051366
Si	1.506007517526468	3.833203659531662	3.916859863853732	14	-0.6530458389067552	0.4675629586743566	0.7933335727110589
Si	-0.0496943312837895	-0.026699483080551603	5.398681174824346	14	-0.21321790754189995	3.033132946178689	0.6500188766133449
Si	1.204757054088875	1.6425404487317825	6.729869094087447	14	0.0065321501763682096	-0.823980891016692	-0.5357826103549096
Si	2.9643117410159845	2.7466032420584305	5.460289089634299	14	-2.241568551038424	1.421513223624534	1.372169855872912
Si	4.316405551370886	4.145241628052534	6.733753248716525	14	0.6637421512596352	-0.18028307683293113	-0.27132411644565047
Si	2.444748939455813	0.20272675967396822	8.079482267872518	14	0.20374981220045468	-0.23970466321846945	1.3800544074476782
Si	3.9265376104715606	1.3605312386878146	9.619533258324433	14	0.1739794979195241	0.9821766304863591	-1.266202778545137
Si	-0.2203033753694169	2.766072975136119	8.197377784849232	14	0.6846832898711773	-1.1401710524094584	0.7749041468867695
Si	1.2931623718439778	3.9829884124126536	9.463497954086565	14	0.5854386245134614	-0.5765629118377783	1.456655862471914
Si	-0.1792096721928711	-0.2191936169039661	10.93970519282019	14	-0.5060845441334751	1.9936816022491153	1.3236512987079938
Si	1.453293990417555	1.1349238706526403	12.36221970579892	14	-0.8868217903674951	-0.9975137879421062	-0.22568982522887426
Si	2.6351051562354915	2.6061045563368728	11.159241529250252	14	0.7808958507248426	1.87840403833602	-1.310146310903384
Si	4.178371182241727	4.0974730541058495	12.56569718443481	14	0.3000045391813703	-1.0176843662892001	-2.1452341197925837
Si	3.0058460835832244	-0.14418700062143852	13.637903381812047	14	-1.3367320541347791	0.9914693764449701	1.46731463668712
Si	4.382289300268312	1.315749220611388	15.105689512190194	14	-2.0244934712952376	-1.5889222618984196	0.5010364359478965
Si	0.0551288837690118	2.4844391245731123	13.604088388570664	14	-0.12577872937217605	0.9015763353576969	0.08228282645016696
Si	1.2589067392119009	4.099855770811083	14.840734678563814	14	0.6991149040331684	-0.36613053979972676	0.6928776596370213
Si	-0.0488783324121345	5.521766444624786	-0.057984879819804304	14	1.6761673216164723	-0.7643870405747037	1.5015213931979658
Si	1.449393515811044	7.005921512368334	1.4238853910831089	14	-0.2423796411935515	-1.3632476061909342	-1.2340876162122314
Si	2.7883007844000014	8.312678425414084	-0.0456469768803807	14	-0.8505172690259403	1.0901005760732987	0.30261703929717276
Si	4.27167249322676	9.726886069879363	1.198016903409005	14	-0.25066348542453654	-0.6288134283748916	-0.2145116877389985
Si	2.7831273515537083	5.5177517301762435	2.7270355891161437	14	-0.9510487725963903	-0.20020040130599023	-0.448018444472719
Si	3.8297927842481436	6.9409027222748625	4.167975356616842	14	2.1029047273543258	0.23441641379598888	0.24755604753460564
Si	-0.1079892906748227	8.093925447900812	2.7142896867408925	14	0.17781430150452496	-0.9238606193884844	1.0920445888058627
Si	1.2056872928025617	9.429405521228817	4.041381291668285	14	0.8252538452606973	0.16416816001783902	0.5160622325493739
Si	0.30962261186077317	5.354405076048346	5.5419868966643975	14	-1.1778701412766617	-1.2427545551359185	-1.0533211715791124
Si	1.4184018786655872	6.40280042635069	7.254393168787281	14	-0.4095379966987227	1.3556918989866151	-0.8472853896385141
Si	2.2335847514489324	7.874209591718986	5.585577556388207	14	0.9345096234034738	1.2715360223107204	0.022407954196686553
Si	3.6165885990621254	9.605775517348329	6.670431736276097	14	-0.5248430714387435	-1.5392256242758096	-0.5591195049037657
Si	2.9522023177606247	5.175097483990876	8.380063612235354	14	0.7147235702107235	0.8680933449944725	0.6496069855410572
Si	4.2173106483971035	6.808727225044186	9.710207052942735	14	0.5800112782931609	-0.8879546193715525	-0.7501204913742661
Si	0.0839826038707326	8.006058689401002	8.37025530579806	14	-1.4183453647595794	0.29390536314091503	-1.5621786528003674
Si	1.3538237279628105	9.57192788415208	9.287193237876785	14	0.7991841228670558	0.26279653143031534	2.4806515209904814
Si	-0.034190352722344504	5.460729729024993	10.719744536976869	14	0.18703479940363998	0.2731501154440197	1.5818692057841894
Si	1.2983031647354042	6.84902124932651	12.300726030831	14	0.3147434004291192	0.3643438787127558	-1.3395191323018196
Si	2.9433895299467503	8.331919678807708	10.868191051708346	14	-2.6529276616354074	-0.5831673100736426	-0.03074939118684297
Si	4.034053621800823	9.74666588252828	12.250640020088815	14	2.0579844320849547	0.11875395541646745	-0.6476313482130553
Si	2.706570337415036	5.473916270790937	13.574516589461886	14	-0.597358782998732	0.3225839861029108	0.44195243569089365
Si	3.9096790737831686	7.0767338944505545	14.751317522207861	14	1.3492798194286977	-1.018934180585324	1.1263482759872783
Si	-0.0604328764347693	8.110996144295834	13.82822695863686	14	0.4396083589705146	-0.058545353692431835	-0.8233856801350776
Si	1.2689761652881237	9.694213475058298	14.935912786953656	14	0.8109839536233433	-0.17100112951666457	1.3230095508200848
Si	-0.0606123961865334	10.822185035324438	0.2880639216716481	14	1.3551447677744874	1.1374125135114717	-1.2131300225266406
Si	1.160856314793836	12.461265648840403	1.5302590039920547	14	1.5309785468509025	-1.572051954340268	-0.3901030115837234
Si	2.5770713164833876	13.680090523476611	-0.07056758242072439	14	1.4796168614229643	-0.888951951125238	1.8267469329067967
Si	3.989810162979689	15.146163056224282	1.3379933498527035	14	0.2379799657697141	-1.2540334799543442	0.4043698178946931
Si	2.7499161974773503	10.755060968142098	2.6333099587178506	14	-0.8753518324237826	1.6091828289317185	0.4300101656998698
Si	4.0895905050056625	12.34785812565779	3.894142455266857	14	-0.4595349394227263	-1.5689440022292729	1.6434422931016277
Si	0.053823285574363805	13.477543283554406	3.2737548331249937	14	-0.4639184168830467	1.370566514595268	-1.0715935028683408
Si	1.4157743622988581	15.217628237403828	4.272227372459485	14	1.5638948656015663	-1.6718152116410576	-2.363358981837986
Si	0.0901515553404444	10.768100630111144	5.632677011260134	14	-0.527993446787521	1.0410426010122131	-0.42628694808576334
Si	1.346855097598877	12.598206579481545	6.597187677556343	14	-1.1921932547941425	-0.8696156964545323	0.9517820518336966
Si	2.89263440012981	13.815285216532411	5.4363803226948075	14	0.6667269474257952	0.2404716239354696	-0.5187798908727704
Si	4.054877913005459	15.358502282606347	6.873778655092523	14	-0.4798824098158462	0.3628022439627951	-1.971783498237414
Si	2.468249706959477	11.066348217701046	7.960476992430353	14	0.4490641130064232	0.8790215710472299	0.5589724376794533
Si	3.9512134163504076	12.281370537595341	9.364321451225615	14	-0.7433790532248378	0.8178549754809071	0.2043550503928175
Si	-0.1226772703646127	13.775187031979284	8.175704854818076	14	1.2025530094606152	-1.260765919235152	-0.5303426657185404
Si	1.1721986991098405	14.98769607534888	9.587872502104219	14	1.8750834558150486	-0.07450703263044313	-0.9063817312010536
Si	-0.000163199774331	10.83778693375048	10.878929596859326	14	-0.10638796726868327	-0.13857383499789297	-0.48537249100595836
Si	1.4195279571084711	12.147987362034616	12.189472744669557	14	-0.4718628752117722	0.1860405529763387	2.029255415458684
Si	2.5678994891659856	13.565899641377209	10.900471967071018	14	0.721018407366042	0.37056492514538614	-1.5222352460992068
Si	4.021650438951667	14.943893255918441	12.052221734457184	14	0.8550897227272917	-0.6639519534537593	0.38552027346109147
Si	2.925731314364136	10.991423201305684	13.781829262794556	14	-1.7226868443949757	0.42260846770422755	-0.6073387854094187
Si	4.321954343698141	12.407785082792135	14.99136807027133	14	-1.5015751292991568	0.4145012584087366	0.6096118996229617
Si	0.0556674430243041	13.631962910026397	13.762865449017294	14	-0.3359303367092674	-0.33760746870959996	-1.6589059489391262
Si	1.3159613803180186	15.054297903253362	15.047378232821728	14	0.5493984127988178	1.6053410833623531	-1.0543940938292105
Si	5.721376088609033	-0.1863578223085689	0.06895190465484749	14	-0.8601221471704175	0.6636953571428086	-0.40733250255509973
Si	6.687306592941923	1.4249951495485598	1.4559051868068509	14	0.46952034115458535	-0.10726857084083397	-2.01883549692772
Si	8.031485214241771	2.678255176568608	0.0133007816079765	14	-0.22517586127537667	1.8782294602847818	-0.5425734137264847
Si	9.574767560225439	4.160027527606923	1.2260383046616374	14	0.004929323119787897	-2.2030690770850585	0.29336851635006816
Si	8.091428491353547	0.1892790982690938	2.576157397747134	14	2.0251084796878174	-2.214171624078522	1.6110895606371405
Si	9.43869158838825	1.449540395607942	4.13690211958422	14	-0.07088254546063039	-2.0628026834549122	-0.16004847796336577
Si	5.418020348082569	2.6894833210425806	2.7373334948764296	14	-2.3541094304487538	-0.3765761693838923	-1.970690264255287
Si	6.935761929383436	4.062825742015379	3.8751949614670282	14	4.362052182577134	1.894278556803678	1.0525174440560343
Si	5.548988166983197	0.128111822849835	5.27440454667129	14	-0.2609911012745074	-0.7330061859212325	1.0071497764609574
Si	6.840551181038732	1.2957898882107068	6.881742804079876	14	0.8000819528448516	-0.5191976954872944	-0.5798305295891545
Si	8.11235070242278	2.6946730738663067	5.468465398328282	14	0.1983677174337887	1.5363786393548096	1.2298342366811106
Si	9.6940176353291	4.210896897265895	6.949764470021036	14	-0.5222573108182706	-0.47892750129994316	-1.016002863409823
Si	8.294759090192539	-0.2145750632903988	8.119531492493344	14	-1.6841315774561632	2.27420693330398	2.223632263214539
Si	9.782308713242172	1.2242920670762958	9.647701539373962	14	-3.0960124121092942	0.8619070084836643	-0.9336195067416385
Si	5.561717749381015	2.687786043389538	8.162681512826461	14	-1.427952556898845	0.14686333566058235	0.8411674445292218
Si	6.894407106567961	4.131924526467125	9.453999727220499	14	0.2413959362980628	-1.2044299163443233	0.7273870352440488
Si	5.359855948511002	0.0164178972976986	10.797068590054897	14	0.7386618462939621	-0.28908351222350936	-0.1574066672469136
Si	6.824590243109159	1.2531621071554495	12.18312427344808	14	-1.6582215207029025	0.6295698475600792	0.30359354509776504
Si	8.114945578834645	2.6251662899787336	10.933258801734118	14	1.3027641533081746	0.37780695750064724	-1.7057951966626668
Si	9.505913575435189	4.047060643815004	12.158415827614368	14	1.1096507467066405	-0.0990405195952961	-0.9131427097509152
Si	8.194211709227211	-0.2371619120578092	13.171755866390411	14	1.7045438397033505	1.143547170805345	0.6192777129635264
Si	9.18767401548974	1.4039750186147266	14.714597572983385	14	1.8105988488330746	-0.17435076552775347	-0.3306698552242444
Si	5.537596822734893	2.6450766624471154	13.804203951855335	14	1.1733552803344818	1.1897093099443474	-1.1421901414173707
Si	6.556289814108995	4.410832940798803	15.077047951795103	14	1.6681179621906848	-1.1565317668931567	-0.3564390154059606
Si	5.231189246428441	5.756398760180465	0.2176758590026878	14	-0.3505208451800437	-0.6248053322913126	-1.8067761294430784
Si	6.897850621806345	6.867985063103773	1.402522540623181	14	-0.8807118156846954	0.5977740165079359	1.134916741577204
Si	8.171331100866004	8.28371046547033	0.0686418250836186	14	1.180808143325995	-0.4326614895060065	-0.7310287488195065
Si	9.64778313926113	9.571813644310048	1.5338004390950373	14	-0.06861045968921553	-0.6147661944582626	-0.7733887374110742
Si	8.435943214966287	5.504059269109873	2.6628654378491947	14	-1.5648083793218148	0.07242855108963542	-0.3528312404207288
Si	9.58150771090531	6.739661080547307	4.2151237714210685	14	-0.05863765637342515	0.4251320075759528	0.6509326474441255
Si	5.337611819269687	8.360218519676703	2.7761260812349087	14	0.8820397915825517	-1.0138462202672829	-0.18151155095489788
Si	6.955231662461125	9.646020581698354	3.9821560935635656	14	-2.035947231275433	-0.21680974167414685	0.8724305425590304
Si	5.629576215547845	5.6205839079822075	5.205583201835907	14	-1.438340336613307	-0.41017228838120323	-0.11456793884473437
Si	6.718053430425883	6.887977035459319	6.703871370036519	14	0.36519208635787265	1.1896879697701903	1.2645747546564192
Si	8.167544866101526	8.307945631958486	5.433899686124976	14	-0.6228258383053307	-2.024828229207921	-0.9204256226807666
Si	9.408907629572845	9.619827017918228	6.677122927023668	14	1.5473552021875856	0.10184945215755788	1.6858968983689768
Si	8.16857302467981	5.611036721183844	8.243041081707046	14	0.19307252602694372	0.5663103722631558	-1.1685635113493216
Si	9.338372687106984	7.193519652961818	9.563392535954568	14	0.19460696168200808	0.6844277220023547	0.08427903262072993
Si	5.03613287614803	8.348174376331075	7.954748680351335	14	1.9836344939895727	-1.4985448245688306	1.4221521432965907
Si	6.685217635830486	9.6382033125079	9.337393488461	14	-1.219460598045909	-1.0082970036548073	1.2606939282861878
Si	5.779230408609372	5.304824984606587	11.091970582271014	14	-2.9868083131834524	-0.5052576766625155	-1.240731095248962
Si	6.8440273362319815	6.895141505552451	12.11510260750692	14	0.4105533261896493	-0.3183460332037107	2.816318833625498
Si	7.979587686004512	8.502691922667667	11.159992248212173	14	0.7840361987628715	1.0093480715096839	-2.43871345078195
Si	8.28397158510926	5.3658290602515155	13.49056662554602	14	-1.7001822166382514	1.5377544378116208	1.6861254696319379
Si	9.627970686657344	6.70930592252174	14.965615145881898	14	-0.6294698315631254	0.7850569275749703	0.49347970030144916
Si	5.496992718881341	8.318390417515669	13.5293102519722	14	-0.2418314815392959	-0.3661403099999433	-0.5594462923899566
Si	7.067366227403955	9.58966769962186	14.712704455601147	14	0.11069816822737949	0.4116853838621104	0.396102428737757
Si	5.739833983085869	11.076776683280798	-0.1032075372869244	14	0.25467826638194785	-0.7719936556643618	-0.38145895549738557
Si	7.051519529316415	12.449384705269107	1.2058994525091922	14	-1.3731139657464706	0.020826724424795485	0.7404317951963522
Si	8.458807503350062	13.581909539239081	-0.1471409165368296	14	-0.06606763652758907	0.2734123681866748	-1.1962715420529615
Si	9.663939916919897	14.986047757628137	1.3113591466818841	14	0.26229670855607856	1.4372995531797113	-0.1592000132077169
Si	8.161457514518979	11.089995865001608	2.67321230354178	14	1.0595406753485508	-0.5161758754045244	-0.19540966076295835
Si	9.597860328293276	12.330004070345979	3.9956853548556053	14	0.12402215021745089	0.36671109538101615	0.06494303506055629
Si	5.559791992043909	13.606830144779424	2.7240327132684534	14	-0.582131925961219	0.6004129990085358	-1.7928466521501123
Si	6.880486165817527	14.960539632900202	3.984130810832971	14	0.46220760340302014	0.8340637376401847	0.5950203627100573
Si	5.217806864933299	10.648050876113262	5.5006157538714895	14	1.7154319565131138	2.2180912741390877	-1.7207865404528544
Si	6.5618712463911155	12.244471068619102	6.845104454742566	14	-0.8896384362457173	1.1663459330106938	-1.4540379630349392
Si	8.159760236865937	13.55184814080731	5.417139069301182	14	-0.258640339680296	-0.03392084959924562	0.7173424980898263
Si	9.55856182263437	14.796980819065675	6.977638991476771	14	0.9555453786907973	-1.3889825706718926	-2.0993743426392304
Si	7.978233127877565	10.93606583785261	8.023912744712812	14	1.3318996616855607	-0.07530818904820126	0.5076722016686666
Si	9.203390153757816	11.984722307793882	9.76107642260171	14	-0.7234182770718682	2.073065507450815	-2.079294267199406
Si	5.128046989051249	13.866546265649777	8.06885796256357	14	1.8415135620920031	-2.243860434320804	0.9877232759935145
Si	6.715017914623326	14.828347815692092	9.517827158961353	14	0.36431945321221443	1.1494578848258332	-0.22392553275818863
Si	5.462312766836003	11.185059733549416	10.725685008762518	14	-0.32371167289632774	-1.2805498033420954	0.6088685930749068
Si	6.7942187651061605	12.260415686571243	12.324438958041293	14	-0.5215052625121274	0.0672351754534683	0.6818741001983836
Si	8.080689946202567	13.607042304486054	10.996319194535616	14	-1.0498254967858394	-1.0322589339069914	-1.2667265126988512
Si	9.67268742482404	14.511446493896157	12.205531602463726	14	1.5835028861046117	1.6236648367579847	0.9001401159258623
Si	8.997578918348992	9.902146307533425	12.854185425519718	14	-0.09269554588623466	-0.2531397169583712	0.7876262331213941
Si	9.49001791741535	11.748343754652863	14.923689123856263	14	-0.1738236889371231	1.0452610135109803	-0.48520305516536055
Si	5.457596293357837	13.878639368927706	13.656002236785355	14	-0.42189267198309827	-1.5786159862226061	-1.6255404580890325
Si	7.042918901209171	15.02095618935754	14.719624126032782	14	0.1609594205782942	-0.7050086487585439	2.7239184506300163
Si	10.842128047747686	0.2682514690678647	-0.184252545219699	14	-0.18937244836071865	-0.8337500627911266	0.6976015514417294
Si	12.311040256568717	1.483469628691357	1.314721062033103	14	-0.7991247303341604	-1.6161345834963348	0.768629364352948
Si	13.783689740221929	2.5716367639981654	-0.041191623041144404	14	0.6032180749128174	0.5842268625760757	-0.9252654713354134
Si	15.1567220816235	3.920515538798747	1.3407187860840313	14	0.865721243226104	-0.6498247581616737	-0.6166292173732418
Si	13.610942779092566	-0.1915312551548616	2.744008365646568	14	-1.5100217244969074	1.0796120090302865	-0.4576246081698562
Si	14.743059613626713	1.2133250422412525	4.131581806941029	14	1.1960193166210549	0.7178078681527731	-0.23508721517401548
Si	10.761425759341007	2.6005231240547526	2.7436982860753387	14	1.138616305022365	1.6535508507783216	-1.2245382739426696
Si	12.27941214030337	4.015628367278854	3.903771241952386	14	0.5823579261188601	0.15313657553121168	-0.37782649790108036
Si	10.796415790957573	-0.0545903245137195	5.461268288280285	14	-0.051227730840758386	-0.7095970433128802	-0.4668592471482321
Si	12.137558896454864	1.4566559057687736	6.5533358981936045	14	0.3574787703974284	-0.25839274223796577	1.992288834497191
Si	13.58900872942248	2.798696610024886	5.418052988037435	14	0.03641996397042955	-0.0025518220302469686	-0.6874428572112923
Si	15.016239715879374	4.052413596413061	6.7467602707307055	14	-0.9006491947792516	1.64532357086438	-0.20725191475702837
Si	13.606781184847124	0.0922731524067474	7.957017157214536	14	-1.1188483617684062	0.9969797693671116	0.3787006737099307
Si	14.767506939821496	1.3476221365382324	9.601173283712196	14	0.879387696444819	-0.32979387964166995	-0.3036688784836454
Si	11.002031186637199	2.666145753313248	8.306150434440843	14	-0.7979325087972078	-0.3842550325330466	-1.738930573586607
Si	12.01713378297602	4.329592093136831	9.383530064664374	14	2.20021206485331	-0.11094730833290185	1.3453943650688902
Si	10.931398324306743	-0.2116864272847401	10.858709144819716	14	0.08697946453848146	-1.9772836067382746	0.5380210146466305
Si	12.11090837330661	1.2460629169720512	12.06793787272526	14	2.149041412550659	0.9606834755625812	1.133343996452869
Si	13.54727854712604	2.8132540298952113	10.906281879037202	14	-1.4913200186192144	0.3152319104399473	-0.5341337605130987
Si	15.043379838350617	3.992405039391552	12.245597147061986	14	1.0430061541452103	-0.6028195535881945	-0.903363510665732
Si	13.690600588943527	0.21733313947659272	13.72172278590845	14	-0.7256147723468708	0.07457362425823497	-0.739683346437657
Si	15.399090066482467	0.9956491832385648	15.118370134655713	14	-0.8097235977954068	1.4127570673462375	0.8586818139700705
Si	11.0159358074102	2.7096711331273253	13.42318143872475	14	-2.0342968387704303	-0.1627198563909996	0.7148768080878043
Si	12.36879665670446	3.9913932007907005	14.794451222563545	14	0.3303428106275216	-0.6925938096096769	1.0992154015437556
Si	11.05503847333991	5.3175219270495395	-0.0501839306067825	14	0.6440986495031719	0.536570139914471	-0.5855820921903258
Si	12.487540812507694	6.629191153302653	1.3456637392462605	14	-1.1373469503258078	0.8341331574838287	-0.5400025655168685
Si	13.513365634020062	8.247333235771952	-0.0924363521810784	14	0.33665358863582506	-0.37909302438178527	2.168801385378125
Si	14.963183469244365	9.436569991321948	1.44921399605928	14	-1.4087993649269337	-0.6184217920024491	-1.070330833045616
Si	13.885852798953135	5.296958755483834	2.5962472899672804	14	-0.9640359397895223	-0.06202663029591233	1.6664284888848155
Si	15.069589722108176	6.595017120557742	4.2154175310148645	14	0.038024590800733976	1.0564322090164917	0.15539349178123765
Si	10.91995802012614	7.863944325913566	2.711417370712667	14	0.469062427297067	0.9900712093718737	-0.2839019636718149
Si	12.261199045488029	9.316585517233797	4.057162709846093	14	0.5420327102776575	0.15503945057865326	-0.6195453650273538
Si	11.19165300443239	5.449681104302783	5.343095331687208	14	-1.5224080243767208	-0.17994240537801154	1.2170517294714622
Si	12.22503397549628	6.894570306342292	6.862762670325181	14	1.8211336957718496	-0.7015595109715652	-1.548771366997923
Si	13.754395380729514	8.25833290056186	5.551860483011422	14	-0.4993461913104311	-1.065519780770555	-0.3381738832116286
Si	14.83800924233249	9.685123247628061	7.0445835389073475	14	1.8552833737445884	-1.5985579933067386	-0.20281315853232473
Si	13.632632029101156	5.538478101516281	8.140225223878515	14	0.3738389706600627	0.08881831906345136	0.2037937781014292
Si	14.84538587213225	7.030156678856486	9.703058902827038	14	-0.5900169917570492	-1.3065295370495316	-0.32962547224320027
Si	10.999844309661164	8.220731672556	8.11918877296725	14	-2.4657195697331895	1.7306197327497603	0.7291194460087645
Si	12.104625181994868	9.716000644931485	9.577166596908105	14	-0.9265895905752894	-1.138998885494003	1.4517285962363822
Si	10.701107122748269	5.713999458809272	10.710458469817434	14	0.29431828265533083	-0.6953778024503332	1.7169833614632908
Si	12.17569868371602	6.77931862570974	12.387107671384397	14	-0.18175606307084397	0.682836979140779	-1.51384778632382
Si	13.455152274516195	8.38889272002666	11.004250703568102	14	0.12681514192672774	-0.3782687280161458	1.0822183384933208
Si	15.0469212734536	9.58136083110841	12.466504361596428	14	-0.8092062914049931	-0.025992075012972977	-0.9090183997068655
Si	13.728756696182113	5.314812810795645	13.48609495172935	14	-0.6813061430331628	1.765874471789099	1.2195423591950898
Si	14.805434567376022	6.798412999306467	15.142572661189	14	0.21257256010654282	-0.597966849406947	-2.075046029878925
Si	10.79292331578689	8.308059871800516	13.654582398748675	14	-0.83808160392398	-0.8289045577047756	-0.4892605164710862
Si	12.243736669634613	9.502894379610066	14.909017464143906	14	0.7196379809196545	1.4979390721554036	-0.732305559721492
Si	11.055968712053595	10.828223426974684	0.0078825491001873	14	-0.7144664596787086	-0.1975706747845428	1.1206689614456034
Si	12.344920529719834	12.16902381294588	1.4214210744907105	14	0.2266365062077528	1.9987021996077683	-1.0001707681799472
Si	13.910903964312944	13.79222508841944	0.0898088358143493	14	-2.317138735718748	-0.6489289850681341	0.9585733694263356
Si	15.25844450096401	15.098166002593535	1.5863507664296193	14	-2.724098685112958	-7.193918232963035	34.621343129951455
Si	13.629792353027796	10.795730351905382	2.6713518261144067	14	-0.3787646942324024	-0.14529059053624782	1.8961428652713173
Si	14.820497906546773	12.03418815939361	4.364239405227303	14	-0.019909096936034633	0.37167461420156206	0.13500925458203966
Si	11.119959343568778	13.735660046636315	2.763461778746823	14	-1.272088809954552	-1.215015671168437	-0.7246035566244565
Si	12.389653587863961	14.80574464694725	4.290554707116857	14	0.07551104925796094	0.6958100052546501	0.7238471374392689
Si	10.785905725490656	10.70632951552686	5.1876475466369305	14	0.33970754753509697	0.9180175254379159	0.7235578880907523
Si	11.835900433581443	12.009757153176258	6.944264637626082	14	0.9920033950199649	0.35803052959913223	-0.8026877680868216
Si	13.530012011001821	13.402324507565249	5.941402024362087	14	0.1324309501669952	0.5852180236769928	-1.4443083862824346
Si	15.078630989606115	15.148137773493689	6.813639538251549	14	-1.8606976073277561	-1.8815932373751314	0.3258927415394093
Si	13.439615655999882	10.98918736439735	8.299720363332202	14	0.5706969350498604	0.9321948572837443	0.017575818858000254
Si	14.957438837187913	12.380889759982386	9.531209540456496	14	0.31568185387097325	-1.4220307871254798	-0.05178617491629455
Si	10.710360549952837	13.341222512055722	8.46522125448127	14	0.1610393819537508	0.767741818796433	-0.1267521498463841
Si	12.302521228348638	15.020042270621285	9.326149024009593	14	-0.48701002798436055	-1.0405929146917197	-0.009616962339481876
Si	10.362891910424706	10.757084645343802	11.099510411845106	14	2.7197321769477507	-1.2877296149486088	0.8611691012567818
Si	12.234891241865872	11.938846851229439	12.230909167372197	14	-0.8385660001662959	2.161117894239394	-1.0050137021609782
Si	13.575887467566266	13.673693092322834	10.742168185969948	14	-0.9287243793226084	-0.1602749923420708	2.155365046085563
Si	14.718563327499629	14.955741559534871	12.475823068710728	14	1.2004089647341438	-1.3987028914452442	-1.048281290930558
Si	13.728658776317516	11.125818215467262	13.709564402720789	14	0.12133945892640835	-1.728248145202456	0.5835234081604831
Si	15.126987082740389	12.302945547761901	15.2009492204672	14	-0.22611148650137855	-0.2521099892776519	-0.4903758619589665
Si	10.964103559082675	13.279810436974966	13.847810931556578	14	0.6543871845522764	0.6672568522322776	-0.7023768653528403
Si	12.434109206391724	15.164245591220157	15.06028733497131	14	-1.1472945568094608	-1.2827977207235008	0.22790714645696997
H	-0.9841909270827853	-1.0623685149805644	0.6317708064014507	1	3.5012875161872117	6.132638719086469	-34.1339291813213
H	1.073495475594452	-0.2377184232882779	1.134675806995657	1	10.951726983825676	-23.448916579212778	14.9145474453799
H	139.92891614142255	139.9256929458795	139.8806514401619	1	0.03715992808156817	-0.2607211352158919	0.3276189816513567
H	70.85158430001295	68.97072811681885	69.15620139635054	1	-3.2694758891910647	0.2664120197315076	1.4144406271098706
H	1.9240796434256773	1.955397680119796	0.145784726412139	1	-41.84700294364438	-33.29829552677263	11.972316956237176
H	135.82314601078969	134.00766276119936	135.91313436635582	1	-0.04141073650736899	-0.0910464389338917	0.1811243424936836
H	2.0474798887905763	3.923471086711881	2.1419154382072096	1	-0.13006964704097118	-0.2682349334034926	0.20646412808693498
