223
config_type=interstitial dft_energy=-22769.492387531624 dft_virial="-114.41297876605478 -266.32107178867034 -35.98253859895179 -266.3210717886704 -132.2007088609448 -25.16303303753228 -35.98253859895179 -25.16303303753228 101.39844256694413" pbc="T T T" Lattice="16.3199774331 0.0 0.0 0.0 16.3199774331 0.0 0.0 0.0 16.3199774331" Properties=species:S:1:pos:R:3:Z:I:1:dft_force:R:3
Si	-1.6569020288729106	-0.958961873968956	-0.8045585674743969	14	-0.7739502668129945	-1.2122231936802241	-0.7450021920134473
Si	0.1660068104494932	-0.0437538594981411	0.19649252829452402	14	-0.6457359293710422	-1.3208205117505107	-1.1821502603031122
Si	1.4025715005554802	1.5830378110107	1.4902097793712272	14	-21.942829931408355	24.57671521571115	0.7122555662139134
Si	2.7449875642925536	2.803967962735777	0.0162710175008007	14	0.32737781197232685	-0.3946911490275276	-1.424919681063198
Si	4.13316484475204	4.069794372379313	1.381306569960151	14	-0.05190881664006561	-0.7689849482187245	0.3813939065327859
Si	2.711972249945392	-0.003916794583944	2.5711308446977394	14	0.28615708014811675	-1.3547976685562677	1.3397111938692348
Si	3.986905206996598	1.288951817666238	4.1770166241147795	14	-0.7300915809303126	1.074413234072947	-2.172833135630649
Si	-0.1637056936314261	2.9252253950637104	2.7643593775056434	14	0.2822063197131772	-0.6797305696929761	0.08355603780470429
Si	1.2911713345971396	4.188832287776344	4.116404227928246	14	1.251582188142115	-0.7751864542509216	-0.8297447949233999
Si	0.0501349706744832	0.1161655993688058	5.331687667461471	14	0.46801675876336274	-1.0810888519261799	0.5808777407860508
Si	1.3239255293053713	1.3128279446508633	6.883276881958587	14	-0.5101286356915361	1.3308156836825864	-0.1374965418687509
Si	2.6219838943792793	2.7122823295166216	5.463324605436855	14	0.10661910963696457	-0.037346590327810916	-0.14199751884220216
Si	4.158444489795912	3.9108541121583515	6.752749702448653	14	-0.5985697736045217	0.8437488342706504	0.8615815065501334
Si	2.589001219986984	-0.032868434550263406	8.204868654491026	14	1.6726449073278695	-0.5324661416024505	-0.4659076810692453
Si	4.073335807482295	1.31049418787793	9.530067142036177	14	0.2233709453406327	-0.39160890796973413	-0.82318436258851
Si	0.0083884684006134	2.913605571131343	8.204803374581292	14	1.717010615179685	-0.9966262423855913	-0.19478822460707854
Si	1.5018459232810275	4.035310260063173	9.63209964094792	14	0.14130717706374238	0.06490601114394617	-1.3729105913156467
Si	0.09816466426009651	0.1052312144886288	10.951259736842825	14	-0.19743800575002315	-0.48317239618350755	-1.5756592151044357
Si	1.482816829594033	1.370208985305643	12.182079794892362	14	-0.2433551185520157	1.0056163692480211	0.6768344766603613
Si	2.868546113438554	2.7000260264643634	10.86778305227252	14	-1.0102559287982282	-0.8624094024632212	-0.26360642960616204
Si	4.15606177309068	3.9910341612871716	12.112393491253025	14	1.209860347891008	1.4080779127741	1.5274646172098563
Si	2.731996862255806	0.0882747579356379	13.549204304463148	14	0.3484009688435816	-1.3615360213793117	-0.2810475225453865
Si	4.018468043352213	1.3711718639741957	14.870420717514625	14	1.0282156136805265	1.2320546432355903	1.1107601786522845
Si	0.1156760000458128	2.6031016804891824	13.675994209140903	14	0.3645606228912443	-0.3518642477098211	0.03226480066253824
Si	1.4394709695317194	4.094617058055058	14.914745776222924	14	-0.7498019314250997	-0.6989192429183052	0.5222868785294523
Si	-0.0580011997972374	5.270504072064779	-0.0288537201017208	14	1.1858354255584804	1.879688048332902	-0.5447115449107198
Si	1.3909679966005462	6.686947553438394	1.3526486895876273	14	-0.5635150665590908	-0.15969186565546123	0.37556803898786234
Si	2.7300711049187	8.093696968216747	0.0765733341161052	14	0.43563394436662967	0.1541441917061777	-0.3290976243209739
Si	4.1286768509579375	9.631022522437336	1.3180340174520222	14	-0.3212300420413208	-0.5546241843620188	-0.025925483385181136
Si	2.875955383193181	5.427420655084036	2.7720787268315	14	-0.9014305536860445	-0.24492297857624198	0.11689761737532053
Si	4.139594915860681	6.9429916793863	3.967190674257413	14	0.3593412790913437	0.4091513024585725	0.4487892618476993
Si	0.0002611196389296	8.064190449017703	2.7429965270457157	14	1.1153894537812112	1.1961645840716433	-0.7962738887551802
Si	1.2183515952906474	9.626681408440131	4.116453187860546	14	0.4575402759153554	0.01888631123967973	-0.5698086181617492
Si	-0.0622770338847096	5.466947640427003	5.37459288813309	14	-0.7382730951695557	0.7623047023759159	0.532508564840233
Si	1.3321671179090868	6.6445482520672	6.856397879126272	14	0.5503101267453423	1.4764718853953593	-0.9396842299708038
Si	2.6876881235249397	8.269691604855298	5.301185629639007	14	-0.06551124933630902	-1.2029361041533173	1.1090244254506527
Si	4.100018970585413	9.519475476682096	6.7239612622566645	14	-0.053891395952431795	0.15448332049790525	0.5975798980562648
Si	2.7659913752489533	5.309427218242722	8.130678037080152	14	0.6273391565843187	0.24589819882417413	0.14773468325358055
Si	3.9865298475156363	6.757988415204678	9.600063525246744	14	0.3376061831569399	0.9657449534958247	-0.6834949249922049
Si	0.0476869740595182	8.150980089006929	8.19163315279278	14	0.5587826901068262	-0.5319802026969427	-0.20611780020031104
Si	1.305418674896236	9.558023263379077	9.535648574318298	14	0.09084512138732409	-0.08960250618609651	-0.21914867618388553
Si	0.201714921073116	5.354421396025779	10.892654697880564	14	-2.137299174553543	0.2534001699273022	0.6882105892598884
Si	1.1709094208926258	6.805479549535	12.381771038763773	14	1.7556365875148012	-0.3132555017803495	-0.015562386281792294
Si	2.520506274700263	8.208556969390905	10.99214128031274	14	1.1779871265687283	-0.259561052495441	0.0677751075706994
Si	4.009475735786575	9.657199766240026	12.27882462111578	14	-0.20412442224560026	-0.5385938569119595	0.09827381598882794
Si	2.8059426800051823	5.327901432696992	13.58385161655362	14	-0.7866571835262304	0.6592702277763016	-1.423340251065031
Si	4.0059016607287266	6.546954787017262	15.077896590621625	14	0.8747309104889668	1.205530606531879	0.12981536472480854
Si	-0.16233481552704568	8.194423868933841	13.631505950658273	14	-0.004660642613832423	0.7996152972292446	0.21034752556248665
Si	1.3800662516752353	9.465750110972332	15.032396493538142	14	-0.12894427424234234	-0.4349526014567905	-0.9951650832321511
Si	0.0734888583812493	10.829333185440136	0.0029865558702573	14	-0.9624603664493355	0.012882266096069937	-0.04719032415652986
Si	1.3995196647754904	12.24982402121716	1.240497804667364	14	1.1201984491720163	0.29372949953701694	0.20517831831632893
Si	2.910276295734991	13.647728008226773	-0.1464391575072063	14	-2.036983643829985	1.3361450707901892	1.7197028195604116
Si	4.181831017457545	15.064579489036216	1.257780660769017	14	-0.2443115697311108	-0.6246328111243309	0.21641404856537605
Si	2.803494683390217	10.934760239657962	2.7349507781711972	14	-1.2396427463669435	-0.39275330694773203	-0.058960330091103734
Si	4.2499832432181694	12.190109223789447	4.049900319888364	14	-0.4939766949598339	-0.12173078115613489	0.7061849294425117
Si	-0.15551306496000988	13.334612921195317	2.623925971693818	14	1.9525482880057905	-0.007486030250143147	1.7397489564100102
Si	1.3069690727523804	14.920539368211676	3.973343305749691	14	-0.36912690593982733	-0.14988901240133262	-0.9832030157301621
Si	-0.0475727342174865	10.925262012791896	5.677638549088325	14	-0.6248747521349567	-1.6775027537197573	-1.376579558607498
Si	1.410029730242407	12.145408805600185	6.764663285974816	14	-0.0024350938487122456	2.062584396613232	1.5458531624595553
Si	2.6320043605232026	13.464568901495092	5.251540258287517	14	0.6000265618789177	0.31150817860477686	0.47848424274274964
Si	3.9425801482882976	14.882383260973086	6.647012568659599	14	-0.1496051623739883	-0.3537357552723569	1.5895390700647232
Si	2.686137725668795	10.852882912876098	8.177336852561385	14	1.3060716231920133	-0.23619176201955108	0.16291448906373482
Si	4.075473724526032	12.193242659456603	9.652695452468492	14	-0.6507539556243752	0.4481868518711887	-1.8187754779722096
Si	-0.0794293301668977	13.636108184294406	8.239972925949624	14	1.9953157967906014	0.14583463642199113	-0.6866314163722536
Si	1.444954481949241	14.934019669571416	9.656726486894467	14	-2.1413738622649134	0.656548969905457	-1.2722304778576923
Si	-0.0847822827649545	10.986706727827519	10.727659726031922	14	-0.2995869916773783	-0.4785181813329755	1.0650101876961016
Si	1.205719932757428	12.310713857020055	12.182259314644124	14	-0.39286386447649846	-0.6449663975487219	0.8479543912428167
Si	2.5765327572280956	13.506805003091955	10.857958425857793	14	2.3337264788022156	0.16290960396362655	1.197165258262245
Si	4.045967205326987	14.924864162231446	12.23456484231721	14	-0.6057866091276454	-1.2707132686082727	0.6328508350591201
Si	2.552509750446572	11.006339660679538	13.656606075950378	14	0.5593802149832287	-0.4780085882585222	-0.47621010008707865
Si	4.066709896644457	12.359918588980852	14.881681501943465	14	0.7686525043008293	-1.8439118891346373	-1.0106446799226347
Si	-0.10315857735462511	13.748340669101834	13.558278211915953	14	0.848496894465368	-0.5865159176426035	0.2511314265928036
Si	1.465876693018475	14.961698351297954	14.821215985553827	14	-0.28293522807143917	0.29535006722030627	1.1114350937988235
Si	5.491346006689488	0.1249294272503805	-0.06407223140235059	14	-0.19029290406533164	0.6601215207478027	0.811149532805961
Si	6.969332122963324	1.334125515201059	1.4921192167308999	14	-0.9653374333025813	0.15100898587878914	-1.6853934759472915
Si	8.192334911822405	2.6928125964389333	0.0089433476333388	14	1.203420500395633	-1.1034464124585914	-0.2692857441478371
Si	9.511625567536775	4.043225449118226	1.3877040011139261	14	-1.7406984656047408	0.9012392634502256	-0.6318005385358395
Si	8.18721043890841	0.0368505090439398	2.875743223486551	14	0.9087072959631277	-1.6352409813514193	-0.6519083819131217
Si	9.54302520411806	1.33871142885976	4.195915157982309	14	-0.8741171876490476	0.3347723108730727	0.8165262282514547
Si	5.433932326079842	2.5969000890646043	2.6722983848055266	14	-1.3154008788461704	-0.5143815010015931	0.4579154001815649
Si	6.658746632433997	3.925737931577339	4.010144854861332	14	1.8211069562765196	0.9165501956317074	0.2650786445124788
Si	5.281177337306026	-0.0610530355772271	5.380729199647936	14	1.8370390675033494	-0.8016714101537671	0.6805695213589404
Si	6.712015038775635	1.2753246365095996	6.786907415216131	14	-0.12960761941494056	0.38328212627990255	-0.08438187683353585
Si	8.10365215445094	2.7671337736692707	5.515630133109941	14	-0.2930036765051391	-0.8752564444164052	-0.6240211451686676
Si	9.446068218188012	4.237661660256179	6.681464041020872	14	0.24119153342511107	-1.6227662354485928	1.6631271896537454
Si	7.922712564650158	-0.10607985331514999	8.231600777526442	14	0.9727954385047346	0.3480147888244954	-0.30672772248302554
Si	9.353256506525973	1.2981726049159397	9.543221043847256	14	1.288947290428231	-0.6506763082437068	-0.7410390902729711
Si	5.473524591332543	2.701723304117406	8.219556634180815	14	0.3904578241179038	-0.2497016349242692	0.13779273320163196
Si	6.919588831747235	4.122197819916996	9.545097841252062	14	-1.1954271910658247	-0.9116080169853187	0.7456164290744307
Si	5.321373441723751	-0.0641701512669492	10.941320870586068	14	1.1548137543182337	0.26590062688333016	-0.6009459891414026
Si	6.746972430437336	1.3560922048260113	12.243442910040818	14	0.29434707903491647	-1.116062312043494	-0.44504496116996767
Si	8.151371768465324	2.6003272843255556	10.913886988521027	14	-0.16911265265901582	1.52124665610361	0.08543088780415627
Si	9.543318963711856	4.037464497084342	12.188085546587743	14	0.12406663033948945	0.665943274524214	0.5293774727813567
Si	8.058576376780717	0.012109423255360201	13.663411506539981	14	1.289535816436013	-0.017524396751597292	-1.5837240011621443
Si	9.650149535988927	1.1459398554199827	14.91229777960796	14	-0.6040346579624966	2.364636306961036	-0.04418881580578899
Si	5.5416604971157355	2.698524588540518	13.564789882911759	14	-1.2189672029349727	0.7686226794791157	0.8113914738165869
Si	6.934896970579483	4.044302567628811	14.958793395314862	14	-0.7299691963170735	-0.3454940771686222	-0.3916533880917727
Si	5.545560971722246	5.260826325446951	0.0291637996729497	14	-0.34324847378200485	0.9999604517647592	-0.5617353474564843
Si	6.770489517918432	6.840339021332101	1.2474990749861639	14	0.3344704631084874	-0.10000494120088364	-0.909371669577854
Si	8.168001825469652	8.239581246491229	-0.0730318990131225	14	0.01363071485476504	-0.6520382227317891	0.1200971008357128
Si	9.629423164648891	9.343268680336916	1.4031426997656387	14	-1.8690035630644948	1.381700686184169	-0.14736675808226737
Si	7.949656847392207	5.436004963213846	2.586830662988382	14	1.0878865972821192	-0.6322108869449353	1.2679956102848764
Si	9.445545978910152	6.779987744784497	3.982237693450731	14	-0.678427533516725	-0.8485575725509235	-0.4575505603366359
Si	5.58495739724575	8.251788589611188	2.5645538937922003	14	-0.679765279614798	0.39869384578993416	1.084133554846299
Si	6.9961458458859065	9.50586461550289	4.032976503290239	14	-0.3316738718517623	0.24894264463376148	0.2947016344585649
Si	5.489322329487783	5.391076065340522	5.442435034322487	14	6.223501066879437	6.157900600188519	5.9893445918313155
Si	6.804973630234573	6.83880494345339	6.676519087858643	14	-0.6144070110450378	-0.7234200768455924	1.7262426830527402
Si	8.233118535427721	8.021725867736777	5.487233372376347	14	0.843238726975133	2.218217515410307	-0.7370927007170758
Si	9.493771512224964	9.62119789602261	6.926361622381971	14	0.6753445211273355	-1.9174455012908722	-2.1858544985245394
Si	8.057140218766603	5.4454705501250436	8.128115800623156	14	1.1575028733725767	1.2539925993797536	-0.7128870296805417
Si	9.449022134103403	6.989944254461329	9.404517555643341	14	-0.4500172217486021	-1.0710862237886756	-0.029321656402564737
Si	5.522337643834945	8.180453968251108	8.111828463144922	14	-2.2022041572553603	-1.1905801433162817	-0.4100306204780631
Si	6.7690370399268875	9.484567044952694	9.407863151017125	14	1.20850023317665	1.7203733638279064	1.006742770488778
Si	5.521211565392061	5.521913324421685	10.89069630058859	14	-0.5534193644089974	-0.6535613455234448	-0.3890959096298214
Si	6.756764416897195	6.908050607702033	12.251080659479507	14	0.5138557099636227	0.30003436400308403	0.4988605095154552
Si	8.211070245915602	8.294661170327942	10.832858300565684	14	-0.8354140821543263	0.22287806445076033	1.1695117349913924
Si	9.496039989088164	9.569430927604815	12.449547905043437	14	-0.857145578541282	-1.3985627662052962	0.6604087132120632
Si	8.135622990242382	5.468465398328282	13.601036552790674	14	0.776475863568976	0.11572647890199311	-0.6934335326072373
Si	9.58287858900969	6.752570182696889	14.993065347924372	14	-0.8703811145083403	1.4225943734116564	-1.5809117261629662
Si	5.2366074789362305	8.132212114958865	13.72136374640492	14	0.4034521904059322	0.1595771943581826	-0.5254850764371846
Si	6.6162657311756385	9.567994769590703	15.042465919614365	14	0.80380671312215	0.26008041577011093	-0.536240009991364
Si	5.4037077278737415	11.107164481261231	0.0117177437969658	14	0.3135699479610036	-0.6468826423438282	0.14545539838726929
Si	6.925333463803685	12.29667867642759	1.4027673402846774	14	-0.8217165185612376	0.47481990344047453	-0.49053398493615563
Si	8.186019080555795	13.778124627917242	0.083068685134479	14	-0.9388267663465344	-0.2712827216499961	-1.1161109059340446
Si	9.671169666922761	14.892322127229846	1.3610208380108075	14	-0.6177641032615552	1.6095852069143217	0.8709339021521721
Si	8.306721633651001	10.969913471048859	2.661429279835082	14	0.6269956569135469	-1.2931340783315601	0.5532206179677499
Si	9.781509034347948	12.19433609794462	4.0567547104102655	14	-0.9972908731108496	0.6614947480992938	-0.3010977731634973
Si	5.424695218852708	13.61471269387961	2.6969089107746416	14	0.595534583774087	0.3303361257536892	-0.6072539389338539
Si	6.816087534866514	14.860106491776905	4.091695782094533	14	-0.3573476440261009	0.8703518039076907	0.1042079270677297
Si	5.6223464655449815	10.855820508814057	5.504597828365165	14	0.030694883754055827	0.08937084959675118	-0.4739611542635451
Si	7.034677312605456	12.293202521234338	6.80748690675927	14	-1.0455181240429952	-0.18806529841595537	0.19000674004319915
Si	8.311617626880933	13.582643938223569	5.3414633339438975	14	0.41350418376558323	0.11479291056024733	0.7048944916823294
Si	9.501392941686222	15.01052772377779	6.916161636486284	14	-0.5828104406552062	-0.9193262180458712	-0.10416884626686346
Si	8.344583981295793	10.927987449023224	8.211853604832392	14	-2.277688724128524	0.6041755545340406	1.1254249920668133
Si	9.68784868385939	12.172989567462125	9.583156028626052	14	0.4851894283071639	-0.049776598998066815	0.08725534413933334
Si	5.424319859371746	13.561623807289738	8.187145158998678	14	-1.2790539342668332	-1.0570245916822538	-1.7445265843159092
Si	6.630056112106607	14.810248960718784	9.537166332219575	14	1.1493390997600426	1.031587104086837	1.3482176958209446
Si	5.506915265160665	10.938236394851213	10.848868198427557	14	-0.15698063509536508	-1.6435639063832708	0.45904720074349414
Si	6.864557867842822	12.267612796619238	12.140088492956995	14	1.5578779649313557	-0.918247125143005	0.14193864053037075
Si	8.278879752150134	13.533912485608335	10.769128788689429	14	-0.95208749914573	0.7881453392855321	0.22668355743511148
Si	9.470156504879268	14.965974185385425	12.200700889143528	14	-0.8622844467446619	-0.8360738277794765	1.5060385681349342
Si	8.150735289345432	11.01508716858368	13.781258063584398	14	-0.8739549509033462	-0.7096690342618445	-0.659759252008194
Si	9.531960259418417	12.383011357048689	15.06608092696006	14	-0.284216152741937	-0.7199213167259348	0.569369987594132
Si	5.533859547902714	13.427538872699389	13.486959910533306	14	-0.877162661900763	2.6888012657253055	0.646096141226395
Si	6.697163859311515	15.094477687693654	14.911514420691171	14	0.23848235974927104	-2.457079627415364	0.40859697215154855
Si	10.998701911240847	-0.1041867359329104	-0.07180790070564	14	-0.20933862383486054	0.3419621497903348	1.2263246779191084
Si	12.181818675253432	1.3463165383435844	1.4001071839630823	14	-0.6526861412724665	0.8600226453945277	-0.6047609952154384
Si	13.583770016666454	2.7428496472488177	0.0598779972020439	14	0.3429913632499901	-1.0359893506159943	0.28582489334075367
Si	14.875822630044981	4.185454052447692	1.3447171805551408	14	-1.1130924282881907	-0.17041106084569058	1.0356147405708487
Si	13.591326166217979	0.1418369238710721	2.7389981325746064	14	0.023696849293676787	-0.45113488123127043	1.3857938858538448
Si	14.965941545430558	1.4682757297011408	4.163568962709905	14	-0.5374684841133307	0.1291430206835898	-1.1176836510583794
Si	10.620176354657525	2.729026626362982	2.766383054707348	14	2.9240208928233087	-0.6245034845267273	0.22813520349886712
Si	12.252924816929449	4.147608024780333	3.9510012566437775	14	-1.0492500834151899	-1.901110497860376	0.692716965554512
Si	10.828664066365377	-0.1315716580656522	5.4448177510277205	14	0.4553867180991993	1.485810397028669	1.213730118508363
Si	12.26682943770245	1.365802591398706	6.798788358787428	14	-2.0539058877156036	1.0826700816980708	-1.9042775853937344
Si	13.53242736766192	2.7873379057314485	5.394992859924465	14	-0.1793325391960724	-0.13296188341560575	0.4921897767623309
Si	15.039201924127745	3.9894837634310276	6.73425916801695	14	-1.4428410564762264	1.6326001990770953	-0.32184325066017605
Si	13.633154268379016	0.18342022637061092	7.960966591753345	14	1.9903047125216324	-1.7638893213714124	2.7181270358963823
Si	15.156901601375262	1.5029230417916122	9.48053601052672	14	-1.5908691028468358	-1.5444228565699567	-0.03728976890023565
Si	10.816391443335686	2.6667985524105715	8.120363811342433	14	-0.30209921868569495	1.0088677890358801	0.43642764457895944
Si	12.22534405506751	4.1849318131698325	9.525040588986784	14	-0.33903417505175015	-0.15057369774808807	-0.16835109126318792
Si	10.793625074816513	0.049302651825395095	11.090828183850697	14	0.7229698763040343	0.43773222341840257	-2.5257641349377997
Si	12.309179779141344	1.4585163831961472	12.130312826474569	14	-0.782083187161687	-0.0036028898851235033	0.19278841888906734
Si	13.662970867149287	2.6900871602076055	10.809651292655817	14	0.15713001631446566	1.1241270981012024	-0.46628434799864693
Si	15.100254959704973	3.845492602538786	12.301721549454417	14	-0.4754253987433694	1.3361838944805235	-0.8391226444681081
Si	13.567988598488647	-0.044488258482630605	13.270295890131468	14	0.3561201983462622	0.2685828039533086	1.4421314314078655
Si	14.893285005898397	1.3060877939709932	14.944366535264	14	0.20077041535546705	0.9279769590060414	0.4819256672137678
Si	11.087254108792848	2.7473702809977865	13.612117817467748	14	-1.374096642199831	-0.06276787995971103	0.25472223228292235
Si	12.415112752659597	4.098321692932371	15.016712995224934	14	-2.479673729637229	0.07730439521876423	0.5926600880261613
Si	10.730042442737156	5.4217249829598835	0.0274338820650411	14	1.5122328750722347	-1.4420347578478279	-0.49977350901463974
Si	11.967374171782497	6.809902263419369	1.2955124485943441	14	2.6105044238529644	-0.33183585148693157	-0.027784135421116185
Si	13.5969565584324	8.134904911235326	0.10906640918540729	14	-1.0385787107839153	0.327344901824229	-0.563292408838366
Si	14.98431784002023	9.487651520687551	1.4187935581239817	14	0.3575492186832005	-0.12723063254646366	-0.2789286746510525
Si	13.43971357586448	5.573174373539052	2.763624978521154	14	1.0387404333085528	0.821600818821831	-1.9207036059525642
Si	14.895161803303205	6.937818246540007	4.026301632520101	14	-0.4316955252372269	-1.5371399436401052	1.0623480652476203
Si	10.879696635798682	8.059588215381568	2.737855734154289	14	0.11323199252038542	0.9565810199137529	1.77019418583748
Si	12.207522639710565	9.400013241871804	4.255907395026385	14	0.5786737893056199	-0.022115876632317732	-1.3943988611393163
Si	10.747847538116666	5.339113257193532	5.217986384685063	14	0.6197518247845617	0.9147486221338795	0.2090498887074079
Si	12.084062010429163	6.699807695655677	6.625013239079779	14	1.0370008234489405	-0.21036012397855539	0.9357324410937362
Si	13.637071062962958	8.109527346326855	5.572391014622263	14	-0.561956205403485	0.27548365063258606	-0.3471732660532109
Si	14.960768112584265	9.448516214802977	6.929919377462387	14	-0.5521183851170024	0.7191204174187087	0.27342342393955144
Si	13.677919966478008	5.498118797324224	8.10613279102077	14	-0.8316173309280637	-0.7099017192933178	-0.3904570527863078
Si	15.08987545405752	6.757874175362646	9.494962870577579	14	-0.27990543756217673	-0.2500271368578	0.6368563600373788
Si	10.884984308487008	8.172865178744717	8.075957152746968	14	2397.073462697152	2473.282487602379	-107.9189630419398
Si	12.167212295450808	9.47301250093006	9.45905892022476	14	0.48239206571884263	0.120135153194451	0.8467058624993526
Si	10.734269316892329	5.719368731384761	10.84457604436265	14	0.8996801451840878	-2.091137292525072	-0.01905806107506562
Si	12.3403182960837	6.750301705833688	12.183483312951608	14	0.2993473646615405	0.1277070583622871	0.07464638653879514
Si	13.650845123916495	8.17436661666856	10.765946393089974	14	-0.4434843002406378	-1.0698207257500987	-0.0757756159954042
Si	14.818735348983997	9.595901931001304	12.121646918457591	14	1.027301842849746	0.43249591032338897	0.7119956274660464
Si	13.637479062398786	5.2527642565949995	13.581566819712986	14	1.2824210537940992	1.7763344995630574	-0.8172206837984266
Si	14.916736813469763	6.800077637004643	15.039250884060044	14	-0.2991972121108438	-0.8158487419995956	-0.5297927062905606
Si	11.089114586220221	8.141906181554125	13.584912415086771	14	-1.359928566333155	-0.4160680899908348	0.37961727275656354
Si	12.215601028539949	9.585848824902515	14.983028561803014	14	1.022405686988588	-0.13698334924684935	0.3688736520657927
Si	10.75701936543407	10.783474048853124	0.051212089185067804	14	0.650298612872177	0.7865180867284103	-0.5411868166273288
Si	12.228053171321402	12.062927639653298	1.3916044757204369	14	-0.34050613284753495	0.5043639604532322	0.21108466145777308
Si	13.486225511548815	13.475062646984576	-0.011244464451405901	14	0.44012515113986433	-0.6268460185839143	-0.1269691511354046
Si	14.861689529587917	14.833766048199882	1.7150337884896127	14	-0.738920242378637	1.3561009618430506	-2.3232805921075177
Si	13.593986322539575	10.74992017525067	2.767917132586059	14	-0.21678814438945762	0.0037990652210508017	0.9884920364842387
Si	14.944529735038332	12.09946806912601	4.218861046253248	14	-0.2810079275234562	-0.13704299889027677	-1.1781547626356021
Si	11.04746600381095	13.673170853044976	2.714681366199287	14	0.32278658920213843	-1.0635004346521106	0.27551604655962
Si	12.274809906667235	15.032739213064238	4.17254495029811	14	1.177596575670598	-0.7996651766724555	-0.8110765134148686
Si	10.929521526901937	10.823001034196093	5.516560371823628	14	-0.18072402139533655	0.1767334088279347	0.15899458189263707
Si	12.262977923028238	12.242888030808093	6.797156361044118	14	-0.0846675266346043	0.4204646800882881	0.3893193386821423
Si	13.67018429717472	13.53247632759422	5.447020947981189	14	-0.02659654187373979	1.650982573674026	0.5799865956820875
Si	15.15151600882234	15.061723492985422	6.8036680320399245	14	-1.5758029398918318	-0.3247079762078851	-0.8361437618441845
Si	13.54378607195536	10.9250172131304	8.230099339602598	14	0.0972939677513195	-0.6483402019498202	-0.6782390714967582
Si	14.840098199443926	12.359020990222032	9.491372475542297	14	-0.11310780813342226	-0.4913081447480521	0.219624844889177
Si	10.962275721610167	13.658499193332618	8.245668598073774	14	-0.41381117374080884	-0.5742026371538824	-0.8218761842016188
Si	12.230631727755833	15.106652390858747	9.486900801725628	14	0.03729208289502378	1.4763222470657267	0.07232930642427769
Si	10.785579325941994	10.621808352400835	11.017518845221211	14	1.3866351515145972	1.8631177887656114	-1.3374609624930411
Si	12.145376165645319	12.250835859818013	12.167555014976902	14	1.3044456561875517	-0.9762949699559883	-1.093089743118503
Si	13.499428373292194	13.719225829361186	10.780014213637308	14	0.09746134670766114	-0.4711439941642588	0.836137848301948
Si	15.030601296020501	14.988071434829843	12.071968907151234	14	-0.7522946180329834	-0.11893239012568572	-0.16537375130245646
Si	13.551162701755121	10.988322405593395	13.581338340028923	14	-0.29988369723132335	-0.6277253366034049	-0.3288207162779939
Si	15.059275496370457	12.19627817525916	14.840049239511625	14	-0.3493139683427662	0.352661547469599	1.3040111393884466
Si	10.837917493569947	13.429856309494888	13.495168859182153	14	-0.6764806925683089	2.0290898362760665	0.687699453522243
Si	12.216417027411604	14.995594944426502	14.785246755291276	14	0.5291769265663852	-1.2209148152149847	-0.3450819289858025
H	216.91191269905568	216.91191269905568	216.91191269905568	1	-7.746055901369937	-6.359182922613227	-7.310488805741634
H	196.91194192256822	196.91194192256822	196.91194192256822	1	-41.77151092056578	-64.04419823791721	-52.87444049450085
H	166.91198330984042	166.91198330984042	166.91198330984042	1	-0.001968952454169399	0.2206131777742419	0.08357146443662518
H	165.91198322061817	165.91198322061817	165.91198322061817	1	-0.10734750377416252	0.06119513483537645	0.003786981026046106
H	1.9122101238385836	1.9122101238385836	1.9122101238385836	1	64.955846107035	42.044733284069295	54.149015820410526
H	108.71484912753668	105.99985278577294	105.99985278577294	1	-2396.996487660525	-2473.534600676983	107.42568337363227
