227
config_type=divacancy dft_energy=-22554.72862287387 dft_virial="-225.76488753372936 8.217396514556537 -153.02157220064436 8.217396514556539 69.43081455256925 8.92379728341351 -153.02157220064436 8.92379728341351 -3.547967703468073" pbc="T T T" Lattice="16.3199774331 0.0 0.0 0.0 16.3199774331 0.0 0.0 0.0 16.3199774331" Properties=species:S:1:pos:R:3:Z:I:1:dft_force:R:3
Si	1.090843611605837	1.6430463680322087	1.1903954739477471	14	6.080915022029454	-4.281640092357907	-5.900070930015666
Si	2.7273130287325067	2.734901818238898	-0.0952433882995716	14	1.374304901730763	-1.0468203888876502	0.8815250562974581
Si	4.181814697480111	4.260346428888187	1.2964100473531646	14	16.164984720322952	16.80613996845562	-9.67904939075281
Si	2.432003037080562	0.2906098381512117	2.553750068731488	14	1.3398785728255764	-0.8172528226149285	-0.05689264719264066
Si	4.075114685022503	1.3386135089951612	3.929801605958181	14	0.1765513745712682	0.801184957027195	0.45966709423618185
Si	0.0725096597352633	2.6490097770084926	2.872854587480892	14	-3.8727425579944335	13.620841296114607	17.170338322607257
Si	1.4488059966234526	4.060443025310146	4.179562540594343	14	-8.835169687221365	34.4961058753597	15.858902088164754
Si	-0.011260784428839	0.17206152207717332	5.305951063049473	14	0.4820295398687018	-1.8485439924794165	0.8226945670250219
Si	1.5228660542148602	1.3428403831503342	6.814618736897535	14	-0.9280795461083153	0.13335474830852437	-2.315300395414842
Si	2.843576547965911	2.777692799068486	5.425723377430993	14	1.5441444058637848	-0.6115199168810437	1.2840603905462256
Si	4.299579654637361	4.17212063088485	6.833664150561963	14	-0.5230600098992209	-0.022635754128051674	-1.4372738421265097
Si	2.607312234666922	0.1168183984661298	8.29175621434485	14	1.5695924349910144	-1.9369445069283433	0.5178769186843344
Si	4.095237217197515	1.41446876410421	9.507300773517002	14	-0.5869828303687423	0.2857595872656219	0.6753764028333054
Si	0.1518247500601293	2.6434283447263724	8.021236268413784	14	-0.7024686538127697	0.40273510913214294	1.671282992839787
Si	1.5342084385308647	3.9547385314759578	9.465146271807306	14	-0.8798720926871351	-0.19916784540941876	1.2013008811697032
Si	0.0988664232897198	0.0194697330776883	11.081607396600996	14	-0.24024176711984838	-0.7779758464127504	-1.5633647036845517
Si	1.45316343059809	1.325998166439375	12.492600005511955	14	-1.5119976189354414	-0.5119654333322499	0.7770047399333305
Si	2.6259822888503885	2.5282582639809856	11.084447072674354	14	1.960098852999469	2.453608892343696	-1.693207065015222
Si	4.038639535459525	4.210146178303972	12.41339915502912	14	-0.07295717034345786	-0.3878185845067718	-1.9325319759779052
Si	2.9506192799496134	0.0483887330891415	13.709352243014159	14	-0.6357453854285429	-0.9415431391172707	1.3465053396777262
Si	4.374880030513684	1.506954076217588	15.092046011056123	14	-1.4108739898097613	-0.8946796024469317	-0.13826453102787917
Si	-0.0269606027194812	2.8628830812692683	13.634329306754198	14	1.5646620834290983	-1.0957714059674173	0.5877299935747774
Si	1.591181479749817	4.086293869564177	15.043314558440885	14	-2.56386611600867	2.241863971039709	-1.6331820402110448
Si	-0.0488783324121345	5.351043160697127	0.024904285562910602	14	1.0984103884680174	0.1407554178620386	0.08316317291178565
Si	1.3002942019822423	6.744377554025473	1.4922334565729316	14	-0.5254272265674812	-0.10764472354917164	-0.13222037664127503
Si	2.6307314022834207	8.193379390378123	0.2270598460267203	14	-0.5738995038366368	-0.3960651477106148	-0.15920926918686942
Si	4.131859246557392	9.515917721601681	1.2910570947551079	14	0.9966000171113257	0.27709419100512683	1.178951805284848
Si	2.755122270278509	5.361341066457413	2.780891514645374	14	0.3704533391744917	1.297541981292422	0.5243090528637487
Si	3.985191609366122	7.044355059223284	3.982955772457787	14	-0.493268355444133	-0.06935633734259049	1.5588269599050224
Si	-0.1109595265676469	8.12318716743836	2.8380603955935233	14	0.29172378027676943	0.10096884858540714	-0.595814577143451
Si	1.0998685591263413	9.554693987982725	4.227445354383058	14	0.3535084695620558	0.9013649905003808	0.18360828734347864
Si	-0.20889571114368002	5.581448602097633	5.74510533579676	14	0.7571619775145555	-1.3668145006015757	0.06332452426152307
Si	1.3307799198272734	6.863937708700363	7.091307634298312	14	-0.08563374801391595	-0.16072544999416075	-0.7088946173394157
Si	2.563297255529852	8.358113242587836	5.6059938481570155	14	0.07316877231130604	-1.1689108676780737	-0.09159768391453144
Si	3.8411351685641484	9.735845737490136	7.015060699730869	14	1.2049217687920677	1.0920206775263852	-1.1809744938402085
Si	2.85999444526361	5.398061015681889	8.261580576071047	14	-0.28852635370063323	0.8408164886530216	-0.2674065232693409
Si	3.9454524643165234	6.935876169225469	9.68122277302155	14	0.9445770433950454	-0.5526102375647468	0.7024568267282969
Si	-0.3556939081544145	8.219295514541885	8.208295849751975	14	2.1055380534232215	0.9956695340959641	-0.8939236974828082
Si	1.2284863012766025	9.595918250978738	9.45974435927695	14	-0.4571075588899744	-0.10887654010805459	1.2248740602974808
Si	0.1105515271318194	5.437310561408494	10.782951809575264	14	-0.6909020223090195	-0.6063026299653991	-0.3785366371905053
Si	1.2424725219367694	6.766719603131387	12.354598276337661	14	-0.4362196421585594	0.003947160887491331	-0.48703985280607426
Si	2.453692287089152	8.202812337334453	11.068029175376656	14	1.690728776597131	1.3073070392983444	-0.9676113188477201
Si	4.157759050743722	9.525040588986784	12.438205520727433	14	-0.02867836585146369	-0.5398506131924479	-1.8315641558346263
Si	2.755138590255942	5.649796667587457	13.633301148175912	14	-0.03914019339914622	-0.6946553218553717	1.0191776642591421
Si	3.9682677927679975	7.011910944086281	15.119447253166298	14	0.5070278826754375	-1.2458113422510426	0.08075481855840295
Si	-0.060237036705572095	8.101791677023565	13.730600853632055	14	-0.10130000695064223	-1.3523674598076636	1.0049805349023484
Si	1.194965067629015	9.409234029121507	15.169549583885916	14	0.5397369703372973	0.4543042827594169	-0.27962750107706874
Si	-0.13367693515452211	10.85782786603833	0.1562474639444994	14	-0.3715568575778993	-0.23225771376919255	-2.0429532361623046
Si	1.264814571042683	11.99797412946956	1.4111068487529914	14	1.3495816671932832	0.7353397211097988	1.464036734514463
Si	2.640556028698147	13.50735988232468	0.3009893437986633	14	0.483161854651695	0.3724459457976065	-1.5479792094487856
Si	4.068390854320066	15.179814849691335	1.3627670755961492	14	-1.2983688487633815	0.4951578607439099	-0.7837492634091429
Si	2.693073716077863	10.661498537518137	2.8291333679376174	14	-0.2524144081475575	0.9788133676170733	-0.13715021398212696
Si	3.8790138361863735	12.40223629046488	4.035701939521567	14	0.5554559369330866	-0.22023702506590423	-1.1969356585571558
Si	-0.07347253840381619	13.499983252524919	2.592705854864298	14	-1.5657072377417387	0.2997847096764977	-0.4045148282347495
Si	1.2175845563512917	14.99020935187358	3.6786208332853385	14	0.5646178136309022	0.7869898845546575	2.9165772858109476
Si	-0.18745126079658658	11.22483151855388	5.485421854881273	14	1.0838484192662945	-0.6507544698454393	-0.00845199451892278
Si	1.3047005958891795	12.582833160739565	6.956618860542938	14	-0.3608628592198074	-0.8510114354684727	-2.6559497388287094
Si	2.698051309194958	13.79669676223611	5.429476972240606	14	-1.03528821019519	0.8572980450867669	-0.2640196062311098
Si	4.096216415843501	15.105004073138003	6.8567569186298	14	-0.6689139296111131	-0.3453740065501713	0.35553887143337676
Si	2.4900695167875315	11.24666764835937	8.31666049990776	14	1.2023028409129648	-1.5784835742986183	0.3884446486522279
Si	4.049737120114033	12.547467769642036	9.532041859305584	14	0.28078295580794327	-1.551597268855298	1.454452425212547
Si	-0.1579284216201087	13.777928788188046	8.108531827703436	14	-0.18032987094975786	0.9853460320145055	1.4274041401340571
Si	1.4992020869368654	14.765401662732627	9.589994099170521	14	-1.7558127082292314	1.5374453909521388	0.3942995696872691
Si	0.0812082077071056	10.898986849124606	11.12828253205966	14	-0.7532641818492112	-0.15441775731224147	-1.7787775638382621
Si	1.498320808155478	12.04234814811016	12.51663933227091	14	-0.8860592005295391	0.5661185678062728	-0.2737687233840473
Si	2.64825905804657	13.542855833241672	11.201575550711713	14	0.9642231162568289	0.3414250458889559	-0.9643347022277234
Si	4.185421412492826	14.89860531854159	12.322039921358627	14	-1.1216300406142747	-0.017202494365514753	0.2554290291354311
Si	2.7537840321289946	10.649160634578712	13.819055131319457	14	-0.5908893677921754	0.15346259168580645	0.9406702488610806
Si	4.0006629479727005	12.053135653193438	15.164506710859087	14	-0.48572293266109445	1.6782046654721579	0.04614079896484541
Si	-0.0118646235938637	13.514246912801449	13.696377860954843	14	94.46644429781934	-42.065237848997484	-18.580612216435295
Si	1.2324194158379795	14.705703185282347	15.023893785295497	14	3.159365732750403	2.011753901544436	1.3193231000120564
Si	5.6467774717623325	0.1280302229626695	0.0953739481190364	14	0.1992051264365609	0.03794257254102124	0.4132139059749385
Si	7.1155917607187655	1.5044407996928904	1.5057137579326723	14	-1.7196082028846302	0.09203374337682854	-1.0704125941947968
Si	8.45327503100024	2.8392354339687063	0.14237548312636442	14	-1.388609246179407	-0.562512849705297	-0.3356685981876763
Si	9.67521702132617	3.904848360462971	1.664800897950531	14	2.2772094700968486	0.7773317845300532	-0.3664688972598582
Si	8.183114124572702	0.0712693414503477	2.8709614700986523	14	-0.30449163218609276	-1.1090910170784445	-0.5129594226490192
Si	9.41078442697765	1.5974973110164266	3.9184592216421765	14	2.563335696981124	-0.07845419351793445	1.2585028323323575
Si	5.489860888743076	2.9113697342230083	2.6378305924668193	14	0.41513195054376884	-1.1055158951307786	0.9261730715134255
Si	6.776886949072208	4.454652080206677	3.909760673670334	14	-0.09822856453519332	-2.0454436087754004	0.5640269736283323
Si	5.43855087969341	-0.0460386563387751	5.408946440629766	14	-0.8981508517396637	0.9142788811918886	-0.5717513453416532
Si	6.8333867109456	1.3903804774129547	6.532054647620842	14	0.7389680649375918	1.0420221921391897	-0.11969497996364165
Si	8.198340663517785	3.161718188046762	5.165550297192513	14	-0.5432614415101563	-1.4404278170227354	1.7741673148887045
Si	9.28126908606857	4.339579919325888	6.921204509513112	14	1.3809293545881247	-1.2534426399517742	-1.2672502468525655
Si	8.09638976449321	0.009579826753229699	8.005193730597046	14	0.7942622559526964	1.1171861421789306	-0.5008258624221763
Si	9.307903289239388	1.5871994052561404	9.358413619394831	14	0.4166833554939463	-1.6150938000627388	0.6147610522476222
Si	5.484964895513146	2.6111311093862675	8.019702190535073	14	0.5991829822233771	0.7427064520730872	1.225204704441652
Si	6.696608980078789	4.090928743155177	9.65153673407074	14	-0.7259451593805097	0.3434970996664632	-1.244443514220724
Si	5.2425969106541785	-0.0705349424658582	10.85304611265043	14	2.7329687413569372	-0.069226496523923	-0.6563525374589977
Si	6.786956375148431	1.1959932262073005	12.36300306471571	14	-1.27906756112503	0.3190317469925942	-0.8751571997510474
Si	7.879791024001106	2.6701441477843573	10.927432569790499	14	1.9765852945333227	0.27593256562148394	0.9423880043254715
Si	9.43273479662517	4.176673904588684	12.323704559056802	14	0.45810411931206385	-2.020067056376071	-1.699917392790276
Si	8.263620573250185	-0.09760978502737111	13.59811527683015	14	0.02360711771800362	0.17140633571511987	0.9798454092925807
Si	9.638186992530466	1.4301849023722855	15.112902942215625	14	-1.3033673346162815	-0.07752859560268113	-1.7310321380431124
Si	5.424156659597416	2.805502040614489	13.550542542612662	14	1.6469775629168313	-0.07745480487999289	0.7886287070857199
Si	6.884876239747031	3.9991778300262886	15.146962735118503	14	0.7484682990955389	-0.46631340148876466	-1.9532828527957562
Si	5.522223403992913	5.4450462307117835	-0.15213482963135821	14	-1.0570089079398008	1.1634953485422457	0.15859734612067417
Si	6.846067333411119	6.666873981195681	1.31702217885117	14	-1.2004552446299064	0.7739093862384041	0.027992137841516166
Si	7.994846864904462	7.9128226583257	-0.1817719086498678	14	0.863518834408865	3.154629242529626	0.3882515586426848
Si	9.427120724388184	9.430972239062395	1.4583858233766822	14	0.007190867359390147	-0.5158346897285407	-1.423926205967493
Si	8.276497035444901	5.552578562018478	2.635170436145224	14	1.193068973266185	-0.6391675266096599	-0.5006823947453121
Si	9.62531053033575	6.732317090702412	4.018533323261946	14	-0.1241962140476249	1.5908858150314167	0.21791814517766267
Si	5.5819218814431935	8.173044698496481	2.7126250490427166	14	-0.3936735055418131	0.1853021315283922	-0.8494314912492418
Si	6.886720397196971	9.611144789923818	4.018255883645582	14	-0.9018517007374847	0.47698554545163524	0.7219018391540449
Si	5.443528472810505	5.855036703786122	5.5697961382104	14	-0.7170344796724725	0.01418633071444904	0.4733096361754196
Si	6.948279352074624	7.080373249418136	6.968532444069101	14	-0.3372012340690166	-0.9988553906981595	-0.5496370113725275
Si	8.267423127992098	8.185921160691196	5.347077406180884	14	-0.2502001722458459	0.31309120815039204	-0.10825201862579062
Si	9.483767366058474	9.652744412400791	6.663299906137833	14	1.3666507211926822	-0.6452067958961558	0.20987521351517543
Si	8.135182350851688	5.53642178435971	8.417126280985924	14	-0.9804881856226177	0.7676484876733116	0.4760859157001155
Si	9.62746476735692	6.84417421602888	9.677240698527873	14	-0.506428043804247	-0.7969542032228915	1.1415705050352152
Si	5.322956479534763	8.337239991450899	8.30871267089784	14	-5.476620168208558	-0.2858223222354335	-0.6542113209483783
Si	6.95188606708734	9.757583947431025	9.586615863841871	14	-0.27926780344278	0.0805696989753523	0.5612406667928879
Si	5.495915600370756	5.575475490357119	11.033626662947682	14	-1.2422789006516912	0.0019990343864151315	-0.038704391047381125
Si	6.73478140729481	6.941637121259353	12.531718991419096	14	1.0387250066766318	-0.9973340676802279	-0.07663436517233364
Si	8.051134467071224	8.274620238040095	11.028224750417325	14	0.8307506113246418	-0.7554017988123822	-0.27698131948157234
Si	8.338366069893784	5.409028040516931	13.790609410653564	14	-2.2242534422598865	1.1324325396168768	0.196237299565514
Si	9.643539945128522	6.764940725591179	15.102637676410206	14	0.9789586350676617	-0.4200247639680107	-0.5121248418620991
Si	5.464401723947439	8.272563920883524	13.957203740290648	14	0.8272533938681763	1.2762486012520198	-0.9166604960499417
Si	7.082576446371604	10.07943022238919	14.728583793643551	14	0.7246878888789572	-1.1965731327070146	-0.017032030082788936
Si	5.594374024224648	10.920480259403998	0.0016972776530424	14	-1.3584216415050163	-1.7887452249434124	-0.8295388493872561
Si	6.5449637497704245	12.321990961426327	1.328266643302576	14	2.0138064149215102	-0.003078898620877325	1.1228945102107235
Si	8.020518189406728	13.55511213629393	0.119462234810292	14	-0.2531397169583712	0.05153806325290026	-2.1123545678479982
Si	9.313974320844501	15.021494748612833	1.293048132001946	14	1.5167945301312415	0.06589177292369094	0.6716102477603524
Si	8.104370233457995	10.994621916882572	2.549147835095354	14	-0.11726991342567801	-0.21072290693922827	0.7661521043769853
Si	9.655665688361315	12.25130913916357	3.830608783119799	14	-1.2222471619918855	-0.23939638769058366	0.7782180445339084
Si	5.378330162965271	13.751849464249952	2.5320608187228983	14	-1.2277524127033865	0.11614531195864522	2.5653635277471247
Si	6.706025607057688	15.02069506971861	4.015954766827515	14	0.26052624543262465	-0.6854312244088083	-0.6152269365316331
Si	5.25550601280376	11.075977004386575	5.297170915190464	14	1.2355156081070418	-1.4261975204073116	1.3716522923719663
Si	6.882150803515703	12.365026741917411	6.617457089528254	14	-0.9702711273014134	-0.7267707412988093	-0.2706489441885796
Si	8.184599242519115	13.64976800540591	5.136288577654964	14	0.3710763179935636	-0.4334171373595981	0.4153720917806707
Si	9.398675003722289	14.967198183692908	6.631459630165853	14	0.4221708655787384	-1.1962944248903107	1.5468643781819693
Si	8.174790936081822	10.954164692825918	8.023064105886291	14	0.029961861627281608	0.4389275302817394	0.17165444737851418
Si	9.527455945646881	12.153079194993742	9.560650779745808	14	0.28391816163533184	0.19072510686964853	0.26325958749847406
Si	5.500338314255126	13.608054143086907	8.081913944510049	14	-0.15575164675233427	0.697440600248688	-0.6589097588104169
Si	6.896430783769666	14.97774088911469	9.306532411135008	14	-1.6542046828612356	-0.4925687576865208	2.531882594268156
Si	5.557996794526268	11.024585395449744	10.978236659539741	14	-1.3359506952279863	0.215406175279878	0.3007653292456022
Si	6.941816641011116	12.190533543202708	12.57501589154911	14	-0.3175312499277557	-0.3809768732498578	-0.09501648265873235
Si	8.033247771804545	13.486894630623572	10.90717947779602	14	1.1618187307629773	1.248417928824609	-0.14282901430273803
Si	9.651455134183577	15.165322709730741	11.995248693238231	14	-1.5783496197114386	-2.3805020836706055	0.9593889240338866
Si	9.534963135266107	9.534049216529855	12.298457553967797	14	-0.08637139813026642	-0.16828372830380006	0.7947793052325781
Si	9.047648609113741	11.936725254163136	14.862717688166203	14	-0.019932751104979995	0.30465309760019804	0.08360694569004322
Si	5.311499855376726	13.4897179867195	13.764628006580068	14	0.28326458666295024	-0.47508472728844975	-0.10023479801650488
Si	6.683601958064608	14.924864162231446	14.952722363709748	14	1.2583315967180357	0.13521391456552342	0.46525024943888343
Si	10.767676310697883	-0.1098171281473299	-0.15916873990502428	14	0.33109305915994086	-0.527438859369965	1.7551665894622783
Si	13.513332994065195	0.21263298597585992	2.8100553143183236	14	-0.3152249684555829	-0.0020509707138821227	-0.07189838917262088
Si	13.676630688260794	2.3287138999064725	0.1588586603337954	14	-0.95309177288378	0.8192130333110094	-0.07796156973859408
Si	15.101576877877054	3.9219190568579934	1.44921399605928	14	-1.2469025193489136	0.15037546552790465	-0.5445439088438462
Si	14.865426804420098	-1.193773709276399	1.2042511347884488	14	-0.8441812941854993	-0.9140053155858248	1.6928710215498783
Si	14.982979601870715	1.6669877749265665	4.220852083500086	14	-1.37727529970713	-2.1043252630437075	-0.29208964856382647
Si	11.435212347643972	2.1354037672114026	2.5794703531660534	14	-0.8484549854486495	0.7345776454929068	0.10470697861037044
Si	12.075004422953791	4.029892027555383	4.045020646635867	14	0.16970040733520164	-0.269057944216472	-0.5401833142208751
Si	10.689895298251729	0.13051085953250072	5.587862353228841	14	0.10105163817671593	1.1278623999103137	-1.6969642212195541
Si	12.226943412855952	1.4107967691817624	6.799930757207745	14	-1.2807547204361112	-0.13198434917288546	-0.18970180695222957
Si	13.434850222589416	2.777839678865384	5.433671206440913	14	0.3223587572768658	0.9348865474434074	0.3608605452250192
Si	14.846299790868503	3.845786362132582	6.956700460430104	14	0.5323733247003933	1.3573883142768488	-1.2582174396418213
Si	13.521966262127304	0.1585159408077003	8.176227094095934	14	0.13392013436842495	-1.0005554055358414	0.6898416984749904
Si	14.97911176721907	1.4056722962677692	9.457018923045622	14	0.5112378105266481	0.1084754476781115	2.17752797394524
Si	10.74881041678522	2.7934905372237266	8.02374954493848	14	0.2761444246998641	0.5387882324741627	0.24742209294742593
Si	12.264055041538823	3.863901537083323	9.548769836174511	14	0.5973477272458554	-0.14979696683087135	-0.5653968585429072
Si	10.92106777859159	0.0430357804910847	10.574349858025382	14	-0.1520775372498427	0.2669840906652406	-1.2802381853772935
Si	11.99660325136518	1.3837219266202496	12.099386469238842	14	-0.011181737037323995	-0.7353664606051283	0.7922444524974441
Si	13.560660928621184	2.666031513471216	11.216867369566527	14	1.3268818925427597	0.1850959288817163	-3.090779955672261
Si	15.025835862610037	4.082360755002799	12.255176973815216	14	-0.2923467590958413	1.3742817617828818	-0.711224810091066
Si	13.377877181370465	-0.0082089486488493	13.43212478635809	14	-2.9024678311455716	-0.5745307101927333	-1.5237519411275622
Si	14.798612816808985	1.3244151286283643	14.645253988870145	14	1.7685286238110878	4.4367561618751	2.175955743041969
Si	10.802160423014024	2.672869584015685	13.578074344542303	14	-0.5648988354423944	0.43703931053462264	-0.2840330900431425
Si	12.252777937132551	3.854582829969023	14.923509604104499	14	0.6823209583030252	-1.0371823434845429	1.5028815079123243
Si	11.072092849757498	5.280051258863143	-0.0078499091453211	14	-1.3838745557323542	0.03570956757047264	1.0137063521378669
Si	12.285401572021318	6.8029173130780025	1.2649451308621478	14	0.4107674992628175	-0.016213904369917816	1.178830706224269
Si	13.671489895369366	8.21810415618927	0.0091228673851029	14	-1.1671882271135745	-1.3430649436488358	-1.4822273046545107
Si	14.865965363675388	9.484860804546491	1.3753008182647701	14	0.8578181796930328	-0.017682005507722365	1.4183281383539346
Si	13.610126780220911	5.299259872301901	2.7025229830116273	14	-0.34926203201529926	0.5157025349150852	-0.05965992784871602
Si	14.912640499134055	6.711182719926548	4.118411585152518	14	0.3587460682097295	-1.2138288489526565	-1.052915451159593
Si	11.026494832809417	8.234815813080763	2.8315487245977162	14	-1.3862212035580532	-1.3167735919765977	-1.7594719053208663
Si	12.30611162338392	9.610018711480935	4.010063254974166	14	-0.47969497623800733	0.2203943767114973	1.270489068224356
Si	10.756040166788083	5.423585460387257	5.468236918644218	14	0.7834813542347835	-0.04603795475203949	0.4828376382708243
Si	12.138913454581811	6.9161779564637165	6.747755789354125	14	0.9147607063288843	-1.4201135138882455	-0.2370528251912687
Si	13.567172599616992	8.078731548910595	5.192461939979695	14	-0.7445324510714563	1.403940490092918	2.214886905578587
Si	14.881518302169132	9.581279231221245	6.608791181511278	14	-0.15755116336590594	-0.5198438142542476	0.10631829031450724
Si	13.58332937727576	5.327183353689936	8.166337187771475	14	-1.6728513670850775	0.15069839635611523	-0.4165812826127363
Si	14.849922825858652	6.7066294462227125	9.417753057341585	14	0.8578626598150714	-0.7897144848624184	1.7534094960864892
Si	10.794114674139506	8.153917684944886	8.20873648914267	14	-0.45175606027661824	1.526281137430992	-0.2993885023466628
Si	12.451995901658401	9.133981289734841	9.575175559661266	14	-0.9440594798940998	1.8170862617768722	0.010228628295145103
Si	11.049750800651584	5.172616847421045	10.896081893141515	14	-1.6149814427602485	2.1025270319827962	0.7083922233598589
Si	12.29015068545435	6.639081059627111	12.35779699191455	14	-0.9684577267191129	-1.3008890461981908	-0.4932151335640059
Si	13.648903046601957	7.8056330465451	11.043663449069037	14	1.1431352797330572	1.6857932828245747	-0.1838995935762514
Si	15.078027150441091	9.372954719287723	12.333871904997624	14	-1.821190517199425	1.2029553874432184	-0.7542586853870444
Si	13.517853627814162	5.247378664042076	13.68136348171639	14	0.8144413189473466	-0.08136468474034209	-0.6237763759421895
Si	14.82638941840012	6.5722344320611334	14.957324597345883	14	0.8067321167554146	1.628637354447151	0.7848072732483838
Si	10.932883442253154	8.03532040893855	13.524724338313497	14	-0.9874648799088395	0.8067097481391293	0.8072170272187945
Si	12.148656481109372	9.46974850544344	14.949034048809867	14	0.2317643186582561	0.9987605169118463	0.502419690610136
Si	10.655003186499762	10.938236394851213	0.0095471867983635	14	0.9378834278045721	-0.9373586652087298	-0.247214861858622
Si	12.348266125093618	12.267629116596671	1.2649451308621478	14	-2.1999541829896994	-1.2075694930507561	0.37629026247229186
Si	13.555438535842592	13.547082707396847	-0.0275970818393721	14	0.7184681279989871	2.171230565684601	-1.0525565248569004
Si	16.224146525612838	16.270723741206904	-0.1761251964580152	14	0.2615803986138853	1.186644295292199	-0.5001627743601101
Si	13.540587356378472	10.880692154422102	2.6576920050029016	14	0.7130806339111488	0.6817388600585438	-0.03839020197725903
Si	14.691260005254053	12.408144122295662	4.061340624068967	14	0.2577695063083619	0.6366504145012349	0.15184973731847756
Si	10.881083833880496	13.60423526836756	2.5162141206353583	14	-0.04091348473845235	1.176329020747765	-0.5669413215087201
Si	11.832065238884665	15.067223325380377	4.071181570461126	14	1.6065034800775921	0.5437476375261964	0.030575070246136923
Si	10.940406951849814	11.011154054022303	5.350863640945363	14	0.12643718944466595	-0.4813366269849219	0.3419575218007585
Si	12.35869459067337	12.23241060529604	6.8191067306916375	14	-1.0624763634030958	-0.8849939915954019	0.8691279577753002
Si	13.31963118191173	13.824277524098049	5.544190093617866	14	0.7768625578091263	0.08783487127849472	-1.6651632479567706
Si	14.773675891291209	15.146048816382251	6.800175556869242	14	1.3084234132283528	0.5903070124371619	-1.1084009324105166
Si	13.661159349654215	10.745448501434002	8.226851664093411	14	0.04625264204627186	0.6205177570594338	0.4437172423826432
Si	15.018198113171346	12.406104125116526	9.61793390053599	14	1.8488648664233707	-3.584813986280734	-1.4622516160906842
Si	10.887105905553309	13.517723067994698	8.152644726705105	14	-1.8747607820973697	-0.4093845017111099	-1.5292481929704427
Si	12.294736599113051	14.750436243426474	9.314382320280329	14	0.00875152828872003	2.3304064105023086	0.9904471049696794
Si	10.942805988532479	10.668091808401108	10.897469091223329	14	0.6701496028279763	0.3184992710807915	-0.7474028330508695
Si	12.305801543812692	12.20065192921123	12.323737199011669	14	-2207.8779503483606	-84.85092280575887	-1419.6920732165775
Si	13.599453514979663	13.497176216406427	10.709724070832944	14	-2.1155540513083904	1.8645375531233974	1.5952896042237663
Si	14.847621709040585	14.908446264933747	12.246902745256634	14	50.38156568170786	47.92892069674868	-30.351530122066226
Si	13.716288233423226	10.947293982326583	13.741926917970625	14	43.13229360808629	-55.97043516598343	42.63409001598013
Si	15.016631395337768	12.350583561889119	14.985264398711351	14	-0.4072417425372985	-2.1484670276221376	2.299647506225781
Si	10.53043279875291	13.429072950578098	13.538384159425004	14	0.7419510613300276	0.5608035788884627	-0.16748180055444586
Si	12.066224275094784	14.835610205649823	14.932322391918373	14	0.3891722714578298	-0.6247634232745943	-0.8690096869305733
H	115.88917648703718	117.4529632526678	118.02818696926131	1	8.327817331054524	-33.215423917204156	-15.173312997889289
H	117.99237114678662	118.12705339255102	117.49040617689255	1	0.3148603857211859	0.19833172195930662	1.027512159264934
H	147.08792557010432	148.95334305464672	148.8690666911822	1	-2.1727346622968877	-9.911000885878373	-13.501148115924689
H	144.86843964715985	144.97198174398417	143.10720563455487	1	-50.525212564612936	-48.1577421282575	29.720725372620876
H	19.835183068352222	19.892727308781332	17.9990697352887	1	-17.175211081409998	-17.781533508886366	8.505207400181224
H	143.8627063498654	142.02280515003963	143.89270083638968	1	-41.16654449403527	51.913402977735686	-40.751536470767924
H	137.23459068307557	138.97768177676815	138.97684456192584	1	4.624873653729055	0.3010918596212609	0.39652023335228104
H	139.9754998850076	139.94834181056115	139.802741499894	1	0.3209773023883502	-0.032970054851854856	0.10642550540635744
H	70.99629353991224	70.83088077664132	69.09819530056006	1	-0.9221048115653553	0.8248550668255423	-0.17157500022412162
H	96.10423936520598	97.88499043882321	96.04550703041974	1	0.9428777998889597	-3.7984468702213063	0.97778184016263
H	31.98774328806359	30.120670957809477	30.13536056949701	1	-93.35938573949647	42.26865444594845	16.529341197451778
H	135.93325526653308	134.08714921128728	135.88982780658358	1	0.07157982922345453	0.2102246267281836	-0.08758058896233206
H	142.99037907610003	142.76530210733142	142.96373508094274	1	2204.47627413715	87.03531151714039	1416.3319517237721
