225
config_type=divacancy dft_energy=-22892.239790745745 dft_virial="88.05664725457768 17.209040199498684 56.30054037438032 17.209040199498684 153.7878374414384 -16.20331707095655 56.30054037438032 -16.20331707095655 123.48045078211717" pbc="T T T" Lattice="16.3199774331 0.0 0.0 0.0 16.3199774331 0.0 0.0 0.0 16.3199774331" Properties=species:S:1:pos:R:3:Z:I:1:dft_force:R:3
Si	1.2991844435167916	1.0704599597918951	1.3393968679119501	14	-1.694998354091769	-0.7790834785846701	0.9413554484289
Si	2.9386893764460176	2.540955206423938	0.0436559396335425	14	41.259565284744504	9.657589403087663	-31.457880597983927
Si	4.009753175402937	4.002245985783712	1.4680309300396444	14	1.5106696430375848	0.21088540079546164	-0.8047130277475022
Si	2.729483585731109	-0.08269332565351771	2.9956297777101035	14	0.7032032186027359	0.5825787840658607	-2.631358916215217
Si	4.066660936712157	1.4470597590381107	4.050406239188789	14	-0.4595953603977497	-1.6416366058352878	2.550093476140233
Si	-0.0755288555603868	2.712820888771914	2.9802400389906905	14	1.6486932614969663	-0.013572093653465666	-1.331884749274704
Si	1.4319800998899264	4.224915757880928	4.100802329502203	14	-2.219830369777636	-1.1307932028647503	1.2176783078379825
Si	0.1532609080742421	-0.1102414475605905	5.786574398454267	14	0.462673487687031	0.6521215265441619	-1.2222340493547528
Si	1.4406133679520363	1.3986547059715362	7.080520129215034	14	-0.963944408440125	1.0724383680765417	-1.8508932114104353
Si	2.675856139885942	2.779161597037465	5.414788992550816	14	-0.4663658520372956	-0.8082511257785581	0.6844354353183151
Si	3.7164831809301306	4.258632831257713	6.821962726742431	14	1.941245451907887	-1.2568110450317003	0.5970065415698717
Si	2.8108549932125455	0.15166155028579828	8.323596490316827	14	0.1324389205934876	-1.6887215146736914	-0.24520040084028594
Si	4.1688729553756625	1.4889531411088786	9.516684760541036	14	1.0421798008953147	-0.13087851677468976	0.7212516066185793
Si	-0.1051985745337626	2.789214703136255	8.219148634744988	14	0.2661117146301143	0.7066973507328173	-1.1844136043164386
Si	1.2005954598434347	4.030055227329714	9.676995898866377	14	0.9852213334064784	-0.11270774414560725	-0.8417901662377617
Si	0.09077171448290221	-0.1214532720571302	10.821597516136846	14	-2.128498023932144	0.06477154233570241	0.3291323342427959
Si	1.2771524739821065	1.3612003577625715	12.162626381792107	14	0.027113334043089552	0.7842233752301782	0.06796511225385836
Si	2.7631027392432945	2.7307402239934575	10.934580719906197	14	-0.4510292088026124	-0.0261018612101433	-0.2832522453574135
Si	4.005999580593325	4.215172731353367	12.218212224929246	14	1.2746198060317058	-0.5265086334651354	0.03809709597076215
Si	2.498147905616916	0.0456469768803807	13.585075614861102	14	-0.49878440479797875	0.9714420086642087	0.7991794948774795
Si	4.061977103188858	1.3319059982701573	14.739403938681699	14	0.433364172590003	1.0581101123484205	-1.0288681602107803
Si	0.1381812489260577	2.7028983424925888	13.779870865502584	14	-1.7072638120215355	-1.6054143598639774	-1.9851622447708042
Si	1.478753155213191	3.8820656719663633	15.01653347547317	14	1.2579564724518262	0.19996977315877296	1.3218376410151613
Si	0.19721060730158038	5.069621469840751	0.1446602799669984	14	-0.7133840243389262	2.1968405744469996	0.478437962846987
Si	1.4799445135658074	6.6889385906852326	1.5117684695603522	14	-2.0951392179558823	1.3462502860299674	-1.5716971418060874
Si	2.5356838537130466	8.149805050631745	-0.0944437094053497	14	0.5520124555778123	-0.43465281057646116	0.6735624880299409
Si	3.909173154482742	9.534179776349319	1.2771687939595397	14	-0.652383007955221	0.5202988998959138	-0.16887225431158193
Si	2.717455762362914	5.3732872899384425	2.7504057968003432	14	1.2898957711808337	0.4461466797996511	0.2533361494048305
Si	4.211957695799046	6.780836383611018	4.0552206325315545	14	0.48933353586217837	0.25597950278447473	-1.3781864994325905
Si	-0.1475489159726571	8.036789206907528	2.8097778747019606	14	1.972198217525554	-0.30757927256505857	1.2370431017777417
Si	1.4447586422200436	9.563914775232428	4.203144907985172	14	-0.9074893633729735	-0.26870673122973976	-2.502988769790864
Si	-0.0664712680850163	5.564590065409241	5.483838817070262	14	-0.9792697388113997	-0.7115639388827935	-1.7661048428257844
Si	1.0361064072952197	6.998626482455737	6.713320636970284	14	3.1993734170845674	0.26252142316105953	0.7649097462862898
Si	2.7983702104762243	8.09844608164978	5.163314460284178	14	-0.520180629051187	0.557736507352058	3.724289507914403
Si	4.108081039437365	9.617852300648824	6.919605151724667	14	-1.4244250003996017	2.077063319113113	-2.265435864614826
Si	2.4410116646236335	5.53310882894079	8.23195981702997	14	-0.8673266413880043	0.9516583816677974	-0.02660528363182829
Si	3.896786291611019	6.880665685569291	9.5588229422733	14	0.7115492835824686	-0.27351984038905697	-1.7603645930880216
Si	-0.2116211473750077	8.300732201933053	8.095214726118027	14	0.48869333063746156	0.9875947207275071	1.1733000015700985
Si	1.1479308926668208	9.635494196254005	9.801435726793764	14	0.23043685698146366	-1.3573811151819524	-1.0260713118435232
Si	-0.39336041607000927	5.11841820236572	10.857093467053838	14	1.0597167960629807	2.7921306461051407	0.3031610851829161
Si	1.3355943131700376	6.4812179179167355	12.097607591698637	14	-1.5027496102094007	0.522192261853671	1.1488238502538848
Si	2.5762389976342996	8.060208374524027	10.918815621705823	14	-0.7450219895244125	0.9616029028250662	0.8273310412488449
Si	4.045608165823459	9.225569003089399	12.3822769580642	14	-1.5374183943462771	1.5924613883716034	-1.3925054991815593
Si	2.6145256646923527	5.323380798948023	13.70204089312413	14	0.8615444826335233	0.9130066982794792	-0.653858822408986
Si	4.044318887606243	6.66018279044811	15.062947491292906	14	-0.26649583776494445	1.0373358384721558	-0.4347736525265081
Si	0.0388578662682111	8.08702209744661	13.728136537039656	14	-0.06995077689260872	-0.3660672906088511	-1.3938645854537897
Si	1.1460704152394474	9.688093483520886	15.060189415106713	14	1.091010490246099	-1.4005304331068056	-0.6321862043338617
Si	0.1166225587369326	11.00408750379377	0.24742717786322913	14	-1.337392828202057	-0.4599504300424621	-0.5960300357692794
Si	1.5491085779272853	12.483069138691024	1.0476935912727208	14	0.5625547587220155	1.2044648833766773	2.0218848278374155
Si	3.064777522094148	13.853539243635597	-0.3109282100554212	14	-0.685042987505466	-0.7969899415868416	1.1758142854626714
Si	4.245478929446634	15.0679740443423	1.3938076726739055	14	-0.7496600064114275	1.0505243232118553	-0.762236053863868
Si	2.5646681336342323	10.996988313610371	2.6563864068082537	14	0.8424835933426055	0.3868497920221401	-0.2349254926493782
Si	4.096216415843501	12.471237155052027	3.855790508299072	14	0.16153817638585954	-0.5365904516465002	0.9863924718798057
Si	0.0557816828663358	13.85123812681753	2.6364270744075724	14	2.13478746176629	-0.9093773260095582	0.3187638378182347
Si	1.5524868132559368	14.879053985576734	4.323439461644553	14	-1.449015565902562	-1.1282853467354779	0.8921169817743402
Si	0.1055739340147239	10.816391443335686	5.487984091338269	14	-1.4107492912017339	0.9465182279117572	0.09511624154515408
Si	1.3831180874552251	12.021687056679854	7.036635709897428	14	0.5599515145853656	-0.25708173563522224	0.2990596579762159
Si	2.821218178882564	13.343588908783522	5.781237765833643	14	-0.3575697875257617	0.2546777521608838	-2.2878978120232363
Si	3.9813400946919106	14.965990505362859	6.85138764605431	14	-0.564178154621157	0.6644515192174641	1.1707682341613488
Si	2.7482515597791735	10.87426208331346	8.678507039554454	14	-0.6673337282813501	-1.2987727694091769	-2.653841946687252
Si	4.350204224634837	12.058847645295023	9.63642443496769	14	0.20172121010285785	1.7863731231750435	0.7614706358100598
Si	0.1550234656370169	13.517184508739406	8.279059271901897	14	-1.1141440103641314	0.5942387466927322	-0.108380316781266
Si	1.484954746637769	14.936369746321782	9.543221043847256	14	0.9352292757825831	-1.0412236068267515	0.4724997379995729
Si	-0.1434852415918152	11.042504730671288	11.053847114987292	14	-0.893018411299584	-0.7172453103087246	0.36874175436286916
Si	1.522327494959568	12.108754136285443	12.328013033099142	14	-1.5573532023355134	-0.09639150978394752	1.5294137721530603
Si	2.7623846602362385	13.3007326480442	10.949219739663688	14	1.050309378807091	2.430847668276021	-1.0859281863597623
Si	3.775398299463622	15.07138491962582	12.329645030842451	14	2.668981643254412	-2.126131835706011	-1.6588167315845168
Si	2.826293691864258	10.695101371052887	13.789564932097845	14	-0.8592394867140106	0.3610351232762573	-1.0518864948104698
Si	4.210374657988036	12.193618018937563	14.84243195621686	14	-0.4350464468009759	0.24507904466917496	0.15571873660423638
Si	0.036883148998806	13.755178739646304	13.646210250325494	14	0.7696274674382296	-1.0769938524827798	-1.926589380251447
Si	1.3134644237707542	14.985868237876375	14.995660224336234	14	0.13526585089299045	0.9637135231823758	1.6989989939699195
Si	5.393050782609927	0.0567445615348887	-0.3273134673982536	14	0.7239710647157	-0.28281747144777647	2.5409177154736886
Si	6.831607833405392	1.3972348679348565	1.2962142076239673	14	-1.1113605317445392	-0.31105000763672647	-0.8254867874027026
Si	8.221319191743591	2.6141829451662573	-0.1067652923673402	14	-0.06449309162953039	0.5352359933638461	-0.12171149786623378
Si	9.466125470453292	4.01634644628591	1.312452585169902	14	0.07037526638096517	1.0463277651083098	1.0282346398598958
Si	7.995336464227454	-0.15404426699103088	2.5198697955803726	14	1.05223745068667	0.2609916154955714	1.4713037065913297
Si	9.555281507170317	0.9974607007336389	3.9863666477413053	14	-0.6165759954931148	3.1690981377187595	-1.1781570766303902
Si	5.368554496482844	2.5826201088106417	2.748577959327836	14	1.3497637014499497	-0.8343272759354999	-2.99860171617644
Si	6.742370196801201	4.083503153423117	4.020524360508784	14	9.498652156843665	0.9063058835941094	1.8401092243661383
Si	5.330692148838051	-0.1099313679893616	5.540452818785686	14	1.019332187688883	2.131295643630997	-0.9427001365113373
Si	6.95883837747384	1.3838851263945806	6.657816393720311	14	-2.179722155225454	-0.15225905728544514	1.0398552645753687
Si	8.191127233492356	2.7574397070740093	5.298737633024042	14	1.2439156662984976	-0.5366837827696215	0.026259469966268375
Si	9.667367112180848	4.154511375234535	6.815189936107695	14	-1.1955290068365028	0.4058690294068714	-1.3955322043644378
Si	8.152106167449812	-0.0632072725983963	8.078470429271665	14	-0.2934741887787262	1.5453163156687082	1.270125513932087
Si	9.598611047255197	1.4154316427727631	9.424705367728084	14	-2.226552781747695	-0.10473988875846835	0.21615925202814937
Si	5.438420319873945	2.815179787232317	8.050024708605772	14	0.13857126389257282	0.3896762081005788	-0.10991629509952246
Si	6.768172081122933	4.190545885406819	9.58704018325513	14	-0.8620653885713854	-0.6068412765299701	-0.9333102027716246
Si	5.474046830610402	-0.09348083073679679	10.827505347967628	14	-0.34478085255281316	0.7086321074862286	0.8986925836306189
Si	6.947300153428638	1.324366168696065	12.211929033617501	14	-0.5289321573399071	-0.7394192939212777	-0.2335656350455519
Si	8.140208903901083	2.821103939040532	10.87316864482544	14	0.5402537625066471	-1.4147170209317865	-0.7903246081548896
Si	9.56497557376558	3.991556400565031	12.192149220968584	14	-0.3742524043955425	0.5911395363398259	1.6893568347983001
Si	8.297957805769427	-0.1414126044578115	13.530876969805778	14	0.4433418610059016	0.8624266288688662	0.5594288088737795
Si	9.779028397778118	1.2484619536547168	15.03928352401491	14	-0.36908911069162115	-0.2594648931564675	-0.6318339629050016
Si	5.650939066007773	2.842923748868587	13.412557133415802	14	-2.306439338039484	-0.8849909062690178	-0.0009158277150367458
Si	6.73988956023137	4.0875994677588245	14.935129428036866	14	1.4879693541659975	-0.06610928843377546	0.2770743934941617
Si	5.465837881961553	5.356151313633688	0.06581846898769231	14	0.03140065216443648	0.6510835713264183	1.1309022177303247
Si	6.906842929371983	6.923097626895351	1.4029631800138747	14	-0.803877932739518	0.035740935055378446	-0.5831336285939487
Si	8.151078008871528	8.46391565628662	-0.0131212618562124	14	-0.6643347910359294	0.14041937439669525	0.3890984807351415
Si	9.639149871199018	9.639329390950783	1.386023043438317	14	-1.19641423839823	1.171691518081814	-0.11335206313883635
Si	8.185333641503604	5.568751659654681	2.8648904384935396	14	-0.9343191044992508	-1.4729898374602828	-2.140128675958366
Si	9.612042388682639	6.835410388147305	3.986954166928897	14	-0.05946246696012865	-0.014485607373714278	2.7487229320956126
Si	5.335930861594076	8.297043887033174	2.5677036494367886	14	1.0150865214737226	-0.44447803244687506	1.314195030451021
Si	6.62728171594298	9.539320569240745	4.295303820549888	14	0.6917039500583737	-0.4365384592182578	-2.3143578282044763
Si	5.258508888651451	5.3998398932220955	5.521211565392061	14	-88.44835603406142	62.67622314037413	80.49431725269194
Si	6.86401930858753	6.790922129664675	6.8567079586975	14	-1.9368995125852408	-0.2693340809278559	-0.6065707962502905
Si	8.058184697322321	8.141400262253699	5.453336779247798	14	0.4951966844342442	-0.6012550360008844	-1.3830569442405474
Si	9.225128363698705	9.616791502115673	6.693328664614737	14	1.026488345126451	0.18153854756075946	0.5776792857677865
Si	8.094464007156104	5.4059598847595085	8.133697232905277	14	1.551200290193867	-0.38000242433352166	0.9509544130311409
Si	9.57897811440318	6.551997660044091	9.688991082279706	14	-1.1894763678023421	0.8153108667666207	-0.7445537912456135
Si	5.295163557966193	8.27581159639271	8.13514971089682	14	-10.718269078093039	-3.712054389027414	-1.3631666163733496
Si	6.767225522431813	9.379156310712302	9.450556211982114	14	-0.08160276909298779	2.71825687671505	2.3452738270160647
Si	5.354388756070913	5.633019730786229	10.795420272334153	14	-0.9693082483590179	-1.555939351519964	0.07349555979749686
Si	6.624017720456361	6.87239145701071	12.117354764392687	14	0.892220854429274	0.49096438796674846	1.9390070476161663
Si	8.039661522935754	8.101106237971376	10.765244634060352	14	1.3197393619633884	-1.423059743474603	0.4250785285852938
Si	8.031452574286904	5.45002382382888	13.441035494036562	14	0.562928083214501	0.49815576954720253	0.6958609131399891
Si	9.283374363157439	7.01922229397631	14.977022810107634	14	0.63736441044864	-1.8563974336798086	-1.0887949687917275
Si	5.405666125165713	8.21115184580277	13.722816224396468	14	1.6705484280498206	-1.4391314657203165	1.4665484473017156
Si	6.755475138679981	9.900285830106052	14.974868573086466	14	0.5497565677699144	-1.0184760096172738	-0.8382741797124591
Si	5.329402870620837	10.994719836747171	0.0573320807224803	14	0.16494026294547948	-0.1208447782628119	1.2318006180299599
Si	6.620557885240543	12.27678462393664	1.5990966688048704	14	0.9126413442134861	-1.1081355943414775	-1.7641430894665113
Si	7.987649754856464	13.440676454533033	0.0125337426686208	14	0.6496877182481098	0.43087302864531146	1.1795994667149934
Si	9.539695928721708	14.948528129509443	1.2555774638155486	14	-1.2813288482541003	-1.0897434495443301	-0.08177066227039347
Si	8.062101491906267	10.944992865508514	2.8164527454720987	14	0.9105973154839685	-0.4754112576641086	0.44728439390381663
Si	9.525742348016408	12.580515723944066	3.9405564710865937	14	-1.03400317175618	-2.207275405388821	1.5041143529133352
Si	5.7175245739348215	13.938076726739055	2.712331289448921	14	-1.1787085787215619	-0.17340254188568288	1.8873784814559968
Si	6.9956562465629135	15.057268139146187	4.397368959416496	14	-0.7898592380919428	0.032308252342448746	-1.4091058406810955
Si	5.584500437877622	11.223020001058806	5.3259267154275864	14	-1.5740936690749974	0.44114150907291894	1.5942868731489088
Si	6.807584826623869	12.680801985270465	6.890881991442412	14	0.033470134836623665	-2.7669014180406553	-0.5876415475517643
Si	8.40504949768543	13.776476310196498	5.69541100451297	14	0.2556393455506192	-0.34029221688489864	-1.5009390378429524
Si	9.681842932164008	15.24643299757325	6.824149603718466	14	1.1736645843044955	-0.7367764547626975	0.1345726808986785
Si	7.940778779668601	10.869235530264065	8.176194454141068	14	0.44959710313928986	1.334977017643246	-0.6707368432830981
Si	9.609855511706604	12.19660457480782	9.273239657171484	14	-0.013482362077792496	0.44918521206700224	-1.2453891667574744
Si	5.321275521859152	13.724644061868974	8.223163349193529	14	-0.21348838782157953	-0.6004731628730274	0.4940479145772019
Si	6.854912761179859	14.80359040992608	9.485007684343389	14	0.33894830013405725	0.6690396566612684	0.9913387642947066
Si	5.470782835123782	10.618364837162451	11.054238794445686	14	0.9945055947175331	-0.14491340938578207	0.5862346387205793
Si	7.469849510859067	11.576167992733657	12.34738484631223	14	-0.3593304804489991	-0.2016163090057958	-0.036629509054021625
Si	8.317607058598881	13.316611986086606	10.704354798257455	14	-1.0466938905058987	0.8905347235603212	1.518502772505948
Si	9.562543897128048	14.930951513813993	11.974881361401723	14	-0.2932235060100118	-0.48492434734865647	0.016287695092606067
Si	9.3513960290986	9.534473535943114	12.099451749148576	14	-1.6292328224392971	2.1447301831498344	-0.9992773090811957
Si	9.311836403800765	12.298457553967797	14.88966197090825	14	1.7743966574832617	-0.7921148687893087	-0.9072641345469286
Si	5.401047571552145	13.649180486218318	13.603745669044567	14	0.7442375452912353	0.7931715930758896	-0.8736564455756769
Si	6.895549504988279	14.940710860318987	15.02111938913187	14	-0.4393396784645592	-0.11030967421350513	-1.4381904411731425
Si	11.113986231828266	-0.1782467935243182	0.2018944408248801	14	0.27799459208824273	1.9684765425746396	-1.3675500938336698
Si	12.230958127304495	1.7043605232483654	1.2970628464504887	14	-0.06549556559385612	-2.2918673415270128	1.5379729817638332
Si	13.786578376227588	2.6418289869379286	0.0140841405247653	14	0.31806835382913473	0.31834243365626247	-2.2481354111366136
Si	14.985982477718405	3.959748764547919	1.4864072246293147	14	-0.39671023803544	0.47573418849231924	0.30765383461934287
Si	13.686814354179047	0.1043825756621076	2.7984844503182553	14	-0.8943538434028689	0.8997642203280566	-0.26917235840321857
Si	15.135081791547208	1.2630356935024754	4.316846190761581	14	-0.8319747145675644	-0.6074184896743434	0.5762428092254199
Si	10.972524667438154	2.9679510959835658	2.827958329562434	14	-1.43412063856188	-1.776520390477704	-0.3044458665113941
Si	12.41576555175692	4.118640064836581	4.227837033841452	14	-1.0596900565676513	1.181034400594168	-2.2195496050766756
Si	11.071864370073435	0.13648397127301531	5.418885306886524	14	-0.520560895528037	-1.4763011640021015	-0.7631189714308068
Si	12.128011709656501	1.5150651050018384	6.824671842996326	14	0.3986478230047035	1.0024976184946814	-0.22375841091237905
Si	13.533961445540633	2.6986061884276835	5.378950322107729	14	2.4101476993435087	-0.8897770188224734	2.0769234509836974
Si	14.833488608583519	4.306091325633167	6.779383905619472	14	0.551224154686655	-2.1896589630667624	-0.1708368358867071
Si	13.538269919582971	0.1154312003843163	7.901545553919428	14	0.8570357923441118	-1.4617844462540135	2.0389837066585286
Si	14.994615745780516	1.2726971201428703	9.365398569736199	14	-0.3101884302439448	-0.5667232917775716	1.2686065049089434
Si	10.87331552462234	2.861789642781251	8.26543209074526	14	-0.24457279403163776	-0.78942754950869	-1.2543186155343486
Si	12.344985809629566	4.01407796942271	9.448336695051212	14	1.0235583135036104	0.1545331999411161	2.062539145159597
Si	10.873674564125867	-0.047491134330321	10.586622481055072	14	0.6792333179240594	-0.13595593556091817	1.460564199669071
Si	12.113552209650775	1.160497275290308	12.22472389592505	14	0.07468058223955312	1.42060922299397	-0.16755404861394202
Si	13.656132796604819	2.5070912532502554	10.917591623398339	14	-0.39120318755021477	0.5588500530662142	0.373618369823594
Si	14.861150970332623	4.049182240881307	12.536827144355657	14	0.14468149568590472	-2.213324187765001	-0.9566314135780277
Si	13.577209385738348	-0.1083483301783509	13.516711229393847	14	-0.3522113469280411	1.0406893311412249	0.3734340215721394
Si	15.173303178695527	1.0148577966773236	14.853268421232437	14	-0.8482960911398643	-0.2620838210355703	1.283358221683293
Si	11.001476307404474	2.8738664260817446	13.708144564684108	14	-0.6273504694477273	-2.059486728923517	-0.9755228670283477
Si	12.333121186035703	4.298600455991374	14.869914798214198	14	-0.14444932487549536	-0.42265731870531037	2.267693295085916
Si	10.749136816333882	5.585463316546176	0.0623912737267413	14	0.7500564708517944	0.5846950608548747	-0.7319841715564736
Si	12.25046050033705	7.09829258463968	1.397185908002557	14	-1.211437721004919	-2.1683547843840154	0.6318704726005476
Si	13.683387158918096	8.202877617244186	0.0831013250893452	14	0.5423196456313861	1.0017340002145974	-0.6001173218967188
Si	15.120263252037953	9.52770074530838	1.548798498356056	14	-1.483881810928026	0.9639968589886562	-1.200811599827279
Si	13.50951411934585	5.485128095287477	2.6708295868365473	14	0.4296057308330105	0.09065665936735724	-0.2882047084250827
Si	14.643507751284803	6.8752964129938015	4.199636112837056	14	1.0037487183434652	-0.6856546534611293	-0.35452842704255855
Si	10.804526819741824	8.304208357126305	2.816028426058838	14	0.943927325080644	0.4096752937228187	-1.0582918894945545
Si	11.98560358657527	9.737951014579007	4.180329579533699	14	1.5442840168826688	-0.4776319213291204	0.060026567467369146
Si	11.1138556720088	5.528147555801128	5.406988043337795	14	-1.5575925722408193	0.5848174454681137	1.2285162880940026
Si	12.145669925239115	6.88977223297696	7.109912408572047	14	-0.935035414441444	-0.7503084391731688	-1.318503945857057
Si	13.168230751264861	8.092685129615896	5.535671065397787	14	1.1653426877147723	1.7570154712979966	-0.9413577624236882
Si	14.767115260363102	9.51043420918416	6.606277904986581	14	-0.25854083790440624	0.4707809540930539	0.4737804055595387
Si	13.545450709653535	5.524083881420287	8.193020350874594	14	0.9032197858783357	0.6408947951637354	1.335221786869724
Si	14.877781027336955	7.046362416447556	9.639362030905648	14	0.13159688360113914	-2.3407214279362103	-0.712912226512679
Si	10.442337560569035	8.0363812074717	8.057254458608636	14	-0.04459067956732814	1.322698447076347	1.0628478881218573
Si	11.900037944893526	9.57062228595743	9.195899284116022	14	0.6793945262276327	-0.7103100108181573	0.7110589737979164
Si	11.019281402783985	5.249124901627417	10.983964971618759	14	0.6396650354891086	0.6016887814683933	-0.6610401766786915
Si	12.343631251502618	6.811077301794553	12.167375495225137	14	-1.946555298615057	0.6160864570401585	0.25376886643021146
Si	13.347391463525435	8.302527399450696	10.745595381230899	14	-0.3450927276281471	0.6912774036857611	-0.27481799146519975
Si	14.858996733311455	9.31591639815904	12.219778942762822	14	0.7486156234303833	0.9999375689274099	0.4448048199330658
Si	13.659706871662667	5.60432921045884	13.584063776260251	14	0.5529033435712437	1.1966217265975656	1.5031170211596496
Si	15.1169829365739	6.765968884169465	15.224188868331934	14	-0.03515806547930088	-1.0680294366735514	-0.6169025258687736
Si	10.544647499097138	8.244362999879128	13.403352666143535	14	2.709882786687328	-1.711005284483415	1.9537621068274318
Si	12.09483319553501	9.368287205741858	14.982065683134461	14	0.6672481104741891	0.3154471119552437	-0.8698879765079358
Si	11.017208765649983	10.970827389785113	-0.0511631292527685	14	-0.8422743053695456	0.7749406565823156	0.14349853012810457
Si	12.487034893207268	12.392835983463414	1.3376506303266082	14	-0.010236855832169578	-1.158985115589642	-0.15037546552790465
Si	13.995555687258433	13.662448627871429	0.0288210801468546	14	-0.4765068056410237	0.9864580350654696	-0.1944557806891834
Si	15.24702051676084	15.368849148298931	1.4421474458307477	14	-0.17882268901108703	-0.3937619515648261	-1.5417447932684907
Si	13.724676701823839	10.93343832148588	2.866114436801022	14	-0.91388601629897	-0.09804961560491102	-0.2494265266550134
Si	15.204686495299379	12.395186060213781	3.9330656014448007	14	-0.5503080698610862	-0.7804050267192263	2.0991709682084068
Si	10.94523766517001	13.663036147059021	2.5603922995467596	14	-0.22385585580401265	-0.47157799674229983	-0.6598844648372851
Si	12.171618689357745	14.894639564025345	3.9358563175858605	14	2.3898979309525545	1.5122956100420464	1.8633533020129371
Si	10.704860717557882	11.0789472402794	5.513851255569733	14	-0.3744902316376562	0.8133527129547958	-0.4619934303298518
Si	12.234107882949084	12.455276217122455	6.700378894865835	14	-0.02250128531980793	-0.3645981610289185	0.5289524690719363
Si	13.804399791584533	13.730976213113015	5.494055122943383	14	-1.0346834862238912	-1.0821630597289378	-2.258934310591768
Si	15.04164992074271	14.884521178016824	6.966215007273601	14	0.22077155786196298	0.5111948730678014	0.33667749991530244
Si	13.456147793139612	10.911618511657826	8.044508556233383	14	0.4710846016313634	0.34419232654503124	-0.2637951487366609
Si	14.852256582631584	12.304773385234407	9.467349468760775	14	1.7571458263377284	-2.0868085796080704	-1.040120602644408
Si	10.980733616087004	13.84381253708547	8.185806920849164	14	-0.3709850437546983	-1.074996617870089	-0.7848977761556531
Si	12.46172260820853	14.892942286372303	9.554171748704865	14	-0.42720200446920403	1.6292266517865288	-0.8669479175743466
Si	10.705758316316702	10.873250244712608	10.712074147583312	14	0.576783512674247	-1.059806270528122	0.1323517601231346
Si	12.23835107708169	11.914840164425348	12.159346066328053	14	-1.0015946463062453	0.6229304822918608	1.0338393923472864
Si	13.465711299915409	13.27803155943476	10.785318206303064	14	0.11825181854744254	2.2445152948458458	2.1187663902953835
Si	14.781542120413963	14.804390088820302	12.238808036449818	14	1.2589913423431858	-0.4220680213659324	-1.6115274198731615
Si	13.60312550990211	10.749610095679442	13.66329726669795	14	0.22593588000801246	0.5503420084513122	1.0854838993604408
Si	15.315303302340931	12.28951420633446	14.955659959647708	14	-2.1029168115493304	-1.61740625218768	0.5562416667189238
Si	10.95385461325469	13.673219812977276	13.419770563441231	14	-0.40955573732543177	-1.2836718965323513	0.6074706831123424
Si	12.338865818092154	14.849531146400258	14.926137120471228	14	0.41749376789085696	-0.31460944584193945	0.9563102825235412
H	135.1584920818583	135.9160735942915	133.7224401475988	1	0.21595382071306954	-0.34506213147483733	-0.31114102476505967
H	136.25017290830647	135.6648226457157	135.70035286858533	1	89.27748993436074	-61.05180419842574	-78.05659907677942
H	137.04907497160252	138.93051867398424	138.85202774251974	1	10.366200427510266	-0.17272659829701595	0.43546965073667226
H	139.12413888625053	140.78721965857963	141.05317327482493	1	0.47509449748866645	-0.05234924698140698	-0.5659766427926006
H	70.84629825932237	69.17727864720538	68.94952357014002	1	-8.21398447122082	0.18051190520642432	-1.6369949894008244
H	-0.9193826646982018	-0.9274023016088272	-0.8894110261423137	1	0.30086817345840805	1.7471642812638495	-0.07664670647787036
H	139.82389708664056	139.98697282914307	139.91783487674547	1	-0.06136868444448645	0.33464015605961706	0.28389939256649477
H	163.87038341969674	162.02451890011693	163.8870787566108	1	-0.431349968682199	0.5747939913775163	-0.8296108403362202
H	34.883463795926	35.034062915680906	33.19595201737957	1	-41.65271685590633	-8.98878937344223	31.153700069541568
H	124.98221258539013	125.26522057805299	126.95962265107168	1	-0.14942595633317396	0.02525725311247466	0.09484447571281443
H	192.11823251920242	192.02342487430033	193.87504544992078	1	0.1207272787496811	-0.17759755732603646	-0.3385682907677393
