67
config_type=vacancy dft_energy=-6741.968528755411 dft_virial="9.304450398699458 9.258546089332059 -11.855082152523838 9.258546089332059 6.202966932466306 18.966719003749912 -11.855082152523837 18.966719003749912 47.34852956211044" pbc="T T T" Lattice="10.85547320481594 -0.0098893459789333 -0.0058945278447429 -0.0100630337238981 10.88006087621252 0.0027030155310146997 -0.0059922272012855994 0.0028115703716177 10.85405113640404" Properties=species:S:1:pos:R:3:Z:I:1:dft_force:R:3
Si	7.002839115298943	9.382347109187425	9.93021687642033	14	-0.002112934352097691	0.10761926960650219	-0.037242974783408954
Si	1.19467750173979	0.8803927838712023	1.1385817878581896	14	-0.4518532480577198	0.8417132901886892	0.19261821171687357
Si	2.774044048769649	2.537652856775744	0.25970551511021117	14	-0.40622024239360366	0.00634985880916971	-0.47778104543768907
Si	4.06579997336389	3.9392489112857243	1.5917168312452625	14	0.60732361588803	0.2708852287675012	0.13183882461176505
Si	2.6665877831535516	-0.06629552670465813	2.85331079337796	14	11.603499097156831	-66.85914178730697	24.186982186183
Si	4.262919280672848	1.2165903818639114	4.338690559413742	14	0.10591334122658391	-0.3105054475299191	-0.2611314836249875
Si	0.16631904238466835	2.560448287753968	2.825568518313457	14	0.235009053572283	-0.3500446764747523	-0.5472607958356467
Si	1.491505515691009	3.965224999093616	4.160124359912243	14	0.5639482978055358	-0.8569643156162116	1.1529589589402789
Si	0.27426054813826145	-0.043116897139105576	5.80628687146194	14	-0.7350031634233913	-0.10563771873626404	-1.570611621139921
Si	1.6330903376442838	1.309713066326789	7.0278316962509715	14	0.3917662596153272	0.4371406120842365	0.6109565877053991
Si	2.9909181659715407	2.654558821266333	5.647910786764193	14	-0.7844735437778286	0.26862522719109105	-0.6153747750875417
Si	4.347881897767597	4.014384058660685	6.993758502882502	14	-0.3565953386094256	-0.8715031448700529	0.9539420374131531
Si	2.876457942039737	-0.09879793152960237	8.457924481967646	14	-0.23477328321442542	0.3234887580650709	0.8123317270321652
Si	4.239898055626169	1.4145542458327605	9.690804603212444	14	0.43912370561766667	-1.0185878526987	0.26610065887723766
Si	0.29344327402121756	2.6906934710578536	8.403565645535693	14	-1.120476642767656	-0.8180670916698194	0.031668818449327917
Si	1.5464277517456908	4.043864296723242	9.730918873460471	14	0.7268301338317047	0.8281041726186135	0.42995720093027473
Si	0.24182653286289707	5.451002075846006	0.3433698163113493	14	0.6794922282297984	-0.3586020863118011	-1.162610631201583
Si	1.5691493654323048	6.786629353721541	1.6596178840424387	14	0.21949114741252929	-0.3363864507930617	0.5990716533630147
Si	2.852056984968995	8.218196314173605	0.4230870635081624	14	-0.25436844819087	-0.9987242643268321	-1.9094861305512898
Si	4.180944092791492	9.444859499697069	1.703554370228097	14	1.101943858509497	1.4855805402130478	0.18802698894668513
Si	2.8727768473948894	5.365477144676931	3.011677108140052	14	0.7174106323808103	0.8317705688051447	0.1320154595472592
Si	4.26339149422947	6.673923376013884	4.581945673978974	14	-0.17829715508364877	0.4809360487760428	-1.1515970444521964
Si	0.16746212485621795	8.081065497330272	2.966842873422607	14	-0.6171802052433496	-0.40709287553926193	0.5131957072279408
Si	1.494723081166482	9.422388647692248	4.3079152621027905	14	-0.45170386683861924	0.6892323465141154	0.5605387550404873
Si	0.28821852954299515	5.292788823409163	5.696780004906851	14	-1.9752249227084322	-0.2886896188884626	-1.150946554806199
Si	1.4304835831428446	6.688419789428008	7.039410155549688	14	0.5662818329941022	1.2813825843552915	0.4360671756130747
Si	2.7865734484720472	8.200104564438709	5.796313938255742	14	0.7624779948744937	-1.1148230392791825	-0.2992126387427647
Si	4.2445604860300685	9.451272919679894	7.12192486098884	14	0.5586533635092228	0.4179527101905034	-0.618281152541437
Si	2.953534049964679	5.421250450681941	8.265937647522398	14	-0.17415896107087042	-0.11941704347853366	1.3839118367594962
Si	4.202549762716707	6.811251762667115	9.799344246137759	14	-0.3093960155842752	-0.6501420325581799	0.0742686911672654
Si	0.2187922812353465	8.169874212427585	8.557136007439945	14	56.847241986907896	-9.497590804567507	7.992124821587371
Si	1.3686105806443527	9.639576488383481	10.093372630749826	14	0.5392433181158288	0.17579546960714468	-0.5216638997103804
Si	5.57063276683573	-0.0486434240742043	0.26081277448436174	14	0.05355252427123629	0.41770871229562134	0.40786497846690245
Si	7.083849250647337	1.3549380984704047	1.5937576622485987	14	-1.3484375253258172	-0.14293648650512022	0.384730429906742
Si	8.326542729482647	2.716588142735293	0.16795822047777367	14	0.7233316308225792	0.017481459292750818	0.29834463358668273
Si	9.754703239036587	4.054003318835562	1.518277310480521	14	-1.5354085613175177	-0.43541925707239737	1.1577481568201187
Si	8.481844541094517	-0.04291281403877193	2.9231517211767115	14	-0.8189741776267676	-0.415063816252785	-0.1423893552929927
Si	9.67502832822761	1.3485898113919415	4.299032219496247	14	1.0441125007644703	-0.7280822621226167	0.6519538904772884
Si	5.484895068179074	2.709316053963298	2.979014042151016	14	0.6927845856244318	-1.2120609569345226	-0.40862139765209
Si	6.865241512641016	3.8969841696453527	4.435507365102339	14	1.1533878193076799	-0.31854066587644586	-0.5112280403264314
Si	5.720475355513673	-0.08707617984129042	5.653130103500384	14	-0.10236830121116375	-0.7876020647313848	0.11861357306598737
Si	7.1795370859936645	1.135444552964763	7.0659344453026245	14	-0.8651219185759774	0.05875335611283182	0.10931028557556356
Si	8.405361142599268	2.5783066445815677	5.7605787702776405	14	-0.7401407460741113	0.5638043159076075	-0.6186989571559611
Si	9.659803511833038	3.99641497589567	7.072230626057599	14	1.1542331987369445	0.04920915605391013	-0.20030787350837245
Si	8.383109571372463	-0.194350073325175	8.559347269543029	14	1.0866444963019557	0.06691815816749405	0.15329469850840077
Si	9.828803858780601	1.2773876058920277	9.91757023749008	14	0.26956496618560516	-0.08102015662744223	-0.5732238173585019
Si	5.762879047350018	2.574169619606187	8.310617734366188	14	-0.42949671596743627	0.34686190519894095	-0.07986470189656769
Si	7.018136663436717	4.063185972802169	9.637190452987028	14	-0.2956897102330978	-0.6620508781800419	-0.10266500676510883
Si	5.514493631017888	5.1611780202104915	0.13318701948422673	14	-0.21246020280405237	1.2944921361616624	0.5456996206852528
Si	6.963253507124653	6.609273540692767	1.4634853402345627	14	-1.513799192433269	-0.18184733730970926	1.1677443571943225
Si	8.430941005238958	8.027075747356369	0.40924197913765575	14	0.023612002818111898	0.7599549692238325	-0.49699388705302755
Si	9.86764586629676	9.505202964491463	1.581107766673131	14	-0.03844136697312997	0.09972700471577563	-0.3521684094691946
Si	8.15200608566433	5.2894051690275665	3.00322285715389	14	0.8811954405954152	-0.3841593874151371	-0.5035206379082235
Si	9.5824039104831	6.642946166699412	4.284263333432209	14	1.2726824781729742	-0.5984484174334107	0.21119830431292366
Si	5.5609160230533545	8.076063290275284	2.9905805604172655	14	0.2656993093367625	-1.4666798307835753	-0.006460673448468093
Si	7.070760793515834	9.34372004025566	4.227879949223011	14	-0.21745663177269609	1.170460987075591	0.3689620980888058
Si	5.758021218233034	5.295239991709979	5.820866872103328	14	-0.45340439589736514	1.4444222862481175	-0.41481493325779467
Si	7.05549581183024	6.8450937342251	7.02710220772212	14	0.06648389847892104	-0.6197042593361389	-1.1127036771637846
Si	8.447439169913803	8.087336710471908	5.667803461304692	14	-0.08264046720019955	0.26340048407001815	-0.31881191748772153
Si	9.757331351727586	9.387909459219923	7.056177536229227	14	-0.6449262883057276	1.7100148947140938	-0.21061646317897414
Si	8.422526919543818	5.446880248548308	8.403337680370427	14	0.07954588483686933	-0.05059549604253397	-0.05498591548721884
Si	9.742152128366069	6.745559800876209	9.824192449151786	14	-0.32292414333676633	-0.3738592823920919	0.5514411559756754
Si	5.65759930628801	8.115020365922483	8.488305725207208	14	-0.6905029867633325	0.6071611220317965	0.24001808095699548
H	50.07070854619458	50.15503828856861	51.95857166699207	1	-0.1244605236745361	-0.3045227425604666	1.1892773642505627
H	45.91200516914583	44.17863078420408	45.99498666039957	1	-10.169474617933922	67.14096886898542	-23.160006873708912
H	31.912922730662977	30.042493517266326	30.136198055674836	1	-55.77367490359582	8.848749751301323	-7.726270474599804
H	0.07883578189111669	0.11338444546142747	0.07168418899219105	1	-1.0008382271210576	0.4178480662039733	-0.8872236541290344
