67
config_type=vacancy dft_energy=-6756.455857618119 dft_virial="27.12306274797184 2.7841159492376764 -29.641172760328626 2.7841159492376764 60.958302208180356 7.84419300864908 -29.641172760328622 7.84419300864908 35.307218501065115" pbc="T T T" Lattice="10.899721676319123 0.0294947943300912 -0.014540301417716799 0.02942939567304 10.917978801412584 0.0173197443423928 -0.0145730007462424 0.0173415438947432 10.91725941618502" Properties=species:S:1:pos:R:3:Z:I:1:dft_force:R:3
Si	7.043178129696504	9.567544492320474	9.844337768423973	14	0.4473160184992545	-0.09628018092358512	0.751874242313139
Si	1.3362057412730028	1.2487132379146726	1.4257670221493863	14	-1.6396851368972953	1.0429627024652999	-1.3393388978188772
Si	2.779997723283318	2.827453168794903	0.34422038150090356	14	0.8618465875086407	-0.7330455238326307	0.35562526057213373
Si	4.305529306786692	4.063920508176739	1.697212868061332	14	-0.0018563380411469133	-0.08917595981348396	-0.7606360550231397
Si	2.802029440866249	0.08599814404471047	2.967331086428862	14	25.965872364434283	-9.503277832425143	35.199436620786315
Si	4.161438625661018	1.3096342669131005	4.27899707162102	14	0.34911162235407056	0.7673312132768052	1.646384923140537
Si	0.187121907487746	2.5888352687674248	3.035556055442292	14	-0.17713038748936558	0.049071859029814216	-0.7440141162389144
Si	1.453721678105922	4.045870478830607	4.262955871023978	14	1.292659709399993	0.32349441449677513	0.803369368107193
Si	0.10183987873774616	-0.02801896463596912	5.817024158531644	14	-0.04106440862074504	0.4451583469145862	-0.5311029415617081
Si	1.5330088299595614	1.345686366590192	7.04292525488924	14	-0.38729099369507747	-0.06553798883163856	1.4497676142087053
Si	2.846242202965713	2.6940442683209254	5.73588840463869	14	0.3715157198927769	0.6435826286654182	-0.851675294862135
Si	4.2666879543863665	4.131475140955393	7.046949452253124	14	0.03872495988994231	-0.676151076866266	0.31952102833501833
Si	2.815859076877343	-0.01567605809517264	8.575772768161409	14	-0.7152421621537973	0.3918575338541925	0.005782672975545045
Si	4.1418549978070365	1.4968651721625985	9.838673154745722	14	0.31006655985176984	-0.6137588353938286	0.5304061720199479
Si	0.15017057627620048	2.7309803398458254	8.53230010086424	14	0.40753022055421906	-0.18132900247716738	-0.622848978253212
Si	1.489572131923772	4.18198906366174	9.875915509981144	14	-0.5168047677658325	0.02791860422935993	-0.3944144980950797
Si	0.039408140761435596	5.5104396141860885	0.24493759025385936	14	0.6624990218373435	-0.09719446597542977	0.498094320130051
Si	1.5456427605242358	6.799986683585913	1.6837080453802593	14	-0.535458908195103	0.3980904073712955	-0.5022471694431542
Si	2.836727788342381	8.300837903895783	0.33376531619365174	14	0.24088865721839764	-0.5589438984103995	0.03354906776995221
Si	4.264437150606188	9.637064354743517	1.7721368395120394	14	0.09146475776947978	-0.2723967815852163	-1.4273249500901966
Si	2.9516648381322477	5.41530745770656	2.9544922400720948	14	-0.5447768509858517	0.46021319700618135	1.0194661422760627
Si	4.196329899175451	6.885034367148147	4.462492623575277	14	-0.34340119743802167	-0.6469939712041907	-1.0305062114102466
Si	0.13757588490575687	8.237675880915733	3.0240044726518147	14	0.3964814096619467	-0.006348573256509636	-1.005666248691232
Si	1.4531102006624932	9.573021629848514	4.408462433074811	14	0.394888609916115	0.1809765039377751	-0.12426794788605704
Si	0.16989917115331246	5.4356911291318015	5.669987267905814	14	-0.6005783210806215	0.24220403470018537	-0.0429076340247592
Si	1.4855403047165656	6.7463663246696335	7.152682731040652	14	0.3326262092623451	-0.05205331275905793	-0.7942134049516135
Si	2.809456548352031	8.168362024262402	5.757088469299455	14	0.12467829629515265	0.9168399592012881	1.0910526563733496
Si	4.2520833442892165	9.61412032589472	7.199621527161533	14	-0.6959316185362932	-0.670005620930048	-0.5974675407537743
Si	2.9286913798877787	5.4418625824022	8.466820785469345	14	-0.0702143151879239	0.17122353012685737	0.22403249073950682
Si	4.274019143841807	6.877330405347514	9.797947231044704	14	-0.6230286985150905	0.5782994363710063	0.3030651829544746
Si	0.27399312360409	8.104852298422363	8.594425555130028	14	21.33309461873003	-0.6543442470934301	6.239289196208338
Si	1.2345239092897973	9.711265671033809	10.096014690286959	14	0.673547832729616	0.2037973776488774	-0.2043077420549268
Si	5.618363747984832	-0.036177447103106324	0.19728267883826742	14	-0.42274293651247125	1.2010519981747128	1.1184783797128373
Si	7.033747643349722	1.3362460704448513	1.7552934153885027	14	-0.5050437606998792	-0.2840210058481378	-1.1971086939452016
Si	8.331316948014493	2.711982029972452	0.2601405980630283	14	0.5970168259911522	-0.8388251675825669	0.017370901763984453
Si	9.71433286804951	4.040743224117794	1.638787887807025	14	-0.06824253451790234	0.22431222699833894	-0.2515086077432693
Si	8.396399511556613	-0.04924954867002367	3.0815618307225763	14	0.2912373271501974	-0.07952454466271211	-0.7892647985419246
Si	9.635494786974288	1.4500484535348794	4.389711548120614	14	-0.2575730738619025	-0.635419369273948	0.9822357659087224
Si	5.565245868750228	2.649505602913823	3.0621645890411897	14	0.5075649865768165	0.18684273783622493	-0.6447625088968341
Si	6.877211597787205	4.089938273906941	4.344741251576974	14	0.9000336721656081	0.20620264667587593	0.055347155784699634
Si	5.559193223040141	-0.023299361552107517	5.739102748632756	14	-0.30513826517411	0.05345533649013468	-0.43223211491754177
Si	6.922778112087629	1.2874150731799552	7.103424462549688	14	0.1837844080579088	0.8438149116773782	0.4396926912250155
Si	8.24300369151017	2.7926828827960155	5.831366084022973	14	0.04631511990555145	-0.28741126532328504	-0.6907048185309641
Si	9.687956499683144	4.146128800045332	7.084029400823537	14	0.2656319463773747	-0.18733099073652107	0.09842885363963286
Si	8.371013932844573	0.0046280449639899204	8.505910652766465	14	0.041740866430476004	-0.1052793066546354	-0.14235875913968293
Si	9.883968264619384	1.1892963780284223	9.842866298640322	14	-0.5065298595749248	0.8734960086036997	1.0295291913885902
Si	5.635660602797256	2.783446412465151	8.530804651573005	14	-0.8722634207132206	-0.8385706281558722	-1.380743206562946
Si	6.943198842751865	4.104318348614883	9.801569226667723	14	0.7260557169092762	0.6547983042929681	0.8528849999152647
Si	5.5808870475616414	5.47500117190766	0.25568367958498905	14	0.25092933771463993	-0.14578604253144034	0.2489531861655741
Si	6.897282445636218	6.8755025128829335	1.6576684800977064	14	-0.03245094868771697	-0.12204882688423722	0.21382545972905093
Si	8.391029191835091	8.261899543487496	0.45592128774435314	14	-0.3098680705210544	0.08024599681554566	-1.0381279960212932
Si	9.911628626619189	9.719530971307464	1.4608817410754107	14	0.031111659926451832	0.14614368328147295	0.9247425085132952
Si	8.319686886835555	5.485288380661815	2.9493617154264276	14	-0.4016231060811789	-0.5442176355787194	0.23336791704643248
Si	9.669065007616288	6.891461965158661	4.264900391093634	14	-0.003762555525504699	-0.4332081064970699	1.0355676893434902
Si	5.548550681582675	8.249203484198624	3.131421766858411	14	0.5320395952298381	-0.5094213246179633	-0.38043771246422275
Si	7.012538858868018	9.517586458199064	4.453171134990246	14	-0.3299365759869382	0.7434872967588161	-0.23057363978449555
Si	5.576933698742896	5.4944125832980735	5.664873092924409	14	0.23531398666325257	0.05618893566651612	0.3927805606641256
Si	7.003961824995754	6.871974255335021	6.994706825045391	14	-0.3844758904800474	0.8361028812695941	-1.5227165570151384
Si	8.427936923941937	8.288744602229398	5.76746723617348	14	0.41031215651061936	-0.9843281314182589	-0.4640989084765211
Si	9.747011487000378	9.5074790957518	7.195883993911057	14	-0.11827393005319582	1.5031998107509585	-0.6386630757458469
Si	8.268968048337115	5.506556023934864	8.390733807900743	14	0.5123729535254934	-0.8685049789562282	0.2647834816217258
Si	9.51306523104159	6.887184892987513	9.777860033531429	14	0.20338934323456992	-0.208547494727851	1.4010634232396721
Si	5.684033809462794	8.300973061120354	8.501348006459526	14	-0.4940240032977246	-0.7157206448538769	-0.42170806662111165
H	50.11093836155262	50.07581710276089	51.92305122016483	1	-0.6349699400639861	-0.608091090826094	1.634692821697164
H	0.10867294842197904	0.09435718239347135	0.060985337677861524	1	-0.36956630783904065	0.34803818588290875	-0.5406455989574377
H	45.914243319875304	44.1071203787961	45.929057205675015	1	-25.667493792257375	7.873474224604774	-33.972830406834646
H	31.97430920373184	30.103930501597485	30.137291446536917	1	-21.453218973282134	0.6392166347212748	-5.703036330690375
