68
config_type=vacancy dft_energy=-6756.121765622019 dft_virial="-1.9024491291055816 31.47635409120661 -3.4856796889144066 31.476354091206613 8.366332832667757 13.221261403071182 -3.485679688914407 13.221261403071182 44.65552073788702" pbc="T T T" Lattice="10.842360470700001 -0.0002819013722382 -0.0038056685252157007 -0.0002819013722382 10.834055222579444 0.0006505416282420001 -0.0038056685252157007 0.0006396992677713 10.841558136025169" Properties=species:S:1:pos:R:3:Z:I:1:dft_force:R:3
Si	6.909534910356025	9.41699774155665	9.542489390116625	14	0.47867604719963264	0.3962908907577238	0.5737323819908273
Si	1.3011981855049894	1.1515887903139885	1.3775739411326944	14	-0.8305724337259556	0.2281002364665131	-0.7759323319042967
Si	2.7335607425682253	2.611886689129983	0.15593374405356034	14	0.4707184762337744	-0.21143021801280099	0.5894174099963906
Si	4.104871052056996	4.033388453709718	1.4673215799289137	14	-0.33661399361389477	0.48731573240692616	-0.13575950311445886
Si	2.829879936045736	0.012792901119378931	2.8355808491812295	14	15.87517667062023	-52.820366550070695	21.71895479231444
Si	4.1745115333603025	1.398231890537519	4.198756135608835	14	0.39603557999943306	0.007332021041466277	0.6416509572383909
Si	0.024206653986884822	2.5933711901541683	2.7842249245757125	14	0.12890082256243185	0.35350512712513965	0.4330240153561474
Si	1.3225077607741034	4.066103107957962	4.175219539499039	14	0.6335697161066336	-0.5042572595824459	-0.441925953306096
Si	0.10128716304518527	-0.050737910058687725	5.479456838643966	14	-0.03521694379113227	0.4177441935490393	0.947969873975513
Si	1.333222181391249	1.4495368560488247	6.869683814445968	14	0.5058464597808294	-0.1383156960237501	-0.41614316626618314
Si	2.7826506138353664	2.800414737230561	5.5288828230856994	14	-0.037513455063088536	-0.24125118306853852	0.23709010621841084
Si	4.164959413785616	4.172150067249784	6.925391862544424	14	0.020742135059762613	-0.5951658872711777	-0.43603580812816883
Si	2.633620200693501	0.09382328209715539	8.273182923700153	14	0.38481707615603095	-0.40857897441430757	0.36600944073914776
Si	4.113148110040329	1.2705782752996857	9.69681521211238	14	0.2910267536244772	0.5462457234552522	-0.8630164404293081
Si	0.058223475727659006	2.728150404693346	8.324754611279037	14	-0.7686226794791157	-0.3198408738368448	0.001566060250502195
Si	1.3849066295190287	4.0477394020287365	9.674097214218124	14	0.9805411503922129	-0.14196820824155246	-0.6457356722605102
Si	0.09986139264328821	5.3615071360274085	0.1452475135736384	14	-0.46112028296312957	0.6488801340670513	0.04510335796816566
Si	1.4089669116395591	6.764658205510485	1.462836095402185	14	0.05380654947686691	0.8098218140186365	-0.2068132841894111
Si	2.7313922704740854	8.242589035159979	0.10509825275063632	14	-0.4405923209765353	-0.34336160241609137	-0.012196038086122412
Si	4.176504359214817	9.46408286037276	1.4351609703007233	14	0.10649312547627732	0.0003578978605646126	0.765052442631558
Si	2.703369105601514	5.398346224198706	2.809439918086372	14	0.43409899449050127	-0.19887242540813377	0.09506533365981515
Si	4.110161039730651	6.761398991952992	4.1383219025811995	14	-0.35624155451737316	-0.20532127177212917	0.05375178493354776
Si	0.05078019526452346	8.21059756635513	2.768082818306934	14	0.12889465190966348	0.20786666603907578	0.020706910916876584
Si	1.4951972886990834	9.510729947825851	4.1921141055844835	14	-0.41727136728066405	-0.6687753470343571	-0.4913806499180804
Si	0.10030809789468105	5.481932149539427	5.508344139646052	14	-0.5311949871321694	0.4581655687292153	0.6234033085602361
Si	1.4416522915145313	6.797198297755149	7.035439652849934	14	-0.10509392996105273	0.1920314854828158	-1.7141942264119945
Si	2.8301488265854093	8.1287735245909	5.539635191964492	14	-0.1566078248239436	0.11542977334804799	0.7973311272628251
Si	4.134154099216262	9.538149193220203	6.960903845794108	14	-0.6033211762361554	0.37253387759955553	-0.6937114690923453
Si	2.7904310917091406	5.452917992919834	8.311565964002478	14	-0.15086808930724502	-0.4312306693953441	0.5325995819685663
Si	4.118047772737039	6.872436689769478	9.588764584605574	14	-0.017759138667326813	-0.4914824656887583	0.7072609370189936
Si	0.1765363974199845	8.180334369809312	8.408540036052418	14	67.2042761668413	-23.041711860592088	1.120925300646022
Si	1.2168489579871318	9.831960898435469	9.924442980542397	14	0.7091668973928195	-0.9196715174903671	-0.942016222496178
Si	5.565635172373231	-0.037200138774971706	0.1476696969027928	14	0.19217521027021206	0.3330082755129191	-0.1905908951719368
Si	6.816311210792899	1.4708518524981737	1.521086677031021	14	0.633368398560066	-1.080451732027847	-0.9052519875233807
Si	8.369335144826415	2.5211198684495177	0.09061394339782818	14	-0.37854306495380563	0.6118844996154407	-0.2827825044154224
Si	9.545387553070443	4.060883595627367	1.4491736369730561	14	0.017386842616969368	-0.8446361227166336	0.020529504649786368
Si	8.159154902865847	0.033919240496537884	2.8132228176545997	14	0.003872341722675022	-0.00036304007120490874	-0.09984090468145819
Si	9.514420687330077	1.2940433118303747	4.223286976173793	14	-0.2159751608872268	0.4905864354846865	-0.09363091400170453
Si	5.500644979475807	2.770355377061593	2.814611724030896	14	-0.8355364667675654	-0.06407065902543006	0.3875329347057034
Si	6.851245296229495	4.054259997615816	4.1997211056907275	14	0.5332986655051146	-0.20726168495724492	-0.18756059044161028
Si	5.56245293957508	0.028528418870505844	5.567313569774095	14	-0.2152066575070345	0.41106600459048676	0.6441963515053376
Si	6.914829234973867	1.4209162771143178	7.012773698285936	14	-0.18387568229677403	-0.7049847374790665	-0.07340891354820787
Si	8.188151711708688	2.7322173741059057	5.596476266732137	14	0.425272904147497	-0.17223423162820758	-0.3392704596306718
Si	9.547785883206561	4.136069944311436	6.876210915449329	14	0.9826314590174933	-0.8840946189544141	-0.5250482456432913
Si	8.40893903491774	-0.02597721145175013	8.295802256114127	14	-0.9059600699285494	0.018012135430829385	0.1657427049158977
Si	9.894404220858323	1.0090833097033902	9.799913049356173	14	-0.3779684229147525	1.1383993037333446	-0.15045928356134147
Si	5.472983949442958	2.7535768242331846	8.32148997654131	14	-0.5150250486632261	-0.6685172080602142	-0.15929411566243432
Si	6.941266162509575	4.004099985370217	9.561442920455455	14	0.15592956724048854	0.2740348327846826	0.9898099850713467
Si	5.4765022954157	5.399933545771617	0.10613369817558817	14	0.4434207939392302	0.26019817239377374	-0.23144164494057753
Si	6.875862875678219	6.802241079610072	1.4768899630443064	14	-0.5249646847203866	-0.674155899137831	-0.16005027773708988
Si	8.27790910862933	8.063683581977147	0.11904586526014481	14	-0.14197566444698087	0.7927411900452969	-0.3396995771086045
Si	9.538322670987736	9.61761068463787	1.3905847736975345	14	0.38025310710223614	-0.26869027615569085	-0.0029395447125252984
Si	8.171586753381552	5.3784418188465954	2.7972747896382466	14	0.19663890621652114	0.26989946698775646	0.1831213199958426
Si	9.516808175105725	6.807919223788577	4.112781638256418	14	0.6564391837082866	-0.5266233047624141	-0.11313686162353996
Si	5.511499266543026	8.086411337995827	2.8761258561614125	14	0.0866609045893151	0.7467135197145379	-0.35062420361391367
Si	6.890322247601945	9.495293679223716	4.223027843758544	14	-0.48376323618607764	-0.14357977705622127	-0.2684483351450649
Si	5.507759736416681	5.429663298182276	5.420101420483166	14	-0.5518232222262495	0.05384897271464935	1.1199122851498835
Si	6.804535323085672	6.770798234245042	6.873492735679323	14	0.008523471246822897	0.2784967289572676	-1.5113977800642506
Si	8.23986868691788	8.104654693723827	5.506685258494034	14	-0.20811426348140605	-0.003762555525504699	0.6705182993308855
Si	9.606456064185613	9.41467747641592	6.8745205914519465	14	0.018132977380876342	0.6965350569549319	-0.8394365764276982
Si	8.194066219345455	5.4211737299337175	8.131118727160711	14	0.12699820462552228	0.045751019398310964	1.4221850534446885
Si	9.589322966169814	6.711635810100621	9.586163502328652	14	-0.1273877270815247	-0.6241818392511769	0.35244917417015476
Si	5.481127646392501	8.140250163149135	8.225427747006954	14	-0.16915070501775398	0.44127212122318243	0.23283029892398954
H	45.972110397057804	44.11234632718376	45.87369645953734	1	-15.104779414249146	52.79472903048137	-21.60922850189808
H	0.13105703218958625	0.037302056963396286	0.09747498910368715	1	-0.21515986339020782	0.03324464890004668	0.045230884792045005
H	31.935574268148873	30.11830899861183	30.081418951346322	1	-67.192556554571	23.619906395866032	-0.4806393432220977
H	50.1159629877151	50.07321481308727	51.92523852182128	1	0.0006409765563129161	-0.0668564516398105	0.3689448716831608
H	25.714964026337167	22.999967573366877	22.999967573366877	1	-0.06805535805059555	0.06411693892119272	-0.1845765656070464
