224
config_type=interstitial dft_energy=-23190.171937284413 dft_virial="118.54362732970998 -32.37071545875089 -42.739241998244765 -32.370715458750894 112.78067416457172 -19.699402232079198 -42.73924199824476 -19.699402232079198 114.58858121707009" pbc="T T T" Lattice="16.3199774331 0.0 0.0 0.0 16.3199774331 0.0 0.0 0.0 16.3199774331" Properties=species:S:1:pos:R:3:Z:I:1:dft_force:R:3
Si	-1.98124526037834	-0.6182986650304266	-0.44044355096450283	14	-0.8788264241534306	0.34250542434448206	-1.3436141317452195
Si	0.2895327196406271	0.0246105259691148	-0.16182889622661958	14	-2.1832353135349045	-3.3284030520235386	-0.9758095452715444
Si	1.3274996043632201	1.4297442629815917	1.2915956540104003	14	27.00805190821907	41.79033501105672	22.846097282735116
Si	2.7390634124843385	2.816583305291563	0.063484712214759	14	0.4727398792364748	-0.31770917041590996	-1.2311151613516083
Si	4.094698657942223	4.101340888757495	1.4913521777915444	14	-0.28384719912849576	0.6073724668891126	-1.4404602129497692
Si	2.8143311484057953	0.1090337692305411	2.644032183891397	14	-0.2527409385232162	-0.8413337950434354	0.27949586048467717
Si	3.9670274744830816	1.5002628854700166	4.141243233581425	14	0.14911870924741627	-0.7994695155575923	-0.30657139927956056
Si	-0.1578631417103763	2.6969089107746416	2.7384269333644475	14	0.2231745128941734	-0.7016443574471302	-0.05802470486510185
Si	1.185319960966053	3.984506170313932	4.095792096430241	14	0.6076036092573941	0.8343298470408199	0.019352452634222576
Si	0.030224598206101197	-0.0758062951767495	5.423536500454957	14	0.56950882728142	-0.2931422590818951	0.8043628432028981
Si	1.2428968413500299	1.417243160267837	6.961041574427308	14	-0.7930852039371327	-0.44862728221253	-0.6530530380016517
Si	2.524896348629767	2.653252971141099	5.472969712099817	14	0.4848996647375831	0.7357505837399584	0.6005958045967984
Si	4.196208917576105	3.88436678878443	6.711851839001305	14	-1.4983468494591792	0.49671029413621526	1.409997500006123
Si	2.5241456296678444	-0.0318565959494112	8.163595431562715	14	1.445909156454759	-0.11378246616942914	0.1958310649249306
Si	4.042784809727532	1.2836641449779136	9.469471065827078	14	-0.2230891521975445	0.6292690282376219	-0.3651146960877362
Si	-0.0916040333319903	2.763641298498587	8.358815001617458	14	-0.13375866895431965	-0.846605846502399	0.07826110350839133
Si	1.3167284192573743	4.146775705931245	9.656889686668798	14	-0.07329064270348107	-0.09574950478550655	-0.6568888700287806
Si	-0.1541585068330626	0.0694578239552736	11.033953062496343	14	1.3128593412372043	-0.7503318362315823	-0.46701685590435715
Si	1.3808006506597248	1.5200916580512334	12.199591130678078	14	-0.22492492139613018	-0.9771336645114205	-0.055055078220330816
Si	2.7989740496412483	2.792984617923301	10.817958161169264	14	0.020047679512790614	-0.2785664059114436	0.26333312111063023
Si	4.199734032701654	4.089133545637536	12.215943748066044	14	0.6685457473292679	0.07148161300022488	-0.7759876106686799
Si	2.680295173747745	0.062374953749308196	13.55421453753511	14	-0.0905049641534685	-0.16211461819863676	0.3821994338295882
Si	4.044547367290306	1.4630206969676827	14.951841084928361	14	-0.3206582282181198	-0.6266413586004305	0.21707585107478217
Si	-0.0027907161410601	2.792543978532607	13.562146046567596	14	0.7664428963886942	0.48800273174846986	-0.32594236387208814
Si	1.5252161309652266	4.029630907916453	14.864268086022346	14	-0.9504553614885002	0.6948059886271324	0.40946883396561073
Si	0.0842274035322291	5.3010713897969755	-0.0050102330719617	14	0.19730379405231144	0.8029464212820284	-0.6644900857972663
Si	1.409425891077382	6.740134359892867	1.435652094812374	14	-0.2733393487955826	-0.3199848557347731	-0.9036995541310752
Si	2.770299849291292	8.01942475091871	0.0117340637743989	14	-0.26634877054063194	0.9899125721736205	0.1138426300339206
Si	4.084335472272205	9.52034043548605	1.3918492753819336	14	-0.20893007519948903	-0.4622114600610004	-0.5113216285600848
Si	2.7339389395703453	5.3558901939947585	2.813417229669542	14	-0.8068051361465068	0.040372267068561174	0.7754638765149657
Si	3.99302519853401	6.84838477020662	4.096020576114304	14	-0.28285295270119454	0.9012886286723724	-0.024703951247578786
Si	0.0618200745165828	8.171494300640335	2.649368816512021	14	-0.5444575197050892	0.4027785608120534	0.3334520482911767
Si	1.2156587990141858	9.641793707543181	4.046505764582279	14	0.7304965300182359	-0.22632154580603464	0.20860354482383023
Si	-0.2454198206389578	5.311924174789986	5.43261040790776	14	0.08220235085364633	-0.23051013348308788	0.06481576534720897
Si	1.2534395467718125	6.502238048850568	6.78721749478736	14	0.6064280999050224	1.3787182040127972	-0.5066982669733946
Si	2.5255654677045243	8.195272507760363	5.425576497634095	14	-0.3000595608352215	-0.7445697320985984	0.030407948400327303
Si	3.954004132491468	9.413444583299245	6.825895841303808	14	0.6328783458860457	0.18006761820710274	-0.2702889894437589
Si	2.718761360557562	5.297072995325865	8.172114459782794	14	0.4438365416694981	-0.43752987742970695	-0.49067950949727607
Si	3.966586835092388	6.6580285534269406	9.625408450200348	14	0.7748694369649475	-0.4152473931726436	0.2057850991718839
Si	0.15902186010812638	8.173664857638938	8.066948525203896	14	-0.2061257706268035	0.020839579951396223	0.13242066574571457
Si	1.4685042093852043	9.574832840135173	9.403913716478314	14	-0.20696677917702394	-0.33230790642371083	1.1202760965526846
Si	-0.055390003407941396	5.596316101539187	10.85699554718924	14	0.25792840061714706	0.34489449540796374	0.5995244250098928
Si	1.3071159525492784	6.888172875188517	12.424513059661061	14	-0.06479519650464778	-0.26808452374226394	-0.9737086951144512
Si	2.6781246167491433	8.175003095788453	10.924919293265802	14	0.003656883096846613	-0.037275627820974835	-0.014131309060597872
Si	4.11452743052344	9.570165326589306	12.192720420178743	14	-0.02245629097670534	-0.10000005610077536	-0.6181361422013806
Si	2.8433807082367135	5.419684985780746	13.53647472206533	14	-0.6890171449988189	0.4321349271364402	-0.10645738711232726
Si	4.122246779849296	6.721562225573999	14.964309547687249	14	-0.15578378556883613	0.1218056003209512	0.023731559215498788
Si	-0.1601316185735772	8.210645926502343	13.727304218190568	14	0.8742976792425219	0.08975163029466511	-0.7767340025431189
Si	1.4207356354385203	9.464281313003353	14.915170095636185	14	-0.14216978289865206	-1.088856675319411	0.7714480671154264
Si	0.08354196448003891	10.720152536412696	-0.0180498950410086	14	-0.1482440192175019	1.4612787098375402	0.9344682286078194
Si	1.5200263781415009	12.310713857020055	1.3137255434096837	14	0.1851401518932229	-1.319350867949514	-0.37326124329462546
Si	2.937285858386771	13.70788344504518	-0.027287002268143203	14	-0.1445459984355329	-0.4023646128555096	0.15718092419980462
Si	4.234675104385921	15.067027485651181	1.4796344339945784	14	0.1557619311736149	-0.8479981000332593	-0.7364236991127733
Si	2.8586398871366625	10.862005780261201	2.818476422673803	14	-1.2234697225716158	0.5382806962839655	-0.4882729549176173
Si	4.231949668154594	12.172238848500202	4.160631366771947	14	-0.18230987915680386	-0.20155151715172806	0.8120450487889685
Si	0.23144991995622421	13.495821658279478	2.8089292358754396	14	-1.0974212842513564	0.5038343127572815	-0.635576206698477
Si	1.5712874272588682	14.967459303331838	3.9657545162433	14	-1.2374902169929154	1.1292891062524637	0.5484856704101653
Si	-0.10230993852810391	11.054597833949215	5.401781970536636	14	1.8977181815009723	-0.241467670136495	1.4053437993766547
Si	1.5480477793941336	12.351954439993499	6.916096356576552	14	-1.0788008253017798	0.08378409484660142	-1.6765362752299133
Si	2.8068239587865698	13.693897224385012	5.358403470519455	14	0.4886809893319249	-1.4106251068147708	0.582063534559703
Si	4.022368517958724	15.086056579338175	6.71382655627071	14	-0.275308815470816	0.8370616464434774	0.4213234292652175
Si	2.8840337720225655	10.973520186061574	8.18730835877301	14	-0.595969100573192	-0.9011310199162473	-0.4141662433855213
Si	4.286686872465212	12.21755942583192	9.430972239062395	14	-0.44159093828288076	1.1174039147995474	0.8585144350137289
Si	0.099715062116241	13.633676507656874	8.256668262863686	14	0.013332723748159879	0.18020748633651879	-0.4748322447460113
Si	1.4003519836245786	14.972224736742303	9.697493790522351	14	-1.0059930361774228	0.28587862944194475	0.17057046937553977
Si	-0.0274012421101749	10.831862781942267	10.83298886038515	14	0.26302844513019275	0.04139376721225601	-0.33941932662870833
Si	1.4069778944624172	12.112670930869388	12.232051565792514	14	-0.4111809329982974	0.14101535660990558	-0.8053992557574499
Si	2.7557097894661005	13.458416270002813	10.86926817021893	14	0.7835518025205555	0.540772611560253	0.052394755545573594
Si	4.070708291115566	14.955431479963643	12.283165735112982	14	-1.1292114588717954	0.5654927607713487	-1.1752470996290465
Si	2.682351490904316	10.784126847950448	13.551309581552017	14	1.1775950330074059	0.602047193550022	0.5398243879181824
Si	4.1858783718609525	12.20445448395314	14.843623314569475	14	-1.0218030199015453	-0.3228783776620677	0.532267138050671
Si	0.0089433476333388	13.37748550191207	13.560399808982254	14	-1.0733459682545539	0.37826050047912135	0.9905442927507809
Si	1.3951622308008527	14.826781097858516	14.883754139077467	14	0.9327057359108578	0.1267886595419302	-0.7367689985572692
Si	5.419636025848447	0.16700232907291232	0.0154386986517126	14	-0.1365694012903055	-0.10453548588551656	0.49943823688089245
Si	6.7780946274022575	1.5385985124603687	1.4012006224510998	14	-0.2336983040800715	-0.8912680027976273	-0.01307355633188895
Si	8.13403995243137	2.79724413203334	0.022113569421850502	14	1.306222289963774	-0.3792177229898125	0.5112105568102544
Si	9.437647109832533	4.16975423415705	1.4855259458479275	14	-0.15387885363713844	0.035338557072775265	-1.0832712061219214
Si	7.963349308458579	0.007115510160831601	2.7754732821375847	14	0.5747423121605814	1.1157494085260318	0.41231299067075855
Si	9.593127534837675	1.250093951398027	4.107868879730734	14	-1.2291886321352214	0.7530384388021022	-0.3258068666217164
Si	5.3183379259211945	2.78981854230128	2.8068892386963022	14	1.4371015780700598	-0.23301336162278405	0.4552018556266807
Si	6.841775179346214	4.112209993727939	4.080010678252433	14	0.6156005181346507	0.35432402416960673	-0.6682685821757559
Si	5.3998398932220955	0.1792749521026035	5.436608802378871	14	1.021974769736931	-0.8324490834991316	-0.07926486302537714
Si	6.997255604351357	1.4577330242793582	6.763422967689901	14	-1.3158551931562408	-1.0075688666281415	0.35850772674655174
Si	8.272808720545019	2.8201084204171134	5.469787316500363	14	0.6397251993536	-0.12449420515423006	-0.9546681175555627
Si	9.689758121219063	4.101585688418991	6.8186497713235115	14	1.118459353533468	-0.581508175810551	-0.7857578108852425
Si	8.128670679855881	-0.04732793455599	8.202077938349964	14	0.26469272160392454	1.109636348516848	-0.6241242464920055
Si	9.612711507757396	1.3131543441995255	9.4493158936972	14	-1.0137130370116993	-0.32961107405340745	0.5429377393503497
Si	5.551387203665863	2.655749927688363	8.18858131701279	14	0.10745291909228859	-0.18191572871122516	0.059601563757948665
Si	7.121874952030509	3.8974554106857764	9.493298232879404	14	-0.5354884759062847	0.7886839858501031	-0.16468289530293267
Si	5.351728599749318	0.1323060570501417	10.985270569813405	14	0.5698854942108218	-0.5656475413116215	-0.1314762987616242
Si	6.832995031487205	1.426202827878609	12.300791310740731	14	-0.08007090454324357	-1.2094559130241487	0.24283138439830154
Si	8.332066558604607	2.5597395004494357	11.002814545553989	14	0.27059726497164466	0.559732713522621	-0.947031934754723
Si	9.627693247040982	4.066301897208629	12.239183395930779	14	-0.5627411638577262	-0.2479774516965779	0.4697098316166803
Si	8.006825728340356	-0.057446320564512	13.772200476109028	14	0.4857190760031143	0.6700387881886779	-0.8578174083614367
Si	9.503791978368888	1.4044156580054206	14.931392153204687	14	-0.6112615207963686	0.06393978976463452	0.30424532029642254
Si	5.479399783208459	2.712217049606889	13.62365604151295	14	-0.09341237004949195	0.868535060888474	0.4151895433029402
Si	6.8310692741501	4.082083315386437	15.03897344444368	14	-0.6777215079958124	0.7793123069581634	-1.1091802344330535
Si	5.426735216031846	5.436804642108068	0.0568261614220542	14	0.33110925712345773	-0.24460827528505583	-0.157552448918566
Si	6.737131484045176	6.9396624039899475	1.2905511754546817	14	0.15516929139732075	0.4944520923335292	-0.6433946808665154
Si	8.238716287687275	8.272204881379995	-0.103795056474516	14	-0.8886053661280818	-1.5641059533483501	-0.43639730553618167
Si	9.5682395692522	9.35397458553303	1.3647254728881213	14	-1.0756720472376917	0.32348335874389855	1.830565024307217
Si	8.07391715556783	5.695133564896608	2.63241235995903	14	0.27342110994476326	-1.4810147713855288	0.9815636789780356
Si	9.615371664078992	6.8277399987537475	3.9722009073293747	14	-0.22198511957307293	0.32766500443658736	0.6224154898962352
Si	5.414691072686217	8.190294914643268	2.7612259418384886	14	0.2213842522597543	0.13735333130241867	0.34631014599723725
Si	6.8264344005591004	9.46579907090463	4.222924720634089	14	-0.3990512294294348	-0.41160130871814155	0.23776193603856557
Si	5.345804447941102	5.430292971112261	5.386604391523853	14	10.001983561400326	11.073278558940997	10.45613589183532
Si	6.769134959791486	6.596290078797524	6.811501621207814	14	0.9822637909567121	0.846812306259607	0.16148418317413643
Si	8.246974196268422	8.059637175313869	5.498738956466682	14	-0.6512594349303162	-0.16401749324607837	-0.0380284474587142
Si	9.475036178131765	9.522413072620054	6.888531914692045	14	0.047365159318299925	1.0849797056071597	-0.3798193616347271
Si	8.416342922069136	5.423291700793461	8.090432972730127	14	-1.9230322560410222	-0.1411770791345429	0.9142487992596428
Si	9.545799600281686	6.901767416390289	9.469552665714243	14	0.25885476986399636	0.0406658872961221	0.9027654715682654
Si	5.212486552290108	7.861675849050365	8.070114600825919	14	0.8956052003621849	1.0185235750656962	0.4719904020356516
Si	6.687290272964489	9.43268583669287	9.321514150418594	14	0.3580073896512509	-0.5149620565828824	-0.574006461817955
Si	5.735851908592192	5.34063101509481	10.776195338917962	14	-1.436327675368695	0.20408585566579807	0.25602269735385325
Si	6.864884267391483	6.855369720547986	12.187889706858545	14	-0.908627591698203	-0.029468209405813177	-0.027774879441963652
Si	8.106312310772534	8.269610004968133	10.78646060472338	14	0.3840848253608528	-0.19888708070845862	0.4813379125375819
Si	9.343317640269214	9.382436626176355	12.533497868959303	14	1.7385487644465651	0.04414716389960259	-2.0591069766677315
Si	8.135394510558319	5.395613019066924	13.48198231741621	14	0.14902383546110282	0.13146164346129935	0.7514284126506254
Si	9.537427451858505	6.779481825484071	14.81532447370048	14	-0.32961750181670785	-0.004557541290494484	0.2248120498725757
Si	5.308284819822406	8.161930793864538	13.585075614861102	14	1.6567536766756303	-0.17992543608289852	-0.17639170893088704
Si	6.741896917455642	9.561727898256393	14.942750857498122	14	0.03818785598856337	-0.6355119290654734	-0.5288455110906181
Si	5.447053587936055	10.826999428667202	-0.0071971100479971	14	-0.21181511247922719	0.7654352802137281	0.39390361946796626
Si	6.926541142133735	12.153829913955665	1.292705412475851	14	-0.06256579108154738	-0.29323301909969635	0.6887893450674538
Si	8.117426215404475	13.770193118884755	0.0258508442540304	14	-0.8552403894990522	-0.7751525156606958	-0.277409665627909
Si	9.34245268146526	14.96894442127825	1.569965509086787	14	0.4660565480672818	0.949897431634028	-1.9430580811585916
Si	8.202159538237131	10.691184576468943	2.8561102906345317	14	0.0527212859212324	0.8802585298167532	-1.540245838866844
Si	9.61752590110016	12.18038251723932	3.992356079459253	14	-0.7460640585106685	-0.12873550049034635	0.5503885454576067
Si	5.531656350949245	13.431080307802372	2.7262522301993553	14	-0.28403154737995034	0.28204228319375185	-0.8512317791944094
Si	6.719261108755932	14.866161203404586	4.04224625047224	14	-0.7015325143657037	1.387415996200326	0.7157864651500726
Si	5.556903356038251	10.815102165118473	5.7098705045186975	14	-0.7615223150269947	0.07716195598402802	-1.0262525747685936
Si	6.8022645139806786	12.463664685523069	6.8021992340709465	14	0.6060154375011385	-0.6321646070491727	0.33810343492585654
Si	8.195696827173622	13.64196705619289	5.270308232335582	14	0.3726094680959679	-0.7618282765600924	0.8196902304584289
Si	9.417475617725222	14.95657387838396	6.80748690675927	14	-0.252822956782929	0.04159379920616354	-0.7289255846676255
Si	8.128589079968716	11.037788257193123	8.266688729007608	14	0.11027573562327916	-0.15731924966602856	-0.5833411167932846
Si	9.645726822104557	12.32331287959841	9.619223178753204	14	-0.664588302020496	0.057547250607150345	-0.8572692487071812
Si	5.355172114987702	13.819038811342024	8.08917633446778	14	0.7173242432420532	-0.5321388398951957	0.3675076238091981
Si	6.691239707503299	15.115807898198717	9.540152888089834	14	0.06210093523966461	-0.5616512723125154	0.7654746181251264
Si	5.577238047919893	10.811071130692497	10.732180359780891	14	-0.05714615817720725	0.7715195438433264	1.465356225764763
Si	7.028149321632216	12.336450461432054	12.044208625537532	14	-1.6219604510412582	-1.2646436602789992	0.9400858366218108
Si	8.273771599213573	13.786676296092187	10.850222756554503	14	-0.683133941805256	-0.26895844244058226	-1.4315474763574758
Si	9.408630189956481	14.91903793028783	12.399347654459222	14	1.2674752185680782	1.1793050751558363	0.5896398106065834
Si	8.141677701870062	10.93658807713047	13.674427491307323	14	-1.1489963714208669	0.42601106848491144	-0.8021018131843598
Si	9.365806569172026	12.249775061284861	15.04796575200932	14	0.8179837878574466	0.2586943328920191	0.8954463060533998
Si	5.383470955856697	13.558457731667716	13.410957775627358	14	1.79394888500086	-0.6157771530701448	0.6678626046457046
Si	6.5211529026955315	14.975260252544858	14.991661829865125	14	0.868952865502998	-0.6820761890765471	0.026607597626616426
Si	10.7105890296369	-0.0090575874753705	0.0105916653540819	14	0.5418735588583403	-0.520544183343456	0.32851501185542836
Si	12.156490070277261	1.3773734553987738	1.2751777567127016	14	-0.44938138740292943	-0.345698222931042	0.4002797035514015
Si	13.493079902070718	2.7101444124728853	-0.0428889006941868	14	1.4835231417358654	0.00529313452258885	0.5093655316325162
Si	15.007998127275657	4.008202777546793	1.3317754384506924	14	-0.9969905680094563	0.32425417611887897	-0.7312413792294828
Si	13.524136819125907	0.1028974577156955	2.757407067119143	14	0.3547608549634999	-0.3095204570817704	0.3491152219015188
Si	15.025721622768005	1.373978900092689	4.230807269734277	14	-1.1198035273948415	-0.6859575296678426	-0.7098942630878893
Si	10.782919169620397	2.7406464502953494	2.6946077939565742	14	1.1483610512962583	-0.33532432718530847	0.6104873609844721
Si	12.407556603108072	3.948651179893411	4.077056762337042	14	-1.2463805849689233	1.2134115585591965	-1.1244050345863104
Si	10.874931202388217	-0.1353089328978321	5.445062550689216	14	-0.9112010110131393	-1.0564352943428759	-1.119307561178585
Si	12.114123408860932	1.1867071590478666	6.6836672379743405	14	1.4998995399620165	0.1158357508780994	2.1162904158720806
Si	13.488428708502283	2.569270367270366	5.513818615614867	14	0.7781807635067662	0.017449577586780982	0.09589425801503089
Si	14.796523859697547	3.88578662682111	6.9103517245201	14	0.39094042058649564	1.1048080698361418	-0.08594150932073767
Si	13.579396262714384	-0.23734143180957332	8.131428756042075	14	-0.6988703919172224	2.1253054824561155	-0.2229222874622669
Si	14.793455703940126	1.188926675978768	9.553894309088504	14	0.4870622214223596	1.0238704456894763	-0.6286668753716432
Si	11.009179336752897	2.611979748212789	8.200478580561521	14	0.10793165890290017	1.2374110269490548	-0.6995010840522548
Si	12.264397761064918	4.214634172098075	9.520422035373215	14	-0.38422726459558904	-0.27997999961646103	-0.4373735542262419
Si	10.792319476621865	-0.0216076501214244	10.891381739640781	14	-0.028937019046670582	-0.33611905583976626	0.9399387693974984
Si	12.162985421295634	1.4357173747221061	12.113813329289703	14	0.22702268622683905	-0.09180620055599545	0.3877429940103595
Si	13.567042039797528	2.7856895880107055	10.776048459121064	14	0.015313503286801956	-0.6427516474259464	0.3769731480453232
Si	14.979340246903135	4.051205918083012	12.135225139681932	14	-0.12104352470405931	0.6509727566871198	-0.043886196709607556
Si	13.647630088362174	0.0043900739295039	13.343768428535284	14	-0.09687950557371164	-0.12294280020405271	-0.114161961314683
Si	15.012404521182596	1.4474677584739382	14.881812061762929	14	-4.440277033500511	-0.24418121469137927	-3.43750764917349
Si	10.961786122287176	2.7723398464704294	13.657944314099893	14	0.13363525589895253	-0.2516397341145968	-0.06228734037537535
Si	12.357731712004815	4.164401281558994	14.986276237312202	14	-0.9107163576602914	0.3761750769539493	-1.244255823532353
Si	10.745383221524268	5.35600443383679	-0.1170305581727601	14	0.6483160335598107	0.42008981293261044	1.0429537035966794
Si	12.240799073696655	6.717008951870164	1.2386210072625576	14	-0.5082699836556012	-0.09984090468145819	0.8563732185031095
Si	13.727418458032599	8.053027584453462	0.0728360592839253	14	-1.016296997858448	0.46527313227623274	-0.868847964405936
Si	14.899421317413243	9.556521825455233	1.4005804633086418	14	1.1490508788536538	-0.7727819565555193	-0.37149720793447183
Si	13.708960563555763	5.450056463783746	2.6558804875078277	14	-0.7588869320738431	-0.14924469340810356	0.34845367650264464
Si	15.004489332127543	6.896218624063036	4.0380846562268	14	-0.5744119251269424	0.08377278198319277	0.6551109506998982
Si	11.015397248154908	8.22337550890016	2.7269050292966788	14	1.112551981949896	-0.7544816002183012	0.15477925472025428
Si	12.440098638109673	9.623792772434472	4.182304296803104	14	-1.2914088666617407	-0.9660923098245768	-0.5239069319916777
Si	10.96602931641978	5.458281732410027	5.305771543297707	14	0.9163411647691793	-0.5883200622457515	0.4276977135749286
Si	12.492583685534521	6.778992226161079	6.670905015621656	14	-1.0581589633495032	0.07468238201327722	-0.20879663483337335
Si	13.760319532537729	8.389480239214253	5.601783293979276	14	1.1002939802255578	-0.7740731656472977	-0.6937515783353396
Si	15.141430262768683	9.779256877462181	6.998495922636272	14	-0.47976542452377935	-1.1782848605648015	-1.1252046483408766
Si	13.697193859826498	5.546719690119996	8.208981288804166	14	-0.46799927524718576	-0.9078732293972716	-0.5836717609374558
Si	14.955627319692839	7.013249182235795	9.415011301132823	14	0.61510275214467	-0.008448909192538602	1.1095113927982887
Si	10.99682511383604	8.110180145424179	8.010546683195104	14	2.7025469089878813	2.0404482082488844	2.1024175028961576
Si	12.262390403840646	9.591479217116932	9.471706902735413	14	0.1453499830691432	0.8499986770828664	0.882010480981902
Si	10.820716237355459	5.4763805873833356	10.888134064131595	14	0.36600018475999524	0.4469054129796268	-0.6657802664469166
Si	12.32401463862803	6.8432113373603265	12.08189145343056	14	-1.1889156097320177	-0.4373326736516515	0.11910388285053962
Si	13.551929740694476	8.270997203049946	10.866575373942469	14	1.1257952312329147	0.24653094784346258	-0.7642844534724299
Si	14.895161803303205	9.60451887908598	12.26415296140342	14	0.23914776180612535	-0.6883746257793139	-0.1465146937791703
Si	13.586201693303986	5.495213841341132	13.393887079232336	14	0.47139030605392906	-1.0379073951848248	1.0467553399230503
Si	14.930347674648967	6.680550122284619	14.895765642468229	14	0.3906308595059498	-0.16931731264249958	1.0296752301707748
Si	11.085540511162373	8.071338599133401	13.603141829879544	14	-1.292662023394781	0.4250808425800819	0.04995503370728509
Si	12.176579962497406	9.488793919107868	15.09619128532413	14	1.230521493133186	-0.6907253873735253	-0.5041109636897296
Si	10.658267181986382	10.690890816875148	0.014361580141128	14	0.647833694201751	1.7255186597945866	-1.0377366737915668
Si	12.075232902637856	12.051993254773121	1.2721096009552788	14	-0.2291178799522277	0.34787029270550307	0.061067865122029115
Si	13.386575729342306	13.490648225433185	0.009775666482426901	14	1.3076510531901802	-0.3643693326554253	-0.2776387511119342
Si	15.037716806181333	14.980482645323452	1.5434945056902987	14	0.4811684766969842	-0.5118970419307339	1.4194388558522386
Si	13.5339451255632	10.905335320346083	2.664464795637638	14	0.902010080825206	0.8755477506491778	0.39624435375142913
Si	14.943501576460047	12.29958363241068	4.062629902286181	14	-0.9423499519667331	0.6085086383300862	-0.9168103914901062
Si	10.771576785304395	13.518147387407959	2.5100614891430792	14	0.8679460206596281	-0.27234561658934536	1.1342397695464088
Si	12.15949294612495	14.815193913881014	3.949124459238971	14	-0.5198520417912721	1.3916248956094086	-0.6376500602497085
Si	10.903735962557638	10.823996552819512	5.406580043901967	14	-0.37146635467063005	0.5995048846094596	0.8019156651591812
Si	12.215013509352357	12.380742880185487	6.686914913483528	14	-1.076301968041128	-0.8948009586180427	0.552630035075712
Si	13.480839918995892	13.661420469293144	5.334804783151193	14	1.9566366025753574	-0.22587031682234868	0.39225862628413555
Si	14.945051974316192	14.858327614236698	6.854912761179859	14	0.9584106184595701	-0.4358951686671568	-1.460093430284952
Si	13.49877557419487	10.98207185423652	8.056307899917515	14	0.32368133385354997	0.36277010514629326	0.41523376631444675
Si	15.00721476835887	12.21276135246659	9.390270215344245	14	-1.0624858764927803	0.08809301025263758	1.2447332777903044
Si	10.826444549434477	13.739087241897266	8.090204493046064	14	1.024839238174108	-1.044078819284776	1.0252462441462877
Si	12.233716203490689	15.025134103580413	9.610296151097298	14	-0.9327967530391911	-1.0128620011507303	-0.4597187734531168
Si	10.783833088356653	10.767219351329757	10.890990060182386	14	-1.1995016216666636	-1.1821734002509936	0.2857223062384798
Si	12.094621035828379	12.074090504217539	12.135502579298294	14	0.933540830918842	0.8065271996613989	1.8153379101591716
Si	13.417534726532898	13.469709694386518	10.830491903837885	14	1.2274575069231657	-0.3756767967429045	-0.4533773992915036
Si	14.960229553328974	14.685368493400704	12.11479252793569	14	-0.2326042987663485	0.8078284360639257	0.8667977650236499
Si	13.527661934251457	10.842030127883087	13.65024128475147	14	-1.192548838659919	-0.03580032758827387	-0.36317402579208846
Si	14.840261399218257	12.038659833210279	15.06244157199248	14	1.251948570650236	1.2774127977409826	-0.11063723303129198
Si	10.82435559232304	13.491757983898637	13.738646602506572	14	0.18832755115861047	-0.33054567083728126	-1.640117853922676
Si	12.206837200658374	15.019976990711553	14.854835139066015	14	-0.3189872668705556	0.6435402054276358	0.733797829249306
H	216.91191269905568	216.91191269905568	216.91191269905568	1	-10.17238613759846	-11.86598735305926	-11.09809923837011
H	195.50307580671677	197.36189349238524	195.37184686817722	1	3.3657735536308264	1.1547047394526595	3.3240208601158785
H	1.9122101238385836	1.9122101238385836	1.9122101238385836	1	19.843495183791056	16.625412861733903	21.309685733232207
H	0.9122116666140977	0.9122116666140977	0.9122116666140977	1	-44.71285694947838	-55.831065573888964	-40.48671390834533
H	166.91198330984042	166.91198330984042	166.91198330984042	1	0.09955088400134549	0.1682287066499489	0.15376701055571199
H	78.71489051480887	75.99989417304513	75.99989417304513	1	-0.36277447602533747	-0.2549358911350267	-0.2741811286773991
H	42.71494115873416	39.99994481697041	39.99994481697041	1	-2.9912609533768855	-2.6536411433617486	-2.384677558710526
