223
config_type=divacancy dft_energy=-22868.4346183836 dft_virial="163.1666047115733 -1.396837678530737 -6.341643060529547 -1.3968376785307373 71.97305912749519 46.4149205751785 -6.341643060529546 46.4149205751785 153.14928307411003" pbc="T T T" Lattice="16.3199774331 0.0 0.0 0.0 16.3199774331 0.0 0.0 0.0 16.3199774331" Properties=species:S:1:pos:R:3:Z:I:1:dft_force:R:3
Si	0.8230817418609654	0.6271930527314661	0.5509297981865898	14	-0.2003729224729722	-0.8078225225216893	1.5271933655985803
Si	2.6215432549885853	2.667435031530463	-0.2156032218686841	14	15.737851878586863	14.74944623124138	-7.2266789998418295
Si	3.7859899648177033	4.146253466653386	1.4556114272130551	14	18.35662137760197	106.19491351172515	-68.41910620420563
Si	2.2244945240186955	0.3456408020556249	2.5740684406356977	14	1.7965302747422884	0.24523793897796015	0.3070277704738868
Si	4.172234870726881	1.423085712188887	4.07609388366849	14	-3.069846016155615	0.304235292985674	0.20685159365868133
Si	0.2952447117422121	2.626194448557019	2.704073380867772	14	-0.9694404031724734	-0.6599153181011269	-0.32330132448723203
Si	1.5574644063730323	4.030610106562439	4.126506293959335	14	-2.824883699667975	1.5635179415616325	-0.88277204237773
Si	0.031987155768876	0.0538885654840962	5.3577180314672646	14	-0.34618416183654993	0.39384396982453884	1.6261639511291683
Si	1.367924188465009	1.3577242025693215	6.9383241658404335	14	-0.07102858424281479	-0.5345502795749626	-0.7080096428882208
Si	2.6593403227236454	2.912675332417656	5.571623975682907	14	2.1759549717103726	-2.8272881973633774	1.1135773387515708
Si	4.190415325587354	4.166881918128825	6.792733647159748	14	0.13272739861040825	-0.8258259161944302	0.10512889699340673
Si	2.5634441353267494	-0.2002134831492708	8.372115783225434	14	0.6120603632193388	0.7776994525908344	-0.5344127254403348
Si	4.055400152283318	1.4172105203129708	9.39652076670112	14	-0.15062100608597878	-1.162667195518626	0.5259684442373724
Si	0.0359202703302531	2.7420989282868953	8.237508609357226	14	0.435935792131215	-0.2342258948917659	0.7715072025377898
Si	1.6324873426329929	4.099382491465523	9.531062660659597	14	0.19569582478509082	0.10684819512098977	-1.1122827872228762
Si	0.1412657246609136	0.0349573916617002	11.097617294462866	14	-1.292437823010864	0.05862711484161254	0.016821456557068806
Si	1.5538576913603173	1.4821313905418427	12.356752513358831	14	0.44998379737944016	-0.7756284272554551	-0.21377403762264802
Si	2.955270473518047	2.7741513639655033	10.969423871725867	14	0.18162030870994014	0.6487837176175457	0.4082943530553671
Si	4.2725211320532805	4.234609824476189	12.550568565354327	14	-2.3916154293064134	-0.6134829557929766	-1.2732527493329833
Si	2.9688650147198197	0.0981320243052303	13.784603658958183	14	1.5293785480101743	1.1878815111722543	-1.5775880583156108
Si	4.361987248341535	1.4828821095037652	15.25411970694424	14	0.7321034708433284	-0.8482742367446432	-1.3943777780756912
Si	0.0541986450553251	2.8289701681632864	13.490223906019924	14	-0.8383968214362302	0.3571738373064589	-0.4806452567643341
Si	1.2315707770114586	4.0753105247517	15.008014447253093	14	0.6914339839997581	0.5357604988491563	-1.0505901435080511
Si	0.1236401490331656	5.361504266231744	0.1747543183536348	14	-1.5199608463330039	0.08426334887827701	0.2359757891726587
Si	1.5599124029879974	6.760762811368306	1.435015615692483	14	-0.6053361514755553	0.1422523153794288	-1.4491436069475052
Si	2.9011207883950214	8.051868866055713	0.0410447432442465	14	0.5090551992203742	0.7918467025044174	1.048694467555506
Si	4.43766298369882	9.545718000394523	1.1690652634426855	14	-1.6132837419173547	-0.20851818412720133	1.2616316103964458
Si	2.7277699881006336	5.449207824957224	2.763461778746823	14	-0.25532669914368916	1.0566440680948719	2.1768839120625425
Si	4.025599873490478	6.949568630291839	3.967810833399871	14	-0.31540957381756957	-0.23901406432947767	0.05800053647509246
Si	0.1419511637131038	7.995385424159753	2.6218696545372473	14	-1.559934849187474	1.7183216217824282	1.9770650627860624
Si	1.2831419057000544	9.787008866742903	4.039014894940486	14	-0.34109054508680464	-1.2745424157615695	-0.7485420898182272
Si	0.0611672754192588	5.427828654519863	5.569943018007297	14	-0.36981441950243493	-1.2738484744356613	-0.46254338975783144
Si	1.5011768042062703	6.757172416333023	6.772170475594042	14	-0.1875330796146847	-0.05417910263775636	0.7377593883265902
Si	2.437078550062256	8.151486008307355	5.230895486834645	14	1.5197261044172745	1.0353260054433961	0.5851131225799308
Si	3.92821856814717	9.386075981143936	6.762345849179316	14	-0.3209428495770602	0.765138831770315	0.5749883669397196
Si	3.157752433530519	5.662069290617147	8.158340398829257	14	-3.031117456718224	-1.6491650593232134	-0.3470477961135877
Si	4.267119219522924	6.86976394064398	9.586599543864438	14	0.4364734102536581	0.9893744398301135	1.575177647077972
Si	-0.040457224056654896	8.078715228933163	8.01821707258866	14	0.5429536802033346	1.1118313011286582	0.27530033082325955
Si	1.3460227787497887	9.377393753149528	9.536334013370489	14	-1.7214234032406548	1.1987380033865793	-0.8743401024803042
Si	0.137740609535364	5.473475631400244	10.593754311193338	14	-0.9441705516439302	0.32338334274694475	0.7271980590030179
Si	1.3786300936611224	6.7776376680341315	12.095632874429231	14	-0.14508413077903992	-0.7936436480126687	0.5278430371262923
Si	2.691768117883215	8.116267497006726	10.81861096026659	14	1.4682055246805512	0.785227391857696	0.7055264693700217
Si	3.985305849208154	9.761386502172938	12.135551539230592	14	-0.7445545625772095	-1.1718691814594362	0.8277575876214575
Si	2.583158668065934	5.431206889848514	13.63839298113504	14	0.08875789808842788	0.015517391938689703	-0.23773776764855611
Si	4.0169176454960684	6.718037110448449	14.933301590564358	14	0.4688662519611396	0.3684810442834061	-1.1899864750978597
Si	0.1053944142629598	8.049127109846951	13.515617790905829	14	-0.1548700147380555	0.5297191726784044	1.4906415039252274
Si	1.5454529029822708	9.32892342017322	15.098737201803694	14	-1.928741138293879	1.3814798282371685	-0.7793403320061529
Si	-0.1848727043621568	10.789267640841876	0.0853698019525461	14	2.0281678379082617	-0.3741709003568938	-0.7045738748489069
Si	1.159713916373519	12.237910437690996	1.4402216884936418	14	0.47469109106393514	-0.16328652800356025	0.20398044034767193
Si	2.4999104631796913	13.68893595124535	0.0849128425844193	14	-1.0129422196367188	0.557649861102769	-0.7005619221073478
Si	3.6994940844222737	15.191173553984772	1.2890660575082697	14	1.7284088392849652	0.15423649438717102	1.131200723057994
Si	2.8072319582223972	10.944780705801886	2.6905930795080315	14	0.7044980272419624	0.2412830647745083	-0.546033350155808
Si	4.191737243759436	12.374655528602942	4.140623074438967	14	0.034357166172074745	-0.6201341481456677	-1.800723233298386
Si	-0.1593482596567884	13.70710008612839	2.8062527595764113	14	-0.12361411580314337	-1.253158018592834	0.02415810558811135
Si	1.265157290568778	15.080883146491882	3.9893858435664287	14	0.9306380530123947	-0.5124467442481816	0.008201825971272373
Si	-0.10880528954647771	11.110183677086354	5.40723284299929	14	-1.422105349179764	-2.230348761642362	-0.0593207990569885
Si	1.1627331121986426	12.452926140372089	6.574535548879201	14	2.3216610528663564	0.7725801247878876	2.1766411997203203
Si	2.8080153171391857	13.791050050044257	5.288978286519048	14	-0.970267270643433	0.01642910588521421	0.8060489740718513
Si	4.105176083454274	15.016876194999265	6.8381195044012	14	-0.2762657808709751	0.08059900957600198	0.09784546984249126
Si	2.4294897605558647	10.908974675313663	8.148058813046404	14	0.9782904047949551	-0.460469021985536	-1.5063856673531542
Si	4.080663477349757	12.009316513785565	9.424819607570116	14	0.6903080969800653	0.5875407602232144	0.21145052974483017
Si	0.1195438346974575	13.591407766105144	8.413731725679838	14	-1.752439160938665	0.08962178947599762	-1.8934375482534578
Si	1.3694582663437203	14.676506745654532	9.952003838591546	14	0.004714635825555533	1.9963668646454777	-1.0439088692231144
Si	-0.12047407341114419	11.032533224459664	10.802666342314449	14	-0.47247736938328766	-0.6085844859370305	1.4760270841749734
Si	1.1806850873750525	12.367637938306709	12.47267331306614	14	1.066701203665163	-1.5040611310332084	-0.8037498916945749
Si	2.7805161551644124	13.270279570154036	10.941500390337833	14	0.8493697847215582	-0.02018317676316242	1.5422520723481556
Si	4.053817114472308	14.830665252487593	12.287196769538959	14	0.2602447094000684	-0.18788943481205722	0.21064063156898352
Si	2.7598061038018087	11.01066445469931	13.879520647709093	14	-1.5414799694205152	-1.2619450281349718	-2.0406055598944777
Si	3.9325923220992407	12.535227786567212	14.988120394762142	14	1.3876864764800059	0.6694597752705805	-0.005210344931280082
Si	0.1381159690163253	13.968350284877456	13.756435377908652	14	-1.4997121063841776	-0.6457816950457409	-0.17859720307451005
Si	1.405296936786808	15.489616981303872	14.954599161114555	14	-1.041159072083216	-1.6393107839626817	2.027517605372796
Si	5.670751518611556	0.019747172694050998	0.4033482422590665	14	-0.9700862648288946	-0.6409984107081373	-1.6803201709295754
Si	6.836536466590188	1.7362007992203434	1.3946563115004267	14	1.0893032763135209	-0.9496989423033124	0.5144385795397003
Si	8.373209221713452	2.6765252589606994	-0.13436237420671232	14	-0.5029521665219387	0.8961304771790913	0.9458415129914944
Si	9.651569374025609	4.115000709868999	1.3352679136213759	14	-0.9905486636298252	0.6931813071753307	-0.9668060486614497
Si	8.23284109581136	0.2121923465851662	2.7562973086536924	14	-0.31823573278547634	-0.7360138649247416	-0.8667234600798978
Si	9.488467519559206	1.5896637218485388	4.1685955157593	14	0.48764869054588544	-1.2144968221148311	-0.6452674739817112
Si	5.416763709820221	2.8496312595935906	2.8790888188603363	14	1.0923531214442805	0.8200324445765405	-0.3186383678786115
Si	6.772757994781633	4.243830611725891	4.255058756199864	14	0.9426829101056925	-1.0315922462974771	-2.147640674372242
Si	5.4648260433607	0.0289353199888863	5.315220810231472	14	-0.8946716320204393	-0.9311358190023754	0.7018351334618852
Si	6.756813376829495	1.247172675437502	6.736446044992986	14	1.7678164276374067	0.3311303401870829	-1.0609442417428196
Si	8.159662317001338	2.8322341636499067	5.52109732555003	14	-0.48706710652246793	0.023364148265249626	1.162127777622459
Si	9.538194490797862	4.097930013473977	7.0118456641765485	14	0.19885674166568085	-1.4921800533488039	-0.06175332180038059
Si	8.02453290385527	-0.0113913442483038	8.195141947940897	14	1.8380281717200104	0.5771072148340536	-0.9936278193612346
Si	9.566411731779692	1.3094170693673455	9.50560349586396	14	-1.4022381612604478	-0.6718408759075697	0.06733621989255013
Si	5.508318783219912	2.5921672956090056	7.933859109236967	14	-1.4228088035953566	1.0594699699522465	1.629694335844264
Si	6.546709987355765	3.876533199616542	9.621883335074799	14	1.4545113035243784	0.7161459056738293	-0.7951649710306004
Si	5.277211582789783	-0.10687953220937191	10.874963842343083	14	0.5672598814578864	1.3107073260842403	-0.3742549755008627
Si	6.727323177607884	1.3310083995113369	12.227710451795309	14	-0.4262378399741485	-0.21158088478456166	0.16170606956326522
Si	8.143636099162034	2.603852399451105	10.82530215101416	14	-0.7869330631270822	-0.11755067812663815	-0.005710167805516869
Si	9.316357037549734	3.991540080587598	12.219093503710633	14	1.6660281677864683	1.1121084662821703	0.9174225716668337
Si	8.118079014501799	-0.1008901004914242	13.507082442708317	14	0.2886590227351529	0.3436269404851307	-0.3235975158201131
Si	9.53192761946355	1.3533178086623843	14.657298132215773	14	0.20756738937981054	-0.5679887898161484	1.0555798876028626
Si	5.593770185059624	2.920655801382442	13.737226764469893	14	1.3582545196592066	-1.5046290881984288	1.058472123977497
Si	6.948263032097191	4.283096477429929	15.24011716630664	14	-0.2451680049132521	-0.8034979233732003	-1.1175946908143022
Si	5.265330639218486	5.445829589628572	0.07206902034456959	14	0.4845677350407519	-0.8002824990598231	-0.16246557407483694
Si	6.857181238043061	6.781946142076469	1.0702641200626979	14	-0.3061001156743774	-0.43699251641779596	1.9068787726461283
Si	8.11398270016609	8.255705384195132	-0.1246193476791516	14	1.3196192913449376	0.5548005621869809	0.9245255072242746
Si	9.399947961962072	9.601385443418826	1.5489943380852533	14	0.49302975687042333	-0.7084603576508428	-0.9184479284685088
Si	8.10113887792624	5.475678828353712	2.6293768441564733	14	0.47869687315272585	-0.3068362231275358	0.4979405680319061
Si	9.565905812479265	6.665323583339536	4.179007661361617	14	-0.4159703879886692	-0.5563529955792863	-0.11264192384941143
Si	5.576014049612411	7.9853812779932625	2.663273437285022	14	0.6626008376080215	1.8880518539393436	-0.733277437532508
Si	6.729085735170659	9.487994240213647	4.172887669824205	14	0.25807263962560734	0.4363559107405272	-0.48211798589171484
Si	5.408897480697467	5.587731793409377	5.361618506073777	14	1.6222612703637158	0.7183403440645758	-0.2055426439401939
Si	6.656151756022135	6.850147327769394	6.876961050691977	14	0.6229093992282355	-0.3807853259035067	0.174342280880197
Si	8.098903041017907	8.220747992533433	5.628352217240362	14	0.2143227114979676	-1.0908683081218948	-1.5789911104888155
Si	9.658978643780236	9.49858590556773	6.704638408975875	14	1.0369892534749998	0.24854746574605477	1.495790142328824
Si	8.000183497525084	5.35179387965905	8.156218801762954	14	-0.5343391918281785	-0.031840568284713815	0.9872098262610809
Si	9.548198636964353	6.626449397093892	9.482510727796125	14	19.89506949962897	-49.46746703499891	3.4823754938943305
Si	5.521554284918156	8.285717822694604	8.29771300610793	14	-0.9559361866994597	0.03718152536625741	-1.1154653013881555
Si	7.099026983624169	9.433403915699927	9.468393947316494	14	-0.1696533561078429	1.5785913036115327	0.46373689684744424
Si	5.415050112189745	5.419489146051549	11.018759163506127	14	0.5856443129390734	0.20330681075379317	-0.7705366102794339
Si	6.767910961484003	6.761236090713865	12.365369461443507	14	0.4550491319706638	0.03742218082422328	-1.0341065301900498
Si	8.243334841300841	7.97699280959265	10.91595962565503	14	-0.30816805568337247	0.9999380831484741	1.1963556171969305
Si	8.219132314767554	5.542753935603753	13.694223623933674	14	-0.185090272450012	-0.26333080711584217	-0.07148469832660906
Si	9.572939722752933	7.183287027111264	14.726168436983455	14	-0.28883462922851905	-0.4943379352573147	0.14653192018481528
Si	5.28693828933991	8.195403067579827	13.383409653720285	14	-0.6062537789643162	-0.18301564756718453	0.8471784316571961
Si	6.664213824874086	9.31586743822674	14.869408878913772	14	-0.33760926848332407	2.0011025835346588	-0.9161516743070844
Si	5.416992189504285	11.109155518508068	-0.288047601694215	14	0.9135111491432925	-1.2395900387078804	0.34844981984466444
Si	6.764075766787225	12.277388463101664	1.2366626099705855	14	1.4871419724739738	-0.7023994910796577	-0.8407133873296837
Si	8.434409137087577	13.345237226504265	-0.1409882850445509	14	-0.7265943634738472	0.9360666847853555	1.7071684240141578
Si	9.728403827780642	14.75647463507672	1.4270351467276972	14	-1.694283586812768	2.3731222400701846	-1.3688927250318514
Si	8.05400678309945	11.088673946829527	2.8580197279942046	14	-0.4806583694014668	-1.5038811536607979	-0.6022495395387176
Si	9.645400422555896	12.339747096873541	3.9189488209651695	14	-1.5278016891173274	-0.0064241637529219905	1.4150846889925677
Si	5.393377182158589	13.640694097953107	2.3276367813958876	14	-2.102655073027739	1.1958539945489695	1.7808143934728833
Si	6.56205076614288	15.131524036466791	3.71210942697806	14	1.4155621432505192	-0.6167924825610712	0.25160502419277486
Si	5.34852988417243	10.86172834064484	5.521994924308849	14	0.16557763995434419	-0.0965141515077186	0.10060735117739432
Si	6.924484824977164	12.257021131265157	6.668685498690755	14	-1.5917813310144244	1.0468980362683187	-0.4719181539761555
Si	8.010954682630931	13.753775221587057	5.087181765558767	14	0.5141441879805434	-0.40743560387843764	0.6055791209283095
Si	9.369364324252441	15.062147812398685	6.598134236247463	14	-1.2393172444334126	-0.24956896588974958	0.5250176494899816
Si	8.29012421660154	11.005050382462322	7.940925659465498	14	-0.04783849980773919	-1.8786632057522907	0.7596610918857396
Si	9.34077172378965	12.366348660089495	9.37757327290129	14	1.153341796522449	-0.4402917587646099	1.4164044373533997
Si	5.463830524737281	13.593251923555085	8.20294289715392	14	-0.4209295359301708	-1.0555739740606263	-1.3429554145621974
Si	6.734471327723582	15.007688047704429	9.447341176427795	14	-0.5365331159978608	-0.8000166467697198	1.9939487400918787
Si	5.60269721271553	10.817566481710871	10.921573697892017	14	-0.22236230072353863	-0.5395896460024528	-1.7779902913892325
Si	6.986321219471181	11.990385339963169	12.261101125623432	14	-0.01846002197759918	1.1372649320660952	1.14204076019827
Si	8.009012605316391	13.502284369342986	10.825693830472554	14	0.5564234438650584	1.3778777096836408	0.6622182571363835
Si	9.6218343751425	14.890853329260866	12.234483242430045	14	-1.044022512078265	-1.183033949201647	0.2664513576429059
Si	8.790200965106589	10.53149359728606	13.111502509707405	14	0.2141095668669273	-0.21727408329496561	0.3784381638567436
Si	9.691194279233175	11.864329834269904	15.037504646474703	14	0.3890753407872602	0.08243914965363197	-2.11825679722093
Si	5.649535547948527	13.623705001445249	13.663036147059021	14	-0.46460567333512226	-0.4761075129848047	-0.27853812375292203
Si	7.061801115099268	14.888862292014029	15.097790643112575	14	-0.9768917235007947	0.6311369362527094	0.37140259125869035
Si	10.83814597325401	0.10230993852810391	-0.07585525510904881	14	-1.4030516589837425	-2.1135079656946165	-0.6142396320886963
Si	12.082478972618153	1.2591352188959644	1.3016650800866227	14	2.487863728524029	0.4527654762253083	0.6106835363203994
Si	13.549677583808707	2.687720763479806	-0.0845701230583242	14	-1.3731833855901143	0.8636628163067934	1.163377849029115
Si	14.922497765503648	3.8694176894557106	1.4264149875852392	14	1.316796217703415	0.7399386571959476	-0.06663790768759792
Si	13.694452103617738	-0.1442849204860371	2.561616297854242	14	-0.7461954419925281	0.9279715596848691	1.0376047760886433
Si	15.017480034164288	1.351636850986775	3.9860076082377773	14	-0.01855129621646443	-0.04798813813737181	-0.5222267146649608
Si	10.852866592898664	2.6632244773527227	2.623436372370825	14	0.7662678041163921	0.446977146818059	0.91548370114491
Si	12.306731782526379	3.815072164603488	4.122361019691327	14	0.09124389982247905	0.9550062179051623	-1.9312770194711408
Si	10.810581531369502	0.038808906335911796	5.414446273024721	14	0.9265960183385898	0.8084552715409778	-0.24490575217059699
Si	12.277029423598137	1.3503965327018594	6.7393020410437785	14	0.16464355739153438	-0.699818615559293	1.0995725280727242
Si	13.685639315803865	2.65199633287875	5.446710868409959	14	1.2183879329063432	0.11999682772822705	0.9692126032411084
Si	14.961420911681591	4.114396870703975	7.026354124114575	14	0.267009801718442	-0.5794620901967773	-1.6465492167704947
Si	13.686520594585252	0.1064388928186782	8.360952918661194	14	-1.3866870878420643	-1.5759134974205982	-2.596248416184339
Si	14.91577393480121	1.3817472093508447	9.628297086206008	14	3.5483677970360388	-0.3327606780705889	-0.12246303195131307
Si	10.973667065858471	2.5495395145537483	8.290956535450627	14	0.47789725939815975	2.2244825277439118	-0.7256880488484949
Si	12.212973512173221	4.163160963274078	9.743728286590324	14	0.24892978910716076	-1.3175629213098832	-0.6801347474493034
Si	10.814547285885748	-0.0915061134673917	10.801882983397663	14	1.5518330392131554	0.10888476764507907	0.40741092126736417
Si	12.317764087271156	1.2613220958719995	12.223434617707838	14	-0.5505384408977715	0.44572141897969864	0.7147575088009495
Si	13.831539914055778	2.7173578424983154	10.927073530286972	14	-4.228314853796972	-0.8343861542473312	0.014185302272320982
Si	15.013546919602913	4.116143108289317	11.961319460154819	14	2.463889199855776	1.9949411867454556	1.9905062871787325
Si	13.305628641274131	-0.2002298031267039	13.934355771884308	14	1.915820819839071	1.7873264890277545	-1.246768564761734
Si	15.002139255377175	1.6204268793099321	14.919396969791357	14	-3.7851465424001796	-0.8731859333020898	-5.155035056522525
Si	10.982528813604645	2.835285999429896	13.665892143109813	14	-0.6930118713347331	-0.9566897776687951	-2.5413887419683396
Si	12.261966084427385	4.180345899511132	14.919119530174994	14	0.39002767819784306	0.9198291262464923	0.475592006368115
Si	10.707014954579051	5.655655539485939	-0.2776191361144641	14	1.3517393387779515	-1.1918631248710356	1.2871691139888166
Si	12.303924746407885	6.6170817300472935	1.2537659463204744	14	-1.1459609244798998	-0.4235605480042784	0.40846121779064476
Si	13.574157549958358	7.965552505412047	-0.0052713527108913	14	1.6261444107287353	-0.06641679263006517	-1.0434599542342164
Si	14.931016793723726	9.307364729984094	1.3349251940952807	14	-0.19877678029022425	-0.07190121738847303	0.6920870447510757
Si	13.687418193344072	5.3828344767368055	2.7506505964618393	14	-0.998220070573551	-1.1196482326335044	0.3029942204476385
Si	14.967997862587131	6.683650917996908	4.16138208573387	14	1.199474882171334	1.0726936788348322	-0.6310700875143854
Si	10.792107316915235	7.858819852999572	2.564635493679366	14	-0.09603361192338292	1.3978009476989364	1.1610954788364196
Si	12.025391691557168	9.29680570458488	4.1452253080751005	14	0.6417417172561922	0.637588867943089	-1.8801143375949825
Si	10.949089179844222	5.0358554365316675	5.457645253290137	14	-0.6728266376873144	2.377657926965458	0.06524282594088557
Si	12.353260038188147	6.631263790436657	6.612479496411159	14	-0.274961716252596	0.1751791756619052	1.466534563332987
Si	13.645622731137903	8.205521453588348	5.370839293323478	14	-0.3332036795172504	-0.6259960111650733	0.35707896352014545
Si	14.810314240628518	9.55035287398552	6.873680735227924	14	0.7153586332248	1.036365503324332	-0.3751103822408759
Si	13.61296645629427	5.428089774158793	8.317607058598881	14	-1.5625445210874245	-0.35806189708403807	-1.2086542423853266
Si	14.91004562272219	6.871657058026219	9.386549260489497	14	0.9913665322321643	-0.13486321579985525	1.0480105535403466
Si	11.137372759489898	8.05580198061709	8.324330889301317	14	-0.22958813511528278	0.5962778903221417	-1.6145142729235775
Si	12.196620894785253	9.616595662386475	9.92417827706811	14	-1.2955033518840764	0.16726737037074552	-1.105035612656975
Si	10.785432446145098	5.544728652873158	10.990378722749966	14	0.5404553371637467	-1.0391366406383875	1.7233206218563921
Si	12.214066950661236	6.957614379166357	12.351513800602806	14	-0.7413134272106309	-0.5063277706967612	0.10755396353137041
Si	13.57601802738573	8.0597514151559	10.880512634670337	14	0.9478094370035357	0.819206605547709	0.6785725438567815
Si	14.977022810107634	9.417459297747788	12.295340438278075	14	-0.06880997746205901	0.716921093927854	-0.6998031889273721
Si	13.731890131849271	5.407901962074048	13.451986198894172	14	-1.01445840044401	-0.11267483399750935	0.2276832031835851
Si	15.063910369961459	6.572397631835465	14.936794065735043	14	0.4440617704955431	1.2252142175313363	0.45549599007530556
Si	10.832760380701085	8.65464723254726	13.472386170685546	14	0.9255035556880591	0.3371698665841108	0.2489498437286579
Si	12.612502879712942	9.649300897162407	15.114665499778399	14	-2.4828554724709124	-0.19831809510110984	-0.23221940429992236
Si	11.074034927072036	10.840283890297746	0.2290345632961254	14	-0.056278667242189294	-0.5867622295322736	0.06848550397065632
Si	12.328437352512402	12.357291072614123	1.532592760764988	14	-0.7745940715851596	-1.2528937089659224	0.41226568233286787
Si	13.646667209693621	13.58122410018689	0.2534329295586099	14	2.4121253935557667	0.029516289075299944	-1.6889457150576084
Si	15.279742071514205	15.105461032506131	1.1815174062241407	14	-0.5895904453844366	0.10545491314800153	-0.27868647652989453
Si	13.479207921252582	10.7013192824549	2.643787384229901	14	0.1954770237223462	-0.516013381548291	1.4567180832206617
Si	14.702324949953695	12.214572869961662	4.098240093045206	14	-0.07077635881090827	0.5233590294479541	-0.6346511230042878
Si	11.045931925932239	13.718262950692631	2.8949355169478763	14	0.6664873204099574	-0.4457579286752447	-0.6500078208604683
Si	12.325858796077972	14.863533687037858	4.329020893926673	14	0.6509131070436923	1.740524915995631	-0.6320203680407124
Si	10.915763785925833	10.977322740803485	5.318060486304832	14	-0.4541764988250056	-0.7867983372083064	0.041324347368612006
Si	11.98439590824522	12.210656075377718	6.945178556362336	14	-0.22144570167690586	0.993947921973593	-0.604268885657162
Si	13.546038228841127	13.516988669010209	5.7494790897488315	14	0.7786394486958806	0.2089892106218524	0.0016372798678702968
Si	15.097464243563913	15.06648892639589	6.902044856006652	14	-0.24803195912936504	-0.45682910818380235	0.6908806821348622
Si	13.343784748512718	10.983230572634268	8.236268291072308	14	0.6130934333369742	-1.6417224807529807	0.7531366550253318
Si	14.667612357953491	12.40017997330831	9.497737266741208	14	1.8639536551051916	-0.7217226331132306	-0.28346256177260165
Si	10.602305979368282	13.768822240780374	8.075581793266007	14	1.0452504719791678	-0.4254598235042717	-0.15208627900793117
Si	12.232198445589413	14.8651820047586	9.387136779677087	14	-1.0848058988875178	1.462422337483942	-0.059681268022873254
Si	10.468596404258893	10.988044965977032	11.169800554649466	14	0.6717192626259267	0.15060917900150614	-0.19749996938823872
Si	12.313161853635021	12.232018925837647	12.290950364348571	14	-2.069400653927476	0.38386242475066	-0.6366259890006936
Si	13.43060702845681	13.682228440520348	10.886812145959514	14	1.0484363285813632	0.29476616920210064	1.3858756470030256
Si	14.816254712414166	15.082074504844499	12.416891630199803	14	0.2786237415600829	-0.19276785004650618	-0.4508898548942603
Si	13.651351043216922	10.992565599726001	13.561281087763643	14	2.0571187409236606	-0.7240535971964768	0.010187747720554748
Si	15.154665764466927	12.229228209696588	14.901624514366713	14	-0.9413068545383492	1.3592546796287441	0.5244998288785038
Si	10.981141615522832	13.52394097939671	13.7647912063544	14	-1.2708472231954524	-0.9296206666372121	-1.1474112849909954
Si	12.150516958536747	14.672736830867485	15.267224648823019	14	-0.08708745096192767	1.6239402021377725	0.471545857925798
H	113.97557263712581	113.85573504283455	113.90084019646416	1	-1.365448215234449	-0.7406374836219638	-1.0183821642730881
H	4.1020034798412786	5.9099583238417335	5.928416218318569	1	-2.3498802193076416	0.4885768595664589	0.7583385153090554
H	-0.5558143674323166	1.4449087860124281	-0.31575402738238884	1	2.467087140652976	-0.366794399193389	3.481998312743865
H	1.8897081389538253	1.9939666827874414	0.15333434797269105	1	-14.829663945898405	-13.596530981091545	8.27189167657279
H	188.7364018995222	186.9469049499986	188.9191203668632	1	-20.557969099675194	50.029448694345064	-5.071347121014897
H	163.9572154916273	162.16805636563655	163.94208360855131	1	0.9112953705783887	-1.0684606110357402	1.2279015368119552
H	138.3506731397817	139.51597664842603	137.72682241842853	1	0.135640203827604	0.17072345014208856	0.08140145154642019
H	117.93818229371774	117.83167812098934	116.03861688839434	1	-16.671423819880076	-108.5917374861891	66.61738126827451
H	161.7147771524209	158.99978081065714	158.99978081065714	1	0.18453311392713592	-0.20751365327861945	-0.03749545732584749
