68
config_type=vacancy dft_energy=-6275.5998939405135 dft_virial="-313.6135107217884 182.8698636742917 -207.86679103623035 182.8698636742917 -76.48156901794331 108.23136457243703 -207.86679103623038 108.23136457243703 -113.27531034279603" pbc="T T T" Lattice="10.834369898 0.008255789862276 -0.0055580317576740005 0.008244955492378 10.821520335300972 -9.7509329082e-05 -0.0055580317576740005 -9.7509329082e-05 10.836190072142864" Properties=species:S:1:pos:R:3:Z:I:1:dft_force:R:3
Si	6.913946649786761	9.427512882063834	9.656336941183573	14	0.7729375084273882	0.6890557115786212	0.05592694003439303
Si	1.2637447405164957	1.2207637116941399	1.3416741963188301	14	-0.7398694944628357	-0.26400135138333675	-1.0861549578489993
Si	2.768100251164765	2.6726852057840484	0.2148813084980034	14	0.23291437406795837	-0.4455219012068552	-0.3791765853046901
Si	4.1977321960635186	3.989746964005592	1.4641014927292402	14	-0.03135848603718605	0.20636874007955747	0.5301179511135593
Si	2.7430533548345686	0.0288280914245984	2.8095427994616045	14	19.534492547320767	-74.78324724631824	27.371701845605912
Si	4.1264582936895255	1.320400911024107	4.24642618813309	14	0.37280692898455525	-0.16730439428735566	0.2939832676321156
Si	0.0322344173205296	2.599513121803926	2.7618022319430575	14	0.4602260525327821	1.036712088321488	0.7820402497028404
Si	1.4694861745685461	4.0613816508971885	4.197855707880356	14	-0.08307961198888085	-0.6759685283885354	-0.8726704266854001
Si	0.2283321787263704	-0.0067465621354846	5.633637241133213	14	-0.6224268027596438	0.09812572032238741	0.13521571433924756
Si	1.4698686278259454	1.4205614104201476	6.98405477395973	14	0.017650638022816564	0.4948668116216691	-0.36364762339205975
Si	2.8296134696976503	2.7323013261477933	5.57433965124447	14	-0.4018586193285045	-0.11724985880418082	-0.08544502888341708
Si	4.147298204188329	4.076611524662807	6.939293658163133	14	0.4991327895688588	-0.3259022546290939	0.1077984756473165
Si	2.729615485850079	0.05942651889053	8.313020254388205	14	0.16730825094533588	-0.9335667990825753	0.4889856653123624
Si	4.144653534496227	1.3610568840663522	9.623559721931153	14	-0.6123912644740418	-0.38282524086451225	0.8968246756155313
Si	0.1684625341070122	2.7361453605876043	8.421568722959279	14	-0.535340894460908	-0.5330171294725583	-0.34316439863803605
Si	1.4865524740318758	4.10016327794708	9.721809038477186	14	0.4078809193198873	-0.07525419583647816	-0.43772296743925004
Si	0.13911439292730982	5.407443767024708	0.176416045049134	14	-0.5882377868755067	0.017203265697110795	0.5299076346983712
Si	1.4595012192705494	6.723349497978135	1.5760562871962436	14	0.09654963276113664	0.5746093860155298	-0.3105108468510914
Si	2.757502070530542	8.115706876679809	0.1356289761311232	14	-0.7059697279272152	-0.23925471978744348	-0.3762977186777203
Si	4.071262596244164	9.464213226656318	1.4462854548689692	14	0.799760564679833	0.5959086795981684	0.11703388595728839
Si	2.8652596300990596	5.366818130218178	2.8104225502973224	14	0.2005536711769786	0.025220229195864523	0.6187251824302266
Si	4.26706132904082	6.771707624580868	4.162274553698333	14	-0.5771077290551178	-0.22344062229480874	0.1328068457648008
Si	0.1045906732473328	8.179227703954794	2.8483547627472103	14	-0.009119710570565235	-0.14236492979245127	0.1722087776855381
Si	1.5256277125060027	9.505783620517954	4.244919127280278	14	-0.908625277703415	-0.04346016455805903	-0.7706679937612935
Si	0.062464476209929204	5.369279699059003	5.4796526755208985	14	-0.11970577860598627	0.4398083909644221	0.5746970607069468
Si	1.4929783388183797	6.7872300263337335	6.78600032535031	14	-0.2799031235673886	-0.7066281879997053	-0.3955936069948996
Si	2.8762966027141523	8.202830378777586	5.512797179912861	14	0.6374741966458105	-0.822177003524076	0.18789406280163348
Si	4.128184208814277	9.490666424199274	6.98270156115947	14	0.2075352505633087	0.1541871291650242	-0.013039617741662998
Si	2.770747087730846	5.4293335279666275	8.23693914209047	14	0.151110801649467	0.562544731411267	0.6552523614925063
Si	4.173214016984344	6.825846970961175	9.609315775826254	14	-0.5276995694494281	-0.5895649914417671	-0.2964620702712703
Si	0.12801783127777822	8.1243115332528	8.233363800024131	14	3795.03089635052	-1700.1531058124854	2551.8749428231254
Si	1.2749832324116912	9.555680227646205	9.732708414594574	14	0.5568726159644882	0.11191584370700164	0.10510035772435311
Si	5.523665136357543	0.0215777310888568	0.1450256251436586	14	-0.295884600016365	-0.6092555444255892	-0.14953419986715222
Si	6.8742235159927345	1.3763030093868178	1.4576463751440119	14	0.5875878114505733	-0.4013420842696867	0.5890037191503787
Si	8.375830346997882	2.486188862981815	0.049636582250697205	14	0.15349678738656442	0.3529130015699095	0.0030045936771250456
Si	9.470045367972412	4.044368439846359	1.4384998766602661	14	1.1504405612791937	-0.904216346300425	-0.647886916081878
Si	8.325558870671161	-0.0227987645763614	2.784366974129622	14	-0.3459231946465549	-0.2341965842911162	-0.333683704880522
Si	9.652031362586108	1.2433436219985616	4.222288295437336	14	-0.569390042215629	0.4622448844301623	0.20604066704070662
Si	5.48436345955255	2.6243259957443255	2.8836325545720882	14	0.2906991948066904	0.45416132930361675	-0.21232470555368055
Si	6.855824589031951	4.000038531971702	4.242056686753227	14	0.15015203647558378	-0.34802044525619974	-0.21754610623783727
Si	5.492244380216354	0.0047432871413444	5.616199322782382	14	0.5103217257010793	-0.18289480561713758	-0.034065602828769956
Si	6.869819344629198	1.3550405584619927	7.035347931367831	14	0.055102129447689524	-0.15241949425742235	-0.9473039576975945
Si	8.213825097350078	2.61931726654048	5.568847709143173	14	0.4476919140970601	-0.016212104596193714	0.1278219867700977
Si	9.616800158551792	3.9863525559165485	6.922445129534752	14	-0.04579267130449736	0.049051804408317065	-0.1383959145097387
Si	8.33130433702807	0.0588057094953746	8.308943280995589	14	0.11454119934940483	-0.5875667283869479	1.3681262785359152
Si	10.031366488328862	1.0262336836125396	9.809687696156853	14	-1.20475233295147	1.0236192486996978	-0.5154701069941438
Si	5.479861778859931	2.65626355132965	8.34956891780212	14	0.4462454102439449	1.174456998964165	-0.5954294255664928
Si	6.987352756156681	3.948721538949825	9.639580504699325	14	-0.41286423565139824	0.6037523505983442	-0.15614682564004104
Si	5.460380498346336	5.368398864786296	0.067503541649489	14	1.0831789034409283	-0.07248871495412688	0.09363168533330059
Si	6.816905365484355	6.804678779054462	1.443511856175081	14	1.093244780769308	-1.3862649123484958	-0.5978429221305159
Si	8.385996236273176	8.099923366612403	0.1474796099255556	14	-0.6512789753307494	0.9286441608366198	0.5014452416938
Si	9.84974669541772	9.619006036263023	1.3141841495766347	14	-0.4430893784634631	-0.28897938245804333	0.27576441533354623
Si	8.17170973468257	5.281705487173469	2.7926704352194496	14	-0.7758793671347016	1.7181174760200082	0.5844847444396866
Si	9.506381677736323	6.7662752715140115	4.157538850615918	14	0.3546857786881516	-0.43254296155074773	-0.5190966510482127
Si	5.55239896876403	8.13130836933293	2.7538649725557827	14	-0.7805567219331149	0.6325489872945348	0.563727439858535
Si	6.849192871217385	9.476306550336465	4.145735888049037	14	0.2652925604751151	0.5725900398970855	0.18621590235917285
Si	5.542772631109657	5.375706647282497	5.576144657269476	14	-0.05029056295156441	0.49851752406574734	0.2764961519076604
Si	6.94044968543125	6.810416661352443	6.903974695732643	14	0.0801374961710354	-0.41295139612175136	-1.5222969526268904
Si	8.279365451174048	8.195944053270418	5.507673606388097	14	-0.22236255783407063	-0.05191858684028217	0.2664063632998033
Si	9.599024207860142	9.514543208580486	6.935086672331739	14	-0.2716012815991624	1.0296883428079076	-2.439600739227933
Si	8.27978582472609	5.435545955666141	8.232996514884588	14	0.4162645224372941	-0.7237342659157143	0.6140277730103161
Si	9.6603597427267	6.777080388613286	9.644189445653934	14	-0.1503482118115111	-1.5789533152406097	-0.1473968400145131
Si	5.598975924955533	8.107802120402228	8.275170383149543	14	-1.1240867317476761	0.9492847372362367	0.16138005340867045
H	45.914611072468645	44.055309686155	45.8760678015565	1	-18.85628587175104	74.69935593637977	-26.93026774474756
H	31.94964132494562	30.12730464184998	30.087335567859267	1	-73.17620717656033	35.626518554637066	22.387379954804196
H	50.07385741978048	50.096336570444855	51.90664276920576	1	0.1908392639458631	-0.39406097111355937	0.5566748979653688
H	0.14019674648012	0.07568132404849941	0.0498565199596266	1	-0.03556507145148032	0.0929320875756883	0.13559109571598918
H	21.715012306397366	19.000011302102703	19.000011302102703	1	-3721.3811720495855	1664.5269497836982	-2572.6935443548828
