224
config_type=interstitial dft_energy=-22761.905126231577 dft_virial="-59.6768965916289 -142.57322636523446 151.3932585639571 -142.57322636523443 30.42711560319526 48.29466499400128 151.39325856395712 48.29466499400128 -155.9509403607631" pbc="T T T" Lattice="16.3199774331 0.0 0.0 0.0 16.3199774331 0.0 0.0 0.0 16.3199774331" Properties=species:S:1:pos:R:3:Z:I:1:dft_force:R:3
Si	-3.798948026899585	-1.3518163707385393	0.8468273090261259	14	-0.22297473801079792	0.6930854049468892	0.8586489038219726
Si	-0.1456721185678506	-0.07051862248842511	0.223094091510477	14	5.616987092056722	-2.57789689485125	-0.11065574498959704
Si	1.18762107778412	1.4353583352185781	1.5487168984688906	14	18.449382486673873	32.86524425770009	40.00485457564883
Si	2.5866348232591845	2.7167050434009914	0.1650928917132396	14	1.26024501329729	-0.23415750349024997	0.1689876969404566
Si	4.1540544158664074	4.018908682742906	1.388666879782479	14	-0.5295613068117473	1.0232711210393497	-1.3443353267875209
Si	2.5589235015777807	-0.0672546270018051	2.719936398932745	14	0.8135835982125451	0.8277722429217823	0.2988642539718846
Si	3.9882924050784108	1.3171527386706348	4.131320687302099	14	-0.1589742701606079	-0.9177125923469462	0.07986341634390762
Si	0.0307141975290942	2.986408990460402	2.8074441179290277	14	-0.969206946809404	-1.2124394236376486	0.03149038374010964
Si	1.487206903523537	4.100312730179209	4.107656720024105	14	0.7299136604421583	1.2861375865343732	0.4624225478077845
Si	0.017299176079086	0.0802126890836865	5.331295988003077	14	1.0826104320546435	0.22777344898032229	0.9696700028775628
Si	1.3101188283969687	1.3963862291083353	6.930898576108373	14	0.4827995859120861	-0.30391133371533535	-0.7418615868648863
Si	2.7686352115931157	2.7181248814376713	5.490024088517407	14	-0.6067253196800314	-0.24193972507327416	0.45745902898723867
Si	4.186824930552072	4.108994958173619	6.719424308530263	14	-0.7957126164637919	0.04584152230558017	0.5699196899115797
Si	2.698997867886078	-0.0500207308324515	8.257990181035765	14	0.07658268595539866	0.31004136301963237	-0.952956275633408
Si	4.088562346427377	1.376084177181559	9.476912975536573	14	0.4724714558410512	-0.18936730615007832	0.4481986789556613
Si	0.0274338820650411	2.8800680175063222	8.21769615675344	14	-1.1236529862801672	-1.0206573353708872	-1.0703994815576643
Si	1.4229551523694222	4.062760462105646	9.463514274063996	14	2.108357784627828	0.618385282306903	0.5326389198799646
Si	0.0271890824035446	0.07128566142778081	10.823245833857587	14	0.7814720354270878	-1.3667296541260108	0.44935181969174776
Si	1.4201970761832283	1.338091269717302	12.299453072591216	14	-0.5784796708539487	-0.34923220719358555	-0.22295468338930075
Si	2.758223065990798	2.6243339711296456	10.932573362681925	14	-0.45990929235733985	0.7528114102023331	-1.0624601654395787
Si	4.030104187262014	4.077089402291908	12.19213290099115	14	1.3238572442441376	-0.8100809814349074	-0.3106270608115621
Si	2.738116853793219	-0.0023011168180671004	13.6389152204129	14	-0.30989223891106377	-0.40685427696555215	1.0734035610137251
Si	4.0318993847796545	1.4015107020223285	15.152560487378059	14	-0.2364414163461375	-0.3726701461815234	-0.9809718105333375
Si	0.053137846522173605	2.5817714699841208	13.729458455211738	14	-0.5215991078563127	0.15292420223176745	-0.32670752481536425
Si	1.3730649813564355	3.999030950229391	15.039397763856943	14	0.32213789932986503	0.00791077684903161	-0.8811411902731601
Si	0.0795272500314963	5.383617835653594	-0.0439496992273383	14	-0.5484234496614175	1.0139727186490342	-0.61198014473335
Si	1.3684953876751673	6.728628775802531	1.3126484248990993	14	-0.3609875578278345	-0.8411782431715663	1.3238235627644437
Si	2.6455173018378093	7.98373296027252	0.0595515976533819	14	0.5418910423745175	2.5833705209673137	-1.361351158906793
Si	4.098386972842103	9.522772112123583	1.2226600693329859	14	0.09433411130676503	-0.00252251142959728	-0.0864315619947579
Si	2.8701128312721313	5.43344272675685	2.6284139654879204	14	-1.0305782023592105	-0.04053116137734634	0.9178025810331516
Si	4.066122377456865	6.907789488063103	3.9823356133153296	14	0.39127132184119867	0.5603037560142259	0.05987667202720451
Si	0.1449050796284949	8.132195794981431	2.705264739220388	14	-1.375257496251878	-0.1396873807120491	0.059568139388786745
Si	1.4299074627559227	9.630075963746215	3.9893695235889957	14	-0.19759638583774428	-0.9968134188528979	0.4257393026525718
Si	0.1287809419245921	5.535214106029661	5.471647793927736	14	-0.2729981631195989	-1.3003989935241707	-0.2685918028219292
Si	1.4300869825076867	6.879050007803414	6.798053959802939	14	1.0775597527637446	0.4402033127415969	-0.10446400915761644
Si	2.8139721089022673	8.321687052957156	5.379358321543556	14	-0.530561466781285	-0.5804756199139796	0.2068341101425043
Si	4.275018088600545	9.61915789884347	6.664964543836009	14	-1.5205946237944203	0.7348465831093944	0.10253902260442159
Si	2.91474796955166	5.498494156805186	8.048278471020431	14	-1.2779072212940472	-0.08973388966795609	0.8650938935279877
Si	4.089182505569835	6.965399008401946	9.458389801150004	14	1.0365506229073826	-0.870706102220807	0.3863006039257564
Si	0.1217307116734929	8.130384277486357	8.263277853724091	14	-0.7083130333159982	0.08916850360805552	-1.0896737725901542
Si	1.306724273090884	9.50839421200502	9.589716659554158	14	1.5563545850291678	1.1476884501445075	0.16191330065206916
Si	0.15437066653969292	5.351157400539159	10.867358732859257	14	-0.024278433317094283	0.9199275995802538	0.5241442450127273
Si	1.4621394181862952	6.763700407306263	12.351138441121844	14	-0.8871408645377256	0.25473045981994685	-0.920522553351336
Si	2.767884492631193	8.185121481796974	10.933585201282778	14	-0.6836234802582123	-0.2011283132160317	-0.0447202632754636
Si	4.093621539431638	9.516456280856973	12.283149415135549	14	0.23279250367578333	0.6317563155243331	-0.11572262224401286
Si	2.714501846447523	5.257513370028031	13.543410712474397	14	-0.04464801521596744	1.3196000080550363	1.6559913439482061
Si	3.983657531487411	6.876210331730055	14.919853929159485	14	0.8226917388091697	-1.3724999857960192	-0.7288973025091038
Si	-0.0823016461951233	8.11476605908288	13.603353989586173	14	0.7718363040187688	0.30968192249587567	-1.1275073302656011
Si	1.2630683334573414	9.452938928687347	14.962318510440412	14	0.6011995001259692	-0.11844259456219752	0.8657796073168712
Si	0.0144105400734273	10.818480400447124	0.1432078019754525	14	0.39337808554052806	0.22006373256732623	-0.8572008573056652
Si	1.3657209915115402	12.23340612391946	1.4177817195231295	14	0.7560849414959456	-0.6533510291082567	-0.8588615342319489
Si	2.662783837962029	13.574745069145951	-0.007670389393557	14	0.021259955671240435	0.09534532702917928	0.35794568312356734
Si	3.946937582262936	15.055848301109508	1.3156676207242226	14	0.7983965933074945	-0.9044585444215829	0.2260160984940011
Si	2.807019798515767	10.868843850805671	2.6659499135840505	14	-0.0789984965142098	0.12315594483509298	-0.6612245249301462
Si	4.025322433874115	12.294654999225884	3.9730495461558957	14	0.7145788169811991	0.19513172427785033	0.8784111906442268
Si	0.038629386584147704	13.49551157870825	2.7006951455391204	14	-0.6356296856891361	0.1507392769307056	1.8825674291809358
Si	1.3982956664680082	14.896026762107159	4.148734103223217	14	-1.480692611888914	0.21308935227589257	-0.7387286950322859
Si	-0.0266178831933861	10.730026122759721	5.411737156770826	14	1.1751062030575026	0.7793866119019156	1.0496234079076754
Si	1.330730959894974	12.200717209120961	6.844647495374439	14	-0.07993874972978794	-0.615831146281868	-1.458408070747595
Si	2.6556520078237646	13.543932951752257	5.431011050119317	14	0.5575958678910459	-0.5853913161755707	0.4593076537124251
Si	3.9865624874705023	14.931751192708214	6.7615788102399605	14	0.05851630020231416	0.5090374585936652	0.01128098170268171
Si	2.7767136004225	10.915665866061234	8.106279670817669	14	-0.1760302115228742	-1.2849114264071946	0.5109249070091859
Si	4.064196620119759	12.246396825956207	9.498259506019066	14	0.7636866714854954	0.29149880856125643	0.23371681603837657
Si	-0.043313220107447405	13.637168982827557	7.941398938811059	14	-0.39714681171880106	0.14834969164616	1.379720935087655
Si	1.3546723667893317	14.811293439274504	9.436472071457349	14	-0.7534094492997996	0.7305515516720871	0.8504547911666607
Si	-0.0968264261105823	10.90933371481719	10.89084318038549	14	1.445558971910155	-0.20498085742774158	-0.23149923769974887
Si	1.2754062363967649	12.129333627828581	12.332598946757843	14	0.4621458968753366	0.6442063788160861	-0.4552723039124527
Si	2.623289492573927	13.483630635136953	10.88932542248421	14	-0.22318993952609428	-0.32220834761563716	-0.1804088038830864
Si	3.9269782498622545	14.900302596194631	12.17901163913494	14	0.858066548466959	0.8562909431328649	-0.04068851302293939
Si	2.6840650885347914	10.839875890861919	13.651530562968686	14	-0.025609237430802925	-0.5397493116428341	0.12871853119523333
Si	4.027411390985551	12.277551662875997	14.910633141909782	14	-0.36319973684528994	0.2662474689910181	-0.17161485235658389
Si	0.0335538736024536	13.677381407222716	13.591244566330815	14	-1.4721133476566444	-1.0088089107240488	-0.5381058611221955
Si	1.2083148091692908	14.88540245679821	15.040964481690521	14	1.3970417002978965	1.6952032711857845	0.1925127963987475
Si	5.445111510621516	-0.024904285562910602	0.0234028476390654	14	-0.37068473865330503	0.42813274459509765	0.514796991621329
Si	6.734079648265187	1.3173975383321312	1.4524779915458998	14	0.8427062510633304	-0.24777253460256213	-0.025442372695525316
Si	8.008049726647839	2.6136933458432643	-0.0591762381724206	14	0.9896505765414975	0.8305742334996797	0.5923541264930637
Si	9.585440825466685	4.056477270793903	1.2352590919113389	14	-0.8166468130909696	-0.5359492179796552	-0.2960265250300372
Si	8.128066840690856	-0.0356101907590242	2.869362112310209	14	-0.09693812677501101	0.5698587547154922	-1.0020170789103455
Si	9.510989088416885	1.2151691996911929	4.205266505051476	14	-1.2395995517975649	1.0743343011396187	-0.2837235289625966
Si	5.318778565311888	2.720507598142904	2.83988823306603	14	60.29349216550148	94.00357386346477	130.00583194981456
Si	6.774814311938204	4.078868279832116	3.990870961512841	14	0.9336580733214406	0.05868753581663602	0.8142538853695078
Si	5.426588336234947	-0.0178050953795121	5.476331627451036	14	-0.42191786881523574	-0.2692191525200453	-0.4711676483332042
Si	6.686311074318503	1.3933833532606448	6.805544829444732	14	0.3033410625553265	-0.4311720481940447	0.7886888709502113
Si	8.024157544374308	2.6229141330929657	5.399333973921671	14	0.6017214345059593	0.6662132405828296	-0.047435093383007956
Si	9.390319175276543	4.03361298241013	6.788621012846607	14	0.7569393197938309	-0.9512205224317761	-0.9393204185680027
Si	8.123040287641462	0.013643501134071602	8.220356313075037	14	-0.03679740223142729	1.2455172078024177	-0.6192689712054378
Si	9.404860275169435	1.5193409390893107	9.507170213697538	14	-0.38361354175566964	-1.4788002783732852	0.798997203510281
Si	5.408554761171372	2.866620356101448	8.147193854242449	14	0.22849695801741196	-1.403926606124189	0.3485194967988404
Si	6.814781936671867	4.076012283781323	9.50122974191189	14	0.7373153584378006	0.08020228802510314	0.7040750804167982
Si	5.466751800697807	-0.010771185105846	10.876530560176661	14	-0.6833350022412917	-0.09282770069969028	-0.24018366013961304
Si	6.747543629647494	1.37835265404476	12.293039321460007	14	0.28176691781396396	-0.6974179745218707	0.3589563846249176
Si	8.15024569002244	2.752396834047181	11.001639507178805	14	-0.22799764936423916	0.5336915303980331	-0.27760481252170827
Si	9.691145319300876	4.107705679956403	12.212190153256431	14	-1.0248402666162362	-0.6762642055003525	0.8706695925252609
Si	8.166908386981634	-0.13240397691474032	13.577747944993641	14	-0.7989007870607755	0.7873598666102267	-0.6383308889384838
Si	9.414897061290791	1.3564349243521063	14.819029108577793	14	-0.6359022228530719	-0.0355527301459436	0.5893459332684905
Si	5.330333109334524	2.6886183622386266	13.64222817583182	14	0.14255879113359046	0.5457356161597349	0.020803584476914154
Si	6.786515735757737	4.088823466066307	14.910127222609358	14	-0.22853501037615012	0.4014991788047478	-0.231692584819824
Si	5.405976204736942	5.503455429944848	-0.014443180028293501	14	-0.23591973907667946	-0.8045063108797623	-1.0294482015710056
Si	6.793386446257073	6.761464570397929	1.2726318402331378	14	0.8280494080752943	0.6804810753359273	-0.08617753678912728
Si	8.215346080003075	8.271960081718499	-0.0092534272045677	14	-1.3961055608508306	-1.5126843611664527	-0.4215311745750855
Si	9.495664629607203	9.63515147672791	1.1757890941451226	14	0.7942013207566089	0.8802605867010094	1.3247401618110763
Si	8.082534103652508	5.339064297261232	2.5762389976342996	14	0.9442098895553285	0.3522892514192416	0.001302521955187017
Si	9.424052568630762	6.791020049529273	3.9480636607058193	14	0.24712975827252506	-0.5549915953122679	0.10103981109224323
Si	5.504091909064739	8.166108708087412	2.5739378808162328	14	-0.13415487628415443	0.6775777832084162	0.6227993559205333
Si	6.890196552390222	9.6195658982793	3.8974390907083434	14	-0.04371341843209361	-0.24690941454658838	1.1233848199952756
Si	5.400900691755248	5.5097059813017255	5.3832751161275	14	8.23665184994431	8.950432595834135	6.53089856229836
Si	6.804875710369974	6.864688427662286	6.873403295611562	14	0.7265794510629903	-0.028938304599330663	-0.6213587656096542
Si	8.26637864943638	8.179474769605122	5.405062286000689	14	-1.7122317017211255	-0.29603269568280555	-0.51262646451006
Si	9.539483769015078	9.574832840135173	6.673320372281756	14	0.23016611959125208	1.058852133343815	1.2971470595152472
Si	8.240495165227482	5.384107434976588	8.14172666180236	14	-1.5026233689381814	1.1801782225225588	0.35445695031465846
Si	9.503188139203862	6.823023525275582	9.472914581065462	14	1.1431969862607407	-0.05584595021680836	0.6268719867476478
Si	5.465380922593426	8.360593879157665	8.088376655573557	14	0.8064948037343649	-0.7150596136760667	1.573840415200963
Si	6.816071214889082	9.709684813664875	9.614408785410438	14	0.002886065721866219	-1.7211596078348077	0.06554827325291916
Si	5.51009766076012	5.388693348635289	10.896587812441942	14	-0.8087578906371593	1.3866261526459767	-0.5454813338435723
Si	6.908491247092726	6.73714780402261	12.268037116032499	14	-1.0809399849281431	1.1577967507106697	-0.6228075834575576
Si	8.282878146621243	8.211429285419133	10.96669843549454	14	-1.8872782083485111	-0.6554603639129063	-1.8277167538335568
Si	9.536170813596158	9.525840267881005	12.208191758785322	14	1.6714244036323955	0.7911342492202043	0.006865108315327385
Si	8.252800428212039	5.462786046181564	13.516629629506681	14	0.398169854525688	-0.9187091527690356	1.3047567599312895
Si	9.526754186617259	6.920029471137928	14.884537497994256	14	0.14123235789892608	-0.1735074429827449	-0.5694404358799041
Si	5.513263736382141	8.241784443444697	13.614533174127848	14	-0.3417724022177079	-1.1769635695407774	-0.03432477024504088
Si	6.710742080535854	9.568288529184498	15.073881876173083	14	1.277385286914057	0.48932813654100615	-0.9954335066275746
Si	5.449093585115192	11.101191369520715	-0.060237036705572095	14	-0.23536926542763575	-0.9831006857384201	0.9160958813216371
Si	6.82991055575235	12.379143522397042	1.344602940713109	14	0.23805992714517069	-0.0057960427232098145	0.31620121714564314
Si	8.29812100554376	13.626169318037647	-0.0523218476505186	14	-0.6881918201910514	0.33522971050952705	1.1142021173443668
Si	9.533918656710389	14.998826299958255	1.5393492314222914	14	0.08933074035375686	-0.3764748678342785	-1.627961925079548
Si	8.312678425414084	11.054320394332851	2.6944609141596763	14	-0.2242543771286356	0.19944218234707858	-0.31577235677824245
Si	9.677403898302206	12.494901122330022	4.081707955905476	14	0.057787134733520165	-1.4235652227805442	0.20436584903516217
Si	5.426735216031846	13.71388919674056	2.7584841856297277	14	-0.5479241410082449	-0.13344190877887738	-1.1745341321237694
Si	6.824655523018892	14.935243667878899	4.113450312012855	14	-1.0300359562471915	0.4402565346217239	0.619100049585904
Si	5.509510141572528	11.049228561373726	5.3582729106999905	14	0.0693725353061074	-0.8309298173654561	-1.4333336232233826
Si	6.83381103035886	12.25488321422142	6.744002194544511	14	0.40753356299113525	1.2339644602673965	0.008232165014050118
Si	8.21705967763355	13.750037946754878	5.454462857690682	14	0.6344089248831298	-0.7876113207105373	1.0000365564822356
Si	9.571275085054756	15.03344097209386	6.985390980757494	14	-0.3847198883749293	0.351446700205829	-1.7398214615800385
Si	8.074896354213816	11.010615494767011	8.230442059128693	14	1.2700249837140694	-1.0822149960564047	-1.2896013796216768
Si	9.570899725573794	12.179305398728735	9.499891503762376	14	0.40896978242297005	0.899979421843353	0.6349704542850502
Si	5.425364337927465	13.638947860367766	8.038829204086666	14	-0.42307795153568656	-0.6864385834732424	0.42436196153256844
Si	6.735483166324434	14.979715606384095	9.382110226627693	14	0.24834023465725077	-0.8093024507439665	1.7338611252268712
Si	5.462100607129373	10.971659708634201	10.988436645435428	14	-0.9076809107193244	-0.037928688572292445	-0.44044705352594693
Si	6.814684016807268	12.308657539863484	12.283900134097472	14	-0.07399641111386171	-0.6342901398173391	1.2229377608808774
Si	8.113297261113901	13.52552401720772	10.897289571471562	14	0.17712344550500117	0.6429030855293031	-1.9082622844188997
Si	9.455599085008943	14.96688810412168	12.074318983901602	14	0.7802119367096831	0.18462387394493712	0.38174949039856226
Si	8.277851593571848	10.809096413423092	13.581730019487317	14	-1.9279024437384467	0.6957177025736568	0.8378918563513531
Si	9.56672181135092	12.237029158909609	14.920115048798415	14	-0.3071591539557464	-1.61056119849385	1.2623394356910826
Si	5.328619511704048	13.665679983403182	13.574761389123383	14	0.9484378151437798	0.004662699498088541	0.2477036289799821
Si	6.804239231250084	14.96414634791292	15.030340176381571	14	-0.07442064349168614	-0.5765204885999958	-0.7822469665705803
Si	10.714342624446513	0.0110812646770749	-0.13597805197258922	14	0.5919188383623627	0.03260135834894563	1.1783370540028004
Si	12.260709446165038	1.2617953752175595	1.5109361507112642	14	-0.8953231501085648	-0.24932933887391176	-0.3201149536639725
Si	13.561134207966745	2.517307559123376	0.0302898781158336	14	1.2302702961434075	0.374123077797939	0.9405175252050637
Si	15.094200248077293	4.058060308604913	1.2381314079395647	14	-1.7633928409340922	-0.4796602663161853	-0.02039477873101061
Si	13.650567684300132	-0.0448309780087257	2.9756704453094223	14	0.558275411027161	1.7096060889681903	-0.35364139570710745
Si	15.046594873904938	1.5276804475576247	4.13437252308209	14	-1.0932882324492184	0.12649581064596532	-0.19077755741817956
Si	10.668744607498432	2.5861452239361915	2.8010630067526856	14	1.5060359970296138	1.0340851900158927	-1.007943476673287
Si	12.230452208004069	4.033417142680933	3.9744857041700086	14	-0.6430067010737051	0.4319019849944347	-0.25979862262702275
Si	10.903181083324913	0.1573898623648164	5.563871986402185	14	0.09629277933965384	-2.412040804190734	0.42958233377459715
Si	12.101442786395415	1.50096464449964	6.884680400017833	14	1.9503075697192809	-0.38242954775574145	0.16038015054966484
Si	13.441166053856024	2.74270276745192	5.44276143387115	14	1.3844669383981165	0.41307686606137456	0.32193992422021367
Si	14.972371616539201	4.149240022523643	6.738828761698219	14	-0.3747920794022416	0.04400858132284661	0.20503459352893266
Si	13.736035406117278	0.1775450344946949	8.096781443951603	14	-1.4343132143503592	0.06364668375813765	0.16465127070749483
Si	15.046562233950073	1.4118086077826149	9.533265857613065	14	-0.33452677031499856	1.1610060043712784	-0.07499348575701513
Si	10.771119825936267	2.717945361685907	8.216619038242857	14	0.39968012179074297	1.88024674951897	-0.16862697086403983
Si	12.265915518966196	4.135204841931178	9.48158048908244	14	0.7504552492869493	-0.5339733235411214	-0.6007940368169818
Si	10.864714896515096	0.0952107483447054	10.721621334381675	14	-0.6779909598333639	0.10743337869185547	0.8107803220819878
Si	12.184723631236523	1.4375288922171803	12.130965625571891	14	-0.06022094302957233	0.7584974096178405	-0.5325849266682414
Si	13.708324084435874	2.850316698645781	10.889831341784637	14	-1.0689450072780562	-1.139414890334803	-0.6871343245728745
Si	15.089320574824795	4.035310260063173	12.232541165115506	14	0.40257801459708187	0.1206419180530522	1.0227854392443738
Si	13.487221030172234	0.1000904215972023	13.408509779012393	14	0.37195692156571436	-1.7110070842571388	-0.1319524674669156
Si	14.834206687590576	1.1028714349740318	14.9142398569225	14	0.010571870855384871	4.098083998452426	-3.6134049345513133
Si	10.899231648786104	2.633130438966086	13.665076144238158	14	0.45552992866553155	1.0995427032510103	-0.6151570024669251
Si	12.34790708559009	3.922000656745159	15.056925419620091	14	-0.7322824197736106	0.9588253377477101	-1.278061230502724
Si	10.91527418660284	5.487184412444048	-0.2089609910534124	14	0.11008598805065223	-0.4797181161858886	1.2178765400581657
Si	12.171227009899349	6.858666355989473	1.28064494915279	14	0.3481418014273107	-0.47910567889862943	0.26104920825474276
Si	13.593121363735621	8.124509085610441	-0.09302387136867	14	0.373270499273778	-0.3380162744555036	0.10743337869185547
Si	14.926153440448662	9.490654396535243	1.353562608323881	14	0.6132428145560749	-1.3410293995668747	-0.046956867793460415
Si	13.676255328779831	5.416143550677763	2.5759941979728036	14	-1.0900764076832894	-0.1785146705937333	-0.14096342028243855
Si	15.028512338909064	6.613360775192546	4.039684014015243	14	0.009383763086944445	1.806037193774068	-0.10982604930278526
Si	10.734367236756926	8.236154051230278	2.6021224818431965	14	0.6647227708287398	-0.48553755596751186	0.16066811434552145
Si	12.257380170768684	9.402053239050943	4.029826747645651	14	-0.4849251186802525	-0.46372147021552335	0.5013791642870722
Si	10.72437941056787	5.340745254936841	5.369321535422199	14	0.8159114769694072	0.6107655545801121	-0.38217603677117484
Si	12.16270798167927	6.7775723881243986	6.718396149951978	14	0.5191786693079253	-0.5417023232440186	-0.09584617834554413
Si	13.65507199807167	8.082403543833044	5.430717290525521	14	0.16427434666756113	-0.07949086318301817	-0.11360043191276263
Si	15.026292821978164	9.506158375096685	6.884402960401471	14	0.04875998395448026	-1.698661407841384	-0.6956246285610675
Si	13.670575976633113	5.586311955372698	8.17588437456984	14	-1.0068124474429538	-1.2118673527039157	-1.0841250701987426
Si	15.110748705194455	6.7229167837009465	9.49223743434625	14	0.3899906542812329	-0.21953588464509985	0.6649305161386078
Si	10.954164692825918	8.207039211489628	8.073868195635532	14	2277.1581001838836	1353.5313423646671	-2477.6030637423733
Si	12.327719273505346	9.35813617977847	9.546387119469278	14	0.21267540431934873	0.41638227906095693	0.35973748642117853
Si	10.997690072639996	5.385592552923001	10.877885118303608	14	-0.828408848599051	1.034614837711843	-1.15495747910563
Si	12.366838259412487	6.626416757139026	12.192214500878316	14	-0.39450602944447694	0.7783018625673451	0.8660007223744042
Si	13.740164360407851	7.919774968712201	10.878880636927027	14	-0.8534341880116483	0.5033866833210439	-0.8549976771568303
Si	14.976125211348814	9.426484245268293	12.022911054987336	14	-0.08820691021832015	-0.25752962218199205	1.7147192461183685
Si	13.682359000339812	5.3414959738987635	13.61244421701641	14	-0.5841350741161464	-1.2811457855553057	-0.2757453891541772
Si	14.978573207963779	6.685397155582249	14.84918842687416	14	0.048118493177103316	0.6287933737533944	1.7491298912811026
Si	10.95207573571448	8.160592555715024	13.405784342781065	14	-0.3543314803750352	-1.3132115826660644	0.08301919101385737
Si	12.257592330475315	9.376643034187605	14.771244214653676	14	0.9790524804118472	0.7068541881573461	0.6376726859765258
Si	11.04798824308881	10.779948933727576	-0.150470191933182	14	-0.7416168176384083	0.6355070439653651	0.1938741966657659
Si	12.278237101928188	11.969561048758534	1.4824577900905047	14	0.5820370521749056	0.015358754740436565	-1.0921978266829437
Si	13.643272654387538	13.221825557155164	-0.1436321213887131	14	-0.31659665314388197	0.0101643506621414	0.6794459483340357
Si	14.933236310654626	14.96388522827399	1.568708870824438	14	0.2239972665966208	-2.994358363956068	2.1311681168071175
Si	13.697454979465428	10.68052763120513	2.838843754510312	14	-0.2565765134398132	0.9622099407911531	-0.1646312160859977
Si	14.956296438767597	12.098178790908795	4.21708216871304	14	0.21574401851894548	0.93305566334493	-1.5595404416313634
Si	11.147686985227617	13.64872352685019	2.6248235704526386	14	-0.5818395912863181	0.6609170207338565	0.6255998038352385
Si	12.290575004867609	15.015668516669214	4.2478942861067335	14	-1.246355645247318	-0.24236138634577842	-0.19228088269887014
Si	11.063329021875923	10.894335655556173	5.39280598294843	14	-0.4051738025283034	1.1205092958052223	0.4349294615089091
Si	12.419421226701933	12.346503567530842	6.904737652283114	14	-0.7198151300762127	-0.7940203149420704	-0.7885292053098302
Si	13.696018821451316	13.647630088362174	5.371998011721227	14	0.07639859481447607	-0.24415447519604971	1.5659314381256555
Si	14.972600096223264	15.161128475530436	6.710024001528797	14	0.006483813396349426	-1.0899547944016463	-0.4956240021384527
Si	13.659527351910905	10.753885929766913	8.171331100866004	14	-0.3103288125944249	1.3415078822669542	0.8264018437861433
Si	15.047786232257556	12.233993643107052	9.504656937172841	14	-1.2364322071536744	0.7608813384706817	-0.9787053811936269
Si	10.915665866061234	13.668274859815046	8.188108037667233	14	0.8646524347445185	-0.4717759718519513	0.8696198102230445
Si	12.320310003750718	15.179341570345775	9.48006273118116	14	0.5100525309740598	-1.5437397138863933	-0.3895139713548775
Si	10.99945263020277	10.860128982856395	10.890076141446134	14	-0.49966269437534133	-0.3125073101321864	-0.5705722364418333
Si	12.234597482272076	12.340334616061131	12.210574475490555	14	0.6450779835196163	-1.0180841731664831	0.9785434015584578
Si	13.633333788130779	13.627425956299996	10.863556178117346	14	-0.3063243160582943	0.3498436160387167	-0.873605280579806
Si	14.943746376121544	15.000915257069693	12.188085546587743	14	0.4416364468470474	0.2674898270817137	0.10008001747623196
Si	13.741420998670199	10.70391415886676	13.548094545997696	14	-1.1119230895885877	1.0613808154261808	-0.8314460953137419
Si	15.102050157222612	12.060642842812664	14.886642775083127	14	0.5426672590706701	0.14306761287644776	-0.5702297652131896
Si	10.671747483346122	13.540799516085102	13.572443952327882	14	1.9239162020500895	1.5644044586760195	-1.6720260422773097
Si	12.213332551676748	14.986961676364393	14.75546279647587	14	-0.4948963793328509	-0.6284113075028204	0.023867570686934618
H	194.48606050902282	196.27557377852384	195.64041004881406	1	-3.3312682917923113	0.5410173807867311	1.3480145785006528
H	216.91191269905568	216.91191269905568	216.91191269905568	1	-8.157547938111975	-9.195213392286172	-7.899269610060755
H	194.22880870474484	195.4063326124911	196.31758792842763	1	-3.7229918710593246	-0.17873784253552213	-1.6667902434033606
H	199.91193729424168	199.91193729424168	199.91193729424168	1	0.006912416653218111	-0.0013071499447632833	-0.14275188114313359
H	0.9122116666140977	0.9122116666140977	0.9122116666140977	1	-15.848518165108272	-31.535198620060882	-39.485422395356345
H	86.71487980460252	83.99988346283877	83.99988346283877	1	-60.09197330138733	-94.67086876805578	-130.08712618626913
H	206.71471425551374	203.99971791375	203.99971791375	1	-2278.401455349222	-1353.8170641566844	2477.858537508742
