223
config_type=interstitial dft_energy=-22363.231712565306 dft_virial="-560.1359000556215 -341.450984069645 97.47931513746646 -341.450984069645 -10.141041546133152 43.25407645690323 97.47931513746646 43.25407645690323 47.5603274715737" pbc="T T T" Lattice="16.3199774331 0.0 0.0 0.0 16.3199774331 0.0 0.0 0.0 16.3199774331" Properties=species:S:1:pos:R:3:Z:I:1:dft_force:R:3
Si	-2.754306271406854	-0.2687084284359915	-0.0143942200959942	14	-0.5361345946732379	-0.5990109752774592	-0.2666223361466957
Si	0.0928117116620397	0.0601717567958397	0.0173644559888184	14	10923.378779521916	5038.297266510111	-2678.470362717183
Si	1.4404664881551383	1.3564675643069726	1.523796292928547	14	76.51706491986519	59.505516004946024	92.73698824733746
Si	2.7767136004225	2.6279406861423604	0.0327868346630979	14	0.5386943871299773	0.9713365933460826	-0.15263289599899468
Si	4.277302885441179	4.051369117857343	1.4739714018252925	14	-1.082084126795609	-0.1032167659668126	-0.38000139589139365
Si	2.7575049869837414	-0.038107147306288496	2.869019392784114	14	0.2586367401328478	0.6885741435521574	-0.2850571612921574
Si	4.175188786642272	1.3193396156466701	4.1685139158721345	14	-0.2668689051468979	-0.20691252885476882	0.126038153898979
Si	0.0025622364569967	2.839170154058974	2.7219927160893156	14	-0.5331708815707031	-0.986691491428539	0.13117573654969888
Si	1.4944529735038332	4.094617058055058	3.9523068548384255	14	-1.7376730459745227	1.372271157422526	0.39891341818427484
Si	0.0480460135630464	-0.0575768803839768	5.485960414136565	14	0.3792704306488755	1.1582711196422368	-0.40185296289680017
Si	1.5230618939440577	1.4608664599465133	6.677318766752865	14	-0.3511600219626325	-0.837266049316429	-0.26538357760344833
Si	2.8317445643269132	2.91264269246279	5.308807059100265	14	0.6354985593178086	-1.392828944230834	0.5172505974283462
Si	4.205609224577571	4.109092878038217	6.745356752671459	14	0.6981335131324681	-0.30930988355605027	0.3800857281458945
Si	2.7086919344813394	-0.1195764746523237	7.9579800358830886	14	-0.05223868945264062	0.26526633520084963	-0.093656367944374
Si	3.985632248756816	1.1959932262073005	9.350596350204377	14	0.08489609789756546	0.9801691114523874	0.2857552163865777
Si	0.2948040723515184	2.768210892179855	8.128148440578022	14	-1.4135466537900552	-0.21621118835561637	0.24861431448437857
Si	1.488724661424815	4.253410438479121	9.470923543818625	14	-0.5529300830665732	-0.005943367058054299	0.5762158126195583
Si	-0.057984879819804304	0.0929912314138038	10.858774424729448	14	0.9644403746563815	0.04339742958824741	0.7533022342079493
Si	1.380833290614591	1.5892883623675773	12.194793057312745	14	-0.7764200705835288	-0.9188865590361259	0.12167858771813592
Si	2.817823623576479	2.75433891136172	10.7104911097723	14	0.13835117727716814	0.3344151843441041	0.8007434982437256
Si	4.238755098744197	4.139284836289452	12.200831448962992	14	-1.6902384668125785	-1.2547055668850309	-0.1778343561260221
Si	2.5773324361223175	-0.0050918329591272	13.526568495763438	14	0.9827713271469093	0.18323907661950536	0.5006512843709382
Si	4.197106516334926	1.3081767510824296	14.919951849024082	14	-1.4262599982665911	-0.24665770333574588	0.03844368096791811
Si	-0.1342481343646806	2.81030011397982	13.618972207989652	14	0.38548504931820543	0.24180834159141457	-0.034907639821118455
Si	1.331383758992298	4.108668558624957	15.013661159444943	14	0.5640925368139962	-0.44675474620786615	-0.24734161735090526
Si	0.005809911966183599	5.433279526982518	0.1392583674366423	14	0.25637673855643767	-0.10497334512153779	-0.8051825115789613
Si	1.4530981506883578	6.8683604225847334	1.3001799621402108	14	-0.09702143058738381	-0.11817879915635034	-0.20956282421877748
Si	2.8107081134156475	8.163415911810953	-0.143126202088287	14	-1.3225536938468225	0.35656217135079565	0.5563874483905763
Si	4.060736784903942	9.470009625082369	1.2728439999397685	14	0.03895250271077541	1.1947646172248227	0.0763872819510674
Si	2.772307206515563	5.548596487524803	2.7293203859567776	14	1.0166232711235748	-0.33521299832494605	-0.6438387107553049
Si	4.1547724948734635	6.88308104222939	4.10010057047258	14	-0.4908728566173511	-0.18103666780226654	-0.5355800072556819
Si	0.0494658515997261	8.177924371748976	2.592232575518738	14	-0.7538588785097613	-0.2561327406615556	0.5776242641139355
Si	1.3126810648539655	9.4678064281289	3.975693382500058	14	0.041048724878292135	-0.025748334228622938	1.210813199522655
Si	-0.09312179123326861	5.467225080043367	5.34921532322462	14	1.416118016220735	-0.5088492536842304	0.0038270902690404154
Si	1.5371133945139568	6.6254538784704735	6.701439693398987	14	-1.907963264870166	-0.2646094177915518	0.9545583313583924
Si	2.592820094706329	8.051134467071224	5.381284078880661	14	1.4087104046828567	1.8646311413570507	-0.5400128499381492
Si	4.026807551820527	9.541850165742876	6.707004805703673	14	-0.9695725579859292	-0.27717106705419925	-0.14465372774844712
Si	2.978542761337648	5.481700900026526	8.142265221057654	14	-1.1359703805374006	-0.10047082548489447	-0.011361714409734361
Si	4.020720200237981	6.855565560277183	9.647815779215994	14	0.3759120528796981	0.2981985948044983	-0.05021857200260027
Si	0.0565324018282584	7.943569495809661	8.138919625683869	14	-0.2132562170111702	0.48858123044550306	-0.18622747233311351
Si	1.3475242166736339	9.438087749223227	9.43583559233746	14	0.044694809332794135	0.31473748688688286	0.44213832660554025
Si	-0.1435178815466814	5.538853460997242	10.875029122252815	14	2.0544581611383714	-0.6123454987993431	-0.24622678608408907
Si	1.2664465687859932	6.784720538240096	12.32416151842493	14	-0.6866612411939673	0.2711197135726987	-0.9121245520441366
Si	2.586226823823357	8.133387153334047	11.007808458648515	14	0.6090120607517712	0.886487803786408	-0.5086839316121449
Si	4.028211069879774	9.5776072362988	12.342407253195136	14	-0.3372891658709657	-0.5630818353126459	-1.3523949706345892
Si	2.6737835027519385	5.405192845820154	13.385400690967124	14	0.8587332360764734	-0.44366633449730436	2.5419587560178165
Si	4.127240692943825	6.778241507199155	15.002563574790436	14	-0.9198548372996936	-1.1121637450465536	-1.7981169038353517
Si	-0.008975987588205	8.160739435511923	13.666528622229704	14	-0.3734484197619322	-0.10799336543058372	-0.2389413020489175
Si	1.398801585768434	9.580022592958898	14.868527600132385	14	-0.6045720189744074	-0.6192396606047882	0.9830258665736038
Si	-0.07748725285235879	10.851332515019955	-0.0473605745108562	14	0.5542917404441237	0.8084223613928799	-0.19076110234413063
Si	1.283419345316417	12.196245535304291	1.3907884768487822	14	0.11518757522689006	-0.2774376906758986	0.07320502489632014
Si	2.6701931077166567	13.736394445620805	0.2977743082443426	14	0.6352221654958926	-0.7371281819704938	-1.3520329590055122
Si	4.1843769339371075	15.048928630677873	1.5540208911346483	14	-0.03897924220610495	-0.8805009850484431	-0.4517154368125599
Si	2.6856644463232353	10.79377195461341	2.6958154722866237	14	0.3407658144848699	0.1982605023419385	-0.5310134670965669
Si	4.055693911877114	12.131340985052853	4.048105122370722	14	0.7571102982976207	-0.2826380082964301	-0.458697273309422
Si	-0.022195169309016	13.509856838871944	2.828415288930561	14	0.421488237116239	-0.6482286159789258	0.04448706402292617
Si	1.3179360975874235	14.953815802197767	3.989434803498728	14	0.09146810020639597	-0.6376032661328818	1.4833408503686667
Si	-0.055406323385374504	10.715142303340734	5.489550809171847	14	-0.23124958337316245	1.0687966545010839	-0.17520694359936276
Si	1.3560106049388458	12.254703694469656	6.8187476911881095	14	-0.1595766801371186	-1.2245030497997835	-0.9660665987713752
Si	2.6428897854710804	13.411577934769817	5.28840708730889	14	-0.007416610406499148	1.5563759252033251	0.26059617949733266
Si	4.063021581744576	14.820253106885277	6.631622829940185	14	-1.00014942800579	-0.007856012305712456	-0.33763626508918565
Si	2.724440712704281	10.897534371133059	8.120233251522968	14	0.36975065609049523	-0.3811815332333416	0.6699878803033389
Si	4.29283950395749	12.129611067444944	9.483897925877939	14	-0.9370838140500058	-0.4657264181441748	0.6586284798883927
Si	0.1827021473635545	13.593529363171447	8.203497776386644	14	-1.6080841956284193	0.9732438392725685	0.4366407892099996
Si	1.4213884345358445	15.128896520100062	9.574261640925014	14	0.17571216579477186	-1.463826932320339	-0.0806548025614492
Si	-0.0277929215685693	10.831128382957775	10.838456052825238	14	1.3210308281656988	0.597323558855846	0.21660019659055477
Si	1.3945910315906944	12.297527315254111	12.33274582655474	14	-0.12481662176137663	-0.31579369695239967	-1.7938231579507045
Si	2.885176170442883	13.587458331566335	10.80788873509304	14	-0.9839170116775672	-0.19716238325970328	0.02832663864366743
Si	4.065436938404675	14.906879547100171	12.288698207462804	14	0.8410823409431248	0.6280464676578914	-0.2269506952778749
Si	2.73054438426426	10.920676099133196	13.616720051103883	14	-0.12639373776475546	0.8266404423598531	0.16770882915421495
Si	4.017211405089864	12.215633668494814	15.060581094565105	14	0.2882335048046684	0.9185024359012957	0.269144590465761
Si	-0.021689250008589903	13.547213267216309	13.694876423031	14	-1.08616267116496	0.10162525177364094	-0.8894646295260754
Si	1.3446192606905423	14.840000279579327	14.980401045436286	14	0.8060595156036638	1.6768437794262032	0.6362624347084245
Si	5.470652275304317	0.043525379814077704	0.1270999842489828	14	-0.2601254101132135	-1.045190308114676	-1.4318022728947024
Si	6.941343361665557	1.2750471968932369	1.2870097403516991	14	0.014492549358078676	0.533827541869469	0.6596121847838814
Si	8.25284938814434	2.560196459817562	-0.0995681823193431	14	0.11430722876527137	1.2483593076233095	0.4478580075007417
Si	9.455272685460281	4.018957642675206	1.4264639475175385	14	0.8200476140979294	-0.48840433839947694	-1.1514782593864057
Si	8.074161955229327	-0.050967289523571296	2.7924297386905756	14	0.4896675224432656	0.2546363573652294	0.24309286580936057
Si	9.60225040222278	1.2091634479958122	4.107966799595333	14	-0.5056086325387158	0.8120298792675796	-0.2982780419588909
Si	5.602942012377026	2.517160679326478	2.772062406854067	14	0.08902092216267903	1.1264716890426456	-0.4990638839462788
Si	7.015990938444556	3.962131481253152	4.070267651724873	14	-1.512446533924339	-0.6978874583533299	0.7674155455313062
Si	5.505707586830616	-0.1081198504942875	5.472773872370619	14	-1.2519855945668463	0.013373090101686205	-0.22038357806915268
Si	6.781864542189303	1.1422025805878027	6.826695520198029	14	0.7407524120297746	1.6029828655627134	0.7628526049196394
Si	8.222690069847971	2.542962563648209	5.485682974520203	14	0.09964215824021073	0.346497836685608	0.8241680674839987
Si	9.460250278577377	4.097962653428843	6.913942119555382	14	-1.250524178302874	0.3663323715673584	-1.1424223122277801
Si	8.144288898259358	-0.161078177264697	8.218789595241459	14	0.36544688289509936	0.9172191972360099	0.032742512031021756
Si	9.514399963700402	1.3827264079968304	9.497818866628373	14	-0.8641536403124097	0.3181226041513898	-0.5786668473212555
Si	5.427224815354838	2.632755079485125	8.205619373452947	14	0.49382962773552136	0.11483661935068985	-0.7822575081023929
Si	6.748392268474015	4.072666688407538	9.626534528643232	14	0.49404894301932994	0.07852489891423853	-1.508277743758251
Si	5.384352234638085	0.096777466178283	10.79197675709577	14	-0.0016771320003325918	-1.385242640873205	0.9626357158321696
Si	6.8345780692982165	1.345402619607331	12.138521775123417	14	-0.31216920978258694	-0.21054061557202977	0.5273483564626958
Si	8.162632552894163	2.752054114521086	10.903784922489937	14	0.6716321021555736	-0.16614842533541707	-0.19955351120744097
Si	9.491796794955558	4.038215216046264	12.36597330060853	14	-0.7489758352857361	0.360387461846112	-0.4699096065000558
Si	8.115712617774	-0.11260784428839	13.534238885156995	14	0.20744911853508372	1.0651140603510356	0.6594460913801998
Si	9.662291599199156	1.388340480233817	14.804977608007894	14	-1.5942213099632447	-1.0956137972112923	0.16669169988956437
Si	5.480493221696476	2.7144039265829245	13.524136819125907	14	0.35199306008636055	-0.3847599976179237	0.3431050061051406
Si	6.831852633066889	3.982270333405597	14.956981877819787	14	0.22136316919612908	0.3133030672287722	-0.1018466239417057
Si	5.494055122943383	5.4301297713379295	-0.0922731524067474	14	-0.014096342028243856	-0.8792840809004171	0.8472625068011649
Si	6.765658804598235	6.848058370657957	1.222349989761757	14	0.6293171079071086	0.10064128976762028	1.2449227682523996
Si	8.20599473293391	8.203399856522045	-0.1424897229683961	14	-0.15664227763523358	-0.3184429638742802	1.6854585249118914
Si	9.470727704089427	9.55265399080359	1.3646275530235226	14	0.8788243672691745	-0.31597984497757836	-0.1314086786917043
Si	8.1202985314327	5.347436445684412	2.723461514058295	14	0.17711290397318855	2.0906341272139186	-1.2252489274531584
Si	9.481156169669177	6.885822798438151	3.9503810975013196	14	-0.7783424860314034	-0.02407197355988639	0.38159650963201347
Si	5.38864438870299	8.288035259490103	2.6872311641568127	14	0.8881037434801211	-1.0840726196502115	-0.09560295178225811
Si	6.6733040523043226	9.688795242550508	4.07436396606058	14	0.49508329868962564	-0.5447984482705409	-0.3524550877123911
Si	5.53389218785758	5.456029575524259	5.286105970490823	14	0.7315432269940682	-0.5885771727777662	0.7733655974631928
Si	6.741537877952113	6.8995315794819545	6.820559208683184	14	-0.21448366269100888	-0.3849875404387568	-1.1642574241591377
Si	8.03974312282292	8.263196253836924	5.365159941176759	14	0.0718068578232236	-0.9553008665748512	-0.3662012451960308
Si	9.394284929792786	9.292790990136337	6.902697655103976	14	0.4874779691526275	1.4652302416040757	0.9782878336896351
Si	8.059425015607237	5.616846633150026	8.191045633605189	14	-0.20469906428465334	-2.044222847969394	-0.22232990479650477
Si	9.372008160596605	6.7059766471253885	9.667399752135713	14	1.1771211782969027	0.5275964681260901	1.1939315791010947
Si	5.205746401610238	8.099441600273199	8.046140553976695	14	1.1288193653104728	0.7570352220222724	1.1601531687365854
Si	6.828686557444867	9.482869767299652	9.35288114704501	14	-0.5866344455978623	-0.6488677927615145	0.889669289509559
Si	5.434405605425402	5.448293906220971	10.857436186579934	14	0.770015704341572	1.613097336781644	0.4029708794900005
Si	6.747951629083322	6.902077495961518	12.329285991338924	14	-0.5244913442309473	-0.17418827167152012	-0.9315214848003976
Si	8.168638304589544	8.244248760037095	10.96532755739016	14	-0.7807750087747957	-0.4769179253817153	-0.7659561861515901
Si	9.550744553443916	9.371290081589548	12.399559814165851	14	0.48184056362767086	1.0602292173532863	0.23836126068869207
Si	8.084606740786512	5.479677222824821	13.600024714189821	14	0.2665981677566863	-0.33161242243461075	0.3619198406169202
Si	9.497312947327947	6.781325982934011	14.954403321385357	14	0.7185005239260209	-0.5591272182197261	-0.31030155887803135
Si	5.28419653313115	8.239646526400962	13.657226235092836	14	1.1071812000466383	-0.943683327185762	-0.06542023220797577
Si	6.7565032972582655	9.451486450695802	14.958564915630797	14	0.31762509527194116	1.0080794881447228	-0.712461254639525
Si	5.512806777014014	10.861042901592649	-0.0417138623190036	14	-0.28131954548825816	0.47956462119827586	0.9529426487752113
Si	7.012645343070771	12.323329199575841	1.2133576821961187	14	-0.54523476484337	-0.9869475735184259	0.12100907189276934
Si	8.227651342987633	13.752632823166739	-0.20197604071204558	14	1.6281470446625987	-0.7508676545803011	1.8893744305160278
Si	9.463693793815759	15.06896956296572	1.4220412336331685	14	0.4949629709606427	-1.8831644398362741	-0.021631223279469817
Si	8.170449822084617	10.913625868882097	2.764620497144573	14	0.10141339269526076	0.6312415802392395	-0.4086900461641379
Si	9.551250472744343	12.194988897041943	4.21845304681742	14	0.01962653246135036	0.16854058172528286	-0.8624865356228257
Si	5.544973452534655	13.409668497410143	2.6796586946278547	14	-0.6210834002298663	0.7744462330292511	0.17478296833207038
Si	6.71150911947521	14.887442453977348	4.099219291691192	14	0.7755302110322255	-0.5639081885625415	-0.6607380718035741
Si	5.459407810852912	10.9506558976778	5.544255373527599	14	-0.24902312023028214	0.25549459232109484	-0.3139491859957254
Si	6.937491846991346	12.328829031970796	6.761856249856323	14	-0.656098512253367	0.2937688374484152	-0.33973377280936246
Si	8.259736418621108	13.726063899905652	5.409615559704523	14	-0.4712710067670741	-0.760884166686534	-0.1235051009375691
Si	9.573510921963091	14.968487461910122	6.800436676508172	14	-0.046096318842806856	1.045323234259728	-0.42393695782314805
Si	8.102330236278858	11.0812646770749	8.270083284313694	14	1.1502922085022216	-1.5334005280624818	-0.7928388920474624
Si	9.741459809727122	12.26077472607477	9.418536416258373	14	-1.5722543003289637	-0.2861236557789548	1.499664540935755
Si	5.347926045007405	13.5409953558143	7.97973456580141	14	1.411218775033193	0.13995246167055636	1.3724935580327187
Si	6.711541759430076	14.899111237842014	9.54150744621678	14	-0.32766063355754316	-0.5084651305494002	-0.340733161447304
Si	5.596087621855124	10.65820190207665	10.988665125119491	14	-0.6798493547587668	0.796911779985109	-1.2210099461118302
Si	6.985668420373856	12.10542486088909	12.151153437656637	14	-1.0361001652552926	0.5538875626877964	0.6610314349206031
Si	8.194293309114377	13.551929740694476	10.823474313541652	14	0.6426274630389831	0.08780916022529324	-0.2741538749610055
Si	9.543123123982658	14.913521777915442	12.275397425854827	14	-0.27089577029931383	0.11278462019467966	-1.47172742474809
Si	8.184811402225746	10.87894591683676	13.660767670195819	14	0.9497027989612928	-0.10719375167601766	0.4333582590477666
Si	9.693821795599904	12.451963261703536	14.852452422360782	14	-0.6266734974169323	-1.9014174878356012	0.39391904609988715
Si	5.498885836263581	13.447645084896967	13.586315933146018	14	-0.3167056680094562	0.2854240580213426	-0.07330915466178613
Si	6.7698530387985425	14.907891385701022	14.990682631219139	14	-1.5421250597453404	1.2411874664432883	-1.0886823543787052
Si	10.766240152683771	0.024153566600988	-0.0010934384880177	14	0.3729786788199411	0.32838131437878065	-0.08780298957252489
Si	12.146028964742642	1.387214401790933	1.38509280472463	14	0.44739315165885896	-0.5599144906687554	0.5178941450899793
Si	13.439223976541486	2.8022543651053016	0.07299925905825631	14	0.6498391563514665	0.3017611183360955	1.2004734994776796
Si	14.844520913328294	4.166979837993423	1.4174553199744675	14	0.11789417779740995	0.027764337910151045	0.39617364835512503
Si	13.70794872495491	0.0600901569086742	2.8304389661322653	14	0.8151211191939935	0.6816622411200033	-1.4725782034985269
Si	15.024791384054318	1.4500952748406675	4.2322923876806895	14	-0.2465522880176198	0.627362810753264	-0.22796602476880135
Si	10.898203490207818	2.7478762002982124	2.826326331819124	14	-1.002644685718994	-0.5122670239863033	-0.3409627611523932
Si	12.16954605222374	4.126538933914201	4.129998769130019	14	0.490975443719625	1.349022194675619	-0.5273113325460858
Si	11.014010050073095	0.0179193352215438	5.4527655800376404	14	0.38752830671612715	-0.9351027774008319	-0.11950240417516254
Si	12.233145004280532	1.4993979266660624	6.794137165218995	14	0.03425226507501271	-0.12951068874437097	0.20245963155080435
Si	13.532508967549088	2.945772246651983	5.529714273634706	14	1.294330927858089	-1.1458565376039018	-0.09951154608994722
Si	15.091409531936232	4.113613511787186	6.8750352933548715	14	0.02623401602359891	-0.6049849384888232	-0.3341382763011242
Si	13.605589826494509	0.1012817799498186	8.126565402767012	14	0.17079004176988039	0.21566277159082878	-1.0071338356079724
Si	15.04517503586826	1.3367040716354888	9.381947026853362	14	-0.01349007539375294	1.7040753843140195	0.28597478878091825
Si	10.839190451809728	2.8174809040503836	8.161114794992884	14	0.2573360179513849	-0.7629729326486223	0.48328321082280595
Si	12.091601840003255	4.180933418698723	9.551364712586373	14	1.069840266150532	-1.1395282760794216	-0.08643027644209783
Si	10.814792085547245	0.0538069655969307	10.820504077648827	14	-0.5060428922272888	-0.6340284012957479	0.8883256298692498
Si	12.132907702886431	1.3272384847242906	12.188836265549664	14	1.0429436762859308	0.8296177823205846	-1.0540860754118566
Si	13.544732630646479	2.6946077939565742	10.748532977168857	14	-0.0687644688978924	-0.01735650357419162	-0.0012007061845091527
Si	14.850934664459505	4.165347840250114	12.072278986722464	14	-0.21022925471775986	-1.4207953710191485	1.296777077459678
Si	13.661959028548436	0.1384913284972866	13.402618267159044	14	0.6170521641984061	-0.27910530958654667	0.7260675439937487
Si	14.817233911060152	1.4847425869311388	15.177464772940967	14	1.2865962717234878	-0.7517444014944716	-1.9632682545276152
Si	10.943785187178465	2.7307565439708905	13.523663539780346	14	0.041593542095631514	-0.10313166238071571	0.06348264723871219
Si	12.249921941081757	3.9710748288864903	14.902913792583927	14	0.129910238511122	1.6394768773663633	-0.7614364401093019
Si	10.841752688266725	5.284963572070506	-0.11234672464946041	14	-0.29714007074419335	0.6448704953202804	1.2157008707362564
Si	12.231757806198718	6.771142317015757	1.2540270659594042	14	-0.39680151227430516	0.27918707073572735	-0.6885911128472704
Si	13.707181686015558	8.172914138677015	0.0045043137715355995	14	0.2348195631101881	-0.703291664625749	-0.29853103872239345
Si	14.979715606384095	9.59756656869948	1.4021798210970857	14	-0.5864930348052542	-0.5749701120919465	0.0010991475243633038
Si	13.546250388547758	5.65792401634914	2.757912986419569	14	-0.21969529317494904	-1.6824102224443238	0.26320508006568694
Si	14.928601437063627	6.93388513197863	4.082964594167825	14	0.6750195334148688	0.1683647181213847	-0.3446263291230723
Si	10.984634090693515	8.153379125689595	2.6859582059170313	14	-0.7874164309272701	0.4541333042556271	-0.48087922734846755
Si	12.247751384083156	9.468899866616919	4.189501406851101	14	-0.4001732597911474	0.11741466665520232	-0.04449914821793086
Si	10.637589770578643	5.438518239738544	5.348480924240131	14	0.4127449363645434	-0.3777223681356144	0.7490897352514188
Si	12.21703718655406	6.461895064635946	6.793076366685843	14	-0.12470092202196997	1.458268973949775	-0.48869101664267345
Si	13.537160161117521	8.060991733440815	5.55231744237955	14	-0.11494537710573212	0.24568993929324215	0.3550033101951899
Si	14.872183275077399	9.429813520664645	6.954562543386368	14	0.5501360629151681	-0.4163195440911453	-0.6522562524629377
Si	13.61838468880206	5.302915547246916	8.177532692290583	14	0.15321268024868803	0.45635988146287537	0.9294239770802208
Si	14.862570808369304	6.798723078877695	9.56802740954557	14	-0.18701191656629065	0.3183162083819969	-1.2901865631925424
Si	10.869186570331765	7.831288051069933	8.246713076629494	14	-1.3127233297657683	-0.607775873313844	-1.6158368495002615
Si	12.210378635761357	9.349323391964596	9.496235828817362	14	64.80162426794814	45.69932784007045	65.43195773378832
Si	10.802633702359584	5.354486675935512	11.022170038789644	14	-0.08951123194723128	0.9563863872410177	-0.2567678036756322
Si	12.288649247530504	6.753092421974749	12.231121327078828	14	-1.4454527852604326	0.6203696613929933	0.3421729804265869
Si	13.531219689331872	8.151224888668425	10.905367960300948	14	1.016068426595487	0.06068528465039109	0.3342007541604038
Si	15.014346598497134	9.558382302882608	12.22609477402943	14	-0.49766186021520203	-1.0761042500420086	0.3294066711804557
Si	13.596140559560745	5.492374165267773	13.562031806725564	14	-0.24605375069604313	-1.7546467119665443	-0.05778533495979606
Si	15.026064342294099	6.590822886357435	14.887311894157882	14	0.19809235205400083	2.092090401267251	1.4803308573703695
Si	11.033283943421585	8.10970686607862	13.768251041570215	14	0.06995694754537707	0.27082969289258607	-0.5469062404119982
Si	12.422211942842996	9.654147930460038	15.044097917357675	14	-1.0022410221837306	-1.449174974432411	-0.33881460265740954
Si	10.924543933784841	10.896326692803012	-0.0379113075770913	14	-1.406981079244525	0.1973261626685967	-0.41953111174654223
Si	12.107334298248762	12.215731588359414	1.3488134948908488	14	1.2201100592497784	0.08688999007334029	0.5397976484228528
Si	13.629531233388866	13.642424015561014	0.2227840119392481	14	-0.8709038202199263	-0.23409939651001463	-0.42555109774313693
Si	15.212683284241598	14.87618166954851	1.3927795140956203	14	-0.72001001985948	1.4230713134485438	0.4511557071843637
Si	13.485768552180689	10.863523538162479	2.7523641940923147	14	0.35724120026584677	0.22227385470052552	-0.15818494082732243
Si	14.825638699438198	12.240537954057725	4.115457669237126	14	0.31130737527927327	-0.6855266124161858	0.9680314374570324
Si	10.957885647680664	13.529506091701396	2.7934578972688606	14	-0.9658423983874584	1.2313481034936138	0.18698620551308917
Si	12.496761599757395	14.928927836612289	4.028586429360735	14	-2.150844528711678	-0.42456996395296853	0.9328785141883716
Si	10.73833299127317	10.717361820271636	5.570285737533393	14	0.6622524528371414	0.22360388748263813	0.19583517869344286
Si	12.049741097887352	12.247457624489359	6.91056388422673	14	0.3596374704242248	-0.29108254660992444	-0.9498408673169846
Si	13.531023849602674	13.581240420164322	5.587307473996116	14	0.8964256400698444	-0.23882174565153058	0.033975357032032756
Si	15.005860210231923	15.029883217013445	6.840844940632527	14	-0.2965176061461855	-1.4641385502851407	0.636096084194211
Si	13.426690233872867	10.837933813547378	8.153770805147989	14	1.0706442507841423	0.33655871484951166	0.4327450504289113
Si	14.994844225464579	12.173985086085542	9.469666905556275	14	-0.1567677475748568	0.3807585864081772	-0.7858436858029355
Si	10.865824654980548	13.768316321479949	8.18505620188724	14	1.1222424779015339	-0.1882817854839118	0.16173358039019078
Si	12.237796197848965	15.199105063017258	9.472457621697334	14	0.16739412586302882	-1.3525736624543394	0.13657171528509365
Si	10.815395924712268	10.700878643064206	10.844592364340084	14	-0.24761286896218088	-0.02628363835627777	-0.17521491402585526
Si	12.390893906148875	12.093331757611162	11.803537918331607	14	-0.2512191012842206	0.38406708473414375	2.0996291391764568
Si	13.64482305224368	13.6715551752791	10.65883838119654	14	-0.19473757383227164	-0.027238032651116732	-0.22201365884212657
Si	14.97948712670003	14.877487267743156	12.118693002542201	14	0.36260118352675946	0.4644367517155885	1.0781693618351516
Si	13.603060229992378	10.855918428678656	13.530583210211981	14	0.3768443356687838	1.6340708713202199	-0.3431551426588835
Si	14.814492154851392	12.359722749251656	15.072984277414262	14	0.5009369341720068	-1.2111325308034173	-1.2054912686204804
Si	11.03114602637785	13.517918907723894	13.333013563406872	14	0.747897256603934	-0.42267583066361536	-0.3861455662749515
Si	11.969250969187305	15.306523154481923	14.551218278900622	14	0.4360522632022178	-0.9362253219836085	0.6175201053666731
H	196.91194192256822	196.91194192256822	196.91194192256822	1	-74.99338239858128	-57.87520434671439	-91.8997185984736
H	217.01425364554092	215.68387682915622	217.16903067951867	1	-0.20855700781753553	0.6492040933373899	-0.4474538297444144
H	166.91198330984042	166.91198330984042	166.91198330984042	1	0.33323324722843206	0.20184513737928897	0.10823762043599779
H	146.9120109013552	146.9120109013552	146.9120109013552	1	-10924.598809105568	-5040.037128080933	2677.091047502515
H	60.71491665277039	57.99992031100664	57.99992031100664	1	-64.87964831554602	-44.33802501794368	-65.05089935649981
H	214.71470354530737	211.99970720354364	211.99970720354364	1	-0.2899736288853446	0.08274511118672959	0.0899161810351546
