67
config_type=vacancy dft_energy=-6732.358470781976 dft_virial="2.8510400788265193 41.64068503926936 -4.755647577943741 41.64068503926936 -3.951297308587824 23.455323548006472 -4.755647577943741 23.455323548006472 43.88934309155634" pbc="T T T" Lattice="10.854351079854425 0.018778064924278002 -0.0086943526036686 0.018756356178700802 10.846373115854803 0.002876408788979 -0.0086943526036686 0.002876408788979 10.86305628683088" Properties=species:S:1:pos:R:3:Z:I:1:dft_force:R:3
Si	6.915010468555306	9.442661747212915	9.605210321471317	14	0.3949104643113363	0.44376172250468177	-0.04424126635432001
Si	1.2534651405020858	1.2308174916786718	1.2102821037999196	14	-0.6483486865973768	0.5135942285525636	-0.3004724803496373
Si	2.886995058759722	2.6930860306404982	0.15321489909748331	14	-0.3165565439008876	-0.009913925003958978	-0.46525436320739566
Si	4.262005294873992	4.086961166661356	1.4464363508123743	14	-0.20765789228707976	-0.14385154288856092	0.9266854928037311
Si	2.77189311883485	0.08318357130271496	2.735070744586803	14	44.51632422991158	-95.7782104050744	42.874321498678704
Si	4.188574377521835	1.3577061950146847	4.16299496260822	14	0.9392057472707243	-0.2797938515912823	0.42964044075483254
Si	0.10406304279886594	2.666193236619463	2.8671673759867864	14	0.7204651055011461	-0.35998894052148905	-0.05214381566632714
Si	1.5739491805837318	3.9586277463071804	4.214383905138568	14	-0.6759232769349008	0.5143521904009434	-0.12050333547629621
Si	0.15813518628255568	-0.01988629638599406	5.639406749313593	14	0.624497570984491	-0.18111174407761485	-0.6817977383703752
Si	1.5013931256783348	1.3591975858358385	6.945913953321729	14	0.8972234540506864	0.06312834892559578	-0.3443280809059351
Si	2.976455713846084	2.740258049342475	5.571316183373425	14	-0.7820214806340035	-0.7309004506640312	0.4902825308358451
Si	4.279752194383353	4.067901973481853	6.950525976319606	14	0.4878541218609652	-0.10966098434123175	0.2154046326166859
Si	2.799032307118186	-0.07208823143820806	8.322099718009005	14	-0.12560055177348978	0.09786963823250065	0.46744854448761
Si	4.228280758619813	1.341817564126732	9.618129195964308	14	0.06228399793845916	-0.21647884041944382	0.12908465659282245
Si	0.09319998651203504	2.5651292570220874	8.328154287150488	14	1.1329675866339997	0.799534050301128	0.6357777813555767
Si	1.5756348646778013	4.108117424663616	9.564287165183737	14	-0.9673675780633699	-0.66014286092196	0.3914803527037268
Si	0.08313472662516627	5.370586267393846	0.14191224071271413	14	1.207183827252734	0.13934285259914928	-0.038984127306213236
Si	1.535073159004082	6.76840588248608	1.4521500926482935	14	-0.29021582700650256	-0.41725516931714723	0.1946455282618103
Si	2.798351737944341	8.242799841290052	0.14981205322825722	14	0.30862288421450673	-0.10895084505180687	-0.2817589473874715
Si	4.185659978428096	9.585818984484483	1.5367914062165173	14	0.713273981031224	-0.630853600446429	-0.8393067356090307
Si	2.825601640830121	5.395494882069125	2.873167673264324	14	0.5772920773065723	-0.07710873410390097	-0.5126951130221079
Si	4.183473907748471	6.748053933507456	4.266027925429448	14	0.4240508577888306	0.024932779621071967	-0.6289671804730365
Si	0.18054512434189926	8.067957604411284	2.8712301677215595	14	-0.21002562317640408	0.47591879385430585	-0.799047340064024
Si	1.4988282373883888	9.514634922299564	4.132531079939735	14	-0.19080172580818894	0.368634539271019	0.3415602860287957
Si	0.16251926745187123	5.3744732182894435	5.550971832455752	14	1.00952239245039	-0.40500359535610964	0.5998550691540637
Si	1.6061790697049219	6.840182593425256	6.881939365543	14	-1.4431889270260423	-0.34646698342176624	-1.0337128939655351
Si	2.8787685296232417	8.21674174853646	5.520712011995693	14	0.1647425449463601	0.15835900465749644	-0.12049407949714366
Si	4.252720464390624	9.48143899400019	6.9073440250547185	14	0.013314468900386829	0.5939842072660376	-0.28825638764201766
Si	2.8796922367475517	5.502804467769062	8.171602753857789	14	0.7541841233327601	-0.40573018971958347	1.291187751604208
Si	4.228999318098418	6.891932986569465	9.604465711498017	14	-0.6911617039463543	-0.429926861887497	0.2729408274709596
Si	0.1809695303179335	8.092120523675986	8.27884938419555	14	55.529539197468594	-15.220014297813925	-9.16020933601555
Si	1.2375678261159022	9.59547503451722	9.835621519841323	14	0.6279348816869971	-0.06723183301655211	-0.39248616910496864
Si	5.650561788228436	-0.01662130105118318	0.12447794713966481	14	-1.5614523155474256	-0.516046034585857	-0.6328251240059186
Si	6.954485651512886	1.2686417245351063	1.402301385616648	14	1.0782356963524113	1.3121103782574448	0.8688551635008325
Si	8.466561650889762	2.624660064581164	0.12131823922090335	14	-0.25974411519423557	0.3653730921724111	0.6689193289322853
Si	9.617432345231279	4.162062571985679	1.640980359739731	14	-0.13669075746141648	-1.0029357348412347	-1.1007472660934998
Si	8.419069428190522	-0.009936092850684442	2.7218631437776346	14	-0.22794288482092	-0.42653248864383747	0.1433653468725209
Si	9.649793572263212	1.2858817248352397	4.235314392186825	14	0.2879116024185858	-0.20230099435255125	-0.6982237589292052
Si	5.626004855231508	2.676681817045087	2.8295699995216337	14	0.09287038104800474	0.2465929114816781	-0.215006625513127
Si	7.018468922789848	4.003561593340148	4.303618789270927	14	-0.22877386606039188	-0.3321251008354482	-0.7587979718297658
Si	5.659339719502577	0.050192790649044125	5.5754006838537755	14	-0.44737901057959817	-0.3969418946247853	-0.296665701812626
Si	7.062366177221504	1.2801701538738786	7.014154309606379	14	0.29694235274507397	0.11808212559631276	-0.11153480589855568
Si	8.398214921751785	2.5960935262761264	5.588800407061302	14	-0.7306618520903214	0.6732598689337593	0.518894819280581
Si	9.722263877623577	3.976358364257359	6.933614863514967	14	-0.4356483425564225	0.4563845640739488	0.05522708516624872
Si	8.448379491031579	-0.0061023283817509206	8.501436750659533	14	-0.17521645668904734	-0.2109874736766715	-0.35159813830918574
Si	10.005592314212567	1.1317745962945336	9.902966390370912	14	-0.8508895650762978	0.7863720479462261	-0.19146995608089543
Si	5.691749791212057	2.665582135431465	8.296364000127236	14	-0.5713050014580755	0.33176411764849945	0.11657185833125779
Si	7.015274480878163	4.036586022549463	9.69368865582031	14	-0.328265614639374	-0.5898809802856133	0.3841946115580231
Si	5.5635303417721635	5.442155659812759	0.06792992122289539	14	-0.015829009903491648	-0.2229081463830061	-0.2787576961472626
Si	6.840763302369447	6.7824568680609225	1.4498250859969755	14	0.8796530345138582	0.10431257105425974	0.13096156347653054
Si	8.26417644305992	8.20706724606998	0.1337671193721487	14	0.7514358688560538	-0.287740623914796	0.5845459367463061
Si	9.904585862790972	9.573507954867653	1.313651552177594	14	-0.2444128712807246	-0.5520682485632596	0.27990029535153643
Si	8.213131584146971	5.4766693089686695	2.896388432970976	14	-0.006034898407451571	0.4413199437821371	0.4511199688204136
Si	9.710606281248623	6.774659086649593	4.273370908620936	14	-0.7198840356987927	-0.14549087964068735	-0.7413954454703435
Si	5.564176176953085	8.118276305784676	2.845269764323065	14	-0.687577583130068	0.35399852223607603	0.45649152205526694
Si	6.983673059941433	9.510631829615129	4.126983410007482	14	0.4997992200678412	-0.17358971835298964	0.45143750032745183
Si	5.610404950659732	5.376424834516834	5.545455640204587	14	-0.3114091910499512	0.11798133826776296	0.2571730098740875
Si	7.015832395639497	6.700873231307248	6.887789872476056	14	0.5410032397074703	-0.18166761704783088	-0.9474996188124577
Si	8.401375715107825	8.153248009472266	5.60329425104592	14	-0.4613336847047018	0.5484597022464318	-0.025169835531589618
Si	9.744246153395052	9.502206665456619	7.01621881131077	14	-1.224843464144171	0.9497511357413115	-0.969744050710783
Si	8.326566292411515	5.331902368212554	8.351712617850865	14	0.9381657351687244	0.42909613775855715	-0.7279727330359784
Si	9.652396450857918	6.828937463216266	9.676883915868999	14	-0.8314399246609736	-0.9635888245743485	0.3555740955762628
Si	5.638259442109837	8.101630039676078	8.2023271414732	14	-0.70900363220499	0.869696943382649	0.18260581337915294
H	0.09256717657845967	0.11080577917514424	0.06069222544745691	1	-0.04583560876334383	0.010049679364862797	0.00906854557469429
H	31.953519422995768	30.077438775841355	30.142084163858417	1	-54.51144371143871	15.001262857402004	10.124804491212203
H	50.04805410053182	50.147455190217975	51.92911581935892	1	0.15397604141824003	-0.40214786867702107	0.4939949498076069
H	45.96030707728057	44.13751054614539	45.91128872976724	1	-44.35349947242352	95.87626850532688	-41.641953437704586
