68
config_type=vacancy dft_energy=-6732.530543813324 dft_virial="-2.1821984275545048 -1.9631452302440693 -44.74994909620638 -1.9631452302440693 27.423317391553745 -25.117306287258565 -44.74994909620638 -25.117306287258565 -2.9143599294344944" pbc="T T T" Lattice="10.89390075842386 0.030296089489624204 -0.015578355976326003 0.030230725758255004 10.90776876342936 0.0123537452287788 -0.015589249931554201 0.012364639184007 10.91194114828176" Properties=species:S:1:pos:R:3:Z:I:1:dft_force:R:3
Si	7.046838822816428	9.583667332799882	9.831347941286145	14	-0.9061143362477584	-0.1499139521229381	0.07581521101733446
Si	1.4632847814160066	1.3252834247717376	1.5338623597574232	14	-1.9416334317006976	1.6123062076746346	-2.070074026410823
Si	3.009293901252873	2.660607808077307	0.25110239982344157	14	-0.6191334739550661	-0.20182276876300367	0.11817725649315826
Si	4.234464056268498	4.134083884609295	1.5152206235709273	14	0.5371710072277895	0.19201323063504272	1.28833845268842
Si	2.8977692133952213	0.0768623011125651	2.919703102851679	14	33.98997273733568	-14.146709724355027	32.084510900831475
Si	4.383316881715578	1.3545347839549773	4.33276130368807	14	-0.38854543598077773	0.06004276543088607	-0.32508361469515873
Si	0.16228616163897258	2.764862959611181	2.9491995760275533	14	0.457620237290812	-0.40405331482978285	0.27458633487585443
Si	1.5696533602641516	4.0245658633046775	4.38600659926142	14	0.3504180009672378	0.21994340483834332	-0.32483473170016836
Si	0.19706075612290982	0.019556828425664644	5.771635999624249	14	0.835527982120009	-0.20170989723944918	0.306752919315163
Si	1.564070208209699	1.4134689029484937	7.22234806731139	14	-0.16039326318679759	0.1205987234836737	-1.0597777312590684
Si	3.0173652326814464	2.68319642424298	5.688967220375053	14	-0.8338158830873224	-0.11614556906917722	0.6165762526036468
Si	4.232198113581033	4.118957627774939	7.1148791989851965	14	0.0727756503078554	0.14194172585675494	-0.16853261129879038
Si	2.8604367182237027	0.015733050140566442	8.54373799248457	14	-0.1516224516081765	-0.4913266567063572	0.0008206968181912668
Si	4.301509814324932	1.3197634576576087	9.83038818383054	14	0.5303467794870526	-0.21823953334268117	0.1443336251360887
Si	0.09943130815882706	2.7250499108342017	8.560561527543477	14	0.45139302020541333	-0.2117672899202724	-0.3596546968298698
Si	1.6166324527902414	4.034968501152085	9.803428912827314	14	-0.9695306489692108	-0.5624246607928161	0.800193281705214
Si	0.34079669079930347	5.375569916370195	0.3258948494426487	14	0.09594953677941408	0.5631962494993924	-0.17260189968898876
Si	1.5984417263501929	6.797004479381549	1.739258081025429	14	-0.3697791953595489	0.3728699210648989	-0.52977985076396
Si	2.8645393817626426	8.115588121687942	0.22329993668555237	14	-0.5047552826829587	0.14951954456682737	-0.16020865782481097
Si	4.202477224927457	9.421519524392307	1.630142046668732	14	0.6660967695118268	1.0015121138254686	-0.30297159472082114
Si	2.9284498595044006	5.468157641854667	3.071644364605953	14	0.7868217342667199	-0.4383847699486561	-0.026456930854855745
Si	4.450538032451185	6.840312308995736	4.347049815365376	14	-0.7236409347925931	-0.18867310771363835	0.3041077661617947
Si	0.15120374098532474	8.307087513666858	2.86631945404693	14	0.5898719814169928	-0.16195520966878757	0.42502710647889075
Si	1.6082462860555728	9.58359325390433	4.320708231623589	14	-0.4848109616040379	-0.2933718587869843	0.5183471738473895
Si	0.22157215538635983	5.460239915194812	5.657250559123672	14	0.05021060157610781	0.4634425052882873	0.9677928388833226
Si	1.543772590828517	6.951753113398129	7.130735350819842	14	-0.6547985614035	-0.8463338235595274	-1.0343255883633264
Si	2.9788365812258712	8.153375984188001	5.759454378888075	14	0.45995454381097445	0.9557904050278074	-0.8036087380124985
Si	4.296277447628828	9.59690239900662	7.155221693986267	14	0.02696395282398895	-0.5051648597604581	-0.3320649369709568
Si	2.717475343764034	5.438586000387718	8.411425459260466	14	1.7556900665054602	0.532178434917126	0.10747323082431777
Si	4.229829767714421	6.857221906300947	9.704464955347776	14	0.21093939400718476	-0.8975517842000691	0.33925194767236666
Si	0.09358561178337493	8.212812314517537	8.427525635692222	14	42.434070620488676	1.1514067826585055	8.169358567510606
Si	1.3836140186456116	9.565003808702928	9.846765066725093	14	41.54916018981619	84.10062850766496	98.93727608983394
Si	5.660025249520293	-0.00983833096658742	0.3758349189997631	14	-0.3465621143186118	-0.4897973632619331	-0.5126537182264536
Si	7.014812773236566	1.446561470745197	1.604457368427205	14	1.0591488388977603	-0.2162029608185919	0.019397446977325167
Si	8.417655712255472	2.8175515740723704	0.12451464007175754	14	0.029281547159570428	-1.1470757557467162	0.9590603367739715
Si	9.713877332664941	4.194536620961623	1.5579804872371352	14	0.452359498695257	-1.1514499772278841	-0.464496144248484
Si	8.501339808131936	-0.030828803900283187	2.886802268666992	14	-0.27758192968435896	0.48088848332762	-0.18918012968277156
Si	9.81243603500999	1.3643099299812413	4.34426205222248	14	-0.5714091312235414	-0.180176375962145	-0.6091971803348217
Si	5.632135634740579	2.7522172563822864	2.9330754328942943	14	-0.2111641086121657	0.6023318149089624	-0.08412502341205307
Si	7.016000214356439	4.067948861209938	4.33750562118995	14	-0.4476754590230112	0.7256775073166823	0.42636510968749586
Si	5.672239552122152	-0.012321063363094202	5.739899729253456	14	0.0980473016101229	-0.36548082148532535	-0.09979771011207969
Si	7.015141770684457	1.350312286908527	7.129350729110338	14	0.30532209920450054	0.2397422013561436	-0.8295745877512062
Si	8.375085403410235	2.6647682095789564	5.638689438205864	14	0.02405423293317737	0.31487786923736294	0.7646189542745812
Si	9.741981558362651	4.105539543120365	7.031392283698363	14	-0.2521686104789513	-0.2664873531173879	-0.23161519454968751
Si	8.367904108123806	0.012375533139235203	8.507448048828389	14	0.28178954354078123	0.25997500045198485	0.23386722569960525
Si	9.835134680123467	1.2304776900028043	9.953059566677686	14	0.04701420344209971	0.16043620064564407	0.15893081848069737
Si	5.621307043243748	2.7002411065930216	8.41628634208329	14	-0.09118502151064767	0.45647660964441006	0.3801538624368784
Si	7.022401502448529	4.142963547515801	9.734578026389567	14	-1.210758177868804	-0.9760540573874903	0.44583171939793304
Si	5.68191229496927	5.4472390690254775	0.20084422677366368	14	-0.1766796727267436	0.9051987656432535	0.12474205970709232
Si	7.170537505641593	6.8371345422556695	1.5916460770788416	14	-0.6181906496341678	-0.6098206733749577	-0.6456523684481373
Si	8.423763952951925	8.172180040307397	0.11930732947267796	14	1.0257450385783964	0.3516444182049484	0.7298136444452046
Si	9.93422391808813	9.710549229342726	1.3015008311130543	14	-0.49011026677939523	-0.09555872877075156	0.15973685999856382
Si	8.439811838398587	5.424607966434415	2.9604813560618775	14	-0.5523636685645446	0.7669995406905062	1.0762721432194142
Si	9.77262625441958	6.902422015938272	4.3221865413480565	14	0.6468826423438282	-0.9791149582711267	-1.257989125489392
Si	5.773430234050332	8.160158560713079	2.8906129742058164	14	-0.6959586151421546	0.11131934727272727	0.44371287150359895
Si	7.050900089325501	9.525530651329069	4.296507310084143	14	-0.10213715884288245	0.9986453313935035	-0.3498981234715039
Si	5.669193602240346	5.548684669505998	5.885905964199407	14	0.8190772789501055	-0.7056442259936846	-0.9667751953976079
Si	7.211732997337031	6.90031948257923	7.156937491934709	14	0.5487623213426132	0.16125201236372708	-2.367519030245986
Si	8.43622445894194	8.201567573930989	5.548934141080724	14	-0.19073564840146115	0.3395537954369521	1.2330427190101232
Si	9.622370287539107	9.586682779607047	7.053767378341562	14	0.48530101427805816	1.2747218789129158	-1.022043675359511
Si	8.415024822067863	5.387263487912145	8.520199423422996	14	1.390969777973835	0.7796450079865905	-1.2362146916435899
Si	9.848812040912472	6.778337687098028	9.806107736417928	14	-0.09937476328691534	-0.5398287587972266	1.0235161473763599
Si	5.745961125942427	8.153384699352182	8.435321350053522	14	-0.8945232792434668	1.2903817100863415	0.2711382255310038
H	0.09469025884351441	0.08879553966953539	0.07993439648691751	1	-0.7268843841539598	0.43177985749172776	-0.25787723562127607
H	50.096916366907976	50.08859556390468	51.92197632870623	1	-1.121253630795405	-0.9095040815018415	1.8957613132418079
H	31.90273109607466	30.11348392269359	30.05370225398332	1	-43.38642448614558	-2.1323688229916264	-8.724002549383588
H	45.89928150507945	44.12624344768243	45.96145439696232	1	-32.025482179338866	12.462007618628324	-30.025238859202197
H	55.71509139802362	53.00008789270086	53.00008789270086	1	-39.86751384276248	-83.95083205505516	-98.28087444426333
