67
config_type=vacancy dft_energy=-6738.657313026404 dft_virial="-9.405302042664337 25.32858595835171 -24.660534644266654 25.328585958351706 51.07784108049221 18.41981199283169 -24.660534644266658 18.41981199283169 42.30115261780773" pbc="T T T" Lattice="10.9185619587 7.64299337109e-05 0.0004913352881415 7.64299337109e-05 10.917917763544436 8.73484956696e-05 0.0004913352881415 8.73484956696e-05 10.918780329939173" Properties=species:S:1:pos:R:3:Z:I:1:dft_force:R:3
Si	6.888732559845828	9.519665973845592	9.584486200625808	14	-0.1538837387372467	0.14383071693546773	-0.26909239702776194
Si	1.1965739399035	1.2561336035320125	1.2148876438768275	14	-1.3683170545506702	0.7762789169014527	-1.0937055228426784
Si	2.6808847431046208	2.68840108115699	-0.01662023501353314	14	0.5454322257319574	-0.25906508627918445	0.4753464658100409
Si	4.095639939204039	4.061436452012216	1.3254053280227889	14	-0.16950937420991463	-0.2601657764667399	0.46708730419012917
Si	2.687429329142666	0.06669276015613135	2.663988268473533	14	70.37359182007015	-47.80280926634808	55.81200519881911
Si	4.090092217872824	1.4059592025854897	4.1346246646775775	14	-0.023919249903869594	-0.45616319190588406	-0.3481158332635772
Si	-0.02620564055707587	2.735198037711978	2.7272591513118076	14	0.567460427672858	-0.017571190868423986	-0.11176543404577297
Si	1.3796967855062285	4.101725945639819	4.119914086150621	14	-0.3126898586099169	-0.173422339396648	-0.12652255014129488
Si	-0.01070565000050535	-0.018398868756605367	5.477593591467132	14	0.16489758259716503	-0.38266711788732316	0.11074907611271842
Si	1.3264753470947415	1.3228645786549993	6.880628803160081	14	0.5288329126745492	0.18391424887657626	-0.24996157367213617
Si	2.7106880498270884	2.7192318245597713	5.475159844006537	14	-0.3322911942391298	0.031021157019182618	0.504033059198529
Si	4.066134709223045	4.133841803785139	6.837032077115189	14	0.15100795743666107	-0.23917090175400668	-0.32920252541803596
Si	2.7862281207383544	0.00509241729753768	8.207437166394564	14	-0.3387757789670753	-0.15348830273900796	0.4303567506970258
Si	4.168884928391587	1.392712803217195	9.590133280870846	14	-0.5737763478918018	-0.02894524658369506	-0.48176600157338656
Si	-0.020125093402275838	2.620557504570412	8.300740645756438	14	-0.24331423797742532	0.08940298841325303	0.04700031947337092
Si	1.3309945398894474	4.068674366734638	9.584414138116879	14	-0.2672645982556687	-0.13222706151510744	-0.03921681233768663
Si	-0.024681409307641348	5.437884965335732	0.028341311276197587	14	0.44460787326554246	0.12131760453118712	-0.007546965446230657
Si	1.3830859071382093	6.802130893814203	1.3645898631801714	14	0.1008222955821587	0.2200313366402924	-0.12804130205390635
Si	2.6850687360471945	8.234635304233686	-0.08715742083532275	14	-0.3398186192849274	-0.16098384607883562	0.48225836824219487
Si	4.0789279882700535	9.553157570797708	1.3110768991643869	14	-0.04686507933353113	0.33076524323162193	-0.06444963994961987
Si	2.72619568337703	5.388378021702594	2.7136884706533393	14	0.2141159946302277	0.39126052319885407	-0.05197849359424162
Si	4.092944146256436	6.787397386307134	4.084023681136179	14	0.12567511382777408	-0.37538034829949146	0.18371755931958494
Si	0.00942599453894571	8.195977043762712	2.7068720124225227	14	0.12872367340587365	0.4788753078619441	-0.08572553647384523
Si	1.422949576849423	9.560169471287587	4.113765843911677	14	-0.43523953681051897	-0.15540968974475458	-0.18916855970883087
Si	0.06117888636698784	5.4902012549608425	5.527570033264493	14	-0.44197326164398676	-0.32325067371242516	-0.32056772531085065
Si	1.45321037131796	6.843387772031347	6.829096466283605	14	-0.2542170100875133	-0.36811363333315694	0.5316639567425644
Si	2.8124545065631517	8.181485928331124	5.4830987304067085	14	0.08996811736262159	0.5568988412387538	-0.1579273160742436
Si	4.193254066827209	9.558298029767865	6.849045770838345	14	-0.2104146314113425	0.061775433306133866	-0.3225611032655614
Si	2.759715668590239	5.413095462264699	8.290863714608598	14	-0.5162452952481683	0.46010855301965126	-0.6003739182076696
Si	4.095701083151008	6.825149406135535	9.559511082001476	14	0.011060380866213006	0.3772482563145791	-0.02500939855961238
Si	0.049503668064549936	8.217024755650497	8.20128346487464	14	49.1910387602717	-1.0315901894132211	-2.7446634139056307
Si	1.2302587954022852	9.706531702487764	9.673690851828386	14	0.12493000750599516	0.22080009713101667	-0.2958894851164733
Si	5.518174610699031	0.00857543856236298	-0.030892979205945782	14	-0.3618686756210493	-0.44554735514952465	0.3349180925447251
Si	6.807476621749183	1.3738029457609227	1.3484358507622747	14	0.4922815652222603	-0.18243252088057493	0.43839454014887275
Si	8.1566418324503	2.7189108188381854	-0.01983465965417442	14	0.5085263228560198	-0.3282072505486066	-0.10145915836995939
Si	9.490470831024226	4.107950617812474	1.357301723072739	14	0.3141723579375143	-0.6253087547129977	-0.27973471616891893
Si	8.282428033639308	0.0108858062728239	2.675671129769342	14	-0.12097487619201137	0.16536398110223988	-0.16456308179501375
Si	9.589989155852992	1.3855578695656587	4.1168776340699065	14	-0.4859733583192769	-0.31512366690596905	-0.00724126102366505
Si	5.459499350589174	2.700472643258529	2.741895483617445	14	-0.2035214980480255	0.2802885322548788	-0.2858680879101322
Si	6.848464903342143	4.037685304183456	4.093626556378855	14	0.07686705020380705	0.449166185887633	0.07843825266494954
Si	5.542779590072962	0.02908814091417267	5.446888411526875	14	-0.45490335029901147	-0.24256450366607016	-0.096139027241509
Si	6.828153102530373	1.386313434053201	6.864487893016535	14	0.16757513167756724	0.3107885262256674	-0.11892904768876954
Si	8.219158242657228	2.732720616003549	5.486958442059109	14	0.03982307897217755	-0.12783458518616644	0.155798955090225
Si	9.603877566664458	4.054954101777335	6.8774176540880285	14	-0.053925334542657744	0.2985783470602842	0.06740692528885421
Si	8.188111311727663	0.00681099894983706	8.222659825477383	14	0.48350895386991505	-0.046784603737010495	0.3779499109564475
Si	9.659148419155594	1.1585413130327602	9.772656697422043	14	-0.1585749775043889	0.2501628912187037	-0.14676177700043652
Si	5.4488144458563905	2.811472927843065	8.191964472242889	14	0.015108843303318171	-0.6098327575699625	-0.22762406776122168
Si	6.831566244998663	4.1001984388217965	9.527992469195297	14	-0.09849261705157253	0.570011478371509	0.5772475971845337
Si	5.4012761189444065	5.476178545837284	0.0027187219277163	14	0.9617445707282064	-0.12057532642526038	0.03905791802890148
Si	6.827627919700159	6.859170553342649	1.3733072430479976	14	0.2883620600706758	-0.38386396741385204	-0.14011444130572567
Si	8.279211425286274	8.279460368498931	0.05062718809010016	14	0.2544455813504744	-0.28884928452884384	0.13880600580830232
Si	9.761413854173169	9.742369698404806	1.2136101721276595	14	-0.04791357608308751	-0.3263064323854211	0.2766211076262196
Si	8.228465224870822	5.440778384254787	2.7395294312409946	14	-0.8746378364763775	0.3775148799362784	0.17263686672134276
Si	9.558001044882587	6.801126386114003	4.103049275349214	14	0.462186777449927	-0.01103544114460757	0.04338688805643481
Si	5.415785795931323	8.170870902394876	2.733451067798586	14	-0.007782992914620248	0.29703774075245143	-0.2797396012690272
Si	6.822643596166014	9.559899782807207	4.003324589699427	14	0.17184419495114112	0.34308803681002764	0.15710687636658432
Si	5.512945711377011	5.448139678727343	5.483418644272098	14	-0.43588205603002395	-0.10394490299347856	-0.29826235821643793
Si	6.858258853419097	6.833106854091035	6.838706984519653	14	0.6264158726638535	0.1992665758537125	-2.5293415708802534
Si	8.164433318264027	8.190430414287691	5.376771590340496	14	0.14917707333818364	-0.05775576724861436	0.10874387107353495
Si	9.464831863832806	9.488721677398441	6.814418643442525	14	0.22190850063453252	1.335519006644733	-0.7204134262842111
Si	8.207420788551625	5.514996217312854	8.221130134946968	14	1.0236873829906818	-0.7106951623951154	-0.05895467365939941
Si	9.631052775523468	6.873269692399918	9.575198871823737	14	-0.9083697098345923	-0.80894686687819	0.9110048356772119
Si	5.5349564404295535	8.159470831853799	8.205154095088998	14	-0.8601252324968017	0.7317149768294541	0.5173207886035863
H	50.064148421863486	50.104496875725665	51.90484217925277	1	-0.5455769789614817	-0.5591470157306913	1.7998675694478408
H	45.863804932756494	44.07576484855684	45.94654688713572	1	-68.93000719993533	47.05349455938116	-54.42628176125103
H	0.07665267237485748	0.08226481322162928	0.10468389649142798	1	-0.011970037928481397	0.08049976491064427	0.11141602083276485
H	31.910809735448183	30.080848924464302	30.093338667488858	1	-48.43078579994127	1.4291560912992063	2.5743382279776332
