68
config_type=vacancy dft_energy=-6766.278971706415 dft_virial="-0.6465225587160485 -0.5943262420490647 -25.464684853942558 -0.5943262420490647 49.822570538560214 3.963361226918014 -25.464684853942558 3.963361226918014 39.98593740668228" pbc="T T T" Lattice="10.883275237224918 0.0270232805071515 -0.014039481213945 0.026968863913299005 10.892036308835172 0.007955706021235501 -0.014050364532715501 0.007966589340006 10.899513148830504" Properties=species:S:1:pos:R:3:Z:I:1:dft_force:R:3
Si	7.015969537018522	9.445490877772933	9.645278137106757	14	0.035468140780910734	0.024176360435884402	0.31259164238668724
Si	1.571988739874774	1.211721503610544	1.5082527601590952	14	-2.5431949434557435	1.9539418270893103	-3.5826331747481843
Si	2.83991170161618	2.735881322484602	0.2186611107456237	14	0.9733531112486749	-0.3818520775008363	-0.10015843618849647
Si	4.21673641597084	4.0305631000870354	1.6552787784254108	14	-0.3180341581283767	1.0463141382501129	-0.7405796337522605
Si	3.0101692521300047	-0.0638981411653596	2.9062934161249676	14	21.16176747305877	-11.288753896953986	16.802170953172908
Si	4.196785116000759	1.3535039388932326	4.3793462583846345	14	0.5492310338424761	0.5741761547690848	-0.6912984867493863
Si	0.26609496727497095	2.613600706106772	2.7475917734816595	14	0.5136235391532133	0.5144275237868238	1.8806858943076514
Si	1.5879796001442699	4.026076996089836	4.2764020344663525	14	-0.4331535990642829	0.5520003713828077	-0.28519342987412527
Si	0.2088617705246655	0.026530266166847852	5.522358105601381	14	0.9073860049391035	-0.38769851388832094	0.3729185149554497
Si	1.650906949275301	1.3124433538358902	7.003780219995562	14	-0.8215619951314966	-0.7555162129991287	0.4204703365199923
Si	2.9234857947867265	2.762771826502753	5.750347308865201	14	-0.008522185694162823	-0.01541789016279997	-0.5599378877271688
Si	4.343516196328395	4.109096040003086	7.000119071561166	14	0.40540417356498865	0.6678955147938025	-0.4558826843154559
Si	2.9308810098912814	-0.07578599025837676	8.495734121963956	14	0.12549590778695974	0.11597073390740717	-1.5858970993787334
Si	4.290756043592765	1.4183434871322407	9.669493521371118	14	-0.6613955034339362	0.06878298085619745	0.9006170559627498
Si	0.23579471948602185	2.441802077655044	8.533161855215706	14	-0.1997779687018899	0.5794083540955862	-0.28276862044669365
Si	1.5498009178973557	4.092838538423714	9.65127919907681	14	-0.4708136071306198	-0.12352361289587416	0.3819394950817212
Si	0.08410084579903876	5.442094718000821	0.11815366190005622	14	1.511091561420621	-0.13441712902680955	-0.3356346595974504
Si	1.5253874572313704	6.875418005088777	1.406601474510748	14	-0.18847976059356322	-1.0354954412839938	0.41868341832248945
Si	2.9182095618467883	8.339741337362627	0.29381151518780324	14	0.33605143576984636	-0.9275365286647002	-1.0118065624168096
Si	4.4761631738351255	9.590853924931118	1.545995021323312	14	-0.6514414691869829	0.08288755042146578	-0.317484198700397
Si	2.854427872192273	5.548546635558835	2.886077651508764	14	-0.04040569143772311	-0.5376736583178785	0.08992209457739092
Si	4.251757847442432	6.899450549597795	4.235840993740576	14	0.664102877336052	-0.7271931739029096	0.5253315814495717
Si	0.15037046212449032	8.054267532684904	2.827658173012474	14	-0.05850241623358536	0.9942235444639129	0.761526428795507
Si	1.6125193073079933	9.435594676014919	4.212217662017329	14	-0.5311080837723484	-0.10209267872084388	0.13220417867775813
Si	0.18374198247047446	5.398996775669641	5.689704368344096	14	0.022053655883570146	-0.6137590925043606	-0.04736875886574813
Si	1.5243796619132217	6.833638032660705	7.0074718417225155	14	1.0023214977802513	-0.459130761666399	0.16512204009161396
Si	3.0006713798389897	8.22744616595673	5.729482898450275	14	-0.9324751077636404	-0.46507464294551726	-0.7283694545868773
Si	4.310213240890665	9.585265340742465	7.002904112834537	14	0.5312284115013313	0.6866504425516227	0.09814886027026874
Si	3.0475784837398447	5.474038346924115	8.396785164366324	14	-1.2446291480248386	0.13747468747352964	-0.3357812126006988
Si	4.215527279255438	6.833471517883516	9.86978685502777	14	0.5640863661612276	0.414300197972701	-0.1444621804020961
Si	0.30225044056244893	8.237635128989671	8.42992378169062	14	25.534242659493255	1.2873547477929312	1.4849560187307838
Si	1.3682562774866456	9.753329902524035	9.89916093238935	14	-23.765515289240913	-14.48878885943743	-13.80142184983308
Si	5.666003765057579	-0.0064407480483819	0.04887371960268436	14	0.4348857527184667	0.4207099635358302	0.1728386984889744
Si	6.97286832969171	1.3150444670220396	1.5563385274827952	14	-0.29126895174563516	-0.31507584434701436	0.29871153031586783
Si	8.422156357084114	2.528228688675339	0.20349302937517788	14	0.5811626192555231	0.2190800276718376	-0.16156131633374088
Si	9.788584237017316	4.016412609021632	1.4913466127810004	14	-0.9196530055320621	0.2828498673748103	-0.4337542092670695
Si	8.396956032471023	-0.048807331358184304	2.9189975141257727	14	-0.10850115873131295	0.4984339631428426	0.1753583817027195
Si	9.749914717093851	1.4504220692082892	4.208773091626465	14	-0.18928220256398146	-0.7244032675200169	-0.342034654960363
Si	5.5668730560364805	2.720588082948295	2.918625304623821	14	0.6653953719804905	-0.9385226045871607	0.6202693882855075
Si	7.151595278872739	4.028169858289403	4.130923624129202	14	-0.39720697558329254	-0.6200428739068025	0.8868760406897502
Si	5.69726609822584	0.0635651116109823	5.602316760276368	14	-0.43651069128080017	-0.6360989124100632	0.47522176720201365
Si	6.9835644553793585	1.4169351856833379	6.991126185261102	14	0.7443285624195685	-0.13571142344497208	0.5247304570257211
Si	8.491832452184733	2.6866212450655644	5.684066809220979	14	-0.9996645175424104	0.645662395758886	-0.43076632777452534
Si	9.773236580887156	3.9834535664570496	7.122694625877677	14	0.43963149891839587	0.23754467763901302	0.2747516569479399
Si	8.37957646072641	-0.10960046167832026	8.342703776731955	14	0.43660710773030575	0.7640787650468179	0.2546363573652294
Si	9.9267675587826	0.9240002936067124	10.003156484900863	14	-0.9497213109195978	1.128164247674899	-1.1463568746992028
Si	5.642226978539668	2.810886978787134	8.398247882409079	14	0.27959433381843884	-0.699713457351699	-0.5861883588248167
Si	7.015672422416088	4.000117015826562	9.805691725792665	14	0.3625271356935392	0.6743021950305473	0.6084608157711314
Si	5.623430398691137	5.417193684653916	0.2866143764848716	14	0.05575519019900714	-0.27872170067278057	-0.2034155685088354
Si	6.97904461309397	6.849799761034896	1.5999349258136641	14	0.45280301436298254	0.2320679661965656	-0.7945893005494192
Si	8.439742711885366	8.346244120327999	0.2894843076446525	14	-0.2079468845250644	-0.4463629097570756	-0.20242209341313022
Si	9.927725290834404	9.765616081084051	1.4952428409008394	14	0.11224520229851259	-0.625556866376392	0.15276556503351432
Si	8.375039205130989	5.451131137575967	2.7976735414678693	14	0.6571099850863132	-0.3361082571974217	0.2189499297426381
Si	9.678520145959373	6.724642683506024	4.279526635285363	14	0.09081606789720643	0.35792125762302596	0.08524242578418942
Si	5.729351210293151	8.260123330565156	2.981239214174262	14	-0.3734201376034106	-0.637711766777392	0.09427214766854945
Si	7.083697518059221	9.497048423784424	4.37873570420161	14	0.411765088127035	0.5435537761850572	-0.01057341351857696
Si	5.769806682826855	5.36003449447125	5.492830573445137	14	-0.9337580893183944	0.6071379820839152	0.08967861090357292
Si	7.016193733385195	6.741234302971652	6.98810171097478	14	0.23065900048112445	-0.13420938371694158	-2.431336435397381
Si	8.39641077820062	8.117478936435845	5.775424651976186	14	0.7377773860638313	0.12439341782568027	-0.9916994903711234
Si	9.838263322209016	9.504888766626692	6.968052461135764	14	-0.35932688090155085	1.3757431780468539	-0.9292931078194252
Si	8.356073933841515	5.419860097752689	8.426728439299602	14	0.5608940817957319	-0.6082075618970968	-0.07134868685517322
Si	9.655201547161697	6.911831413031115	9.72943992949091	14	-0.6446707204369049	-0.4941823833854458	0.8421280094768291
Si	5.586084290330166	8.143207102009304	8.315909045918985	14	-0.4426276079479644	-0.13609606080086625	0.8422534794164525
H	45.85012360018719	44.034210301704825	45.917109338887734	1	-19.089718837762074	9.279465685411573	-13.752787850039288
H	50.059322229577575	50.075479604624256	51.869826518631	1	-0.8638669620692131	-0.4992680297086986	2.319429333448468
H	0.1341804371214945	0.057720769431223805	0.07325126531672731	1	-0.17412605092277253	0.05943058525415881	0.04732890673328584
H	31.940776405444808	30.05552112974808	30.151939715731572	1	-25.234830760088176	-1.511521707340682	-1.1156655904925952
H	45.71508882254221	43.00008388212318	43.00008388212318	1	23.394246652569404	15.070914871856411	14.879280879256092
