225
config_type=divacancy dft_energy=-22905.5427152977 dft_virial="116.59603650935854 7.734489774264483 -0.43900612753823176 7.734489774264484 150.67488490071273 13.669054425622214 -0.4390061275382317 13.669054425622214 112.01440892377774" pbc="T T T" Lattice="16.3199774331 0.0 0.0 0.0 16.3199774331 0.0 0.0 0.0 16.3199774331" Properties=species:S:1:pos:R:3:Z:I:1:dft_force:R:3
Si	1.389515518609	1.2990049237650276	1.0487707097833052	14	-0.9401205465436329	0.44236638364743747	0.3925226788005147
Si	2.7751142426340563	2.8698680316106353	-0.0417465022738698	14	-0.692161349694828	-0.43043748340407845	-1.0673555499691407
Si	4.300950532741742	4.0950576974457515	1.2061279321932554	14	-0.4246416977914006	1.0141830350642222	0.37071404925395474
Si	2.552526070424005	0.0107222251735467	2.6080139936965456	14	-0.5169235528316234	0.7240865073445747	1.2104051651083474
Si	4.140296674890305	1.319486495443568	3.8206209569307417	14	-0.5371805203174741	0.45977225244377595	0.5954962743048167
Si	-0.0844558832162925	2.5743132402971938	2.663779356585448	14	1.803365044014838	-1.1420523301722108	-0.9931930454515976
Si	1.3754803380165341	3.890666300073607	3.7872792430349183	14	-0.11880023531223012	1.0382146422705825	1.7733494462863653
Si	0.0917835530837544	0.0305346777773301	5.5161523723878005	14	-1.2191165841540734	-0.10053176068098198	-0.05897858493887679
Si	1.3759862573169603	1.390282557548356	6.8497066883787	14	1.2087820263197382	0.14289817703585	-0.05268117667823809
Si	2.725762630876362	2.6783204564783403	5.254216734586545	14	0.20856060736498372	-0.10343453858742915	0.9543207612268108
Si	3.9412255901613507	4.176918704250181	6.819188330578804	14	-0.9806133984517089	-1.680274919475941	0.5323661256054968
Si	2.8222952973931488	-0.0903310750922085	8.218887515106058	14	-0.3113431136432233	1.1451433129880928	-0.8527189065115831
Si	4.231623268605932	1.1334877126385274	9.645286182713864	14	0.34438567366510636	1.7072069905939602	0.32635065539692765
Si	-0.048633532750638	2.755252830097974	8.15736120018327	14	2.4546923561256064	-1.2866957734993771	1.7399446175248736
Si	1.4827025897520012	4.020491720553918	9.566689171396055	14	-0.8515238567587783	-0.5789944061390423	0.3978098997808672
Si	0.0998293019582727	0.11414192216710141	10.708336872751131	14	0.5055404982477318	-1.266236717135363	1.7622001051760752
Si	1.523290373628121	1.3219508120359662	12.146681763839968	14	0.08685965103056255	-0.11161656704773638	-0.035269137229131275
Si	2.953589515842438	2.8112303526935065	11.026706992516045	14	-0.03918210241586464	-1.1011843539979251	-1.4625699189293184
Si	4.355083897887333	4.149599062027172	12.325728236258508	14	0.6521950601563182	-0.0034859045930567658	-2.1307945352041
Si	2.576418517386064	-0.1113348860486082	13.701126974387877	14	0.742930652457004	0.9374296277155659	-0.7597137995448026
Si	4.01145045305598	1.3851580846343625	14.847344269424223	14	-0.23182859629125985	0.7580780623401244	0.26981796294910776
Si	0.125500626460539	2.536140813081173	13.479061041455685	14	-0.6766760965726402	0.8246393510891818	0.3301116682592403
Si	1.2483477138126853	4.125233335719553	14.78226019942102	14	0.9604667313840928	0.15888505280599877	1.5852396677483718
Si	0.0166626969591951	5.504956867868693	0.17744711463009633	14	2.22032093667272	-0.2850710452608863	-0.26232113405662005
Si	1.493767534451643	6.7953611635264775	1.6937362179394173	14	-1.9461850594489556	-0.450067358302345	0.28398243926833555
Si	2.3821944659547407	7.827730295989517	-0.0758062951767495	14	1.1543177881019773	2.2933524119599302	0.10387856847621874
Si	3.938614393772055	9.419499294926926	1.163630710957463	14	-0.5526814571821148	-1.718735569738972	0.8563325950390511
Si	2.9157271681976464	5.286497649949217	2.8311570451393218	14	-0.40899986435521574	-0.4703608354837417	-1.6799694721639074
Si	4.188293728521051	6.636486183215249	4.0787050800577855	14	0.6005976043705226	0.6509038510645397	1.1158334836700008
Si	-0.08411316369019739	8.38014521212252	3.0573029724297887	14	-0.3629729653560529	-2.644378993556447	-1.3680530020342911
Si	1.49327793512865	9.507431333336468	4.143185310895963	14	0.45920095284163903	1.4247361041433397	0.46982038914544655
Si	0.0982625841246951	5.514438774757324	5.229328769001068	14	-0.31207587865946557	-0.55495868516417	0.6469806014565259
Si	1.31865417659448	7.081205568267224	6.683226598583647	14	0.431576225950372	-1.3866806600787638	0.08565303130381706
Si	2.979701479735398	8.20232273801146	5.400900691755248	14	-0.1906412888362117	0.3421608962315823	0.9358661385703838
Si	4.18238589669027	9.768028732988208	6.966933086280657	14	0.042367187686464074	-1.0389618054766174	-2.118051880126914
Si	2.5848559457189766	5.527886436162198	8.215998879100399	14	-1.1118757812506967	-0.09831392523182225	-2.0635732437193606
Si	3.7960920308487927	6.955019502754494	9.364713130684008	14	2.6462589857665395	1.065085521081982	1.3657629185256352
Si	-0.0415506625446726	8.305040675975393	8.182820364978907	14	-0.32871787206518804	-1.929250988478864	-0.018304212995198205
Si	1.2623828944051512	9.632197560812518	9.44162918432621	14	1.5554971214048985	0.047060483337862384	1.4566496918191456
Si	-0.0023337567729333	5.185640189412658	11.013422530885503	14	-0.3332509878551411	0.5787594071127808	0.07065320286607317
Si	1.3964025490857683	6.54873366455747	12.366772979502754	14	0.4155027039309343	0.7316668971599672	-1.2268059888350402
Si	2.5945989722465375	8.209878887562986	10.95871796652975	14	0.020959393459315124	0.4571394405959443	0.28874155521592965
Si	4.221553842529709	9.668052551233039	12.340595735700061	14	-0.9266045029861464	-0.6865375710280681	-1.0603955678674999
Si	2.965307259639404	5.274094467100061	13.558882051080976	14	-2.5625926475436005	0.3985030697751792	0.8579197383531786
Si	3.910152353128728	6.760550651661675	14.926447200042457	14	2.374474127247518	0.22276005071656554	0.5472355990035093
Si	-0.046560895616634304	7.90797562502807	13.57969002230818	14	-0.8829520197501403	1.2730043805590567	0.21109108922107345
Si	1.1451075365708947	9.41736137788319	14.990992710790367	14	0.8549115451286053	0.28313808828119896	-0.739995221512991
Si	0.1358638121305575	10.851544674726584	0.2395283087856087	14	-0.43310114851575177	0.8819654866387995	-2.0651393039698624
Si	1.5418461879695557	12.44603910989532	1.185140441214289	14	1.0882264974054427	-0.5059341344722466	-0.22864119702587224
Si	2.818133703147708	13.930014657887103	-0.3668894126735211	14	0.23121127390389226	-1.823224775728726	1.4223429193113457
Si	3.9086019552725837	15.061935652692053	1.3907231969390497	14	-0.1035985751068546	-0.03781118905916168	-1.7671669664335372
Si	2.876918261861734	10.943262947900607	2.615162143812243	14	-1.4407810868937236	-0.09377541012069686	0.2566865567475155
Si	4.1035277657335305	12.327245994159785	4.050814238624617	14	-0.9405244671894283	-0.12310400850762598	0.5579889898944966
Si	0.0480623335404795	13.631261150996776	2.4317582374190656	14	-0.6201225781717271	1.257828945627947	1.6194315118483609
Si	1.3061041139484262	14.963509868793027	4.160451847020183	14	0.4276012971254231	-0.8798983179614005	-1.1109892641363097
Si	-0.3215198754095031	10.463782010916129	5.481358180500431	14	2.837210607014893	3.537025365916205	-1.9235914714481548
Si	1.2123132036404005	12.033551680273717	6.830873434420903	14	0.16120933201541263	-0.5506986207592167	-0.7539807489019364
Si	2.6360680349040444	13.475421686488103	5.567805100963562	14	-1.7422809809292918	-1.465596624112197	-2.180318651659728
Si	3.9165334643050707	14.795609940961295	6.708343043853188	14	1.1905271785466867	1.4584587215224016	1.558038144792801
Si	2.81451066815756	10.97724114091632	8.266215449662047	14	-1.2752620681406788	0.45295085291889103	0.3056293462902583
Si	4.251974280465007	12.261509125059257	9.609496472203075	14	-1.0243712970058412	1.6671692243275504	-1.7797772095867355
Si	0.1106168070415518	13.62897635415614	8.055377661203828	14	0.043584348945022174	-0.010843379577192508	1.5670079599232014
Si	1.5303895638115192	14.988120394762142	9.596717929872957	14	-0.9735793685168478	-1.4815482757394596	-0.44926131678447856
Si	0.0076214294612577	11.05314535595767	10.805832417936472	14	-0.4149162348074085	-0.3933971117198971	1.0060220896675405
Si	1.4016086218869273	12.301427789860622	12.350501962001953	14	-0.6405561805930718	1.4184533511830255	-1.355794743199421
Si	2.937612257935433	13.64260353531278	10.942479588983817	14	-1.4630684562508953	-0.7591358150688333	0.22059466581593684
Si	4.0965264954147305	14.994240386299554	12.343109012224758	14	-2.219008644517316	-0.8143549298085896	1.2849386801235883
Si	2.6550155287038733	10.958358927026223	13.595226640824489	14	-0.30589417013823356	-2.456369231015407	0.6420227390676844
Si	3.990038642663753	12.179566518367665	14.89935603750351	14	1.3738966102059238	1.6199277351751493	-0.10387599737089859
Si	0.1718330423931099	13.749124028018624	13.917693074925113	14	0.1919504956652311	-0.5523032475895211	-1.1503518581456489
Si	1.2102895264386961	15.376144178211527	15.328653043881207	14	0.029182302494212713	-0.4217031815210034	0.02583883713589215
Si	5.22754989146086	0.11215088492026319	0.0622117539749772	14	0.7817846818340177	0.4291699284812454	0.11747894428820602
Si	6.9631794914710445	1.242260362230139	1.3259165665522095	14	-1.0733541957915782	1.5623015516346703	-1.6555920512919873
Si	8.373959940675373	2.8110181929868765	0.2418947055134082	14	-1.4496115481157723	-1.1535492847217848	-2.1582192301014596
Si	9.537623291587703	4.388800971264118	1.286813900622502	14	0.7699365142977114	-0.9743797536030099	1.1857297531298223
Si	8.19790002412709	0.1817229487175685	2.7509933159879343	14	0.22554044400977366	-2.514739492435537	1.1836864957319009
Si	9.543270003779556	1.3481770157709578	4.124678456486828	14	0.539192667341022	0.4585643471643703	0.6128913444588105
Si	5.63202421216281	2.746978601539392	2.52190979275951	14	-1.3796756836340205	-2.974273917637199	-1.6578397115628607
Si	6.710399361009759	4.005917980706159	3.984147130810404	14	12.274948907945205	3.534459402806698	3.7470214213814277
Si	5.166562135793365	-0.0894171563559549	5.407396042773622	14	1.7553069718127583	0.5564445269286835	-0.7875092478293274
Si	6.644140252631373	1.4041382183890578	6.655580556811976	14	-1.1120999816346135	-0.14527850634124312	0.6302301074062933
Si	8.074243555116492	2.688128762915633	5.376045366124637	14	-0.48250442302133306	-0.7800404439848293	-0.39383831339283454
Si	9.343203400427184	3.8678183316672667	6.841057100339157	14	-0.6774579697004973	2.3375952209774424	0.42595039039935595
Si	8.0340637706762	0.2108214684807858	8.12344828707729	14	-1.268177644541543	-1.855208554579772	-1.0867398843093332
Si	9.243145618784848	1.3066589931811514	9.529936582216713	14	2.341936532310512	1.9646486809740031	-0.1158411501992717
Si	5.360394507766294	2.813710989263338	8.190278594665832	14	0.8050513852076336	-0.29670066884498003	0.5166296754935304
Si	6.9299520174172535	4.3516730226038165	9.606379356513354	14	-1.814038730640901	-0.6167217771647672	-0.7134439310928858
Si	5.523072042819434	-0.20661091430304598	11.230445590790866	14	1.643100336094048	2.6461535704484134	-2.2599306139033253
Si	6.999328241485362	1.2055893729379632	12.454949817573793	14	0.1005027071908643	0.26953282736910333	-1.0568091330564253
Si	8.103684794405805	2.747223401200889	10.804216740170594	14	-0.5176609458374419	-0.0856242349242314	1.9978228815882775
Si	9.506452134690482	3.999047270206824	12.302602828235804	14	-0.3830306721795921	-1.4435879625717294	-1.654040903452342
Si	8.265105691196597	-0.2729026626362982	13.906562850315739	14	0.31300507612216705	1.489661398577187	-1.2322474761346014
Si	9.57845587512532	1.378058894450964	15.0588022170249	14	-1.2511039625525675	0.9844705706529953	-1.0415388243390018
Si	5.529077794514815	2.6691812691158043	13.516972349032775	14	0.5708249760948038	-1.1734918060269814	1.2938267341048082
Si	6.919768351498998	3.8907152600059063	14.929401115957848	14	0.10054667309183885	1.188401131557456	0.16248948535431434
Si	5.649698747722858	5.521227885369494	-0.11969071449435541	14	-1.6607612585381453	-1.3551293411425667	-1.6702758908858848
Si	6.888303435007982	6.761921529766055	1.1959769062298673	14	0.5609542456602234	0.7898895771347205	1.894078781920303
Si	8.206729131918397	8.195925306857687	0.0141820603893639	14	1.7587607375893133	-1.7644086846460822	-0.6211150248253042
Si	9.571617804580852	9.56197269791789	1.2476133148281958	14	0.6720254812695562	-0.4857671556726011	0.6608393733531881
Si	8.19336307040069	5.497302798452569	2.721552076698622	14	-0.9253611164533229	0.5939122163170735	0.39274816473709173
Si	9.659664082832425	6.8025256336196085	4.092560740898487	14	0.03756590561161955	-0.12558486803103688	-1.0140786481882245
Si	5.38769783001187	7.942427097389344	2.5535215890474245	14	-0.25733910327776904	1.2686872376159963	0.19132777395669123
Si	6.584947694481519	9.377638552811025	4.12916645028093	14	1.036264715995782	0.09926137754229682	-1.1467212003230676
Si	5.430244011179961	5.31215265447405	5.6378830840612935	14	0.9110416024832901	1.1561319600158737	-1.4492976161561821
Si	6.874464094144713	6.783153820406518	6.702320972180374	14	-0.08309478151026971	0.34055318407489366	0.9947501068334793
Si	8.214285281469923	8.069151722157365	5.288031727827928	14	-1.0815537077680624	0.5384437043612629	0.4007486731617965
Si	9.480421770684687	9.363276972669896	6.7633087278478685	14	-0.14632031821696712	0.5040153185718199	-1.225223987731553
Si	8.282290627433651	5.729323917618952	8.296586927665047	14	0.17030795952235264	-0.7606316841440955	-0.5443611032555836
Si	9.438871108140015	7.079965249982308	9.985949391652394	14	-1.8080886787090142	0.4009628462349648	-0.18875949685239532
Si	5.528033315959096	8.28007111050275	8.084410901057314	14	0.4298114192586224	-1.019420633711896	1.025513639099583
Si	7.218064899021201	9.221586928595721	9.677877177647764	14	-1.2643209865613207	0.39377892085993915	-0.09786038225334812
Si	5.382100077752317	5.728605838611895	10.830589823702484	14	0.3506314027088101	-0.08550416430578048	-0.43299521897656174
Si	7.064885590834124	7.0755914960302375	11.95849610405889	14	-0.7579304808947479	0.29768231685621255	0.5575603866376279
Si	9.398185404399296	9.26591198730402	12.195250016680873	14	-1.0240141704768726	0.3926877437620682	-0.1178134450903573
Si	8.132424274665494	5.339113257193532	13.295640815085074	14	-1.8777214098735207	1.179994388492168	1.8367829854134627
Si	9.472979860975194	6.590121127327812	14.738228900306515	14	0.0291977291261336	1.7981374726779131	0.4242092378765517
Si	5.464352764015141	8.193297790490956	13.70998872213405	14	0.8324141164667777	0.07628058108028127	-0.2806094061988333
Si	6.981572106038148	9.543139443960092	15.123984206892699	14	-3.002785932974449	1.0470042229180407	-1.1646140364670423
Si	5.233620923065972	10.87821151785227	0.0618363944940159	14	2.2892430143267375	0.6340397141591566	-0.5928912303944427
Si	6.657294154442451	12.337935579378465	1.4887899413345476	14	0.016046011192512144	-0.45171312281777176	-0.6684922683386089
Si	8.146067775799565	13.713856556785695	0.1219591913575563	14	-0.7096062992920327	0.37938021684604584	-0.12587643137434165
Si	9.674352062522216	15.124849165696654	1.5320705214871286	14	-1.1075239283858143	-0.7883327728633708	-0.976810219462146
Si	8.030391775753753	10.665252132327748	2.6037871195413724	14	-0.4123286744132114	1.3248872290353888	1.52385118579292
Si	9.530132421945911	12.115641166762211	4.0881217070366835	14	-2.3103713294055863	0.6488449099241653	-0.6354494512061938
Si	5.143028728334834	13.802343474427962	2.690250359981936	14	2.921749321272958	-0.9800616392500052	0.6941326161437855
Si	6.767356082251278	15.011686442175538	3.9973173525989156	14	0.12454048504999272	-0.13373758589069443	1.088961319305941
Si	5.451019342452298	11.033740902789713	5.387763109921602	14	-0.34758901378347884	-1.1589763738315535	-0.20861665746096297
Si	6.566571399891848	12.1443806470219	6.971829079510588	14	3.399820901611824	0.40533218261602444	-0.6539866063433973
Si	8.32602816695436	13.730405013902857	5.5641004660862485	14	-1.286686260409693	-0.980458875021968	-0.6500942099992252
Si	9.619990217692559	15.20463753536708	6.934162571594992	14	-0.5411125116835767	-0.6821623211047722	-0.14552507534144532
Si	8.286403261746793	10.74970801554404	8.068580522947206	14	-2.1318990820496357	0.32722380276365	0.4436632491709201
Si	9.617819660693955	12.101034786959586	9.299514820838775	14	0.640051729729259	1.7581079339485277	1.1913378480541295
Si	5.499081675992777	13.758426415155489	8.07538595353681	14	-0.7889601225614871	-0.20329626922198052	1.6177613218323925
Si	6.81290513926706	15.028185939360403	9.611405909562748	14	0.23338051546250121	-0.09952028784803571	-0.8216504411545098
Si	5.530350752754597	10.885441267855132	10.715158623318167	14	1.878127387403572	-1.9216659706738954	1.6827305821672143
Si	6.811599541072412	12.295373078232942	12.170345731117962	14	0.22539054856960902	-0.23580481066886883	-0.9649252851197615
Si	8.273249359935713	13.593415123329416	10.752090732249274	14	-0.5679409672571938	-1.5539606288655778	-0.5546504096362842
Si	9.501458221595954	14.743810332588636	12.264691520658713	14	-0.37534718104086157	1.1195129924936646	0.5331397711963294
Si	8.047707271810273	10.878293117739435	13.551179021732555	14	0.9210365173048337	-0.30294434100442763	-0.20394418776265788
Si	9.402444918509335	12.276441904410545	14.951775805018627	14	-0.32928660056200476	-0.32271639802689833	0.5449267464260162
Si	5.4604522894086305	13.63829506127044	13.466462018877332	14	0.022156500096376073	-1.093316771718272	2.0645114400506825
Si	6.545110629567322	15.116313817499142	15.018034913397015	14	0.6751745710656737	-1.9845981442635638	0.7330748344332804
Si	10.856342748091915	0.2067904340548101	0.0676952663924988	14	2.1603046536266315	-1.5461002456808215	-0.026332746467892593
Si	12.183271153244977	1.7128958714458766	1.2385557273528252	14	0.7189538097939631	-0.41837437146300765	0.2196700963428116
Si	13.815578976126206	2.886024809269404	-0.1248315073857819	14	-0.749302108550863	-1.8143835158643327	-0.15759512926688043
Si	15.175555335581297	3.9537430128525384	1.3313674390148649	14	-1.0873309814224352	0.9238043121819732	-0.4395741632697566
Si	13.506788683114522	0.2081776321366236	2.4999267831571244	14	-0.4324845974599803	-0.7416612977604469	1.1779986965426692
Si	15.0260153823618	1.280285909649262	4.012201172017903	14	-0.6585017243961095	-1.1232781191244896	0.6895082261149672
Si	10.657924462460286	2.7983049305664918	2.6878023633669716	14	1.4523001529490511	1.031126362013466	0.1610892613969617
Si	12.261003205758833	4.132561005587014	4.0242779553183965	14	-0.1313045489262383	-0.9045747583820536	0.6247719079221508
Si	11.019003963167624	-0.0486824926829373	5.400982291642413	14	0.055789900120829135	0.40381548758766916	-0.2437479834449343
Si	12.30258650825837	1.3733913809050975	6.850587967160088	14	-0.20673615102980666	0.43446486277755836	0.05433439739909331
Si	13.813767458631132	2.6615271996996803	5.397163416923068	14	-1.294898113691714	1.0763073673623005	0.669868581016484
Si	15.182589245854961	4.064163980164893	6.868082982968371	14	-2.1928437912268297	2.3045138372652247	-2.559187989878661
Si	13.53309648673668	-0.038808906335911796	8.375330818779753	14	-0.5418900139323893	-0.5162884898175469	-0.12883474515570403
Si	15.025933782474635	1.3270752849499596	9.485154564140288	14	-2.044457589885124	1.509334468044832	0.41398266646566273
Si	10.735003715876818	2.8499902990971195	8.242845241977848	14	1.267954986820818	-2.4960691540427495	0.28198597598724057
Si	12.20556424241859	4.116306308063647	9.56386581530013	14	-1.0460115191539314	0.5458397459252008	-0.1317668336628009
Si	10.500355080343706	0.0654757494615972	10.97329170637751	14	1.7092263367124045	-0.5178458083099605	0.8244334055530381
Si	12.00776611592942	1.2710161624672611	12.448846146013814	14	1.1959331845928298	-0.5543580749613833	-2.1338610925194406
Si	13.348419622103718	2.697088430526405	10.9530712543379	14	1.4012971367132736	-0.9262710306261231	0.9012222941551125
Si	14.796279060036051	4.00028758849174	12.515399013985995	14	0.38953428308690663	-0.6184133073548926	-1.3300435807549458
Si	13.663411506539981	-0.1503722720685834	13.492639262680024	14	0.2908210651988654	2.695215916388543	-0.8282440407480295
Si	15.077570191072963	1.2702164835730392	14.846006031274708	14	-0.632312445605081	0.10748377235613035	0.6329505939455419
Si	10.853192992447328	2.78908414331679	13.587327771746871	14	0.0834051139224116	-0.6305995752407985	1.9743610313208624
Si	12.233145004280532	4.033808822139327	14.99779814137997	14	-0.14371321742233695	0.30599315769305924	-0.2738926506604784
Si	10.92922776730814	5.512398777578187	-0.1240481484689931	14	0.024765914885794355	0.37458716230822575	0.030935539212021686
Si	12.197991772889633	6.784084059120206	1.3836403267330841	14	1.6370019313851887	-0.39025907767665635	-1.604485162401276
Si	13.72883829606928	8.298904364460547	0.2566642850903637	14	-1.447475988036857	-1.01136381808068	-1.069237084842425
Si	15.022343387439353	9.655747288248481	1.522490694733899	14	0.2926563201763871	0.004707436730659118	0.6583844819935107
Si	13.648527687120996	5.300826590135478	2.435071192837985	14	-0.9340882192415015	0.09468223896711309	1.1475853488211694
Si	14.67939538166019	6.658991432095493	4.012037972243571	14	1.5799537323206791	0.8164717208186675	0.5276244931740798
Si	11.062888382485228	8.185741640939431	2.6234037324159587	14	-2.2726663269961467	0.5980982328888066	0.9941081018350382
Si	12.201794327631546	9.596342570391997	4.018631243126544	14	1.2430597453374204	-0.5419848877187028	0.5768385343280982
Si	10.649535994059672	5.274535106490755	5.551680963259659	14	1.5969451389394098	0.2647847671743859	-0.43656134205560715
Si	12.000862765475219	6.63638826335065	7.01901013426968	14	-0.05491855252783095	0.9258449984745747	-0.9986052221505092
Si	13.398130273364941	7.990228311290894	5.502916870689556	14	-0.7659507868304178	0.27586983065167237	-0.060686055981987126
Si	14.755136396927206	9.385357902136882	6.878103449112294	14	-1.1589028402193973	-1.770769599208129	0.2517441209905948
Si	13.572998831560607	5.4454052702153115	8.194962428189134	14	1.1840734470825829	-0.5153857747396429	0.3152527363930405
Si	15.015635876714349	6.7306034930719365	9.64584106194659	14	0.7147068580261425	-0.04724560292091304	-1.045946984410396
Si	10.577156894143874	8.150327289909605	8.315713941216641	14	-0.13314957410397654	-4.294143120419255	-2.7167715491716007
Si	12.070859148685784	9.646967140389474	9.375582235654454	14	13.569462127170494	4.46300046231998	3.815812115553586
Si	10.580094490081832	5.367820097498354	10.929358327127604	14	3.4257754384871224	0.617533475114338	-0.40888699283166124
Si	12.43182440955109	6.665274623407237	12.065375636268262	14	-1.0939672613642693	0.6752295927195249	1.0690856467390684
Si	13.705631288159411	8.27948359131516	10.714717983927475	14	-2.525176380261614	-1.5630852245362516	-0.7967336023864227
Si	14.844798352944657	9.55076087342135	12.076832260426299	14	3.2592331198166584	-0.2780138753781438	0.2925354782263402
Si	13.633709147611741	5.478387944607606	13.900589738575224	14	-0.4006026343796121	0.5858055212426466	-1.434102126603575
Si	14.971930977148507	6.809657463757873	15.270717123993702	14	-0.3029903637896583	0.8532686088290308	-0.9540690500159681
Si	10.901989724972298	8.146834814738922	13.521819382330406	14	0.3140445740031029	-2.083849751605644	-0.40503084907250314
Si	12.146077924674943	9.321742630102657	15.042939198959925	14	1.1231932726489247	0.8356701642442133	0.0701868043609983
Si	10.9042092419032	10.922275456921641	-0.1238849486946621	14	-0.49933102178904226	-0.06495074837651674	-0.0794967767252545
Si	12.22193317978399	12.255274893679815	1.2340187736264234	14	0.6859259050724049	-0.3686545938925161	-0.30225168523117973
Si	13.473757048789926	13.73983796085919	-0.1248967872955143	14	2.11335909869658	0.22495320355465184	4.0666746045299025
Si	14.793194584301196	15.058785897047466	1.2447899587322693	14	1.2825285259964814	-0.40077824087297825	0.4343905578338061
Si	13.626495717586309	11.023736756623224	2.7157421647324385	14	-0.8335240626334857	0.35074144601651247	0.3853415816413412
Si	14.988446794310804	12.445957510008155	3.969948750443607	14	1.1678813971078865	-1.9728394511923986	0.1055449018342067
Si	10.79292331578689	13.369194953376056	2.5895071392874103	14	0.2009586202649019	0.9330428078183293	0.8810411742762063
Si	12.183744432590538	14.764226624357443	3.9070678773938723	14	1.2598176955930813	1.0895968965410818	0.4894973152710719
Si	10.755158888006696	10.769422548283226	5.368782976166907	14	1.5739386314241928	0.2612919205969647	1.1033816206045235
Si	12.345883408388385	12.284128613781535	6.537815599654726	14	-0.6648708664951803	0.0839051939071804	1.3867390241695312
Si	13.872144017909331	13.720074468187706	5.43987279786549	14	-1.7994471937279966	0.44323516013511544	-0.40263843557210544
Si	15.010609323664953	15.047312952911996	6.968614043956268	14	-0.2430239601867806	0.6596918890488059	-0.6141748402346284
Si	13.601313992407038	10.873935683764797	8.10466399305179	14	-1.5150760033352544	1.0478665716424185	-0.9469846264168321
Si	14.946798211901532	12.236523239609182	9.359360178085952	14	0.5666063064855048	0.7304060271109666	0.07201486024362358
Si	11.039436574913864	13.822531286512707	8.224795346936839	14	-0.16815543014832468	-1.9216163483412165	-0.8231884763570224
Si	12.123132036404003	14.907369146423163	9.961355185660711	14	0.7240106597376303	0.707665371885853	-0.6759039936449996
Si	10.719924056728633	10.689258819131839	10.912777230055577	14	0.30287389271865556	1.4583651332887484	0.46794733891971874
Si	12.223646777414466	12.104886301633798	12.399853573759648	14	-2.8692527499567064	3.7946398345737626	-7.406154235383171
Si	13.671098215910972	13.285000189798692	11.020929720504729	14	0.4612516664449891	0.3993523058624241	-0.1691041680114593
Si	15.039169284172878	14.810020481034721	12.19223082085575	14	46.47475880643732	25.81889538591855	-79.75153521012243
Si	13.59491656125326	10.600543421805506	13.556972613721305	14	19.103365750580355	-14.801671036725292	17.521238920043086
Si	15.040654402119292	12.158138387998005	14.819763507562282	14	0.2656332319300348	-0.3928278690020163	1.6444529946029778
Si	10.839712691087586	13.557853892502692	13.705892407798341	14	-0.07527013668946309	1.0719822539927473	-0.6739165292325253
Si	12.320081524066655	15.037945285865398	14.765956541965352	14	-2.787102592541059	0.5851807426498506	1.6980140035217708
H	110.85196649237857	109.05410392242274	110.9357189845675	1	-15.445977174427801	11.485135949749024	-13.93620407581535
H	163.87311375192132	162.10023217142233	163.96128079800587	1	-0.6188277695325005	0.24624864047931033	-0.4398986367611593
H	70.82992605796147	69.10043766545937	69.0006948593815	1	-10.637019321760508	-0.794133957797221	-1.249949279153289
H	111.09440954913373	111.0290610954961	112.85667498431248	1	-0.5843854997743289	-2.0496507084107582	-3.466961460389511
H	192.11824883917987	192.106504983419	193.95969227687303	1	-0.20374029911077016	-0.6505402967722709	0.13751145427960776
H	113.9194302827582	113.95150393440748	113.86303333674265	1	-1.2487375172159032	0.39409979480389357	-0.14558806742178892
H	126.05262521724745	126.12026989170991	127.9084465550592	1	-2.8417519503418704	-0.8639800907032996	4.798343301463594
H	108.9297032624412	107.12580393283287	107.0682874363654	1	-10.352616506772327	-2.271464078148446	-0.8063899026373027
H	-0.8610224253974363	-0.8638229335249563	-1.004411379122396	1	0.11962298901467751	0.4163879354926613	0.5117489462642935
H	128.9253720928773	128.85283468918038	127.04477050133114	1	-45.51229972554064	-25.809928656114533	79.46154384061037
H	14.71497946045532	11.999983118691574	11.999983118691574	1	-0.2531836828593457	0.37137585176336085	-0.051298179126530445
