224
config_type=divacancy dft_energy=-22858.02522919015 dft_virial="132.30846491043144 -51.543310337784206 -38.58464764581477 -51.543310337784206 92.45868142434742 27.51371130225972 -38.58464764581477 27.51371130225972 120.19987771996784" pbc="T T T" Lattice="16.3199774331 0.0 0.0 0.0 16.3199774331 0.0 0.0 0.0 16.3199774331" Properties=species:S:1:pos:R:3:Z:I:1:dft_force:R:3
Si	0.1946483708445837	0.2641061947998573	0.1367124509570787	14	18.497403534959343	22.247685374997253	20.47056128899038
Si	2.540139207552283	2.281696044921711	0.4612841621465715	14	47.7227589306474	31.7404908383429	28.809667057953014
Si	4.161414725688736	3.923828494217666	1.337422150642545	14	-2.607012348607139	1.6795485822229992	-0.5597293710857048
Si	2.4185227357208214	0.3612590204591016	2.584578506102614	14	1.117000508374816	-0.2392714319720245	0.6516762111027125
Si	4.026024192903738	1.3728038617175058	4.178371182241727	14	0.2869824049558843	-0.26159171147729404	-1.9965694677447055
Si	0.37997803457486734	2.4052382740902782	2.552052791078445	14	-0.1743145129427394	1.1319247463161477	1.0975855778813137
Si	1.2381314079395647	4.231215269170105	4.013164050686456	14	0.5897825069518516	-2.1666218593982354	-0.2562062742737118
Si	0.2356278341790978	0.163036574556669	5.556576956489589	14	-0.46047570685936845	-0.07971686334065918	-1.3251996183317871
Si	1.5632579983617827	1.421486354400443	6.871624418071353	14	-0.9969584291929544	0.7514019302658278	1.4164052086849959
Si	2.6817966116715906	2.7531475530091036	5.379342001566123	14	-0.5896328686222191	1.0540701345588717	-0.15537652248612469
Si	4.0721281291522455	3.96759867369324	6.765756724462834	14	-0.7454858169241672	0.20093033810638028	1.3916614053049547
Si	2.8802638572355197	0.014443180028293501	8.154766323771408	14	-0.13914693437375397	-0.4695046574121324	-0.8197043715376896
Si	4.230448230230748	1.1798690885033976	9.508998051170046	14	-0.8126875680084736	2.5289425353345667	0.48022822348140604
Si	-0.08440692328399321	2.615945502729032	8.45906862298899	14	0.3561317683202029	-0.16505442002169407	-2.6443129161497194
Si	1.4006947031506738	3.9065945980483128	9.55146263245097	14	-0.7411162234325755	0.5534851847051931	1.3675490653915419
Si	-0.16266121507570772	-0.2394467088984432	10.784159487905315	14	2.308963135021741	0.1637822371092848	0.10684305291034948
Si	1.5047998391964186	1.1434918588050178	12.074955463021492	14	-1.4197453316064002	0.23391247715323985	1.4220526415207009
Si	2.775913921528278	2.6431019451777105	10.906004439420839	14	1.60254217811084	0.4017699161949594	-0.453454532451108
Si	4.165249920385515	4.459890792962702	12.02987968535127	14	-0.8979706172567213	-1.7740672988917505	0.2621761237165636
Si	2.771115848162947	0.0031171156897221003	13.851809326027688	14	-0.8835441453053704	0.832175260782536	-0.6548353282095782
Si	4.07509836504507	1.411841247737481	15.208766489657656	14	0.5242301199304203	0.05198646402073408	-1.2189972848672184
Si	0.1672634487118419	2.8642702793510817	13.476564084908421	14	1.9878583058095118	-1.7303381967172045	0.9453344910223612
Si	1.628570548049049	3.9138569880060423	15.136958588952014	14	-0.0135327557420674	0.7531523387677846	-0.7122031156653823
Si	0.2156848217558496	5.349786522434778	0.1699236050334372	14	-0.19292545880263123	0.14586574679636494	-2.435172524535042
Si	1.3822531286512707	6.801089475605496	1.4108294091366287	14	-0.2043594212718618	0.7758449143234116	1.088924295389331
Si	2.5692377273155	8.197540984623563	0.0280050812751996	14	0.859803073000187	-0.3649671146423597	-1.2730804852765332
Si	3.9677618734675715	9.41793257709335	1.3509187719797187	14	0.5332639555832925	0.5680402119225514	1.2146030087645532
Si	2.7026861827859587	5.524426600946382	2.826799611164684	14	0.5368640172525639	-0.8814597502223265	-1.434481878859361
Si	4.0163954062182095	6.726866218239756	4.283455516933458	14	-1.0442420844726055	2.3163674041227034	-1.2842426819134243
Si	0.020595811520572202	8.045846794382898	2.9719658104321085	14	-0.39493180448549353	0.7939763490410959	-2.4281400372633732
Si	1.3982303865582757	9.527145866075653	3.9690511516847864	14	-0.29982456180895994	-0.004475265920249746	1.1327819528298848
Si	0.06758102655046709	5.5736150129297455	5.391679904505547	14	-1.2059391551672503	0.5216662137051685	1.5117248246609736
Si	1.366651230225227	6.8998579790306165	6.944754236949075	14	-0.5541667847255644	-0.1595995629744679	-0.7493301335988526
Si	2.6427918656064815	8.385710324427206	5.596462981336085	14	0.18915210463478194	-1.5104194744899344	-0.8667404293750107
Si	4.0398472137895745	9.702128664113351	6.809510583960975	14	1.4393952611261638	-0.7760932830973379	0.5635307503015438
Si	2.5347372950219267	5.3339724643021045	8.190490754372464	14	2.0418060089684547	1.1676371421024723	-0.46529550089251803
Si	4.1519001788452385	7.145375719534173	9.158281736132727	14	-2.633248164404462	-2.11503597358638	1.449367293110358
Si	-0.070012703187999	8.216765918039755	8.253241067602733	14	0.511775171538559	0.38113473911651485	0.8424869357795218
Si	1.5245959718227688	9.587187063052028	9.768273532649706	14	-0.8471653190200633	-0.4326645748323907	-2.806702899728144
Si	-0.14018860615032902	5.127345230021626	11.00787373855825	14	1.7401045402757869	2.5452857663020882	-1.0586950388087542
Si	1.427002506772831	6.631149550594625	12.398352135835804	14	-0.9569340326742091	0.6868746429355396	-0.9618592420254848
Si	2.7808425547130744	8.164117670840573	10.896147173051245	14	0.4044837178603756	-1.6138714965935406	1.0011177062693577
Si	3.768560228919153	9.717567362765063	12.350893641460347	14	1.7904848348030244	-1.461151954345257	-0.5806280864594644
Si	2.913899330725139	5.442108634773826	13.727810137490994	14	-0.23354275220820256	-0.009818022775517455	0.5416025643575968
Si	4.327078816612134	6.822076966584462	15.051392947270271	14	-0.5933470873677049	1.2023064404604131	-0.15348033231251548
Si	-0.0868549198989582	8.190376514530433	13.633252188243613	14	1.9070626066765184	0.16403651942544745	-0.5096966899977512
Si	1.2370542894289802	9.681859252141441	15.026896661143187	14	-0.656047090146964	-0.58444180698084	0.4048143620045467
Si	-0.08582676132067289	11.169245675416741	0.09839314394415989	14	-0.7333509711446642	-1.7382908825829542	-0.12818862638875084
Si	1.2008239395274982	12.615913754996459	1.4015270219997618	14	1.629469878349815	-1.1909192721080093	-0.8605345524637693
Si	2.9040583843329792	13.571056754246069	-0.0657205491230937	14	-1.1852289018134574	1.2401222575091508	1.4664486884152939
Si	4.032699063673876	15.078125070305688	1.5196183787056734	14	-1.105590971406127	0.18835480487500403	-0.9577069069334456
Si	2.520653154497161	11.036237859336977	2.688210362802799	14	0.7546260963372936	-0.3441648157181057	-1.2418978628432453
Si	3.8241460720562914	12.155853591157369	4.23039927029845	14	1.3277203299876603	1.0286272476422822	-1.9096792205608333
Si	-0.19138437535796368	13.73621492586904	2.7769584000839966	14	0.24909331140552216	0.8579469920695721	-0.37921515188449234
Si	1.2370542894289802	15.021282588906201	3.987460086229323	14	0.3836405383615312	1.6418266105184467	-0.130952050386846
Si	0.0418933820707677	10.80966761263325	5.390227426514	14	0.08522751337333255	0.16690175919422046	0.32130254721134893
Si	1.476680518079187	12.210101196144993	6.712504638098629	14	-0.46754496093711556	-0.3175412772385043	-0.14321905097980447
Si	2.62472565058804	13.734338128464236	5.274730946219952	14	0.6471248404649862	0.3432528446610491	1.9778381941558307
Si	4.198412114529574	15.001665976031614	6.746123791610815	14	-0.13914513460002986	-1.5077997752792354	0.07939650361776872
Si	2.760246743192502	10.941353510540933	8.262559774717033	14	0.2239124201210559	0.705513613843421	0.36632697224618604
Si	4.136184040577163	12.467059240829153	9.583221308535784	14	-1.4084260404344482	-1.546648919556141	0.6064638382689724
Si	-0.0036883148998806	13.443891490087353	7.9748548925489136	14	0.6010614317702772	0.9722310808869621	0.6884293903226331
Si	1.4605563803752846	14.919103210197562	9.291501711919121	14	-1.6261585518079962	-0.5371884907439666	0.9012654887244911
Si	0.26413883475472355	11.028551149965987	10.872287366044054	14	-1.273217268079565	0.2550649606220981	0.20841559702492737
Si	1.2666913684474896	12.306846022368411	12.424659939457959	14	-0.5611064550951761	3.143558834352665	-0.19171986751801384
Si	2.6256558893017266	13.67235485417332	10.918701381863793	14	0.30396532692705847	0.32807740972993915	0.550391887894523
Si	3.999226789958588	15.082613064099792	12.353880197330604	14	-0.35890341985532254	0.7058517141930205	-2.122062547315813
Si	2.5034192583278077	11.006486540476436	13.640840977750006	14	1.558524855029905	-0.19920564065762494	2.0995936579230388
Si	4.225813356639749	12.163344460799163	14.978132568573086	14	-1.1561571568480111	-0.17613125596195603	-0.566346881958702
Si	-0.0666834277916466	13.814844577141717	13.97416019684364	14	-0.7482754661965277	-1.8307210904001496	-1.691270251377554
Si	1.319649695217899	15.143600819767286	15.275613117223632	14	2.660364583773936	-2.0280755352272677	-1.346228174524214
Si	5.487951451383403	-0.134639813823075	0.07445173704980221	14	-0.5060194951688755	0.5141261902433023	-0.6343122513230922
Si	6.746841870617871	1.4333346580168738	1.1389385851011828	14	0.7624700244480013	0.08492746538247127	1.5079681826777052
Si	8.208214249864811	2.8182316230123066	-0.0327052347759324	14	0.5342332622889885	-0.6293155652439164	-0.48704910878522695
Si	9.446982136924266	4.23877141872163	1.4439263233709556	14	0.4510194386023958	0.1546334730486019	-0.23499465538249015
Si	8.267896407337657	-0.0238598070071922	2.3829615048940966	14	-1.1236429589694186	0.5829359105948294	1.3210729942929493
Si	9.451502770673235	1.171790699674013	4.099937370698248	14	-0.28695437990789474	2.1326902111566453	-0.6823592677722955
Si	5.414315713205256	2.802907164202626	2.6619515191129413	14	1.2675456668538505	-2.3869951530461075	1.9499013350786976
Si	6.749322507187702	4.195474518591616	4.0082517374790925	14	0.17333852136321118	0.031283152651305705	0.85703939189156
Si	5.535442585713724	-0.0262588436898579	5.339749736313422	14	-0.9821313790327243	-0.6017011227739301	-0.9451840813611325
Si	6.541454954622307	1.4063740552973925	6.685070756033587	14	0.7789960610037852	0.5015624840963987	2.1886078952118857
Si	7.949917967031137	2.7782639982786446	5.613957997144368	14	2.130228377812603	0.46031218456100703	-1.5909184680689827
Si	9.572156363836143	4.114674310320337	6.980576587414729	14	1.465041008252513	-1.548893237390098	-1.7243516350897716
Si	8.010546683195104	0.03100795712289	8.026148581621147	14	-1.005132487226769	1.1880871995978661	1.5084379236196963
Si	9.40915242923434	1.4209151551902848	9.423530329352902	14	0.928384479199285	-1.1869330304196517	-0.23397161257560325
Si	5.436723042220902	2.804800281584865	8.31323330464681	14	-0.7759127915038635	-1.1990650479833023	-1.2629870971212278
Si	6.703120651074596	4.256184834642747	9.464134433206453	14	1.4591768312383193	1.1655869427201864	0.4681993072410932
Si	5.573925092500974	0.1343297342518461	10.91427866797942	14	-0.2738096039586377	-1.1491249266868742	1.999705187793158
Si	6.853101243684785	1.4539794294697452	12.376271206368818	14	0.41196769122626264	-0.05634500175944911	0.2788538554862362
Si	8.158927918016849	2.78487358913905	10.762992477174585	14	-0.5858075781269027	0.5052882728158253	0.9638585335224321
Si	9.828608489219876	3.941617269619745	12.01055683207048	14	-2.0984590291452574	0.2373202201445641	1.7479857494136366
Si	8.31803137801214	-0.1954154097839394	13.77200463637983	14	-0.7764203276940608	1.5335897614140448	-0.2599852848732655
Si	9.766576254996663	1.3135460236579197	15.063486050548198	14	-1.6538817520330247	-0.7577469039748893	1.1241931755079302
Si	5.192674099686324	2.9072244599550006	13.516466429732349	14	0.4084506762588322	-1.6182524029485408	-0.1536963051594079
Si	6.793451726166805	3.8987773288578578	14.749146965209258	14	0.7284586719414865	1.5185583083808631	0.9115717644003046
Si	5.597246340252874	5.274779906152251	0.0600085570215087	14	0.06711227661916525	0.6316344451321579	-1.1209049889139928
Si	6.872440416943008	6.91877283287558	1.2291227803964935	14	0.46545979452247543	-1.0547949291486214	-0.3964207315763913
Si	8.135427150513184	8.444527523096099	-0.0823342861499895	14	-0.269874784376683	-0.7944851707839532	0.6577252505894247
Si	9.725988471120544	9.425129687141345	1.276564954794515	14	-0.6075377889611984	1.4662715392587355	0.40379517585563995
Si	8.125406684369262	5.705007151243633	2.8016342059628436	14	0.8341483270052176	-0.27118810497421464	-0.463871879876752
Si	9.671887745929817	7.122315591421203	3.9779292194083924	14	0.5841859820014853	-1.9083034221040218	-0.6875513578558026
Si	5.477474025871353	7.868008000294408	2.6798871743119177	14	-1.7092515335445417	2.0556411266961714	0.849071022283357
Si	6.770309998166669	9.477631054543627	4.0089371765312825	14	-1.285715153930273	0.7255846904146249	-1.0005538628726496
Si	5.266652557390567	5.42480945869474	5.499032716060478	14	2.262649557779382	-1.4745841798693065	0.40462204332659957
Si	6.89213862970476	6.912375401721804	6.535155443333131	14	-1.5294384547641338	-2.7583386088824344	0.9045392771286356
Si	8.111045104228134	8.117850534817736	5.195056816391558	14	-0.21869821853179558	3.202560302128891	-3.178436135131005
Si	9.31071032535788	9.496529588411157	6.801791234635119	14	1.0388684743534962	-0.6612492075412196	-0.7327303063203805
Si	8.232514696262696	5.583439639344472	7.945087253710939	14	-1.521091875563337	-0.007927231923080556	1.9478616772282242
Si	9.27275005784849	6.908605486934758	9.59825200775167	14	-6.56139984182181	-148.77017380976446	97.07405674240819
Si	5.63391732954505	8.163464871743251	7.922108725485135	14	-0.36844761991424424	2.220544365725041	-0.6043347059533577
Si	6.734373407858983	9.480633930391319	9.507366053426736	14	-0.721139249316089	0.8690161146938737	-0.342556332229821
Si	5.364800901673231	5.911405905840049	10.666329250838332	14	1.0350742942325537	-1.0611563579317318	0.00793006013893272
Si	6.750970824908445	6.956357740904009	12.26604607878566	14	0.1508660324229889	0.6851041798120856	0.42002939195758693
Si	8.080673626225135	8.60831481661469	11.107768320426255	14	-4.940849642048653	-4.273596646474356	0.7814468385949503
Si	8.140584263382044	5.369060415783269	13.4149724900759	14	0.36272613924531866	0.06146972888356825	0.1873595300055747
Si	9.244206417317999	6.977965391025434	14.900939075314522	14	0.5802964138731653	-2.115302854318612	-0.36151746263431705
Si	5.5411382578378765	8.641477010758749	13.63728322266959	14	-0.4176030398669632	-1.689671023868422	0.39269391441483664
Si	7.214654023737682	9.942946251116174	14.784283876622723	14	-2.268308303478496	0.08483310581722184	0.4207621569738292
Si	5.433654886463479	10.870100489068019	0.174297358985508	14	0.40639867710282185	-0.7317738551412855	-1.301188579967988
Si	6.645658010532651	12.130541306158632	1.6197088003028757	14	0.18384020104335602	1.4584674632804904	-0.7484073638994514
Si	8.029396257130333	13.310230874910266	-0.0297839588154075	14	-0.1372846827903707	-0.6181189157957356	-0.009798225264552313
Si	9.444615740196467	14.83897212100104	1.0531281437579432	14	0.9014806902397875	-0.7199562837582888	1.2539139235569574
Si	8.188108037667233	10.85768098624143	2.7075821760158885	14	1.4071811112384325	-0.3515953100933336	0.2753697506669035
Si	9.550059114391726	12.445272070955966	3.9816828142180056	14	0.008339380105900294	-0.4168435353553915	0.1898272768918528
Si	5.298019554016985	13.70568024809171	2.8348779999940685	14	0.3683290919589854	-1.3121728561167247	1.088301573680791
Si	6.968924123527496	14.966235305024355	3.989908082844288	14	-1.2203520002604045	1.195139741491032	-1.3257945721028692
Si	5.352250839027176	10.884951668532139	5.3244905574134735	14	0.8558032044536328	-0.13097390478206725	0.5938998750115368
Si	6.806899387571679	12.172826367687794	6.71824927015508	14	0.6547098582699551	0.11529838986618844	-0.3109062828493302
Si	8.14887481191806	13.783444940560432	5.441994394931793	14	1.1102415867092108	-1.7164948514524632	1.2064600611051122
Si	9.475427857590159	15.066733726057386	6.995754166427512	14	1.0185911951356164	-1.7659626607015801	-1.2336636409449389
Si	8.18756947841194	10.808704733964696	8.17952372953742	14	-2.3935481291755685	0.7019534043066119	-0.5033589153835862
Si	9.540952566984055	11.985799426304467	9.470042265037238	14	0.44177374387114327	0.7705502371376307	1.819671765286813
Si	5.581807641601162	13.429791029585155	8.224501587343044	14	-0.1839841829412843	2.235892836044197	-1.284152950337751
Si	6.733851168581123	14.968846501413651	9.640488109348533	14	0.9350516124049609	-0.28179134331450534	-1.512062925010573
Si	5.194681456910596	10.850222756554503	10.898921569214872	14	0.9584299017494713	0.25119930377325544	-0.08880957730536286
Si	6.8199227295632925	12.01481634618052	12.2259805341874	14	0.23399192430763244	0.9389455514123252	-0.1424202085568345
Si	8.213958881921261	13.565034682573256	10.740895227730165	14	0.15969032299226912	-0.9804653027852686	1.5134788327103785
Si	9.624608771306127	14.878319586592246	12.290428125070711	14	-0.8540553670569961	0.3406956233096299	-1.8004406688237016
Si	8.977293186399649	10.269770119191435	13.297582892399612	14	0.02658214368394696	0.5577547621998311	-1.0989721749804697
Si	9.439344387485576	12.098913189893285	14.749228565096425	14	1.1641939178577299	-0.30110625781105377	1.0728186345533914
Si	5.2132209512745975	13.671636775166265	13.51441011257578	14	2.9129556268569874	-1.8862834477001456	0.8939640638363345
Si	6.756095297822439	14.796752339381612	15.02490562389635	14	-0.08904740454747655	0.05005813503062303	-0.9235047784121759
Si	11.022431158428574	0.0027091162538946	0.36870093016859523	14	0.47779441518535387	1.5303329423050132	-1.3949395645881435
Si	12.457903733489184	1.5757101411432382	1.5675827923815544	14	-0.8558376572649227	0.4131629980895995	-1.5312672819783553
Si	13.947623913537418	2.7472723611331875	-0.1817229487175685	14	-2.170070740074682	-0.6427341639097693	0.11457102417111856
Si	15.249076833917412	3.8776919180142926	1.2490331528648755	14	-0.27232864729423234	0.2090794564185896	2.120200552842962
Si	13.550868942161324	0.1915638951097278	2.963756861783259	14	2.786160025330693	1.553399613684722	-0.2065818847105978
Si	15.194404909516527	1.6772367207545533	4.318559788392056	14	-0.43557249494947814	-1.4959459513112248	-1.0953458880369327
Si	10.912842509965309	2.8811940959492066	2.809990034408591	14	-0.7290649385759774	-0.9794929107531886	0.003455565550279018
Si	12.41044523911373	4.068292934455467	4.134176683352892	14	-1.3987409438039824	0.055809183410730254	1.2985112879981178
Si	10.830328704063554	-0.116687838646665	5.397114456990769	14	0.35764820623802623	0.3879615379625721	1.1910596544584893
Si	12.274581426983172	1.2059647324189244	6.830090075504114	14	-0.25067531250900926	0.10415341963494258	-0.6645258241612164
Si	13.641412176960163	2.784073910244828	5.714554338041997	14	-0.08640945048900461	0.03550259359220072	-0.7296048706932086
Si	15.082254024596262	4.167632637090747	6.893411587944542	14	0.16988526980772028	0.024278176206562266	0.9243301032199435
Si	13.609392381236422	-0.3095573319510408	7.949575247505042	14	0.09778890552544801	0.7248948628572293	1.9101965269512469
Si	14.854900418975747	1.1507542487627473	9.578880194538579	14	-1.2944422567184517	0.5966429872776028	-0.5276558606589856
Si	11.175169827224957	2.6096949513721546	8.335461113910691	14	-2.6492237273112025	-0.3577903883622304	-1.5754283298466865
Si	12.316964408376933	3.9169088237860317	9.676995898866377	14	0.42679062761798037	2.684766687256929	0.2430201035288004
Si	10.92069241911063	-0.0608245558931637	10.777158217586514	14	-0.9924150289817206	0.8367921946059258	0.9433807080895805
Si	12.37922512228421	1.1542467239334306	12.261362245262362	14	-1.866877258964732	1.8906065041854425	-0.2682153930030595
Si	13.6435990539362	2.717096722859386	11.073512687794178	14	0.13957399496743056	-1.80957606313672	-0.5923492413929554
Si	14.905280189311727	4.0002386285594405	12.437389521855778	14	-1.2888683574949025	0.899632836846197	0.0008839460090669096
Si	13.743330436029872	0.037503308141263805	13.6130806961363	14	0.37887499465063673	-1.4541654898588188	0.03722214883031576
Si	15.245698598588758	1.3413226252490558	14.752166161034381	14	-0.0003329581389591762	1.2511232458424686	0.2585441803413225
Si	10.91690618434615	2.7030289023120537	13.743787395398	14	1.452369315682163	0.013312412016130709	-1.6943663764040766
Si	12.224642296037885	4.161561605485634	15.067255965335244	14	0.5348732104031733	0.24614322516118425	-0.8949351703157543
Si	10.793608754839079	5.64881746894147	-0.057462640541945095	14	-0.5028320959034879	-0.7773770359836878	0.35807603816329886
Si	12.342994772382728	6.619480766729959	1.397479667596353	14	0.7164888911235371	0.002457205354465519	-0.028511758226718094
Si	13.742971396526345	8.018641392001921	0.0584907991202304	14	-0.41092767912426276	-0.5837962024349509	-0.4016845554983304
Si	14.91766705218345	9.423138649894506	1.4045462178248853	14	1.2091741198810604	1.3693123294200995	1.123753516498185
Si	13.814289697908992	5.230715967082881	2.8217567381378563	14	0.5214396993264635	1.0451316869133769	-1.3186659254922266
Si	14.832476769982668	6.946076155121156	4.214160892752515	14	-0.3672787954357049	-1.6524316486324613	0.4212087579679389
Si	11.175414626886454	8.231568137571577	2.6003436043029886	14	0.12942764204253018	-0.004533372900485093	0.82273390493642
Si	12.410722678730092	9.544902001522868	4.182630696351766	14	-1.9557940513619452	-0.769028657009167	0.8886981830301393
Si	10.815020565231306	5.54526721212845	5.35853403033892	14	-0.3108741440328283	-1.5957230925807433	-0.4782561857008525
Si	12.163164941047398	6.544849509928392	6.831722073247424	14	-1.2908504225862047	0.7994363482989624	1.840710863011053
Si	13.390459883971385	8.044133196752423	5.761898592575419	14	1.4093007304643625	1.4943243551858074	-1.5935420239376616
Si	14.896173641904058	9.532743618335207	6.800877315898865	14	0.9034100476720265	-0.8622008858217572	-0.2960170119403527
Si	13.565507961918815	5.455278856562337	8.28976517709801	14	0.7618575871607421	-0.8494592591866994	0.20677780293599307
Si	14.884145818535863	6.85833995644081	9.67675109920488	14	0.6068117088187883	-1.026433580583132	-0.30677863036836445
Si	10.603366777901433	8.084476180967046	8.166647267342704	14	2.5853029637259364	0.2094142143312729	-0.7570833016917591
Si	12.047701100708217	9.537900731204067	9.603213280891332	14	0.7418381898064731	-0.2693628773074416	-1.7133465329879418
Si	10.840920369417637	5.556381116760392	10.820242958009898	14	1.0996131515367826	0.4674516298139942	-0.9092803953389885
Si	12.137281456838501	7.076831814315153	12.116408205701566	14	0.6992208335723585	-0.9329186234313661	-0.9414066134247708
Si	13.636467223797935	8.398913186170583	10.863800977778842	14	-0.7204859314542393	-0.9202842118881583	-0.35140350563645056
Si	15.28155358900928	9.489479358160057	11.963538977085719	14	-1.2649681337704022	0.59465063776502	1.716982333021163
Si	13.395208997404417	5.564165745995981	13.375771904281594	14	0.9801554845941908	-0.46221968759802484	2.2976009063909433
Si	15.116836056777002	6.725446380203077	14.936369746321782	14	-1.3666265528026729	-1.1895717558097196	0.3416271347671195
Si	10.774481741287486	8.01831499245326	13.589465688790606	14	0.010673686626062735	2.7690390350038268	1.5535536228933986
Si	12.414100914058745	9.434840073714039	15.042710719275862	14	-1.20523724341485	-1.248319455490847	-0.5291429879761592
Si	11.074932525830857	10.878864316949594	-0.0005385592552923001	14	-0.9683109166053323	0.7030407247465025	-0.6615263726947317
Si	12.36233394564095	12.265213759936573	1.4112863685047556	14	-0.5732508139643635	1.1480915994587066	-0.7683640262839088
Si	13.677218207448384	13.690062029688233	-0.10937648875663619	14	-0.8492060053126648	-0.07518631865602624	0.9225583545438294
Si	14.768453498512617	15.080703626740119	1.5216910158396773	14	0.3258996835237737	0.4179151720528292	-0.7671178115352331
Si	13.512141635712577	10.917966982879301	2.827615610036339	14	2.40013041590568	-0.17852881167299411	-0.7951086638240891
Si	15.09671352460199	12.226078454051999	4.0238862758600025	14	-1.6973825400551423	-0.8590260849724384	1.043744575593157
Si	11.09547937741913	13.844465336182793	2.6589486432652505	14	-1.789630199394607	-1.3397788139391547	-0.7044661455359927
Si	12.388201109872416	15.073522836669554	4.086603949135405	14	-1.2433307398381637	-0.9895608449658244	1.030637852002638
Si	10.719826136864034	10.838847732283632	5.376828725041426	14	0.11810809376004627	-0.18122358715904133	-0.9089541220738618
Si	11.990581179692365	12.3542229168567	6.518411146486771	14	1.474767499678633	-0.3547207457205056	2.208982619321399
Si	13.610110460243478	13.591179286421083	5.358338190609723	14	1.2235003187249256	0.0771773826159489	0.12636879804315004
Si	15.224041988535035	15.019471071411127	6.633042667976865	14	-1.5554600974882884	-1.5764500871009133	0.35049564834790625
Si	13.66630014254564	10.849814757118676	8.120265891477835	14	-2.2600517129639046	1.403438353223893	0.5833244046087037
Si	15.09455928758082	12.169366532471976	9.519263316975465	14	-1.239831465497442	0.4785354077386205	-0.05988258556944085
Si	10.81825192076306	13.487955429156724	8.282535427095148	14	0.4223487860668925	0.5234212501967016	-1.0001705110694155
Si	12.26193344447252	14.829849253615938	9.608615193421688	14	0.8014873190128444	-0.6498445556726389	-1.0146391491480167
Si	10.59509254934285	10.473280237782193	11.077168362739192	14	0.2671663820324391	2.6503511569940867	0.939879119754071
Si	12.051781095066492	12.11727316450552	12.285189412314688	14	0.1854183454888629	-0.5923183881291136	0.22860828687777437
Si	13.599012875588969	13.424454396964533	11.030248427619028	14	-0.7397064863855384	-1.0232207273750749	-1.414271448379805
Si	14.90998034281246	14.774916209576123	12.217804225493417	14	0.8149596537798884	0.8716874931215075	1.9456700670533302
Si	13.579020903233422	10.559466038606393	13.423393598431382	14	0.4520555940464155	1.243542856027076	-0.7373847782814446
Si	14.664805321834999	12.069537230513703	14.87892342575727	14	1.6540617294054354	0.9661709856473731	0.07490349707080995
Si	10.859084504300677	13.696084101361048	13.730111254309062	14	1.4130100641097403	-0.7603131241949291	0.5187963459468193
Si	12.288551327665905	15.236233011677562	15.067288605290111	14	-0.21080132565149282	-1.4326180846127856	-0.27273436771375176
H	138.53087996259572	139.26464736395857	138.7837351649532	1	0.028179314308822947	-0.07355392388826423	-0.08844936545001011
H	139.15127574472632	138.11424399471062	136.9239741845891	1	1.8959706012148676	-1.3756429049393681	3.6874751363878624
H	113.92779590319041	113.94605142994708	113.86006962884079	1	-25.66798821581044	-27.54991826798251	-24.675534106027854
H	188.81048970107526	186.90733063672104	188.80330727900696	1	6.114993994605888	148.30520303947387	-96.39235027827668
H	2.1538388137198323	3.9502962336186678	2.0633314828713467	1	0.19601695583957732	-0.15873978535541036	0.0753521549491758
H	205.05974451196892	205.08507964493606	206.88078960986846	1	4.992918381439631	2.2756614075835873	-0.4170078289853489
H	1.9249723461912678	1.877681947583374	0.06700003535384874	1	-46.88868773680179	-30.73299036311627	-28.833492205402163
H	135.8624020845073	134.09683022190057	135.96777691479733	1	-0.04036841041058096	0.07328215805592457	0.06840399993200763
H	201.13046840928408	202.97794534263426	201.11435732756212	1	0.5531213733023923	1.0126794526729999	0.5305851209502302
H	0.8177597972200314	0.9727506229021823	0.9388393417939437	1	3.3064928638168323	4.432382197504465	5.588669195171144
