67
config_type=vacancy dft_energy=-6717.160966933447 dft_virial="-27.540895588362222 41.32009244929384 3.822758898854801 41.32009244929384 -19.13245917000842 9.506152659984062 3.822758898854801 9.506152659984062 46.04342195233415" pbc="T T T" Lattice="10.834211144900001 0.0025027027744719 -0.004864560804060101 0.0025027027744719 10.823474441655407 -0.00035752896778170007 -0.004864560804060101 -0.00035752896778170007 10.834698684401522" Properties=species:S:1:pos:R:3:Z:I:1:dft_force:R:3
Si	6.822139161355243	9.380202587935353	9.607518422229843	14	-0.1433566051144324	0.4052113406659775	0.3158425479534825
Si	1.414686871035348	1.3321529339546143	1.387461581849329	14	-1.587473444050516	0.16590288477734294	-0.929828926168144
Si	2.7751658500283036	2.778429114425147	0.13888483608758762	14	0.8885459735951865	-0.1009557359482744	0.38783966757039706
Si	4.177265534555507	4.110956912085375	1.5711426307577345	14	-0.01878141014261769	-0.06989858345460971	-0.7547649360245815
Si	2.7254519887688153	0.01563810036654866	2.7619145263769767	14	21.422973775848575	-75.04075681387873	14.44427839835609
Si	4.158622024017363	1.3705071248286749	4.039438117475661	14	0.7411265078538561	-0.35963952730848087	1.3158266538871872
Si	0.16809278591312352	2.747743378199447	2.864006381416483	14	-0.165678427282894	-0.48847812912216515	-0.026227845370830553
Si	1.4969889559975809	4.137524564654899	4.195423672434359	14	-0.0005011084268968606	-0.0052314279949052965	0.6483332599654559
Si	0.0014972879802251802	-0.00050704108158132	5.4983123186654845	14	0.9239272110162762	0.12338271632433004	0.03509404495682919
Si	1.4473140978982144	1.2632495179152794	6.866715439689819	14	-0.2036968474308596	0.2462581535689949	0.08756773343573133
Si	2.798660920317134	2.607115317538645	5.491705616709324	14	-0.13198254939916135	0.7329169685666233	-0.09630820597157473
Si	4.19906505080016	3.9779496355438955	6.857881223922268	14	-0.4449385174097136	0.3788731948769127	-0.41545076760346733
Si	2.7678885104022743	-0.014918708746527301	8.298283095110037	14	-0.5239912642461785	-0.3883544028554907	-0.036944469455739766
Si	4.087211571519098	1.4151375742189758	9.546666991913398	14	0.09203734292427676	-0.2277233124265794	0.830580404152448
Si	0.11303224145362722	2.4981838250033626	8.407489776608399	14	0.20430182851269044	0.7287306948843582	-0.7960684574401004
Si	1.4894136755650667	4.0736590567979425	9.548710324135326	14	-0.6896858894925895	-0.587773959475752	0.14417498793783554
Si	0.11463028759749998	5.378848889476244	0.0581374604246479	14	0.5020635925232956	0.35171718048550865	0.1703714658237603
Si	1.452122320804321	6.809772992754454	1.3787584600366307	14	0.04027585061905563	-0.33688010301453014	0.5794865156973187
Si	2.676922306787465	8.200205315299714	-0.014463671878441503	14	0.07254862170808633	0.7361956420708762	0.1890960545388027
Si	4.1077835716410345	9.4501536721924	1.5027170034298896	14	-0.3398232472745036	0.29905554420770364	-1.4730230047189126
Si	2.8468016541183823	5.5074520591873215	2.8498731529779615	14	-0.6299801959691748	-0.036670903849676015	-0.2621061896518556
Si	4.150095499846326	6.803655997142044	4.256184095377187	14	0.1788396583062	0.06682482704437268	0.1298269346987492
Si	0.12391195628533581	8.17571999811224	2.7842665873900194	14	-0.8013338240252317	-0.4405758659024863	-0.5066213909243221
Si	1.400666318392733	9.53621197815857	4.118471520935478	14	-0.1249066104475818	-0.12300399251067226	0.6550358744245498
Si	0.13341139261718413	5.44820625896255	5.7047018741336	14	0.10698317815029754	-0.6995296233213084	-0.9832294981149595
Si	1.4636520883047237	6.7861446616685415	6.983378225298102	14	0.006105346693223628	0.49731656077070624	0.4281759391644761
Si	2.705604797372473	8.156960561514847	5.528564686445389	14	0.43144689935276853	0.3578577513216183	0.2900739019928304
Si	4.141300287238897	9.473792837489457	6.905702348494742	14	-0.5365408293138213	0.07418770134968074	-0.3404428836566593
Si	2.8935545254719695	5.37525734848171	8.275892030936872	14	-0.03943021407925893	0.23883254429387518	-0.5813068582639834
Si	4.164363072503045	6.79390195684829	9.612644087522495	14	-0.04292100377242397	0.03765820829261287	0.25070847976763916
Si	-0.08294347026201093	8.156579197282547	8.320703411653293	14	137.62620733803556	-62.090498866059605	-21.70312166864244
Si	1.097779694520336	9.763367466128116	9.703937484313881	14	0.985125431178037	-0.7687676898191721	0.06948463549806586
Si	5.444524794015514	0.00359587467899231	0.07460112768043793	14	-0.018173600844934683	-0.06589408691847908	0.055229399161036856
Si	6.908104293105566	1.305478022694756	1.401898168199908	14	-0.5276064954368388	0.40645626986199324	0.14669132871466448
Si	8.312354568545032	2.6640740157907277	0.10770072614922192	14	0.08618704987881182	-0.531657271868732	-0.10494249185769602
Si	9.67203289933438	4.030322212218342	1.400241617315853	14	-0.7067176624648464	0.1699060957608135	0.8909522710643132
Si	8.192454520646653	-0.017993457869449923	2.799776844065058	14	0.8706423388088673	0.12471454888016675	0.26483747483344894
Si	9.544767754699697	1.410733467388574	4.2151950243526874	14	-0.39834340413479796	0.06374078621285506	-0.8684756683555784
Si	5.586552634756236	2.7341388592647964	2.802502731589115	14	0.0032380500401944907	-0.5182222181288302	-0.4786907024999575
Si	6.948834426483703	4.021904030158756	4.166802936852877	14	-0.3470058870968693	0.30946672098057926	0.48521796757621743
Si	5.4653568152049266	0.03231628500300772	5.549284031838895	14	0.0854226602671318	-0.28267683198676435	-0.7078710603114649
Si	6.867863866071179	1.2933577906869564	6.903101054398852	14	0.3418636764565731	0.5452766738600884	0.2280585845603267
Si	8.233305997189612	2.7514985157822696	5.611334809329081	14	0.07352229929282642	-0.48076584160384905	0.18402146396842645
Si	9.660971169755436	4.015598519272423	6.966310009060426	14	-0.4295846477693853	-0.3130223025278121	0.8809887237276753
Si	8.193176079108902	-0.03892623722251121	8.350779181791536	14	0.7567912241273903	-0.16480476569510766	-0.31685762033387693
Si	9.749500759283759	1.0600647221038249	9.82855691458698	14	-0.5160005260216903	0.3940314034023777	-0.06849758816566101
Si	5.499522500050369	2.672709965494328	8.224017827975091	14	0.6529062278878712	0.04201443203653976	0.31824833120154505
Si	6.860385010117854	4.002651636954267	9.65719328032921	14	-0.5436327091183857	-0.02141422199044932	0.16078278564280005
Si	5.536539749269149	5.477553970111856	0.19081971063178024	14	-0.033602289650079276	-0.585307755252666	-0.27735824352150606
Si	6.901932043016317	6.739278031097933	1.5888153959772953	14	-0.29345464837829305	0.6316601561853595	-0.11318545551409075
Si	8.19986620449088	8.177945345081403	0.2375975006710005	14	0.44469091996738325	-0.3324750282695204	-0.40720420439962435
Si	9.68510654192293	9.638187907138827	1.3258333385937942	14	0.02187959205339612	-0.16651635050673028	0.6164512968850876
Si	8.279694839048732	5.403027598488317	2.8831049288227133	14	0.7546595207064555	-0.4583859124551521	-0.6033373741996724
Si	9.644377491965907	6.713815468065189	4.2437735065107045	14	-0.0861538826201819	0.7963800754049023	-0.13164881992860614
Si	5.452055654182334	8.15707973783744	2.847771316015851	14	0.4449760555473878	-0.5919185812518306	0.29128283571436403
Si	6.858128243936372	9.438480893104884	4.186471363765328	14	-0.37274136579889144	0.606110568397984	0.18368850582946727
Si	5.5629600565671025	5.383012476819229	5.533223397237696	14	-0.5244761747095585	-0.3481849959966892	-0.2772371444609271
Si	6.873188880848897	6.726972534079556	6.889950488911172	14	0.12579107067771275	-0.41170980936265184	-0.2291435910054292
Si	8.16085112673698	8.069567480735625	5.542564654086828	14	1.002977900968485	0.08128729447020562	-0.33615582264584437
Si	9.540267223390105	9.488206671996632	6.816296271284798	14	-1.1589887151370903	0.25678477297074515	0.13283075704427819
Si	8.190423106056985	5.382043898342875	8.368424861483232	14	0.5393446196654428	-0.49312848731471703	-0.9411857554777703
Si	9.513405963698554	6.727350648048512	9.675274495308933	14	-0.42295685247510756	0.24700223144864575	0.7755669778383038
Si	5.50083994012559	8.082976983869667	8.195506517926171	14	-0.4596850919734229	0.33454862471021984	0.33088865628698905
H	31.862988109231793	30.063336797532514	30.064895840516268	1	-136.50094792515137	62.266695170986154	21.807364819853056
H	45.84948124227066	44.059353202167756	45.943297926837694	1	-20.61303266254308	74.95004718974178	-14.08799647748519
H	0.04628266658989832	0.14173748388203977	0.0779315641863802	1	-0.18476168519009709	0.040552244440971545	-0.1102693078599788
H	50.13033158616145	50.07815835897207	51.94362967021884	1	0.13548619461892714	-0.17677351807092903	0.24060403585945722
