68
config_type=vacancy dft_energy=-6754.598431401074 dft_virial="-13.666195224351457 16.019014067980507 -22.507198958414886 16.01901406798051 39.08692036260577 14.974113829498908 -22.507198958414882 14.974113829498908 30.603382499601842" pbc="T T T" Lattice="10.9198319835 0.0 0.0 0.0 10.9198319835 0.0 0.0 0.0 10.9198319835" Properties=species:S:1:pos:R:3:Z:I:1:dft_force:R:3
Si	6.8284548549141215	9.551249441007945	9.55863124742879	14	0.04879675076055838	-0.0072587445398420575	-0.09778736286225591
Si	1.366529614079157	1.3617139681744335	1.364301968354523	14	-2.2482760505976267	0.6359780704600162	-2.1990946624811736
Si	2.7274245948548277	2.7287895738527657	-9.82784878515e-05	14	0.42224799873834273	-0.18820542365590343	0.19929074424372187
Si	4.095635863059444	4.099348605933834	1.3611679765752585	14	-0.149930150086455	0.7012823458180534	-0.1460477810530314
Si	2.7296085612515277	-0.0001856371437195	2.7328299116866606	14	42.458924210065895	-34.92992179115445	42.309397209293635
Si	4.092807626575717	1.367949192237012	4.097634192312425	14	-0.06098636108338042	-0.06378166678744542	0.7249707104641736
Si	0.0020966077408320002	2.729848797555165	2.7343259286684	14	0.21537095113699195	-0.1663296882604875	0.27580092502909237
Si	1.3645749641541105	4.094522040197127	4.094522040197127	14	0.03215450024430389	0.11195903827638011	0.09135471446177743
Si	0.0040730973298455	0.002358683708436	5.461968920162898	14	0.06090074327621948	0.013215995566625156	-0.06967078352324459
Si	1.361178896407242	1.3620634027979055	6.827504829531557	14	0.10439998863514476	0.0712129324942694	-0.015504536412088961
Si	2.732567835719056	2.730089033858802	5.456345206691395	14	-0.17284306936801863	-0.0750328236684134	0.04884508754057716
Si	4.094696757508863	4.091388048417862	6.827089875916183	14	0.056965666583732845	0.01384025993835711	-0.07437024982741125
Si	2.732906350510545	-0.000327594959505	8.18765726173235	14	-0.21446977872228007	-0.10074439109095823	0.08965804206101173
Si	4.098518698703088	1.3627076728849319	9.552909255469437	14	-0.06476434324080602	-0.0067190695331429745	0.05138225427049929
Si	-0.000152877647769	2.7263762909844123	8.190551017207977	14	-0.06800753549164079	-0.14320799522692784	0.1694702934090484
Si	1.367621597277507	4.09646577029019	9.552931095133404	14	-0.2671584116059466	-0.04732376452264554	0.0419439837507677
Si	-0.0029592744675285	5.458780329223716	-0.000327594959505	14	0.16149421048488502	-0.04259653028102129	0.04644933160326318
Si	1.364957158273533	6.827799664995111	1.365918103488081	14	-0.0018892481892448082	-0.02151218110314696	0.007779907588236072
Si	2.726398130648379	8.192068873853684	-0.002686278667941	14	-0.25653306175990265	0.05182808393301296	-0.051828598154076984
Si	4.09094033530654	9.553837441188035	1.3652956730650214	14	0.014260892768733336	0.08320173949158788	-0.27280481599952383
Si	2.7293792447798744	5.460014270237852	2.730547666802109	14	-0.020841122614588314	-0.06758484577700845	-0.09420401337756554
Si	4.095472065579692	6.826947918100398	4.092217955648609	14	-0.003394373243659494	-0.058734844154526754	0.042979367863191335
Si	-0.0011029030303335	8.18815957400359	2.7338782155570764	14	-0.007526139493137457	0.20296382530408538	-0.25600264273235607
Si	1.3691612935871804	9.555267939177872	4.094314563389441	14	-0.27194066750142204	-0.04280427559088925	0.09860857390151122
Si	0.0016598144614920001	5.4643712831992675	5.461543046715541	14	-0.04903072134469185	-0.13544017183369647	-0.02361791636034824
Si	1.3616266095185654	6.829404880296686	6.823213335562041	14	-0.2506722271826251	-0.23759635685594804	-0.12722883277273955
Si	2.7289096920045837	8.187296907276894	5.462241915962486	14	0.13047562457102255	0.23135371313862846	0.010447943578953733
Si	4.0968588842415965	9.55669843716771	6.822219630851542	14	-0.027479202330146623	0.08614385530943333	-0.1789209052343167
Si	2.7327207133668256	5.458507333424128	8.18841073013921	14	-0.007002919560487323	0.0989590155566474	0.12880029234441406
Si	4.09082021715472	6.823813926321134	9.557768580702094	14	0.04353241261755519	-0.0416904727662011	0.005460770589462505
Si	-0.0018563714371950001	8.19427467991435	8.194252840250384	14	59.59680104245363	-3.399360159538453	-3.5864805767492545
Si	1.3637996560832821	9.55142415831968	9.552494301854065	14	-0.42161756371384246	0.5234605881080999	0.42521736827258183
Si	5.457535468377597	0.001157502190251	0.0001201181518185	14	-0.07616616689353468	0.0100514791385869	0.020535932413086738
Si	6.820931090677489	1.3646186434820444	1.3633301033079914	14	0.7664341546306056	-0.17007938825939148	-0.12473408928059986
Si	8.186259523238462	2.7312356162170692	-0.0019764895890135	14	0.21982693376734058	-0.21946466502773174	-0.015548502313063492
Si	9.552068428406708	4.094128926245721	1.3676761964374244	14	0.0009217412572730863	-0.1222306040303717	-0.2590355185680028
Si	8.19293154058038	0.0025224811881885	2.7319563251279804	14	0.14637636831294634	-0.04819074123659948	-0.22944878120693077
Si	9.554339753459276	1.3656669473524605	4.092163356488691	14	-0.0761682237777908	-0.0344744085746735	0.06508573140582452
Si	5.460909696460498	2.7290734894843367	2.7313229748729375	14	8.650828120640579	8.478180455276894	8.414439154842974
Si	6.822667343962866	4.0933426983429095	4.0933208586789425	14	0.4337310693191881	0.3831412297083584	0.40534992324273356
Si	5.461652245035377	0.004433451785301	5.455449780468749	14	-0.07826933104541581	-0.10531710190284156	0.016067351366669372
Si	6.824567394727995	1.3634174619638595	6.823923124640968	14	-0.009408959919081894	0.0231553745132536	-0.15173506602119896
Si	8.192451067973106	2.731661489664426	5.460483823013143	14	-0.007507113313768361	-0.1253002466720965	0.021503696455590474
Si	9.555934048928867	4.091595525225549	6.82686055944453	14	0.12609163288963807	0.08129012268605779	-0.1638496000686727
Si	8.190714814687729	-0.0028937554756275	8.186357801726313	14	0.12518866070120205	0.06911388211090053	0.31247825664206874
Si	9.55313857194109	1.360763942791869	9.553913880011919	14	0.36737341211148633	-0.38130160385179246	0.4149103212651722
Si	5.464076447735713	2.732032763951865	8.192036114357734	14	0.005040394869618294	-0.06878298085619745	-0.03930525836069973
Si	6.828334736762302	4.091038613794391	9.551063803864226	14	-0.11659165584222292	0.10329698445280122	0.2483422915415069
Si	5.458900447375535	5.462536751426041	0.000152877647769	14	0.03884014540828494	-0.02882080508619989	-0.034877300778340704
Si	6.822350668835344	6.827188154404036	1.3685170235001538	14	0.02184951012115039	-0.16618056415191895	-0.1473238206234209
Si	8.188421649971193	8.193575810667406	-0.0007643882388449999	14	0.22416670243721853	0.21889696497304306	0.10240249691192171
Si	9.555737491953163	9.552123027566624	1.3686371416519725	14	0.2523814979994596	0.32532221326886845	-0.36335400316449884
Si	8.19405628327468	5.457939502160986	2.728734974692848	14	-0.05331212592380244	0.07697297974299715	0.024653557583303887
Si	9.557768580702094	6.822012154043856	4.096989922225398	14	-0.04363062884078484	-0.10205462636210569	0.12345316461010211
Si	5.458518253256112	8.19340109335567	2.7276320716625144	14	0.017523882530533264	0.0144964060160589	0.13324830454827025
Si	6.824283479096424	9.551260360839928	4.093976048597952	14	-0.08408337150586666	0.175228026662988	0.06795919871162201
Si	5.45882400855165	5.459009645695369	5.460221747045538	14	-0.16023411176748045	-0.07508038911683615	-0.010394207477762638
Si	6.824742112039732	6.823595529681464	6.826030652213784	14	0.3246334141536008	0.3280277873972603	-1.9726404476406192
Si	8.190769413847647	8.19252750679699	5.4566509619869334	14	0.3796126447669872	0.11027187896529894	-0.08130477798638264
Si	9.556283483552338	9.55685131481548	6.823344373545844	14	-0.32296605235348474	0.8164200416017325	-0.9126148618286887
Si	8.186510679374082	5.460549342005043	8.189611911657396	14	0.6498710380574364	-0.3486220839011144	0.015075418934156247
Si	9.557561103894407	6.826063411709734	9.558281812805319	14	-0.42954685252117913	-0.8381417677884716	0.8059810968913992
Si	5.456705561146851	8.18984122812905	8.18772278072425	14	-0.41094104887192756	0.48848404266440154	0.23856129268259957
H	50.08562645236481	50.08907602728839	51.911268390375035	1	-0.5603124977723144	-0.5189691242243333	1.7757300327022905
H	31.909617439039376	30.085084955958667	30.08794158400555	1	-58.827289531865326	3.520852085010346	3.6870663306419593
H	45.910623066482884	44.08820575485738	45.91428885407974	1	-41.05706477261911	34.01494202665229	-41.00785253123881
H	0.08620879756013744	0.08755193689410794	0.08960268134060924	1	0.14759172979778032	0.15072230763559263	0.19569453923243071
H	15.715022858952008	13.00001957297841	13.00001957297841	1	-9.36675342547794	-9.085409454489142	-9.148813168794524
