224
config_type=divacancy dft_energy=-22891.42330845494 dft_virial="135.03030290116848 -12.73516866340452 -12.07266850730137 -12.73516866340452 102.55183139293094 39.973503394753905 -12.072668507301373 39.973503394753905 114.15755701912347" pbc="T T T" Lattice="16.3199774331 0.0 0.0 0.0 16.3199774331 0.0 0.0 0.0 16.3199774331" Properties=species:S:1:pos:R:3:Z:I:1:dft_force:R:3
Si	1.19672762519179	1.3577242025693215	1.6704312901649505	14	5.36157451799534	7.022522695890259	5.7429002902371415
Si	2.9384119368296546	2.388069657830657	0.0586050389622621	14	-1.9336146684282196	0.4818793873180051	-1.3748723446749196
Si	4.179660460458941	3.9786962583477483	1.1182774936708781	14	20.922802516840907	14.689267968560122	-31.822784720545943
Si	2.6261291686472865	-0.0027254362313277	2.8839848120902665	14	-0.22925054898674732	-1.0108799360594283	0.382073706779433
Si	4.027313471120953	1.1724924587036365	4.2568539537175045	14	0.49985424172169235	0.7185128652315577	-0.8968760977219342
Si	-0.3423278466367056	2.580221072127976	2.834682160264871	14	0.21360305911885816	0.8551398592810344	0.9156253690480501
Si	1.2810366286111845	4.09820745309034	3.9775538599274314	14	0.5350876405868736	-0.5919553480579088	-0.5855615233477646
Si	0.08070228840667949	-0.0759531749736474	5.4135813142207665	14	-1.5427308121587673	-0.92732466958632	-1.5058390503620906
Si	1.2505345907887206	1.2773156737564377	6.73709884409031	14	0.8740174287626257	1.4217867892305978	2.04943782089025
Si	2.6965498712711127	2.6235995721451557	5.394650140398371	14	-6.263240327818178	-3.930661076209812	-0.795141316861655
Si	4.113678791696919	4.049949279820662	6.717727030877221	14	0.6297976474914443	1.0054196796910295	4.205400648962748
Si	2.7902428617145403	0.10727121166776629	8.23990764603989	14	-0.6244080965193498	-0.5874901094484076	-0.6678800881618816
Si	3.988928884198302	1.5705693482518117	9.638513392079128	14	0.17083503611298298	-0.26588520025140927	-0.12161970940630451
Si	-0.1837792658741391	2.7691574508709746	8.086271378484687	14	0.8776064346790204	-0.6295659909020989	0.5387617500893652
Si	1.1244790850954562	4.253312518614522	9.44510533951946	14	0.7794781432513128	-0.8362242374407051	-1.039647262154969
Si	-0.1174059176537214	0.0475727342174865	10.796007791521745	14	0.8803873421932926	-0.3502909883644225	0.7202475899910616
Si	1.189579475076092	1.4237221913087776	12.342782612676098	14	-0.5084062522375689	-0.5969677178795374	-0.8666288434041163
Si	2.3687794445047325	2.8036578831645484	10.901026846303743	14	0.1017563781449685	-0.17249931258671486	-1.0121459483190691
Si	4.011385173146247	4.00281718499387	11.871249504701538	14	0.9425947211932112	1.293168016921786	2.4122169249051644
Si	2.561518377989644	-0.0395106653655351	13.541011675791733	14	1.1723304377538708	0.9767616255715952	-1.2202596975794109
Si	4.10747720027234	1.1138874197413742	14.768486138467482	14	-0.3929070590458769	0.5105533822904246	1.1656831020591598
Si	0.0582949593910332	2.9351316213656022	13.733750609276642	14	-0.32462261551125615	0.032140873386107105	-1.4448442046311536
Si	1.604596501199825	4.054894232982892	14.873276713565417	14	0.3429743939548771	-0.46804478381135234	2.581820144459264
Si	0.14996427263275589	5.460550209273228	-0.0427909808295882	14	-0.18756881797863476	-0.5455672087612651	-0.2501731756399843
Si	1.5165665429256836	6.887242636474831	1.2170949570282987	14	-1.8252528636052587	0.049227925122747214	-0.8767116900276088
Si	2.7754243222052852	8.29139717484132	0.0476053741723527	14	-0.33016668991309145	1.4331245923608547	-1.635720492493627
Si	4.253051398975592	9.629357884739159	1.2255650253160775	14	-1.621311504058453	-1.4713582140241168	1.2535696525545894
Si	2.705819618453114	5.484573216054751	2.3361394896385326	14	-0.13676454818410475	-2.267771970908713	1.329192030672913
Si	4.010063254974166	6.582238578227624	3.804056179836145	14	1.1477398722509105	1.9324535572656412	-1.6992985277397163
Si	0.13096781890062748	7.999824458021557	2.6497768159478485	14	-0.5463079442039998	0.7688155123781268	-0.274562166485845
Si	1.4781329960707332	9.446361977781807	3.831408462014021	14	0.4529146003338769	-0.3819137840285198	1.7290169056931803
Si	-0.17410151925631082	5.370268094113319	5.43292048747899	14	1.207966471712187	1.5409096982605064	-0.3985364941443411
Si	1.3223098515394944	7.1719120028403935	6.7146751950972305	14	0.22373527096449772	-1.6722900947936894	-1.112521642907118
Si	3.1559082760805786	8.183032524685537	5.268366155021043	14	-2.266488732243427	0.7949279151200827	0.6496851471427897
Si	4.34742982847121	9.568272209207066	6.857246517952793	14	-0.7728634605941679	-0.7595924433736916	0.40361494137269766
Si	2.575129239168849	5.517147891011219	7.917832891397662	14	0.044640044789474975	0.28466095396232266	1.1444910235683712
Si	3.9090099547084116	6.890947271352144	9.581866750408837	14	0.22673780775736666	-1.9322928631831315	-1.254011882669655
Si	-0.2574150040522863	8.174431896578294	8.134937551190191	14	1.622306264706818	0.1863699115678497	1.1386193903487491
Si	1.3075402719625389	9.559834780874153	9.543743283125115	14	-0.8638561634268684	-0.7828953993323217	-0.09712993123189405
Si	-0.1433383617949173	5.5422480163033265	10.848035879578468	14	0.680234249225193	-1.310826625371095	2.338937080844028
Si	1.279992150055466	6.68329187849338	12.334508384117516	14	0.07090439985585162	0.7374657680990292	-0.9267587693053553
Si	2.546242879112262	8.114847658970046	10.927024570354671	14	-0.027635011312547596	0.5670161406735365	0.7018310196933729
Si	4.165592639911609	9.428246802831067	12.134621300516907	14	-1.440337057004934	0.8645981844222633	-0.010340471376571543
Si	2.746782761810195	5.565683503897258	13.668372779679645	14	1.694309040755437	-0.7522609365532893	-1.3584288405999128
Si	4.099757850946484	6.954611503318667	15.022441307303952	14	-0.5596057009198055	-0.434822760638123	-0.18881323295358643
Si	0.09175091312888821	8.208932328871866	13.594345362043102	14	-1.1857138122768374	-0.3639322447510001	-0.38340553933526966
Si	1.3192906557143709	9.680912693450322	14.821232305531261	14	0.5488001165908194	-0.13846944812189496	1.5518811188826422
Si	-0.13669613097964559	11.00349998460618	-0.0714488612021118	14	1.5765336480238181	-0.9231818475839653	0.7665827645181101
Si	1.7106437145601088	12.178815799405742	1.1829535642382534	14	-2.617216294291211	1.0877125334519453	-1.0886561291044397
Si	2.921129080728002	13.839308223313934	0.0172175761919205	14	-1.3637854814239094	-0.5583882825507156	-0.33135428346046786
Si	4.058549907927906	15.171654860974785	1.4879249825305934	14	-0.4484737872249172	-0.667939737805309	0.8052917835550676
Si	2.8002143679261646	10.860961301705483	2.586194183868491	14	0.5942801414883867	-0.5883228904616036	0.4505391561285922
Si	4.103364565959199	12.206200721538483	3.908699875137182	14	0.03469680918486631	-0.24284886791447852	2.1318533163749365
Si	-0.0012892782172149	13.368721674030494	2.4466746967929187	14	0.960663935162148	0.9386827844486061	1.422000448082702
Si	1.3682179480588046	14.744789531234622	4.149631701982038	14	-1.0820090505202609	0.25409693946906237	-1.6317021119887676
Si	0.0888785971006626	10.569372264908287	5.442549274164519	14	-1.4387077475635563	0.6368555887057827	-0.6096571510765962
Si	1.4526575112976643	12.00176036423404	6.685788835040644	14	-1.3465644751000894	-0.0881436610274445	1.6686522378762114
Si	2.6155701432480707	13.394605158239392	5.4198645055325105	14	2.738800008223033	0.7128201809422178	0.1024037824645818
Si	4.098370652864671	14.908658424640377	6.901963256119486	14	-0.7279549924092695	-0.20168675729156785	-0.24295042657462437
Si	2.742751727384219	10.777729416796673	8.24326956139111	14	1.1075020739905928	0.667836122260907	-0.7283923374242267
Si	4.044759526996938	12.347548046086562	9.597811368360976	14	-0.5595517077080825	-0.009821108101901633	0.2690034367836848
Si	0.0626523933656709	13.656067516695087	7.983112801130062	14	-0.0833860877430425	-1.4762361150375016	0.6573850933555692
Si	1.3778304147669007	14.958173236172405	9.510303649364694	14	-0.6524552560147171	0.9672809318140813	-0.5241972097823224
Si	0.1289604616763562	11.051741837898422	10.914213388069689	14	0.3521159589206636	-1.478761197572419	2.041876200143695
Si	1.397136948070258	12.349343243604203	12.547157690070808	14	0.38804946976452115	-0.2882489314365893	-1.8618340358792613
Si	2.6316616409971076	13.80807178650698	11.02830635030449	14	0.25102909660106165	-2.008579614916181	-0.15592313947718817
Si	4.096738655121361	14.931604312911317	12.362007546092288	14	-0.24606172112253558	0.4149180345811326	-0.4746648657896696
Si	2.8990481512610176	10.920349699584534	13.650959363758528	14	-0.27638739415261815	-0.41817665346388827	-0.5594090113628144
Si	4.125510775335916	12.276833583868939	15.096223925278997	14	-1.300718067694401	0.1695867644800511	-0.1536016884836265
Si	-0.11822191652537639	13.65250976161467	13.647776968159071	14	1.071805619057253	1.786828723037774	-0.1230014214053521
Si	1.3961087894919726	15.151793448438703	14.985819277944076	14	-1.917416190690223	-1.6321186310506313	1.2573386358433947
Si	5.3408431748014396	-0.1412820446383467	0.0048470332976307	14	-0.10193815529110298	0.3581601133072677	-1.9458022218667854
Si	6.567811718176764	1.2156261590593196	1.2051650535247025	14	2.0324867806250464	0.7629881021700111	2.2295504334404557
Si	8.015475316379899	2.7913363002025577	0.2144934634032333	14	0.8264846333774521	-0.46663478965378313	-0.003075813294493147
Si	9.433077516151265	4.404631349374226	1.370731224583502	14	-0.1839147630976403	-3.342014997809467	0.5498059329920612
Si	8.001179016148503	-0.2981333477478708	2.8363141580081814	14	-0.21103375357243417	1.779957186959146	-0.9783148302954966
Si	9.546615599153341	1.1090240664663105	3.992878318737112	14	-0.42673997684317344	0.5460418348033644	0.6590061752599224
Si	5.235171320922117	2.4432638215094014	2.6586059237391555	14	1.1654046513529877	1.0264101835247186	1.0593807525976375
Si	6.719212148823632	4.096134815956336	4.0895905050056625	14	1.3811478985403371	-2.8249878294334407	-1.7513878359732566
Si	5.45108462236203	-0.054345524852223	5.5333536286022875	14	1.2920675838447626	-0.7242852537858222	0.9662658594336867
Si	6.949846069908202	1.2607019367295418	6.987757377485293	14	-1.1363023102342316	0.25094425012549676	-1.175789345741066
Si	8.160413035963261	2.5138314039301255	5.368603456415143	14	0.27792980023417496	1.0137140654538273	0.7132277011354613
Si	9.641663147723715	3.9552281307989503	6.914758118427037	14	-0.43809629193173555	-1.0658265136352487	-1.1506747889738596
Si	8.421924354351255	0.1372183702575048	8.355877405679498	14	-1.1262477457692606	-1.4621192041666966	-0.43838734105397625
Si	9.517680279164455	1.4605400603978516	9.773740725089795	14	2.0260255929555138	-0.179412243460997	-0.8804413354050157
Si	5.533402588534587	2.7417888487156663	8.196316986316079	14	-0.6081643673277184	-0.638700613883521	-0.404941888828426
Si	6.977851151183401	4.028733309157633	9.439442307350173	14	0.004214812951318746	-0.839627095331921	1.2493111308128282
Si	5.3341356640764355	0.0770955733939644	10.996139674783851	14	-1.2184979762140458	0.31451482916615797	-0.1886777357032146
Si	6.6733040523043226	1.1601055958319135	12.426373537088436	14	1.468933918817749	0.7522982175804315	0.26797910842413786
Si	8.145594496454006	2.5366304124041665	11.15565113421497	14	-1.1249544797932258	1.602610826622888	-0.13346196340037456
Si	9.616073423108615	4.099219291691192	12.166314696691986	14	-0.2410889463228372	0.9272845603433256	0.018561837748277042
Si	8.125227164617497	-0.1198049543363871	13.799161078828508	14	-0.035941738380882014	0.4582506723153123	-0.20340322720329873
Si	9.373868638023978	1.3361655123801963	15.226620544969466	14	0.299529656028739	1.207895509205351	-0.8923288408527204
Si	5.321928320956477	2.613073186700807	13.545483349608402	14	0.006419535763345723	1.4656251633812505	-0.5692558305179174
Si	6.899678459278853	3.8740688830241443	14.859861692115409	14	-1.4324699889463448	0.7526563725515281	0.23792108745788274
Si	5.498135117301657	5.4705543554397185	-0.1938160519954956	14	1.3181313926961677	-0.386589339053209	0.8387840298974446
Si	6.860037234093853	6.7066947261324446	1.4807768324148953	14	-1.6131281900454857	1.4092212833099702	-1.937210616328979
Si	8.020028590083735	8.291576694593086	0.0838683640287009	14	0.2872402868194952	-0.9692264872098372	-1.5935955029283206
Si	9.49881438525179	9.539940728383202	1.2706244830088667	14	0.7570709603862223	0.11864545477195722	1.5768300964672313
Si	8.154782643748842	5.500550473961757	2.7881539046031034	14	0.1266549620652825	-0.10640725055858437	2.067039607911984
Si	9.73560093782864	6.703414410668391	4.106791761220149	14	-0.01282313067370653	-0.8185987962500261	0.14937350578464295
Si	5.354454035980645	8.158601518468187	2.6143951048728877	14	1.0704203075107572	-0.10918918651498459	0.4073037061755141
Si	6.740101719938001	9.450017652726821	4.087305708165029	14	-0.175193316741166	-0.09803650296777827	0.08355706624683235
Si	5.36179802582554	5.318762245334455	5.283968053447086	14	1.3999473064201962	1.3981642448806733	1.168324141444016
Si	6.913811559735917	6.542548393110326	6.8032437126266645	14	-0.09973806046865226	0.2494149566810727	-0.8832986047472963
Si	8.20336721656718	7.96019955281399	5.193930737948674	14	-1.0070039947893048	0.6648526116474073	2.0490536977554203
Si	9.29117531237046	9.34834419331861	6.8505390072277885	14	-0.14741895152026638	1.7499107359668316	-1.2940594191362813
Si	8.365506192365027	5.315792009441631	8.201931058553066	14	-0.6126002953365699	0.46794733891971874	-0.5846230699059105
Si	9.449968692794522	6.7555240986122795	9.589618739689561	14	1.712295208022533	0.32244848885253896	0.7747077144403102
Si	5.4124062758455835	7.813025996322294	8.139180745322797	14	0.7768820982095593	1.6642376500415172	-0.6416722974125482
Si	6.724140782008429	9.3093884071858	9.484208005449167	14	1.0335863955837838	-0.02065111793142937	0.4967123510204714
Si	5.494512082311509	5.400655892093751	10.556397882848971	14	-0.5707357587401948	0.33168441338357485	1.8845086136976474
Si	6.670839735711924	6.605347666272894	12.38160783898944	14	0.8771274377578769	0.09843939517144548	-1.292474846927474
Si	8.261629536003348	8.086614098010783	11.102823367264024	14	-2.1928088241944756	-0.29869790345767105	-0.34143661586289653
Si	8.23411405405114	5.37553944682421	13.717854951256804	14	0.559593359614269	0.5235297508412119	-0.913125740455802
Si	9.642136427069275	6.964942049033819	14.950388606936814	14	-2.6848633608169665	-1.5243772339414223	1.8728337386599192
Si	5.386718631365884	8.146655294987157	13.55426349746741	14	0.9773295827368157	0.09495349057838871	0.20130083438301366
Si	6.84485965508107	9.640781868942328	14.716588610230225	14	0.2522215752485463	0.004198614987801813	0.29203874067848756
Si	5.427453295038902	10.938366954670675	-0.021101730820998303	14	3.0039997517960906	0.821134163206224	-0.8419572880835713
Si	6.850033087927363	12.26694367754448	1.420507155754457	14	-2.397268518573823	-0.27944392415721014	0.7291305017616413
Si	8.046140553976695	13.448428443813755	0.01958397291972	14	0.39309192151839556	1.9069929297223425	-1.247067584310467
Si	9.35766290043291	14.91161234055577	1.3637952341744346	14	1.6130009203321385	-0.5615792813635514	0.0656012380225142
Si	8.027960099116221	10.801817703487929	2.6801156539959816	14	1.66105796409209	0.14525228106697757	0.8467014916203086
Si	9.59498801226505	12.2119779935498	4.069533252740383	14	0.3166413903764525	-0.017036143851301172	0.2359446787982849
Si	5.33989661611032	13.74868338862793	2.785363188462043	14	1.084116328440654	-1.1516276406055064	-0.9601404581189658
Si	6.792896846934079	14.709734219708324	4.262973945254918	14	-0.36998539800622476	1.0263317648124541	0.6710685158693972
Si	5.601179454814251	10.984829930422713	5.55248064215388	14	-0.3233329490826699	0.18549367887474325	-1.4585718501564884
Si	6.993518329519177	12.373970089550753	6.773606633608154	14	-1.2286217034121285	-0.8028888285228571	3.129781052273587
Si	8.368982347558278	13.598882315769504	5.582068761240091	14	0.741107224563955	0.49930453940424474	-1.3192354253206395
Si	9.668117831142771	15.084897860940425	6.8361121471769275	14	-0.5841612993904118	-0.4646049020035263	0.7385664582865846
Si	8.211086565893035	10.871928326540527	8.391177516867295	14	-1.2701720509383818	-0.6917170626955064	-1.6734563481669082
Si	9.517304919683495	12.355267395412417	9.550075434369157	14	-0.35483130324927203	0.6171262120316264	1.1852278733713295
Si	5.492570004996971	13.82181320750565	8.468077250532062	14	0.6329346530925569	-0.8740647371005165	-1.5955500571926975
Si	6.844565895487274	15.253515867779214	9.796800853202765	14	0.4996570379436371	-0.8878047239313878	-1.5743464087279682
Si	5.399790933289797	10.784763327070339	10.710344229975403	14	0.8462260942466131	0.49271736757402534	1.391594299456099
Si	6.909339885919247	12.0628297197887	12.59349010600338	14	0.1431028370193338	-0.6274242601704155	-1.689704705348116
Si	8.002908933756412	13.699282816937936	11.0556749524598	14	1.463082083109092	-0.8150720110823788	0.7333396582812556
Si	9.619810697940796	15.146717935457007	12.288078048320346	14	-0.538063437884413	-0.694295624221083	-0.9170273927791268
Si	9.053703320741421	9.659076563644835	12.609140964361721	14	0.43879280436296364	1.094067020250691	-0.14577935765760797
Si	9.515738201849915	12.330803749240202	15.010609323664953	14	0.06961113387981716	-0.17643516061079753	-0.897651543086491
Si	5.325012796691333	13.406959381156248	13.615724532480463	14	1.0085242893651085	0.8941748944725866	-0.48945617758594945
Si	6.573295230594286	14.853774340532864	14.954713400956587	14	1.5144543100688428	-1.1534726657832446	0.34240232302114415
Si	10.86737505283669	0.0587845587140262	0.1569818629289889	14	0.11631629046243508	-1.0282626649078852	-0.5712561504569926
Si	12.026746249684114	1.855124474775343	0.9806511239775458	14	-0.6026935694275073	0.5618700733752601	1.879028302707752
Si	13.557201093405368	3.3004869561604115	-0.030224598206101197	14	0.5016213624082302	-1.4460611087791797	-0.3408789431189564
Si	15.077211151569434	4.173148789463134	1.489344820567273	14	0.12579389889356493	0.48606488966867417	-1.0631852171398606
Si	14.87360311311408	-1.0907130517863723	1.946010429100277	14	-3.171100257431559	-0.36090451112599375	3.0565855404669517
Si	14.72873067344045	0.8380961210994173	3.8468798006206	14	-0.6595036841393711	0.33383308609962264	0.6468692725961636
Si	10.701629362026129	2.8753352240507235	2.954258634917195	14	-0.20914090583574116	-0.7800944371965525	-2.9558051539015113
Si	12.24350818995055	4.13974179565758	3.9689205918653214	14	0.04046148442317032	1.0234097036161058	1.274172690816532
Si	11.019640442287516	0.0436722596109756	5.543749454227172	14	-0.34324256023976857	-1.1004091657439006	-2.6746460453852303
Si	12.19156170178099	1.3823673684933024	6.785944536547579	14	1.0733359409438052	1.1783157138286433	1.0849372823693775
Si	13.47888152170392	2.7453955637283816	5.301756828849165	14	0.3174104079777088	-1.951490021056017	-0.4857884958467582
Si	14.787188832605814	3.9620825213208524	6.694732182673983	14	0.97517988157864	0.3573049636777864	-0.6911781590204035
Si	13.519191865963677	0.051261049117367105	8.213355042756238	14	1.4694936484459453	-0.18651595035003413	-0.48021536795480524
Si	14.878384866501978	1.509907992132979	9.642936105963498	14	-1.0010909667740284	0.05238652800854913	-0.1927436816564968
Si	10.980847855929035	2.6737508627970725	8.315452821577711	14	-1.3064156370838491	-0.7468744709075792	-0.3162307848568248
Si	12.513016297280764	3.7551288874917113	9.504167337849848	14	-0.2386183712207069	2.8582083099434787	0.6794739733820253
Si	11.073218928200381	-0.0357733905333552	10.688981379515475	14	-1.2665246809312196	1.1571390619697757	2.528838148458569
Si	12.07730553977186	1.3203840942023888	12.517749090736363	14	0.6926200348839425	-0.07430648641547156	-1.4514234060348807
Si	13.531382889106204	2.8504635784426795	11.325280979654611	14	0.546467352733849	-1.5398881981168115	-0.5603477219152004
Si	14.86738520171207	4.328237535009884	12.512640937799802	14	0.04351467199084616	0.4045850194099895	-0.46648617976627854
Si	13.65481087843274	-0.0187353340931988	13.600187913964152	14	-0.6547142291489993	1.7086213556305734	2.3757352544070507
Si	15.004538292059841	1.8125782936072514	15.08839033611111	14	-2.061205512830036	-1.787286894005824	0.08632126157652355
Si	10.753869609789481	2.8275666501040395	13.699690816373764	14	-6.144941715153909e-05	-0.40167992750875414	1.4208989865635506
Si	12.129398907738315	4.502110574582132	14.936630865960712	14	-1.1110694826222982	-0.9002090215484422	0.10931105690715961
Si	10.80903113351336	5.6886708538331	0.2161091411691102	14	0.06704594210190541	-0.11616279547482222	-2.490834126500396
Si	12.27815550204102	6.927177621253626	1.2823259068283994	14	0.5119466642634128	1.4654192178451066	1.1837302045223432
Si	13.580195941608606	8.382968568218445	-0.052060728011589	14	0.09566285853621756	-2.3523315111198713	-1.0135394874025894
Si	14.97762664927266	9.341930442187401	1.3356595930797701	14	1.2789078954846487	2.116224852686417	0.8926947091397773
Si	13.545401749721236	5.4843284163932555	2.5481359964945014	14	0.26195423732743484	0.5173516418674281	0.7460889982322739
Si	14.951710525108895	6.800550916350203	3.9002134868719702	14	-1.0779261352718656	-0.5993809573330285	1.886913625614114
Si	10.995078876250698	8.21190256476469	2.886367528795499	14	-0.624793762317372	0.31268754461512877	-1.7015001652253592
Si	12.302668108145538	9.53839033052706	4.253443078433987	14	-1.0438253083002096	1.3233422518485118	-0.5517568877089896
Si	10.98171281473299	5.3558901939947585	5.700649717268995	14	-0.11977879799707848	0.18767500462835687	-1.7184172669003377
Si	12.147269283027558	6.830139035436414	7.024281486980572	14	-0.7352988405352084	-0.0040474339949771055	0.5302647612273398
Si	13.318766223107776	8.000069257683053	5.486906972827685	14	2.5017698087585822	-0.3676405499542497	-0.5212036718580739
Si	14.652434778940709	9.37798127233712	6.85507596095419	14	0.39752784952724707	1.2887254040391023	-0.6487500361378518
Si	13.592860244096691	5.315645129644733	8.02074666909079	14	0.017321793652369622	0.9435701985516755	2.3742625252796703
Si	14.901216514930885	6.814635056874968	9.657428245924091	14	-0.855980610720723	-0.43243497512730145	-3.1170941901818487
Si	10.653795508169711	8.325048968308373	8.258512420313624	14	0.405184086949584	-2.435297480253601	-0.17536480946601984
Si	11.88047029195124	9.570410126250803	9.628068606521945	14	2.0294788445110044	0.9430670332405225	0.4942870273719757
Si	11.186120532082567	5.497368078362302	10.81014089197881	14	-0.8957360696229806	-0.3908267777313451	0.01231405182031721
Si	12.313504573161115	7.184331505666983	12.226274293781197	14	-1.6976766745037672	-0.36515840487817874	-0.6771692345730446
Si	13.620000366567936	8.298626924844186	10.678977233348984	14	-1.5735187699254125	0.9161496174228283	0.7560497173530595
Si	14.912803698908386	9.444354620557537	12.198187612618831	14	1.0852728116136567	1.7680195449576985	0.006935042380035413
Si	13.427032953398962	5.9375668296653075	13.713791276875963	14	0.5921422674146836	-1.8251412776343643	-0.9076955660196495
Si	15.033114572545198	6.821440487464571	14.93109839361089	14	0.6167737134922341	1.5507344059098565	1.6312511401156138
Si	10.691576255927338	8.362242196878409	13.669727337806592	14	1.5404808378931056	0.7836878139919914	-1.7310678764070622
Si	12.11753428414445	9.610508310803928	15.0190630719753	14	0.3096058177783993	0.6948193583747971	-0.8434744973329907
Si	10.875241281959445	11.001443667449607	0.012207343119958799	14	-0.8657901488486839	-0.289946118058419	0.20633968658943985
Si	12.262553603614977	12.122413957396947	1.4487570366911533	14	0.39798113539518915	1.4237210317629452	-0.39077664117760225
Si	13.541240155475794	13.773620314145706	0.1795360717415331	14	0.27069470986327826	-0.6605010158930567	1.8226269937417916
Si	16.24195162099235	16.56461389482217	0.0643986309510126	14	-10.85167319162371	-5.460119585595444	-10.483353355643876
Si	13.62897635415614	10.772147984514552	2.703714341364244	14	0.6198945211298299	-0.4903342100527801	0.832246480399904
Si	14.999217979416649	12.202757206300099	4.003894303504454	14	0.157014059464527	-0.7241538703039625	0.8547698772254652
Si	11.0672621364373	13.690323149327163	2.7208176777141326	14	-0.9304295363709307	0.19808283896431628	0.36191598395894
Si	12.621805266849806	15.195645227801442	3.985452729005052	14	-1.235036096964834	0.48008835535198996	-0.0562442144308993
Si	10.876514240199228	10.88021887507654	5.685570058120811	14	-1.478987969061656	-1.4418596655755258	-1.714690706849315
Si	12.186110829318338	12.12974162726441	6.958201898353949	14	1.8602245239488489	0.9837270069944083	-0.7431183431453747
Si	13.507441482211846	13.606813824801993	5.37253657097652	14	0.42165355918832453	-1.5019798212765483	0.11913910699342564
Si	14.907875065723589	14.908919544279307	6.647746967644087	14	0.1382416481905298	0.9402534726886845	1.5461061592230576
Si	13.529000172400972	10.910525073169808	8.400610463823627	14	-0.36520674165819755	-1.012439825657162	-0.664206492880454
Si	15.08297210360332	12.146649123885101	9.574522760563942	14	-0.8207484974082019	2.653825234502671	-0.6616788392402164
Si	10.922911936041531	13.565361082121916	8.087152657266074	14	-0.1610026151476727	1.1971732286887373	1.656625378520155
Si	12.408552121731491	14.851554823601962	9.593845613844733	14	-1.1417006029644146	-0.21378920714403687	-1.9678653908400403
Si	10.687235141930133	10.951194456933093	11.078555560821005	14	-0.39542879914387813	0.1880023063356117	1.044179606613326
Si	12.19019082367661	12.366479219908957	12.393635662357635	14	-1.3119617683699405	0.026655934406635207	-1.680885814100008
Si	13.63465570630286	13.669711017829158	11.031847785407473	14	0.40649483644179546	-2.6544525842007873	-0.7925329305143648
Si	14.855618497982803	15.036672327625615	12.24146819277141	14	2.2501010211538675	0.2100150816445915	-0.0014369907634307615
Si	13.586218013281417	10.906722518427896	13.63844194106734	14	11.118758583838565	-66.32133880239148	30.127052830106337
Si	14.958434355811335	12.586733635346077	15.130593797753106	14	-1.1086780975640287	-1.5401867034444807	0.2667642611603679
Si	10.86647745407787	13.766912803420702	13.69324442528769	14	-0.39318113887300465	-0.6881892490857313	0.30812948910357024
Si	12.287653728907085	14.938475023410652	15.06887164310112	14	-0.5041436167272954	1.8125873416876774	-0.13961101888404068
H	134.1177328489969	136.2456604345462	135.40748271355963	1	-1.7483719294327231	-2.0411611757541617	0.777568583330039
H	134.2342297439076	134.0571025008352	136.01054178366303	1	3.7398824903495047	3.139334765422193	-1.9641977091008491
H	148.33237444130825	146.75541092589816	147.8127561518248	1	2.8379976223533903	-2.6851739503396406	0.2243968163633718
H	146.26491074015084	145.81338429251153	147.7405810516269	1	2.6809845913309913	-0.6566299597230416	-3.926659665000066
H	117.93902766854879	117.8835870732108	116.08698440551281	1	-20.814171003069863	-14.274050657319725	32.633178091277244
H	133.01572637282683	133.1660611089473	133.08722582595897	1	-0.40422660732836085	-0.3370138004911778	0.15656591580722518
H	163.94840596780892	163.86181053555114	163.92356369816025	1	6.825825425582971	3.007999877453177	1.0791152714824341
H	144.03604572617553	142.1905712540564	143.87600876347108	1	-9.89751826669005	65.9002436872787	-29.190653958513614
H	196.0398382324937	196.08045212833372	197.85409258778333	1	-1.9086039843159472	-1.3627380131164808	2.082084173582299
H	151.10052331757385	152.9364342829172	152.90001788527297	1	-0.299391330562515	1.4876893607966333	1.8727697181374472
