68
config_type=vacancy dft_energy=-6753.224685571016 dft_virial="0.4362332248697109 28.215708011859746 -14.292001637739626 28.215708011859743 39.05360067235232 26.12393394178777 -14.292001637739626 26.12393394178777 36.32773896394513" pbc="T T T" Lattice="10.909248443500001 -0.0002945497079745 0.000610917912836 -0.0002945497079745 10.907535691494372 0.0010145601052455 0.000610917912836 0.0010145601052455 10.909390263729767" Properties=species:S:1:pos:R:3:Z:I:1:dft_force:R:3
Si	6.831991020631291	9.650301536472902	9.569279639207872	14	0.43242854736400105	-1.0316236137823829	-0.039370564435831486
Si	1.2631382402790912	1.163570620660111	1.1655866497724698	14	-1.3059340690573853	0.5605732078517773	-1.3566861454139163
Si	2.7014179187695087	2.6839347572139554	0.02433744235260415	14	0.8406329117331629	-0.26534423969205007	0.607133868315403
Si	4.094746039048484	4.038779412683641	1.4453477805569612	14	0.03526219524476687	0.3318736467351378	-0.9235975953142334
Si	2.6817430892016567	0.00579826554772025	2.7242367937387777	14	44.393092694580076	-52.46663953655643	52.3105032524482
Si	4.072832631700026	1.293085218181343	4.076239589988931	14	0.3202530220196645	0.5115280883172928	0.598971637366061
Si	0.05505897689434451	2.6071576485182915	2.642861436824178	14	0.6424994219940399	-0.3734607610674689	1.0659684386489208
Si	1.4178477470805866	4.052793433234161	4.028249806085975	14	0.14576958745739138	-0.28235930047972607	0.04874918531213564
Si	0.027193483595112453	0.008435030896514201	5.409435932847335	14	0.35531184283360767	0.36995248785812684	0.6352920995606007
Si	1.3646618881439907	1.4339574342571029	6.797612706011289	14	-0.47010526761491894	-0.7978952277700656	0.7724883363279583
Si	2.736795520546935	2.6839533029363096	5.474759421602168	14	0.447219859160281	0.47608977235809574	-0.7019693451595969
Si	4.131724027572572	4.017423467930645	6.835603072790934	14	0.12103478294597082	0.6727695591492072	-0.23169027082503585
Si	2.6662345016143765	-0.0001418202297655	8.245850346480934	14	0.15810909322037806	0.42929874085778486	-0.6618187073696326
Si	4.073878828625757	1.3784359052287538	9.550657552114817	14	0.3645133145533536	-0.20341916805628363	-0.11704725570495317
Si	0.0258832828570481	2.7419370493383566	8.290196441403761	14	0.025528504723750272	0.19516000643637196	-0.6545635623772387
Si	1.458703973426338	4.122026796631145	9.558949671856723	14	-0.09993963512575187	0.06750051352250759	-0.5363145720456483
Si	0.15679317325420375	5.4333173686150005	0.039386750580412404	14	-0.7226065791222974	0.30224448613628335	-0.43776024846639217
Si	1.4217783492947793	6.841318428050484	1.3606396482428724	14	0.3718774744113217	0.37543099907429844	0.4753024999090663
Si	2.815670477718284	8.200100231283429	-0.0072917416596354	14	-0.41503270587841123	0.37502656420743913	0.44804492685751646
Si	4.180173090835	9.583815121833991	1.3871785769313747	14	-0.3812882341041277	-0.03741369617666679	-0.08153900568104812
Si	2.8172839555630778	5.482155892046862	2.7464436598703665	14	-0.6787882595931418	-0.06008416022654045	-0.18405231723226823
Si	4.1297810904247845	6.854152067919417	4.094020574026992	14	0.3742665454748033	-0.004315343169336535	-0.36387927998140507
Si	-0.020474477478760803	8.205438126546833	2.7042226865443326	14	-0.19723128888228325	-0.3125546184700771	-0.3085681196711876
Si	1.3048344787549924	9.510967524427677	4.091231079199989	14	0.41305449744508926	0.2833268074116978	-0.40525556367748405
Si	0.023575976811247852	5.379382044310336	5.393344791393172	14	-0.06129463661126617	0.4098231322787272	0.35104226533896976
Si	1.3347312741144042	6.8450570274920715	6.796414870532194	14	0.1691949280292605	-0.2967904004206532	-1.0869237183397238
Si	2.76793706115375	8.208337804783115	5.372717584436202	14	-0.6582009050736521	-0.002581132630896657	0.9207215569031156
Si	4.039966338914294	9.569807646832539	6.811046354544615	14	0.3155144749146316	-0.08204345654486117	0.1476326103723707
Si	2.7457127402246515	5.519995711197985	8.109621106542727	14	0.38805821152260966	-0.4522270867712694	0.5387540367734047
Si	4.124794472961261	6.847189785562776	9.540251220024563	14	0.24799262121796675	-0.7053902007880539	-0.03663850792264214
Si	0.031248451241561403	8.194028143599777	8.188986979894034	14	59.88690168394178	-7.797141707197024	-2.206270103208643
Si	1.3686568549240006	9.626758287406984	9.6730473194776	14	-0.7438277111032037	-0.44781558426295925	0.08113379948259279
Si	5.496045547165125	0.054943338860843405	0.0027556761568281003	14	-0.6862128404261334	0.5433820263496713	0.42598124366319773
Si	6.87558001371214	1.3996260294054084	1.3572621449247646	14	-0.1790980543908749	0.39792302841495375	0.19259327199526813
Si	8.350434038534237	2.7454225542160544	0.0633543694107819	14	-0.3310316097427893	0.12824981869537036	-0.2715033224864648
Si	9.739952649256741	4.096508973596954	1.434858538178536	14	-1.0982707774491334	0.3429877637025419	-0.5486355658503299
Si	8.237285495527942	-0.00366441655217165	2.65155174413427	14	0.05945063987565598	-0.034001582306298274	0.5093027966627045
Si	9.560720242879102	1.3438110415939293	4.106879305167345	14	-0.4112650081422662	0.2711436248521761	-0.5692206063750315
Si	5.431490069500715	2.7146693828538284	2.776103724538554	14	0.6533278891603754	-0.394558994214072	-0.07407020183654996
Si	6.867575898129144	4.122285345819256	4.104446542764444	14	-0.48407511126141156	-0.18841625429215555	-0.1499661455609371
Si	5.4808064180144	-0.0238868903918876	5.460837038738574	14	-0.11766997741349303	0.04631357724235936	0.16465127070749483
Si	6.884716509283571	1.2948176068341708	6.8556629988288424	14	0.3179110021835417	-0.06945429645528813	-0.452569043778849
Si	8.171737276255174	2.7184668922370103	5.457163894787648	14	0.31503496377242396	-0.11460959075092077	0.3134136247575386
Si	9.552101936608738	4.089884877942061	6.8274036816608	14	0.15780930234004878	-0.39076969919323784	-0.09342959645513693
Si	8.282275236108937	0.04283080031402536	8.341167722906327	14	0.6946378383391947	0.17781147328867278	-0.6663446240646891
Si	9.775455707391268	1.3127415020268414	9.724288059416718	14	-0.21392881816292092	-0.4260568341596101	0.3606175757722652
Si	5.526943811531651	2.626830296236455	8.159504735975476	14	-0.3238507696941477	0.7391886657740604	0.5464922924554544
Si	6.858555040591214	4.070919149523036	9.560851153860424	14	0.20530250270329212	-0.7365982771640113	0.11507110415588735
Si	5.491852032063445	5.394740084269096	0.0033207752262014007	14	-0.4693833012410214	0.40567285407094417	0.2963026617414211
Si	6.8823361112732	6.829789534295394	1.3342381760847581	14	0.3042152383641768	-0.18915493285063412	-0.1870841646257868
Si	8.28437308458462	8.25103551226613	-0.06909917964112901	14	-0.3193266527728152	-0.02986878761469225	0.39697634743607524
Si	9.671803665155041	9.657452548827617	1.264456077491066	14	0.11678320318857395	-0.20173252296626648	-0.16495903201431655
Si	8.249861677133609	5.441909492689102	2.738136267180641	14	-0.12466004144737963	0.0681638586951058	-0.3933117510232682
Si	9.52454844781499	6.809373966758226	4.124549014871282	14	0.38974202839677463	0.11292474543462773	-0.011262983965440676
Si	5.549768141125141	8.19790419957175	2.7389850067095454	14	-0.17894533073485808	-0.1899555750473282	0.04046919773913077
Si	6.884359776859469	9.543878545132026	4.128703256678567	14	0.12753248031104905	0.15512892504379444	-0.24669755546820818
Si	5.450457979769428	5.487024689627196	5.435222123393236	14	0.3868027407947814	-0.2845838208027182	0.7322726495733941
Si	6.85753829863628	6.917738804322045	6.833069945302353	14	-0.4856586550280908	-0.5477485345148788	-1.8288153871368562
Si	8.239839350588566	8.214464438708985	5.538443250315943	14	0.8051506298729915	0.48927080089236685	-0.46834226069689344
Si	9.646545482233806	9.609098396026647	6.846405410599688	14	-1.0713937279849652	0.8870567893937568	-0.3869544360086701
Si	8.167920130224791	5.449706332551671	8.176748984990116	14	0.51280001411917	-0.3496898639405719	-0.07880129273615445
Si	9.565282490578173	6.748730545585655	9.538920291714456	14	0.17337477394822529	-0.3524646008020757	0.9546074394700073
Si	5.482992631402477	8.248910390669336	8.223967485028117	14	-0.6071595793686044	0.6329979022834326	-0.07346727763897525
H	45.933878214762174	44.09897644523565	45.90142210971793	1	-43.12176878845827	51.579309695777674	-51.65055862374642
H	31.920033303142016	30.12683431764046	30.057956595742734	1	-59.05326912066379	7.885490542429017	3.1313856791038917
H	50.052878785875095	50.08628508645879	51.874267269354654	1	-0.3270427969491116	-0.3144688063809274	1.496075020798296
H	0.11265108127726972	0.07511126645834186	0.07609964436732296	1	-0.1701110128548293	0.13779761830174025	-0.07351304331367388
H	25.715038245702758	23.00003503984656	23.00003503984656	1	-0.1600201958048441	0.07182151312354845	0.04550059374012854
