227
config_type=divacancy dft_energy=-22920.457317772514 dft_virial="84.20137526183284 -33.999029095438146 -14.315590722542158 -33.99902909543814 133.06674822163384 -10.057231285421308 -14.315590722542158 -10.057231285421308 110.50183326616873" pbc="T T T" Lattice="16.3199774331 0.0 0.0 0.0 16.3199774331 0.0 0.0 0.0 16.3199774331" Properties=species:S:1:pos:R:3:Z:I:1:dft_force:R:3
Si	0.9049753886202613	1.2458997171977202	1.0052290099917944	14	2.309201733595451	-1.1334969772194181	-1.2157600061586198
Si	2.7204749581880376	2.704301860551835	-0.1124936044463583	14	-0.2912933772461766	-0.9937646021642665	0.3607988386973357
Si	3.9738981849824166	4.045314406229663	1.3458106190431582	14	45.4025896330878	25.78518459562396	-73.75700392752879
Si	2.460220278062392	0.1562474639444994	2.773041605500053	14	0.022704402640099625	-1.3705474884158986	-1.478930890523549
Si	3.764578154425476	1.467655570558683	4.149778581778936	14	1.2710642244844732	-0.7362774032200567	1.276426521740174
Si	-0.171033363498888	2.7142733667634595	2.25799943768885	14	0.2808942846683057	2.3645514604854707	1.9874001348414614
Si	1.165572788272002	4.054176153975836	4.014583888723135	14	0.6108462872871648	-0.6050456165743787	-1.2624152832980269
Si	0.0206610914303046	0.0803269289257182	5.159821985113495	14	-0.4804904762240611	0.8375457855752612	1.0942647382498107
Si	1.529981564375692	1.2795351906873393	6.632389868879541	14	-2.00019292647239	0.7930859752687286	0.3611433668102355
Si	2.617773340201539	2.985756191363078	5.522451883676977	14	-0.7209495017434621	-1.0408677658504433	-0.9955006124764304
Si	4.0388680151435885	4.061813903414526	6.869045861636923	14	0.5773193310229658	0.44817168234979976	0.5067131793842514
Si	2.789687982481815	0.0008975987588205	8.046499593480222	14	1.133204128323453	-0.48180482526372076	0.7863278249347194
Si	4.2144383323688785	1.1706483012536961	9.655192409015756	14	-1.7770142998097045	1.0966445533341396	-0.4725241635001143
Si	-0.06586742891999159	2.673098063699748	8.106720310208361	14	0.8575034764018467	0.3956511997540709	-0.8970337064780595
Si	1.4386386506826312	4.021568839064502	9.464101793251588	14	-1.618452434942448	0.8294794568543606	-0.6227520475826425
Si	0.1069774520739705	-0.10962128841813269	10.789186040954709	14	-0.8049387707946112	1.5800671180652976	1.4956083651826892
Si	1.4368924130972895	1.3833139271844224	12.282039656670099	14	-0.4146174723692073	-1.3556430479855324	-0.5400326474491144
Si	2.6599115219338034	2.7666604943237108	10.890451500927096	14	1.2431299365126602	-1.4388411879296719	-0.24342171017980752
Si	3.8326814202538024	4.1758415857395965	12.261019525736266	14	1.7237206858442071	-0.2938099751335375	0.066517837069147
Si	2.6786142160721362	-0.060383916502470006	13.724040222703948	14	0.28174197809235857	0.5133813410320555	0.4681028907915877
Si	4.297833417052019	1.3342560750205235	14.987565515529417	14	-1.730559568885269	0.03005853518731918	-0.5301878851782674
Si	0.1245703877468523	2.796640292868315	13.543247512700066	14	-0.27439658730322747	-0.34051358905296336	0.43387196589073224
Si	1.4361580141127999	4.119602943505134	14.881763101830629	14	-0.3178901762304484	0.7101189776928704	0.3075327355587639
Si	-0.0188332539577974	5.555777277595367	-0.2010947619306582	14	0.17005650542204218	0.4122535981378631	-0.15194281133106693
Si	1.3631424350771106	6.80843346545039	1.2911060546874071	14	-0.7300764114089237	-0.7859866392587357	0.18989489696177272
Si	2.6108863097247714	8.137271307963125	-0.0424972212357924	14	-0.05187950603941593	0.20924786381705932	-0.8996685752101472
Si	3.976835780920375	9.117008513204418	1.4459826405275262	14	0.7444044100265129	1.8991986239443135	0.6069724029012976
Si	2.6538241703512573	5.418950586796257	2.7004993058099234	14	-0.7667941093754264	1.5756373607092145	0.9374771931639886
Si	4.045347046184529	6.902338615600447	4.0823117950705	14	-0.25457439372701385	-0.7447461099235605	-1.381060480959452
Si	0.0667160677465128	8.246354037125965	2.6386465913384742	14	0.18997974343733762	-0.8904174811577223	0.8695290502052432
Si	1.4125919666994036	9.472816661200865	4.171092472306563	14	-0.39798164961625315	0.7132495555306826	0.1667073836320173
Si	0.08582676132067289	5.5191226082806235	5.41217779616152	14	-0.5512670921455014	-0.6462257249345303	0.21342976662028018
Si	1.4772517172893458	6.781260703024279	6.7471193102342335	14	-0.9314597782727141	0.0178735528540734	1.2729460164682895
Si	2.849663899548457	8.136063629633075	5.60049401576206	14	0.3190587435984557	1.7135151974969434	-0.34843439321274355
Si	4.38096738209623	9.502829099700334	6.985358340802628	14	-2.2021319091958644	1.321724769491607	-2.284315490980674
Si	2.7754080022278522	5.505577027011151	8.198128503811155	14	-0.5720094843157961	-0.7280454953165387	-0.16921601109288575
Si	4.190496925474521	6.722998383588112	9.491192955790535	14	1.050168225125015	0.9431043142676647	0.4705428697404082
Si	0.0618690344488821	8.168246625131149	8.168752544431575	14	0.6921824327584531	-0.058445851916542106	0.8404148820020144
Si	1.5730499848216428	9.465848030836929	9.65832584468291	14	-0.5722043740990633	0.7403479771629152	-1.490166363662064
Si	0.0444229785728982	5.579996124106087	10.76702351160056	14	0.9028603453545789	-1.1568994349539379	1.0828567439443135
Si	1.6370079763819616	6.902909814810606	12.148281121628411	14	-1.8987759342296815	0.5912416092210357	-0.8010191207340456
Si	3.1038149081141233	8.272776080590154	10.830328704063554	14	-0.17918650041388798	-0.3399008946551721	1.3144644822885727
Si	4.315654832408964	9.547170478386068	12.485158095802461	14	-1.574619460112968	1.6787397124892807	-1.7099310766806568
Si	2.692763636506634	5.587193234154085	13.621567084401512	14	0.7124044332119498	0.020814383119258775	0.9813286799517742
Si	4.127354932785856	6.809575863870708	15.097170483970118	14	0.14617196543999456	0.5292265488990641	-1.4410621087052158
Si	-0.0270422026066467	8.10991902578525	13.486617191007209	14	0.31426517483957167	1.1501929638368635	-0.6162710624021451
Si	1.1597791962832515	9.512049886950036	14.977300249723996	14	0.23196563620482372	0.7310637158518606	-0.20664821922785762
Si	-0.3209976361316439	11.05583815223413	-0.1298254204803105	14	1.1104022807917202	-1.6994749055646787	0.7532896357918806
Si	1.200970819324396	12.21302247210552	1.2744923176605114	14	0.3925211361373227	0.2070333708048158	-0.0214538170123796
Si	2.7506505964618393	13.441280293698059	-0.12333006946193671	14	-1.8808602152483573	-0.9146581192266102	0.04657685842714253
Si	4.045102246523032	14.568974414347833	1.2173723966446612	14	0.5005648952321813	2.9046550704414216	2.05366806047349
Si	2.65736560545424	10.85526562958133	2.6593403227236454	14	0.18682602565164397	-0.7540239434713149	-0.1942819739695414
Si	4.0897863447348595	12.220137982266351	3.9565010890387327	14	0.8375319016065323	-0.8198882055680803	0.13121224624524497
Si	-0.0791192505956688	13.789026372842553	2.5764674773183636	14	0.8159497864386773	-0.28543022867411094	-0.18527256381721052
Si	1.3706496246963367	14.866814002501911	4.141863392723882	14	-0.26805572736267824	0.09309792386883783	-1.220223187883865
Si	-0.240230067815232	10.890255661197898	5.3819205580005525	14	2.0770118970067104	-0.7272988463315677	0.26983184691783657
Si	1.508471834118866	12.043180466959246	6.746384911249745	14	-1.9445444371441694	-1.2616305819543179	0.8708236017339379
Si	2.552509750446572	13.25045079757282	5.3168038480424835	14	2.5497810868438346	2.7466274812596922	-0.4264329868679478
Si	4.252659719517197	14.889743570795416	6.759408253241358	14	-1.7386426097907506	-0.17392139093928874	-0.6706183153278393
Si	2.9231853978845725	10.911798031409589	8.232302536556066	14	0.2854518259588002	-0.7635884552622658	0.695198596409519
Si	4.43792410333775	12.156424790367527	9.66705703260962	14	-2.6527597684580018	1.627669590404647	-0.6343821853878003
Si	0.2145097833806664	13.626463077631444	7.850708824215322	14	-0.01218781054909794	-0.28566985568994874	2.096683680921695
Si	1.4572597449337983	15.004032372759415	9.451453810740936	14	0.5830107297596456	-1.4583155109560697	-0.8240832210084338
Si	0.2778312958210944	10.99866927128598	10.905106840662018	14	-0.8466248726817682	-0.7461756444815629	-0.7676775411634292
Si	1.2753735964418986	12.532126990854922	12.212304393098462	14	0.7981348547859034	-1.2065338518278006	2.1711873711152223
Si	2.772421446357595	13.611889337783685	10.940309031985215	14	1.4727232138385833	0.725498044165336	-1.2370081347453878
Si	4.150480340808559	14.961828911117419	12.374116969347648	14	-0.08418030217643624	-0.9640068862994045	-0.03723011925680821
Si	2.696092911902986	10.944454306253222	13.774517912904527	14	-0.4131118330937285	-0.40982107539447105	-1.0827060771725527
Si	4.178452782128892	11.971372566253606	15.25560482489065	14	0.38174331974579395	0.17276927864533037	-1.3926096289470253
Si	-0.2484226964866482	13.656916155521607	13.646226570302927	14	1.6601915015992001	1.5255658559309269	-0.6893465035903299
Si	1.2091797679732452	14.886495895286227	15.161879194492359	14	-0.3119321538720693	0.46167564171228154	0.25241157993170527
Si	5.368456576618246	-0.253122849987381	-0.0349410716842671	14	-0.311545202521387	-0.1355034210245721	0.1081229491387192
Si	6.409410017211096	1.3715961833874564	1.2518238690059353	14	2.0285673876750123	0.4233582020155827	-0.05236493072385988
Si	8.136651148820667	2.7998226884677697	0.0451573775573877	14	-1.214791213673988	0.46150234921370353	1.4884228971444715
Si	9.506664294397112	4.135841321051068	1.6858699888166633	14	-0.9021527771704743	-1.1723494639332397	-1.2254065362092834
Si	7.873540472644229	0.2349913550592069	2.7075984959933215	14	0.2500615896690899	-2.2340200429290014	-0.2992301222589417
Si	9.282166684827388	1.2909102149582101	4.1363962002837935	14	1.3926402251003351	0.41618738927768967	-0.030323616145826446
Si	5.238549556250769	2.6105272702212425	2.8059263600277493	14	0.7594160655487294	-2.3100836227202617	-1.4771344592363613
Si	6.546057188258442	4.062956301834844	4.036681138167553	14	19.41424735081861	4.85175544338435	7.613882833066553
Si	5.514030775321497	0.0098572663695924	5.348252444556067	14	-2.1099156173413056	0.2856459444104713	0.32720246258949276
Si	6.660460230064473	1.253227387065182	6.945537595865863	14	0.21668272907133151	-0.7076753991966016	-0.04424820833868441
Si	7.810414799932998	2.494688070401099	5.449485264573587	14	1.3637571992653876	1.75690234266391	0.06197289419472124
Si	9.432179917392444	3.9348281590075755	6.755295618928217	14	0.44940195624549056	0.17649661002794906	-0.5384028237866725
Si	8.162958952442825	-0.061199915374124995	8.216145758897298	14	0.45590505293174116	1.0795965823983658	1.7427031564228603
Si	9.68727748464923	1.3910822364425777	9.761517061992402	14	-1.5723622867524099	0.7795249373681395	-0.683219559612417
Si	5.324082557977646	2.6023509615272595	8.187651078299105	14	0.44831437869506796	0.8283993355093663	1.0290879897156526
Si	6.77026103823437	4.093850019115702	9.50437949755648	14	0.358858939733284	-0.38055701175107765	-0.24113034111849155
Si	5.606793527051238	-0.051407928914265	11.015739967681002	14	0.3662534386340298	0.3395311697101348	0.5644599477642452
Si	6.948507831758688	1.6060163392365048	12.224772855857351	14	-1.0340309396936376	-0.7115369422769319	0.9351341448857375
Si	8.299883563106533	3.0837902958037096	11.062692542756032	14	-0.0877479679186737	-1.6445324417573706	-1.620251694445488
Si	9.523196431536842	4.34764198817784	12.528879315345737	14	0.35269085807024875	-0.09397749899886049	-1.5562735952115834
Si	7.972863855302076	0.1427508426073257	13.861568672532682	14	1.3931657590277735	0.33289386132617255	-1.6332725431183142
Si	9.487618880732686	1.4101766100393047	15.179292610413475	14	0.5196453249235322	-0.06441775824365005	-1.1552901801340572
Si	5.387616230124704	2.9058862218054866	13.589139289241944	14	-0.47456253579792773	-1.387065040324126	-1.1768023612372043
Si	6.63149227012072	4.109435597564312	15.013889639129006	14	1.0961164483013812	-0.20856780645988016	0.7229043131183706
Si	5.375327287117581	5.402728529227756	0.1380506891065929	14	0.1892019840779928	0.37313654468659824	-0.36232736081016376
Si	6.954693103205833	6.708685763379283	1.169783342449742	14	0.48877329201291814	-0.33139824936144235	1.8088654096262309
Si	8.122387488544138	8.318178257809038	-0.0419586619805001	14	-1.318659497728926	-1.032075871208197	-0.4331253169057612
Si	9.5424050449756	9.465391071468803	1.103752713755419	14	1.592314835368355	1.7913754656859238	1.9144581340193922
Si	8.282209027546486	5.5345613069323365	2.989199706601462	14	-2.431142831166774	-0.5554237981165848	-1.783880950788224
Si	9.610018711480935	6.935288650037876	4.045053286590733	14	-0.07737021551496003	1.5007014677113706	1.9474063344760257
Si	5.641652998848339	7.909166983380686	2.6508049745261335	14	-0.6622413970842649	0.963180790160041	0.6389543819786196
Si	6.826010081145839	9.623433732930943	3.904113961478481	14	0.4326139240575837	-3.5595909288690173	0.5375798129736932
Si	5.1893448242899725	5.4613662081448835	5.391402464889183	14	1.2040871880051476	0.22935493586274536	1.178498262306374
Si	6.765560884733637	6.742451796688367	6.719522228394862	14	1.2420444158464936	0.3401983715407132	-1.4410736786791565
Si	8.366746510649945	8.463785096467157	5.51804548977004	14	-2.023487140672932	-1.9960611602229124	-1.1474822474978315
Si	9.663123918048242	9.776645681072887	6.811795380801609	14	0.298192938372794	-0.1735457524520151	0.4709097664695933
Si	8.155402802891299	5.41913010654802	8.04326823794847	14	-0.4408414610820576	-0.4686669912988282	0.6139773793460411
Si	9.410555947293588	6.827397279227653	9.447993975525119	14	-0.5876955407634875	-0.7141003342811195	-0.9517450279170864
Si	5.6073973662162615	8.144076738552727	8.120575971049064	14	-38.87005507647422	-12.822845281015992	-5.336079694751284
Si	7.103172257892177	9.337491408325597	9.589324980095766	14	-1.3412839389935693	0.9478120081088558	1.52721753398859
Si	5.436543522469138	5.366791938920068	10.955013331652438	14	-0.8090538248595083	-0.512593811472494	-0.8042515143425357
Si	6.8190414507819055	6.673581491920685	12.178717879541143	14	-0.09360494583797105	0.13141330668128054	1.056836643883351
Si	8.262119135326339	7.947845329897134	11.026804912380646	14	0.007309395314648973	1.0464982293910357	0.4037344977700845
Si	8.024092264464576	5.45392429843539	13.738924042122935	14	-0.6713382248174807	0.7945697601489861	0.5907759820475569
Si	9.286687318576359	6.793843405625199	15.139537145386443	14	1.1600521242975035	0.532248111871302	-1.5220848364379782
Si	5.674358233624272	8.16124535481235	13.5363604822233	14	-0.1449748588029336	-1.1159360707722747	1.8830114590697253
Si	6.938911685028025	9.631920121196156	14.870551277334089	14	-0.09316065883864945	0.35780247255723513	-1.2109864920212328
Si	5.505919746537246	10.473818797037485	0.1100782477862595	14	-0.718014585020513	0.4253037574113388	0.7244274359100263
Si	6.840714380813062	11.929397584295673	1.418369238710721	14	-0.2517963144285938	0.9238819595626416	-0.4881950504264169
Si	8.131281876245177	13.338170676275732	-0.0071318301382647	14	0.31279707370176707	1.2044132041597424	-0.40965318221706537
Si	9.407618351355628	15.089304254847363	1.4552197477546607	14	-1.6580901372210433	-0.11309161016990535	-1.0240676494675316
Si	8.275028237475922	10.708565352435196	2.740287410791821	14	1.669544668532835	1.500188532200001	-1.5311181578697866
Si	9.300526659439626	12.408535801754057	4.006880859374712	14	1.2157504930689356	-0.7476450311720275	1.1682135839152497
Si	5.607723765764924	13.558327171848251	2.6788916556884987	14	-1.152715475266461	-1.1363326492770096	-0.44649969256010746
Si	6.745291472761727	14.830534692668127	4.178942381451885	14	0.8321873449775405	1.4504548706607807	-1.1509013033525646
Si	5.576650528732301	10.698283766652343	5.297301475009929	14	-1.8649515010799411	2.2673014586351257	1.8390309027948681
Si	6.8821344835382705	11.96112362042562	6.951298547899747	14	-0.7435582592656522	1.1779035656458237	-0.40272739581618255
Si	7.995271184317722	13.613358135752664	5.651885624698893	14	1.5057994553401601	-0.46078655349257436	0.22333392142402256
Si	9.57150356473882	15.13299283443577	6.827462559137385	14	0.5491991521365063	-1.7707703705397249	-0.6779593352379261
Si	8.316366740313963	10.80346602120867	8.406779415293338	14	0.06641550707740511	1.7695588657128711	-0.8936732718246256
Si	9.54886775603911	12.270958391993023	9.836066718906803	14	-0.25688504607823087	0.8115619380993128	-1.3117468239651762
Si	5.511745978480863	13.614533174127848	8.200772340155318	14	0.8195850722508347	-1.021103165033401	0.06765452273118445
Si	6.8984544609713705	14.817723510383146	9.699076828333363	14	0.0759321963094012	0.1937788086583884	-0.587373638377405
Si	5.726272081838962	10.955829330524093	11.004267023545536	14	0.9233602822931836	-2.285008403864454	1.3718991184827005
Si	7.184151985915219	11.957778025051836	12.71668961564585	14	0.2131299757399509	-0.4008340338584254	0.12882446073442347
Si	8.134154192273403	13.565818041490044	11.282636878621922	14	-0.3217982563170735	-1.2550084430917443	-1.5619020018679193
Si	9.382387666244057	14.993979266660624	12.372941930972466	14	0.6214040170632888	2.8812634113492464	0.6033957382904397
Si	9.688207723362916	9.468769306797455	12.156196310683464	14	-0.9055489501878579	0.04627886732053736	0.12489426914204511
Si	9.408058990746321	12.19059882311244	14.582601595504473	14	-0.5212280973586153	-0.019003810752810494	0.6761222804866802
Si	5.44924046491209	13.264420698255554	13.641999696147755	14	-0.3318998720094033	0.8412445776888263	0.47008675565661395
Si	6.774096232931148	14.83960860012093	14.870681837153555	14	-0.2249994834504145	-1.2805490320104993	1.188900697321161
Si	10.875290241891745	0.0563528820764943	0.21795329861905052	14	-0.6079849041763721	1.295126942065207	0.11457128128165057
Si	12.165107018361937	1.5517524142714474	1.5386148324378017	14	0.32097781660941427	-1.1196819141131986	-0.8223114723323198
Si	13.581207780209457	2.7782150383463455	0.1487402743252734	14	-1.5305160050038076	1.2474378234765684	-1.161866810432464
Si	14.893905165040856	4.361203889424746	1.1490406511322717	14	0.07529610485319656	-0.6509128499331603	0.6061550485200226
Si	13.745190913457245	0.2163539408306067	2.591481856556815	14	-1.3010546253808082	-0.677073332344603	0.6789726078445965
Si	14.908446264933747	1.6860821485232935	3.87878535650231	14	0.41813551577876584	-0.872735732760532	1.7542741588056547
Si	10.799891946150822	2.698312428833888	2.912805892237121	14	-0.236293320679697	0.6456855357067673	1.0489605769561414
Si	12.243981469296111	4.095433056926713	4.228147113412682	14	-0.3093831600576744	0.090270479348271	-0.7992100910307892
Si	10.982953133017906	0.015389738719413302	5.273800707506265	14	-1.4682713449767468	-0.07320116823833993	0.5704012579380434
Si	12.156522710232128	1.1036221539359545	6.927438740892556	14	0.9507538668161695	1.8526233081803631	0.024772342649094725
Si	13.512353795419209	2.737186615079532	5.611689520281168	14	-0.014063174769613948	-0.8595493049050885	-0.46342810709849447
Si	14.874500711872901	4.243194132606	6.712374078279164	14	1.0314076409354904	-0.5554651929122392	1.4421152334443486
Si	13.733228369998784	-0.1416247641644418	8.170107102558521	14	-0.7388706200459582	-0.06682019905479641	0.37244414602388237
Si	14.98216360299906	1.294304770264295	9.51533020241409	14	-0.23987667016438735	0.5791905814749696	0.42154942942285856
Si	10.982594093514379	2.732747581217729	8.312857945165847	14	-1.1070397892540302	-1.043016438566491	-1.5846274875716442
Si	12.148917600748302	4.191492444097939	9.579206594087243	14	1.0396637172290177	0.08275873804492637	0.6921628923580201
Si	10.968836352538274	0.0113913442483038	11.076189164093206	14	0.20379094988557703	-1.6291484901847966	-0.5142287773455761
Si	12.326935914588557	1.3912291162394756	12.356883073178295	14	-0.40465263947990937	0.9899920193280132	0.06403697754573612
Si	13.572705071966812	2.7759792014380107	10.897387491336163	14	-0.32222248869489795	-1.0941729497898813	-0.9574086587163085
Si	15.047100793205365	3.9421721488524706	12.144462246909066	14	-0.09251094052424803	2.453940307819463	0.21373444260071772
Si	13.823412565294094	0.3944375345805939	13.849671408983951	14	-1.0018047056109014	-0.924114901704647	-0.14465244219578705
Si	15.116411737363741	1.725511214001663	15.154355684895698	14	1.117746643138723	-0.8182347277366929	0.6261672467793952
Si	10.777908936548437	2.8076073177033583	13.553806538099282	14	0.3610960584723448	-1.9954307251984118	0.9145527039084842
Si	11.98655014526639	4.128334131431843	14.952216444409322	14	1.5201066280046562	0.25625769638011475	0.9900056461862099
Si	10.554374205647267	5.423356980703193	0.1223671907933838	14	2.133647176556804	0.1129779673147548	0.08600321584842123
Si	12.161010704026229	6.7794002255969055	1.4060150157938642	14	-0.6719642889629368	0.35422169417786487	-0.5581874792252121
Si	13.35021481962136	8.186182280330126	-0.1444481202603681	14	1.555419216913698	-0.48656291276918684	1.4531306199674587
Si	14.919478569678525	9.434121994706985	1.3448803803294715	14	-1.1571578310386128	1.10953581829883	-1.4492186832228535
Si	13.591815765540973	5.435352164116521	2.718418641031467	14	-0.26635699807765645	-0.007718972392148563	0.47013354977344063
Si	15.106162791535754	6.705030088434269	3.9873132064324253	14	-1.0454962696477739	1.6910007995400027	0.09185659422027036
Si	10.837591094021285	8.32281313140004	2.713865367327632	14	0.7699452560557998	-0.6600204763087208	-1.2573370931802026
Si	12.319542964811362	9.494750710870951	4.047125923724737	14	0.7948631232660149	0.10849575941014065	0.4487614939102417
Si	10.870475848548981	5.5660588633782195	5.4212680235917565	14	-0.39858997313500016	-1.3498488050360467	0.7913448227459243
Si	12.221541500325598	6.7055196877572625	6.93972768389968	14	1.2845710120628069	0.003110523216315146	-1.183016979906534
Si	13.676157408915232	8.021774827669075	5.541334097567073	14	-0.15205311174930125	0.2609962434851477	-0.8378715446193239
Si	14.974166814056842	9.503547178707391	6.901914296187187	14	-0.4479191998073612	0.04893970421635861	-0.7567644846320607
Si	13.638099221541244	5.523218922616332	8.33134847959755	14	0.1026472661383998	-0.21957599388809415	-0.1279587695731296
Si	14.889955730502045	7.011829344199116	9.711365771340487	14	1.3706670448132856	-1.1362411179276122	-1.9588168998868434
Si	10.89722429156183	8.086858897672279	8.142820100290379	14	46.91390410933967	38.71579389947598	43.28847925741667
Si	12.432836248151942	9.36092689591953	9.447618616044158	14	-1.0513514477933472	1.2094762247561779	0.3898507861518169
Si	10.658348781873547	5.544141133685566	10.808851613761595	14	1.2701214001635748	-0.5620652202690594	0.9610768546765639
Si	12.074612743495399	6.809412664096376	12.20824071871762	14	1.2047104239347515	0.33990835086060056	-0.4018586193285045
Si	13.712616238500777	8.329830721696272	11.022235318699376	14	-1.3895782957745708	0.030224371480468727	1.565019467068599
Si	15.045631995236388	9.856956290021172	12.254589454627624	14	0.27319768089244245	-0.8052313625800441	0.10290257689669051
Si	13.525213937636492	5.384189034863753	13.505809484468536	14	-0.09625678386517177	-0.17977168398475368	0.24184973638706897
Si	14.82348446241703	6.92735714100539	14.819535027878219	14	-0.052663950272593095	-0.9975883499963906	0.025287849265784416
Si	10.792417396486464	8.155386482913865	13.652085442201411	14	-0.48632637107973326	-1.0844207473105596	0.5021764640468501
Si	12.258571529121301	9.531372740230825	14.719689405942514	14	0.4513377414410301	1.2728015203492973	-0.19934190923959283
Si	10.866754893694234	10.872956485118813	-0.3393576107438814	14	-0.4438437407643945	0.42547062214661635	0.9148422103675331
Si	12.157567188787844	12.239983074825	1.3231421703885824	14	-2.107717836513643	0.1490027523974776	-0.10261795553775013
Si	13.327138371530957	13.640906257659736	-0.0175113357857163	14	-0.06817825688489862	0.8575975788565641	-1.1679909261945247
Si	14.70030127275199	14.970935458525087	1.234606292814015	14	1.6068174120371823	0.23209084903391491	-0.35938035989220996
Si	13.574108590026059	10.973911865519968	2.598956406221175	14	-0.009725205873460109	-1.6428684223941705	0.3494471515983499
Si	15.031645774576221	12.228379570870066	3.821583835599295	14	-1.0944498578328612	1.3850192118208842	1.4653587968700832
Si	10.717476060113668	13.785093258281176	2.7136205676661356	14	1.7745326689546976	-1.2005375200001511	0.6173478413102232
Si	12.426324577156137	15.030862415659431	4.02245011784589	14	-1.237549095304747	0.5124102345526355	-1.826661057989104
Si	10.986445608188589	10.886322546636519	5.334233583941034	14	-0.2926614623870274	1.91295326607551	0.08132740371319994
Si	12.24904066230037	12.243573469860282	6.944493117310145	14	0.09013626765055927	0.07609751838148672	-2.0640825796832822
Si	13.523304500276819	13.716222953513494	5.410725318169974	14	1.9312510513074075	-1.9129396392173126	1.1392729653211306
Si	15.125665164568309	15.01816547321648	6.733557408987328	14	-0.7317203761506264	0.16780293160893237	-1.5597139912404734
Si	13.630314592305655	10.899509088402466	8.201115059681412	14	1.0946789433168864	0.5372532825980343	0.6474822241044867
Si	15.235237493054141	12.365418421375805	9.540267127931866	14	-0.707267879003358	-0.43257998546735776	-0.8267209179563737
Si	10.941092390902003	13.61533285302207	8.227830862739395	14	-1.9628661336555442	-0.17131891813423486	0.11536652415717237
Si	12.365630581082437	14.761223748509753	9.552001191706264	14	-0.30511538233676067	2.168250140397485	0.4449097210301279
Si	11.015168768470845	10.834065978895735	10.833478459708143	14	0.5120435949339823	-0.3342226085556251	0.09031213125445739
Si	12.064282197780244	12.44892774590098	12.239477155524574	14	0.2179510553257606	0.14354326736067516	-0.8619980256119975
Si	13.720156068074871	13.605083907194082	10.941728870021896	14	0.5360829154563029	0.1344161005846815	0.8386315633519598
Si	14.897511880053571	15.2638627334718	12.385899993054347	14	0.3628750062433552	-1.2670453297585498	-1.0721558036018572
Si	13.528347373303646	11.259234030982855	13.47382232869966	14	-0.964846609296965	-3.02624341236282	-0.5090875951474081
Si	14.705605265417748	12.416858990244938	14.857593215252209	14	0.3792871428334565	0.2968929875229271	2.289614796156031
Si	10.808900573693894	13.841103420831574	13.678654365462497	14	1.0007988892096595	-0.10428480311680213	0.7042653422104891
Si	12.21413223057097	15.395646551244083	15.04285759907276	14	0.6172776501349831	-1.8063984340715489	-0.8190767647290416
H	70.81167869119353	69.11772868154975	68.9707379088053	1	-16.912742880129066	-1.8212026013944296	-5.593354520396049
H	-0.7807101844514078	-0.9939568015787523	-0.948122144957891	1	0.443088350021335	0.26145852822171034	0.6818093083443157
H	163.9305861844497	162.09961854027085	163.90514823562472	1	-0.15087246018628928	-0.2483752016896048	-0.9565604510711916
H	4.0212734474729634	2.1653052298643285	2.130124254511795	1	-1.945061486424051	-1.760911724300149	-1.3560564817210121
H	137.0568024809171	138.95512593595788	138.83317653658676	1	37.80235422706059	10.71687965277803	6.621460090768872
H	192.1190599420583	192.1940665583408	194.03496654078546	1	-0.22639302253393478	-0.01158257235673508	0.04976477191359413
H	139.8652209014989	139.820429091436	140.0361645051219	1	3.473705983865323	2.8628427272830455	4.300100114335505
H	117.83523914006526	118.07076252638878	116.19260893145758	1	-45.47598903354632	-25.327882918282313	73.82608567082318
H	57.11078509248295	57.054267378634385	57.09904613271532	1	0.48152560322595284	0.0458142685891866	0.28599715739720355
H	50.92958711170535	49.10367539653526	49.089514552116555	1	-0.8920205653248345	0.1501417520543032	-0.18962853045060538
H	135.90104126307787	134.07163544073936	135.90682343108242	1	-0.0576400675092077	-0.22003596462986863	0.36820542179308624
H	57.929231960752915	57.8904981263132	57.91624452271165	1	-1.6919215123551476	-2.665564387173403	-3.9057804900267397
H	26.714962579146896	23.99996623738315	23.99996623738315	1	-47.25411147974901	-37.858915201666925	-43.509605113591746
