67
config_type=vacancy dft_energy=-6748.75597365625 dft_virial="-2.5425750533983145 23.801196306091562 -24.217082188431814 23.801196306091562 41.72564153615933 20.77420871928558 -24.217082188431807 20.77420871928558 37.75936623213603" pbc="T T T" Lattice="10.8658030118 0.0012712989523806 -0.008203681273909 0.0011191777102154 10.894325744705977 0.010539828921446 -0.0082797418949916 0.0106267553455404 10.870551367716157" Properties=species:S:1:pos:R:3:Z:I:1:dft_force:R:3
Si	7.023714828744085	9.460190781810239	9.693476312732683	14	-0.9132126438156232	0.22103920992579043	0.048145489782964866
Si	1.4212622460676567	1.0473525791467997	1.3613873251514341	14	-2.0729729476592893	0.003710619198037708	-0.7909277894629964
Si	2.9138248049184434	2.47387604703277	0.37923717013754243	14	0.525771754680381	0.13530750279917683	-0.9484383293648438
Si	4.213912702378808	3.928522386273881	1.6084908977639825	14	0.61513849050862	0.06671992594731065	0.2329357142421156
Si	2.9200596026866146	-0.16105075908029726	2.891505358951905	14	27.837096591163785	-31.2856815904986	26.38059473790055
Si	4.106255412718195	1.3191791133520967	4.24863002958181	14	0.7244325781206666	0.2556488586403037	1.1921670295198772
Si	0.1583201827834319	2.4801630006553976	2.838925738177805	14	1.157367376122205	0.5551803144427667	0.6911979565313685
Si	1.4868721378135075	3.9662267227248265	4.362778549961672	14	-0.9637739441573991	1.2697159368545874	-1.7321824505633467
Si	0.29930832318274164	-0.07228366795569832	5.623380119277155	14	-0.5919754026794058	0.3096914355855602	0.8045207090695552
Si	1.55089996864084	1.3293375525878286	7.133816924082353	14	-0.3157839267521831	-0.11491992316306265	-0.9140413110603068
Si	2.766644243382709	2.7683490878752606	5.698935480519707	14	1.7817397342776045	-1.2242945331583195	0.9318500720603125
Si	4.2747166494525395	4.121998874701991	7.097339336791439	14	-0.8731417102905834	-0.1531352899785516	-1.125925329162114
Si	2.8570357720575723	-0.0726759234444243	8.42391480225367	14	0.024189215962485144	-0.6401818276584583	0.19939641667237995
Si	4.247352211147622	1.1562920335628053	9.795731125135829	14	0.14463701556386616	1.8152612912206312	-0.6944943706623303
Si	0.04873964598973009	2.5076197982859147	8.458547376193179	14	0.7373382412751499	0.5155855496230184	1.0251040620220835
Si	1.6347437644207925	3.8641924861228203	9.839731107851811	14	-1.5782694012254501	0.0029837677240318458	-0.3829455685934952
Si	0.2875297927179504	5.425188958922225	0.2359563453027429	14	-1.0580900577269232	-1.5828089447787037	-0.21691901365025312
Si	1.520824512484479	6.697128993680521	1.6417945839951493	14	0.1090883991864348	1.1393529266965874	0.5303704336559979
Si	2.7403435671926473	8.121351084488591	0.1997308446417029	14	-0.1647371456251878	0.30867662031569776	0.09317634258110236
Si	4.1951887506288745	9.42785306546682	1.4856301765292586	14	0.4278249832882759	-0.6312791183769136	0.48725325454764656
Si	2.935934540886854	5.335609105732343	2.907433539586903	14	-0.7569282640409541	-0.4379456251599748	0.8105867178513805
Si	4.324013711136775	6.682135272104539	4.221696963656461	14	-0.18799099347220308	0.5113835921983004	0.4620687637157322
Si	0.1459342539302811	8.173878549408235	2.980142060440363	14	-0.272235830392175	-0.4953820611278268	-0.5541063637505409
Si	1.5662337898510923	9.383915017828006	4.328817482648292	14	0.4889363000902156	0.03595176569163059	0.05354583939740389
Si	0.16634240514704385	5.448524357470367	5.730963521477288	14	-0.19324119053594543	-0.6540076894070227	-0.16880154891527788
Si	1.5160174812320586	6.715051049168183	7.169558896509368	14	-0.8677652719556218	0.8409121337709311	-0.6216387589790183
Si	2.9142996405100594	7.955058662035402	5.703278541983524	14	0.25395501445539015	0.546973346260854	-0.08468346748758922
Si	4.241943214408349	9.42015464403296	7.075565354136094	14	-0.29047036643319724	-0.2524707153540687	-0.28529678830799526
Si	2.7775426438035447	5.324516207437596	8.427187582120823	14	1.099185576722042	-0.13571168055550412	0.867580152372571
Si	4.116523596564345	6.7180652229236575	9.82741037381673	14	0.7176374038700473	-0.42981013370596227	-0.381311116941477
Si	0.15321542852848827	8.203670408105989	8.544978319670241	14	50.32817899372977	-2.2620679737559644	11.931271059574737
Si	1.373206059087369	9.82652481087127	10.017454355073415	14	-0.1556524020869766	-0.8161665306171659	-0.2678860344115485
Si	5.58412957905763	-0.0893723163523562	0.26977398401636804	14	1.215447102641158	-0.5770329098903013	-0.32596653226209754
Si	6.926077982620954	1.2728060392583367	1.6649094067421515	14	0.26369873228715535	0.2925573326215614	-0.507053593728639
Si	8.26045944096686	2.6198570239160017	0.16837539689055164	14	0.5854957030515687	-0.5575475311110271	0.7896224392919572
Si	9.70070315831583	3.9071765162571994	1.591116478748114	14	-0.2934214811196632	0.9164560931769898	-0.9878520883700539
Si	8.325704241731515	-0.03501287704492314	3.0229576706280596	14	-0.1894881481001253	0.06596504942531517	-0.06978828303637535
Si	9.696519824156288	1.3287290676191679	4.308540807647971	14	0.583085034703398	-1.1709399839967345	-0.08071162398902447
Si	5.609002488731942	2.6645133011338973	2.9934678812540336	14	-0.23793651408980362	0.09616499540524247	0.5171706360528896
Si	6.9852270678959885	4.063290941029236	4.400645873457796	14	-0.36428654306411656	-0.6801414323231357	-0.8532866065662718
Si	5.539295102670342	-0.020532021371097282	5.743809073797839	14	-0.6896172409805416	0.6362994586250347	-0.2691430478025689
Si	6.910194351778305	1.4006802420027051	7.054515033961334	14	-0.2945957049193748	0.2660903744559571	-0.7532040179847197
Si	8.325025129043278	2.5922546245251263	5.567379943714941	14	-0.18323676262471725	0.8272425952258319	1.4841008691013027
Si	9.708121242031986	3.925752693086173	7.01701606118731	14	-0.2744552085045268	0.3083081809233205	-0.23924932046627123
Si	8.238329059972727	-0.024193796986073882	8.2480659060516	14	1.11523107369349	-0.1527131144849833	1.703746282833041
Si	9.710245506520794	1.0801759968848452	9.933684446753942	14	-0.34896275535603394	-0.0461284576593087	-0.43063905806117797
Si	5.57150460253822	2.7869469963102573	8.41555465341639	14	-0.11847241938391126	-1.3125765196519878	0.8132012748514391
Si	6.93450875917781	4.078239026232569	9.788300002456058	14	0.12066531511146555	-0.040210544543923865	-0.19951545884870278
Si	5.5898917143947875	5.316141933056402	0.32762460583149244	14	-0.4183638299311951	1.1206221673287768	-0.30337448692448843
Si	6.975176200110074	6.822507321473079	1.5952041938411534	14	0.30547070909200513	-0.62708410293656	-0.2898818404254153
Si	8.385329249178465	8.287013290367097	0.2942329065959299	14	-0.09726080049268959	-0.6160877425928187	0.2041925565365842
Si	9.705920916922096	9.661202704627033	1.6410774409963707	14	0.7203812874677094	-0.30118879029183054	-0.19536415219879172
Si	8.25937286066568	5.295047063089294	2.911981964727642	14	1.0902507286239953	1.074616865614303	0.31106851959503157
Si	9.661296150532936	6.798083169463155	4.359789367553127	14	-0.7046412378082947	-0.5733665137037702	-0.48106768936843436
Si	5.659914208743731	8.167271054596759	2.946782958613835	14	-0.4152278527722104	0.5159390766045387	0.437792644393426
Si	6.953246836471659	9.598391843737023	4.439606296736906	14	-0.47277767448468094	-0.5910420914481922	-0.6504248541433963
Si	5.6515334148807295	5.421402226572612	5.689192114959026	14	-0.7538930742105194	-0.39335957358222295	-0.02796411279352655
Si	6.998501819435504	6.703561549063506	7.015686086898666	14	0.9830554342847858	0.667643289361896	-2.9969716354034666
Si	8.266203104438897	8.178297671493135	5.732932404983027	14	0.8278128663858406	-0.3651026118927316	-0.3396288717123004
Si	9.674443772177213	9.488875415181091	7.035318419780387	14	0.24686030643497353	1.2530546601589638	-1.186367130138687
Si	8.363655231910828	5.3491511560259495	8.405283209829335	14	0.6542087498430582	-0.3517392919912619	0.18179565809277426
Si	9.615642392598556	6.794958164516961	9.859181981823234	14	0.3758164077617886	-0.6623699523502722	0.20872592943706925
Si	5.603026297075451	8.006804875718498	8.408734188865884	14	-0.8905462935342617	0.8995099380118938	1.0067355713938815
H	50.07600611080444	50.05586851808267	51.866784979635284	1	-0.7371796040768968	-0.5467640582877941	3.016280379247246
H	31.874051883878753	30.05806543864084	30.08063588465695	1	-49.52602395866529	2.0878719887684842	-11.580665110808596
H	0.1417672184752558	0.08351021562749009	0.040893449634909304	1	-0.5794862585867866	0.2369677216051718	-0.7375202755318164
H	45.84725615441301	44.03159133694425	45.91689291275504	1	-27.213883030176177	30.881853504494863	-24.740959480446467
