224
config_type=interstitial dft_energy=-22929.24166743133 dft_virial="19.008965322405434 -129.31125034878406 -20.864763952453412 -129.31125034878406 37.61883416523066 -19.204522597399738 -20.864763952453412 -19.204522597399738 -100.20115312820349" pbc="T T T" Lattice="16.3199774331 0.0 0.0 0.0 16.3199774331 0.0 0.0 0.0 16.3199774331" Properties=species:S:1:pos:R:3:Z:I:1:dft_force:R:3
Si	-3.6165559591072594	-1.5933193967935528	1.4367781732552578	14	-1.5153009750507673	0.20666904518095078	-0.04825938974864743
Si	0.1320938973435114	0.13135949835902191	-0.1578305017555101	14	231.7487485586584	228.58928872345328	-919.5536999315083
Si	1.5608752816565503	1.4271493865697287	1.236254610534758	14	147.1371828026787	110.09528619593202	55.93202850893214
Si	2.8265874514580536	2.835285999429896	-0.1605232980319716	14	0.206620194179868	-1.1283336835154967	-0.03309295368615794
Si	4.010324374613096	4.106481681648921	1.336296072199661	14	-0.1782753006884275	-0.39601732515166005	1.567433220743154
Si	2.878109620214351	0.0738152579299113	2.5837135472986597	14	-0.8054072261839422	-1.5429562980953444	0.3151367795431018
Si	4.1596848080808275	1.4006294232409413	3.937357755509706	14	0.03801070683200517	1.4427125012102189	0.8642585414094718
Si	0.14260396281042778	2.6022530416626615	2.7372845349441306	14	-0.5479153992501563	0.32308406608767953	-0.263883851870206
Si	1.2669851280412854	4.107118160768812	4.108505358850626	14	1.5759482073424205	-0.607116641909758	-0.678114115778199
Si	-0.013725101021237099	-0.020889571114368	5.590946828963697	14	-0.07841382716440813	-0.2812408696654617	-0.9239642349328865
Si	1.388683199759912	1.5005076851315133	6.6594973513959195	14	0.12340637049327541	-0.5799022634275866	1.2559890626608488
Si	2.840965351576615	2.874600825066234	5.386392231817221	14	-0.6016432729042267	-0.9324193147781934	-0.6043899847177409
Si	4.060345105445547	4.103805205349893	6.894945665823253	14	0.28664199061149676	0.16636979750348183	-0.38648186685082686
Si	2.7242122330202174	0.0179193352215438	8.115043498699244	14	0.2098119643242998	0.4789730098641098	-0.5657547564034718
Si	4.069973892131077	1.4074838137628434	9.506811174194011	14	0.04321385266838884	-0.7441568125841826	0.1838278597378193
Si	-0.0930075513912369	2.700107626351529	8.173256858203109	14	2.596489071642305	1.8306804669360912	-1.2990543054417332
Si	1.344782460464873	4.133246444639205	9.559394141483459	14	-0.8915317982034744	-1.0565049712970518	0.39974105698683043
Si	-0.0245778860142486	0.047735933991817504	10.832923580475418	14	-0.9601674547248276	-0.40047819288211695	-0.3801340649259133
Si	1.464440535004362	1.261517935601197	12.045824303303409	14	0.1804666537527897	0.8539712919130272	1.2484325841249335
Si	2.803151963864122	2.793082537787899	10.923842174755217	14	-0.8910134633709326	-0.38739846589745963	-1.283878870510623
Si	4.020850760057446	4.0636743808419	12.316605368873404	14	-0.10265780767021242	1.5179695252625494	0.336027524490369
Si	2.7864239869951946	0.0655736693261958	13.611057018934597	14	-0.4290310887939574	-0.6493802140518201	-0.8942880231066731
Si	4.1475917048029	1.3446355806679753	14.90425203073344	14	0.24293859949015167	0.27588988527316943	0.49893712845399557
Si	0.2222291327065227	2.762107220619876	13.459101709055004	14	-0.17234787448335812	-0.04321410977892085	0.1532432764019978
Si	1.3933180733509125	4.139676515747847	15.010544043755223	14	-0.5491829541729895	-0.21495983139630026	-1.0757715490135815
Si	0.0583765592781987	5.420794744246196	0.0186863741608995	14	-0.43982484603847105	-0.404959115234071	1.1706571624115183
Si	1.366112670969935	6.796895241405188	1.3462675784112852	14	0.08561832138199506	0.6450571575665232	0.24910231027414273
Si	2.7932294175847976	8.225513425943896	0.0622933538621427	14	0.017784849720528295	-0.8886274776338352	-0.288800176417229
Si	4.041054892119623	9.642936105963498	1.4216332341973412	14	0.31995811623944354	-0.5896030438005053	0.08423146717230719
Si	2.6748116613302235	5.400704852026051	2.7356851771556867	14	-0.19109894558319807	0.5568844430489609	0.06922418252913486
Si	4.14338115062516	6.791232209235903	3.9871826466129603	14	0.15780107480302433	-0.3881070625236924	0.2188157180449264
Si	-0.1434852415918152	8.107046709757023	2.708577694639308	14	1.1244016921493942	0.5658007791887024	-0.08612302935634013
Si	1.3796745722168409	9.439899266718301	4.1037562454175935	14	-0.397146040387205	0.3759953566920709	-1.1710027189665462
Si	-0.0104937454894833	5.469819956455229	5.3406146951173765	14	-1.0779297348193138	0.7975638122942985	1.8807414301825667
Si	1.353758448053078	6.830644954736839	6.818192811955384	14	0.06790314861564278	0.1757995833756569	-1.4811960343105992
Si	2.835383919294495	8.180551888115707	5.367493697949692	14	-0.7918626433574022	-1.2359969190229734	0.49436698874743235
Si	4.1213818210453415	9.391494213651725	6.801562754951055	14	-0.0936373417650049	0.7595536196833574	0.7171134126058011
Si	2.5555615862265624	5.398942294463276	8.123725726693651	14	1.7161176703019971	0.7463700200437661	0.6123043611142207
Si	4.206702663065588	6.686327394295937	9.503955178143217	14	-1.63223458790057	0.14017614783340926	0.39558717923159925
Si	-0.0047654334104652	8.178495570959134	8.146606335054859	14	0.7390634529449693	0.12759341550713657	0.2669347254430937
Si	1.3596989198387266	9.578537475012485	9.514759003203931	14	0.2792222948786134	-1.0260713118435232	-0.8051902248949216
Si	-0.0272054023809777	5.578037726814115	10.860226902720994	14	-0.5784953545964016	-1.082639228434229	-0.05158922824877121
Si	1.3697846658923822	6.829094556880695	12.157877268359075	14	0.7137812601108892	0.2292024693172606	0.8583858797477214
Si	2.726072710447591	8.249895472228948	10.847448360390876	14	0.9798235548973594	-0.9198327257939404	-0.1780151048300285
Si	4.045657125755758	9.649317217139838	12.260644166255304	14	0.2306929390713504	-1.3352438983754775	-0.07928568897847033
Si	2.6906583594177635	5.534952986390731	13.745827392577137	14	0.23158614105956984	-0.05882920371977618	-1.7061939750978214
Si	4.186384291161379	6.780248864423427	14.963705708522225	14	-0.7118835272740879	0.8300250454032961	1.0357888044010228
Si	-0.030942677213157598	8.106965109869858	13.510819717540498	14	0.13676583373676482	0.23605780743237142	1.6361061582916492
Si	1.4688795688661656	9.542241845201271	14.99595398393003	14	-1.060015044280118	-0.15894315978623408	-0.9321390642982972
Si	-0.0462344960679723	10.884984308487008	-0.044896257918458096	14	0.4903838323854589	-0.5448799523091895	0.5192650584466824
Si	1.2832724655195191	12.323720879034235	1.3029543583038379	14	0.10192195732758604	-0.0508893733806269	0.03216992687622478
Si	2.793996456524153	13.569163636863829	-0.061509994945353905	14	-0.51505873014292	0.7282349857786337	0.8034693841041466
Si	4.222222961604466	14.854851459043447	1.4020166213227547	14	-0.855982410494447	0.26411268024369916	-0.9487574035350742
Si	2.629115724517544	10.995356315867062	2.7307402239934575	14	0.02043617352666499	-0.33615042332467204	0.27138273764694987
Si	4.119064384249842	12.221443580460997	4.127599732447353	14	0.05367413755287928	-0.23894258760157755	-0.5939361275965509
Si	-0.0196982127617517	13.655887996943324	2.801373086323914	14	0.6962720328806807	-0.0933905156542707	-0.6175818118943567
Si	1.4084466924313963	15.048226871648248	4.065616458156439	14	0.44473488586835785	0.12398461207977671	0.5214445844265718
Si	0.0754146157183551	10.84925987788595	5.431761769081239	14	-0.6671691775408606	-0.0038461164484095115	-0.7621062130452004
Si	1.3929753538248173	12.248534742999944	6.627673395401375	14	0.38046162374370013	0.1588341449206598	2.1030991029165285
Si	2.836738477421442	13.592386964751132	5.455719495953031	14	-0.4037229277961439	0.9629447626916514	-0.5562324107397715
Si	4.218420406862554	14.930380314603834	6.798380359351601	14	-0.22458013617269834	0.4693920429991099	0.2709363937633722
Si	2.716101204235967	10.837950133524812	8.137075468233927	14	0.7306996473385275	1.0254305923977423	-0.4266379039619636
Si	4.105567762912668	12.306992902165309	9.639998510025539	14	-0.9267353722469419	-0.10366233851879428	-2.0620946010497434
Si	0.16646376981762	13.534826404344587	8.302625319315293	14	-1.1528530294010888	-0.8755711477075911	-1.2563593018269503
Si	1.4198053967248339	15.012355561250295	9.544412402199873	14	-0.6692188627020828	0.8743717270757422	-0.5761834166925245
Si	0.0551941636787442	10.781874691064681	10.894759974969434	14	-1.2697300779338483	1.2246285197394067	0.43930933942178146
Si	1.376116817136425	12.32026104381842	12.130704505932961	14	-0.0022304338652284583	-0.9491543821965052	0.18643007543234116
Si	2.6834122894374675	13.694664263324368	10.837329974382355	14	0.984817155650151	-0.49166578549808476	0.7537547487442954
Si	4.081756915837775	14.880734943252344	12.29842491401293	14	-0.179898696587569	0.21946183681187958	0.21155054574178392
Si	2.7523478741148817	10.984372971054585	13.5619502068384	14	-1.3856103089339862	-0.12366116703050209	-0.02225754453545789
Si	4.077774841344098	12.242545311281996	14.883493019438538	14	0.6850977520487852	-0.20139339417453897	0.682230455395756
Si	0.023288607797033702	13.626724197270374	13.4569801119887	14	0.7237867164642454	0.3663506264151314	0.494690176686175
Si	1.4333346580168738	14.984774799388356	14.893431885695296	14	0.47642478738131105	-0.6400303895551016	-0.35409648134877364
Si	5.457204613899443	-0.0967448262234168	-0.0651493499129352	14	-0.3414343018681084	0.3904791642920611	0.25627055190671555
Si	6.739351000976078	1.339853827280077	1.3139377031163142	14	1.6613988926575416	-0.25414913290706137	-0.7844573458143117
Si	8.27138888250834	2.7158400845970374	0.0591762381724206	14	-1.7026944436465683	0.009560398022438618	-0.9493574995167969
Si	9.339253965888373	4.167714236977913	1.4647179746207248	14	1.120333432201324	-0.26616827894715755	-0.1573367331822056
Si	8.206043692866208	0.0782869317465807	2.662767517984596	14	-0.5159537319048636	-1.1716745487867009	-0.3778830622181236
Si	9.48043809066212	1.3946889514552927	4.0084802171631555	14	0.8205394665456738	-0.3599123215829486	0.39205139519533166
Si	5.542329616190493	2.7870115061827865	2.5659900518063132	14	-1.66588032923056	-0.59121281284145	0.011647107100270797
Si	6.783610779774645	4.1277302922668175	3.993645357676468	14	120.32051960361241	142.94047197547698	91.56241040642325
Si	5.512676217194549	-0.004161594245440501	5.322907519602462	14	0.3622826235775931	0.026003644986913644	0.7787314942663418
Si	6.921938908497601	1.4086425321605935	6.773818793314786	14	-0.33832043621487706	-0.30326238673253	-0.9231918748947139
Si	8.268500246502683	2.8256408927669336	5.311287695670096	14	-0.7439608943587873	-0.18995120416828395	1.0454206791513616
Si	9.621067336203144	4.083176753874454	6.8031784327169325	14	-0.4386714481918527	0.5531033755651512	0.09857643508500936
Si	8.261009376860889	-0.0522728877182193	8.118340134140729	14	-0.8257549536875942	-0.055842350669360157	-0.2678443825053621
Si	9.554906147689357	1.3342560750205235	9.432457357008806	14	1.0966034156490174	-0.04227617055813083	0.9176575706930951
Si	5.420011385329408	2.650690734684102	8.088588815280188	14	0.7741798665180837	0.32487561227475875	0.45975168360121477
Si	6.89266086898262	3.9929109586919784	9.436080391998956	14	-1.845399530672875	0.45335245956989817	0.041849109964454234
Si	5.33805245866038	-0.1387687681136493	10.844021165129925	14	0.9773208409787274	1.1951081168955944	0.13511826944761393
Si	6.864313068181325	1.3166468193702088	12.199950170181605	14	-1.6517821874285918	-0.13446186625938014	-0.527142925147616
Si	8.116447016758489	2.6554235281397007	10.761637919047637	14	0.6274175752965832	-0.6395107691698997	0.4384392773814433
Si	9.291338512144792	4.053376475081614	12.208893517814944	14	1.559602662380111	0.044829278141037876	-0.28664584726947695
Si	8.190490754372464	0.0580501597295367	13.601885191617196	14	-0.5267274345278802	-1.0350791793326617	-0.2904654813330889
Si	9.48696608163536	1.397806067145015	14.86092249064856	14	0.7413108561053108	0.5546799773474659	0.7892966802478943
Si	5.38490711387081	2.738149493748085	13.514834431989039	14	1.7178937898571556	-0.5818987267086816	0.6938665067431502
Si	6.736707164631916	4.116322628041081	14.983926160561836	14	0.2505698971908832	-1.0525565248569004	0.19842428175083196
Si	5.369044095805837	5.389917346942771	0.0895640361528528	14	1.5145882646560225	1.0863303072318335	-0.9065285413148343
Si	6.920029471137928	6.843945736344816	1.255348984131485	14	-2.043927942189173	0.5690995073144525	-0.2858413484148026
Si	8.286289021904762	8.16277943269106	-0.0430031405362185	14	-0.7387839737966692	-0.13227822651097837	-1.07088387779998
Si	9.611699669156543	9.284255641938826	1.391098556420011	14	0.01566008828395792	2.0248624249086795	-0.16119570515721582
Si	8.106752950163228	5.6560308989669	2.720850317668999	14	-0.17984624603903798	-1.479593207254019	0.3142410064495622
Si	9.589635059666994	6.755181379086185	4.030740666381904	14	0.29016389067903553	1.1469081196798425	1.190866307338414
Si	5.507943423738951	8.193689469949351	2.6381569920154813	14	0.09332392402647885	0.2141087955353313	0.3180634687290264
Si	6.872048737484614	9.480748170233351	4.171271992058329	14	-0.1190344630068956	-0.13188433317593168	-1.3132768887411963
Si	5.448489745950167	5.374005368945499	5.4617252476484115	14	-0.652172434429501	0.6016149907457051	-0.2919490091028144
Si	6.830187995368712	6.767388722206144	6.744475473890072	14	0.08869696289234037	-0.27662702116845594	0.04374298614327531
Si	8.207545130790052	8.10038815896432	5.443006233532645	14	0.5502625612969196	0.19264932209124733	0.17856763536332831
Si	9.460250278577377	9.561401498707731	6.897263102618753	14	1.0102219902080025	-1.2053853390812903	-2.5247881433582715
Si	8.129209239111173	5.429591212082637	8.143211779748773	14	0.8965320838300984	-0.014245980357876475	-0.2592010977506203
Si	9.44789605566052	6.840795980700228	9.53976120863144	14	-0.5396678076041854	0.20462578778302912	-0.5693306496827337
Si	5.499228555789675	8.061154933215146	8.158421998716422	14	-0.6507920079831134	-0.42206622159220825	-0.7245423643178369
Si	6.701488653331286	9.459711719322085	9.4610009975393	14	0.46007847108740557	0.8903123229501283	0.4688611097504994
Si	5.482696418649946	5.305314583929581	10.941043430969705	14	0.2573275333038284	0.15249019965372645	-0.48690152733985037
Si	6.760566971639108	6.847323971673468	12.22172102007736	14	-0.42311420412070067	-0.7707924352587887	0.6848077313686726
Si	8.015230516718404	8.184517642631949	10.869561929812726	14	1.206420723193714	0.14601358535227343	0.09169410036403698
Si	9.54444504215474	9.490719676444973	12.231202926965992	14	-0.7245696180342306	-0.8196323805887256	-0.773541718177623
Si	8.12370940671622	5.4447524711179875	13.643664333845932	14	-1.2503603988939807	-0.06972940472454396	-0.6835805427993658
Si	9.465619551152866	6.65202280173156	14.98204936315703	14	1.4458605625642083	0.7680130704077086	0.3304626241354405
Si	5.3977835760655255	8.199776821531898	13.625712358669523	14	0.873900700581091	0.43478342272672477	-0.5606436561375495
Si	7.002135277603855	9.568484368913696	14.815095994016415	14	-1.5308073112365805	-0.6889518389236872	0.8582280138810645
Si	5.374837687794587	10.760952479995446	-0.1216980717186267	14	0.9282016736110223	0.41265443345727415	-0.10677517572989756
Si	6.811828020756475	12.031919682530408	1.2939457307607665	14	-0.7695079110408426	0.5333205199003358	0.335297844800511
Si	8.052211585581807	13.567629558985118	0.069523103865006	14	0.13013701000035904	-0.9397389945141228	-1.365777316715428
Si	9.441074305093483	14.856662976538523	1.290730695206446	14	1.024108530042122	1.5110571086093312	0.4511181690466895
Si	8.241131644347373	10.760381280785287	2.658850723400652	14	-0.5112874328593269	-0.597933167927253	0.08396330088741574
Si	9.47133154325445	12.13894609453668	4.042295210404539	14	0.13712373159732943	0.42265423337892616	0.09468815250934944
Si	5.523333162458364	13.523581939893182	2.732731261240296	14	0.7221777187548968	-0.6702182513400242	0.23224074447407955
Si	6.920878109964449	14.944235975444537	4.027476670895284	14	-0.3240932249258377	-0.20401823559587817	-0.002775508193099851
Si	5.4207131443590315	10.748940976604684	5.422557301808971	14	0.0887041619872368	0.8121332377014496	0.6508668271479298
Si	6.7218396651903625	12.140072172979563	6.902811894946008	14	0.7702134223406913	-1.341747766393324	-1.7582424027567713
Si	8.060893813576216	13.414238091091411	5.4365108825142725	14	0.061963638215568696	0.4583841126814279	-0.2564492437264658
Si	9.435068553398104	14.7929497846397	6.726360298939331	14	0.9877811258632178	0.4931922507266566	0.18348564561970757
Si	8.152236727269278	10.760267040943257	8.132358994755762	14	-1.5392585344239071	1.623764338533874	1.5128026320111796
Si	9.401400439953617	12.208420238469385	9.52970810253265	14	0.26218486547465214	0.0541397647263581	-0.7210114653816776
Si	5.5736150129297455	13.509350919571517	8.173779097480969	14	-1.580648702088715	1.1090773902202478	0.9357892625213114
Si	6.836389586793291	14.946651332104636	9.488549119446372	14	0.005348927508036064	0.6197896200327678	-0.07163716487209384
Si	5.360606667472924	10.874996482297949	10.828060227200353	14	0.8193336181505244	-0.42164790275662023	0.08537843725562523
Si	6.713124797241086	12.308722819773218	12.059223004775985	14	1.0406497361192948	-0.17521234292053509	0.21443404035833
Si	8.23510957267456	13.70683896648946	10.848264359262531	14	-0.3188741382364691	-0.1978658376752958	0.710946873605958
Si	9.618603019610745	15.02727202062415	12.298898193358491	14	-0.8213701906746136	0.5913531951919301	-0.8642246028192457
Si	8.134790671393294	10.89169181921201	13.32741581114732	14	0.3083994551621858	1.2667900190002588	0.959654262102926
Si	9.468198107587297	12.176090363174414	14.948577089441741	14	-0.2265794276696455	1.0899385964381294	-0.5217045231744388
Si	5.495556560867228	13.520954423526451	13.607988863177175	14	-0.30946492120685515	0.4677416504941068	-0.4613136300832047
Si	6.822517605975156	14.917960811777245	14.893954124973156	14	0.5374407161758731	0.2730585840946224	0.19154734635103188
Si	10.83284198058825	0.041926022025633905	-0.0933992308496313	14	0.7210577452774403	-0.9011724147119016	0.3673106771416747
Si	12.236572199541483	1.4588754226996752	1.3041130767015878	14	-0.21005930465609807	0.4817631733575344	-0.05988309979050487
Si	13.754950259962241	2.8852577703300484	-0.08582676132067289	14	-1.3183165122792184	-0.5240036055517152	0.7441069331409716
Si	15.059716135761152	4.019169802381836	1.466333652386602	14	0.1890803707963498	0.5899941089196999	-0.24481216393694358
Si	13.513773633455887	0.0725259797126964	2.8309285654552587	14	0.6099314880142561	0.9984846373109943	0.39553112913562005
Si	15.025150423557847	1.4161170818249533	4.139839715522177	14	0.15418661494396016	-1.0391430684016878	0.16244114857429556
Si	10.76855758947927	2.842483109477893	2.7767136004225	14	1.158862216755339	-0.11663639307479351	-0.46751025101529353
Si	12.162822221521305	4.130178288881782	4.229289511832999	14	0.7894167508663452	-0.5707007917078407	-0.20570822312281148
Si	10.816162963651625	0.0415996224769719	5.453108299563735	14	-0.6416748685178683	0.4511204830414776	0.9737925131478882
Si	12.342439893150003	1.3660147511053362	6.815875375159885	14	-0.6170416226665936	-1.2293647528496514	0.37514509216269787
Si	13.690910668514755	2.7022781833501313	5.542231696325894	14	-0.6064016175202247	1.1732892029277537	-0.7584004789472709
Si	14.940270220928292	4.162557124109052	6.893444227899408	14	0.39428465727641226	0.3240137777714451	-0.7868983532052602
Si	13.614500534172983	-0.0731950987874535	8.28212742765932	14	-0.11427071906972526	0.194726260968863	-0.8794568591779309
Si	14.934705108623605	1.511572629831155	9.405855793792853	14	-0.9268155907329306	-2.4674751204457865	2.0370718327424657
Si	10.991651680989749	2.7318989423912075	8.16493366971223	14	-0.9282739216705185	-0.7870119960604108	-0.8120383639151361
Si	12.216155907772674	4.03619153884456	9.511250208055815	14	0.23806198402942683	1.6616534320842364	0.8153897996999492
Si	11.011088774112569	0.0527298470863461	10.961198603099584	14	-0.3678629505644425	-0.6730603511609159	-1.150335917292664
Si	12.369628975553546	1.3724937821462768	12.302423308484041	14	-0.6003065552482818	-0.3676004407112554	0.23515509235446738
Si	13.545613909427866	2.6705031872878853	10.870981767849408	14	1.2843882064745444	1.4600543494840856	0.25643741664199315
Si	14.971245538096316	4.132789485271078	12.346634127350308	14	0.11813380481324776	-0.46054898336099265	-1.6685074846466874
Si	13.751294585017225	0.06374583185368861	13.678148446162071	14	0.08553836000653846	1.1966250690344817	-0.043233135958289946
Si	15.130479557911073	1.5929603572900248	14.927818078146837	14	-0.26502696529554387	-0.30912090731501934	-0.85985320955393
Si	10.850744995832363	2.710258652314917	13.484071274527647	14	-0.11876423983774803	0.6328148395846379	0.293799690712257
Si	12.190680422999604	4.12384613763774	14.898686918428755	14	-0.7492833394820259	-0.9186587591047608	0.9602556436373085
Si	10.858088985677258	5.38069655969307	0.13592909204028988	14	-0.15814046070528387	0.09073173564270556	-0.6897797348367749
Si	12.198726171874124	6.73035869341044	1.5023355226040205	14	1.0036417603621475	-0.09512626885590265	-1.0628355468163204
Si	13.497208856361292	8.143489219365136	0.02121597066303	14	0.10451131749550717	-0.38799161989481784	0.2906261754155982
Si	14.84564699177118	9.53961432883454	1.3713840236808261	14	0.3745804774343934	0.024195900836317525	-0.42678497118627606
Si	13.624015081016479	5.368179137001882	2.7934905372237266	14	-0.26845116336091707	-0.020854749472785098	0.2942113246740127
Si	14.852778821909443	6.869274341320987	4.1377344384333075	14	0.018601432770207323	-0.601264291980037	-0.14803601679710193
Si	10.995796955257756	8.176243414073367	2.776060801325176	14	-0.6225137061194648	-1.1695505586817265	0.13550882034574444
Si	12.237224998638807	9.594335213167726	3.9906424818287776	14	-0.16338088756880967	-0.17768677468064561	1.5272157342148656
Si	10.919354180961115	5.602109693527938	5.566238383129984	14	-0.1270174879154234	-0.8678632310683194	-0.47732107469591456
Si	12.284389733420465	6.925904663013844	6.860983792784973	14	-0.5634009094828762	0.4785055829169068	-0.11293708674016445
Si	13.54753966676497	8.297843565927396	5.449060945160325	14	0.3978242979706601	-0.12137339751663433	0.052271342490206485
Si	15.067925084410001	9.512245726679232	6.786842135306399	14	-0.5385056679994785	0.11453477158610445	-0.4652232528330218
Si	13.570877234494306	5.554765438994514	8.188630276945089	14	0.09619199201110404	-0.7246431516463867	0.550529699139683
Si	14.930282394739235	6.953403824988618	9.502878059632634	14	-0.13499665616597092	-0.8587756593142559	0.30082163645211335
Si	10.769634707989855	8.196741305729342	8.137385547805156	14	1.0683078873797236	-0.27104438018681837	0.8965184569719018
Si	12.21592742808861	9.55550998685438	9.484077445629703	14	-0.1758862296249459	-0.7124494275550525	0.1614227337569849
Si	10.722796372756859	5.448848785453696	10.827505347967628	14	0.8591353569485446	-0.6298261867604978	0.8030901460694247
Si	12.195821215891032	6.816854573805871	12.21654758723107	14	-0.7919940268392617	-0.5430675801690172	0.23071787879295585
Si	13.53910223843206	8.152122487427246	10.9181628226085	14	-0.47857191743416666	0.36963727034587673	-1.0066486680340603
Si	14.909866102970428	9.458650920788932	12.17143916960598	14	0.36784238172188133	0.4092055527808276	0.9097493649493836
Si	13.489505827012868	5.385755752697332	13.575822187656534	14	1.044648319113189	1.5950710602715537	0.4539762097205661
Si	14.971147618231718	6.709224322634576	15.114730779688133	14	-0.9283546543775713	0.9155734327205831	-1.9604189556118277
Si	10.77903501499132	8.140127304013918	13.63302370855955	14	0.6811945570622684	-0.41320516421684994	0.44243811748586953
Si	12.123670595659297	9.570540686070267	15.038842884624216	14	0.4807103057289338	-0.9742900220273368	-0.7427547888531059
Si	10.820683597400592	10.896979491900334	0.0449452178507574	14	-0.35099290011682294	-0.1530985231724735	0.4803467514366649
Si	12.266143998650259	12.232475885205774	1.3801315315849678	14	-0.3126062976870121	0.14451694494541525	-1.1973501207347637
Si	13.735121487381022	13.548241425794595	-0.2355135943370661	14	0.7552081945817751	-0.7213004576196622	-0.29868941881011457
Si	15.082923143671021	15.098247602480702	1.4184018786655872	14	-0.6341456436983467	-0.4444880597576236	-0.001706185490450265
Si	13.519583545422071	10.934450160086733	2.7267418295223482	14	1.3067671071811133	-0.10729402478350344	-0.3960600054999745
Si	14.968063142496863	12.188101866565175	4.0319973046442525	14	-0.32013423695387366	0.6326711147972417	1.1287679432040696
Si	10.862299539854998	13.56669932027143	2.7111399310963042	14	-0.3099428896858707	0.5697823928874838	0.6669637462257808
Si	12.161108623890827	14.98457895965916	4.278265764109732	14	0.44195886345419394	-0.5977691314078276	-1.1912110925618462
Si	10.81435144615655	10.813339607555697	5.372520250999087	14	0.5278178402941549	0.3512145293954197	1.0256064560016402
Si	12.316442169099075	12.140741292054319	6.78863733282404	14	-0.8442322020708383	-0.26010329860746023	0.025547788013651387
Si	13.605622466449374	13.624667880113803	5.5347245067066675	14	0.1825988713947885	-1.0103803702957235	-0.969610096123603
Si	14.946504452307737	14.812631677424017	6.93551712972194	14	1.189873860684837	1.0171431486193088	0.5859631299987716
Si	13.714346156108688	10.775199820294542	8.160413035963261	14	-1.561149953561776	-0.3008964556169297	-1.1045098216190046
Si	14.917895531867513	12.05994108378304	9.464934112100677	14	1.9603875881269215	1.7849996387130203	1.4198898277253924
Si	10.857224026873302	13.479566960756111	8.14156346202803	14	0.40592199417646646	0.20173252296626648	0.09859648970650652
Si	12.325679276326209	14.796719699426745	9.578814914628847	14	-1.8779314691781768	1.3756899561667268	-0.6170115407343479
Si	10.712759586635501	10.802372582720654	10.772670223792412	14	1.5234858317269269	0.8212352076453058	0.6853535770281399
Si	12.157975188223674	12.226372213645794	12.2073431199588	14	-0.45089294022064447	0.05158151493281077	-0.44829021030505856
Si	13.651938562404512	13.550868942161324	10.866069454642044	14	0.8255019569240916	-1.4179820675778427	1.3134596943294587
Si	14.920490408279376	14.990878470948337	12.319069685465802	14	0.45695097857597744	0.18585851871967224	-1.7726858440032354
Si	13.478897841681354	10.798178348520347	13.529506091701396	14	0.7161901286853359	0.49206893481228403	-0.008295157094393749
Si	15.155400163451418	12.120618759879306	14.680668339899972	14	-1.4904363297206795	-0.17160533926689936	0.5652233089337972
Si	10.90491100093282	13.735888526320378	13.606144705727234	14	-0.4311694770887246	-2.636359973173437	0.03136619935314649
Si	12.34332117193139	14.980123605819923	14.766837820746739	14	-0.34377015105146297	0.8294537458011592	2.0481358131561276
H	194.91194337612149	194.91194337612149	194.91194337612149	1	0.4025767290444219	0.39257924311755804	0.5078560356990572
H	196.91194192256822	196.91194192256822	196.91194192256822	1	-17.252639146794664	12.868231717679906	57.00407581188947
H	0.9122116666140977	0.9122116666140977	0.9122116666140977	1	-124.80054515403079	-117.52949093324747	-105.61662513110701
H	149.91200627302865	149.91200627302865	149.91200627302865	1	-0.051258584104600165	-0.28626943745060723	-0.25658576941896566
H	195.911941833346	195.911941833346	195.911941833346	1	-236.86103256147015	-234.22748383485376	913.0449182742844
H	112.71484458843238	109.99984824666863	109.99984824666863	1	-0.02271854371936044	0.13861008758290705	0.03482665000353379
H	120.714833878226	117.99983753646227	117.99983753646227	1	-119.33940561095486	-142.32568264107084	-90.84684531344125
