68
config_type=vacancy dft_energy=-6610.011886941056 dft_virial="14.602569750901923 -10.841012662177267 6.76460108029367 -10.841012662177269 -8.750331122375645 115.4192169865269 6.764601080293671 115.4192169865269 -120.94228955402338" pbc="T T T" Lattice="10.898050114551573 0.0256976792631504 -0.0116282543569896 0.02561049460068 10.92068543254545 0.020270434024368 -0.011660948605416 0.020292230189985598 10.914168379025789" Properties=species:S:1:pos:R:3:Z:I:1:dft_force:R:3
Si	6.950312250767649	9.553707301397521	9.902638847344837	14	-0.8572201405955664	0.10223177551866389	0.2728343837107055
Si	1.1978104611317697	1.0906212778575364	1.4691945192365072	14	-2.064485728997481	1.0857728915984255	-1.522168397360883
Si	2.6729378966493877	2.5884995510468056	0.30868928536754087	14	0.7737844305198449	0.13925466368666817	0.05000285626623984
Si	4.065473121792234	4.050613585882435	1.6757840260015247	14	0.05652857867930768	-0.1791677313450509	-0.38812120360295327
Si	2.7008304497902307	-0.02152044412253736	2.931077514716591	14	30.863427935328556	-21.56921079025317	47.78650922994994
Si	4.070047047147088	1.2875321972800584	4.27598593836842	14	0.7629821886277748	0.5903368372588756	0.8895841859234622
Si	0.06720520725702696	2.6399755553858912	2.9644703302510353	14	1.1160774815648826	0.10441412971440558	0.4486283106546581
Si	1.4220875562954691	4.1056641613828075	4.421915626411375	14	-0.3323251328293558	-0.3929039737194927	-0.09417341722425578
Si	0.05216694278916384	-0.00648544907951688	5.694133837728508	14	0.4552959580813981	-0.0462968650577784	0.6813819906401073
Si	1.4599028138337247	1.2691569398561406	7.163534330730101	14	-0.6427763300370198	0.40899086548659525	-0.9154597898654326
Si	2.7362873622086616	2.6145470587681183	5.707415331247591	14	0.3413972779514983	0.610691506746892	0.3737842061167435
Si	4.101011769831731	4.0659591762855065	7.162793261099102	14	-0.049567568135538774	-0.5029953610913173	-1.044072648632008
Si	2.796394648132317	0.00814958632442064	8.510502492032792	14	-0.025322559187606414	-0.8755775754708915	-0.06493917840257607
Si	4.13514129576405	1.3826539334601073	9.784514527780253	14	0.2708870285412253	0.48529432940422584	0.48754790321733565
Si	0.09177057571634305	2.6083667560072477	8.51992279481272	14	0.4005375854150124	0.45047590693771644	0.6721478658827954
Si	1.4980657202135805	4.137252254404115	9.824360098145789	14	-1.1792551957126254	-1.3734890900126802	0.2796588685619745
Si	0.06991882987641816	5.368224491714781	0.28129259499449855	14	-0.06949209170349428	-0.01903877778516451	0.20175437736148774
Si	1.3687468899877977	6.881972553090225	1.5035234800842274	14	0.6279914460040402	-0.9077318186046636	1.3671271470085058
Si	2.7628034874907526	8.219933448951444	0.207363270644442	14	0.13580758278394564	0.34186033401965693	0.09964164401914671
Si	4.132976936518222	9.60464167102101	1.6378477997440917	14	0.26156471487143246	-1.2173319799513584	-0.20351995538483342
Si	2.794440621884699	5.429842251915737	3.029305204497148	14	-1.0291841490546263	0.6894285218500427	-0.7653658603700841
Si	4.230500610149331	6.780516851181702	4.256259318676211	14	0.03712547527027819	-0.37105369226674634	1.1332115845288815
Si	0.03853344119535504	8.06449300404125	3.040623953302368	14	-0.08804544480421485	0.9444248339600927	-0.25110545842907
Si	1.4196616430622304	9.509985282976897	4.410024728258693	14	-0.001560660929329884	-0.4264995784957396	-0.562928083214501
Si	0.151129163351034	5.464649638598763	5.93600043854561	14	-0.34411107961691456	-0.9392497131716988	-0.02252982458886157
Si	1.465411794693573	6.970565247859522	7.119980142784732	14	0.43148135216405853	-0.6455150714240415	0.3061751919497257
Si	2.909097171499522	8.163277585853335	5.699675512836782	14	-0.035448086159413576	0.2742132674939009	-0.0431611450093258
Si	4.1723713262554725	9.55335965255592	7.143053563707523	14	0.14839905686830682	-0.012668093022901603	-0.0019789797649179767
Si	2.772649905308503	5.4514694972498	8.484954116504124	14	0.5154839909628725	1.2237306897616111	-0.17869876173465588
Si	4.159558450297166	6.743611583557982	9.950796385468644	14	0.557649861102769	0.353337233947734	-0.6452031963487076
Si	0.11883814398855959	8.328790038895423	8.485384590775071	14	29.515684351328648	5.891723579483274	7.659556462194728
Si	1.3449018848021432	9.748338341896442	9.947313358202951	14	-0.1777651933929101	0.19097501830676694	0.530928106399938
Si	5.467354542751908	0.0547192737829848	0.31799079904485167	14	0.5237300399456515	-0.21637779598036194	-0.49558877799556666
Si	6.832627123940259	1.443431451476504	1.6641764780018715	14	-0.12420958379528967	-0.13484881761006243	0.22484547424173768
Si	8.271871532001624	2.6306173716779746	0.2260654705526237	14	-0.14957430911014652	0.15864336890590483	0.1262672393830042
Si	9.583224758685155	3.9606858759690606	1.622862935881992	14	-0.3061211987380026	0.7571203256083693	0.053851029598905475
Si	8.097216677291232	-0.027016347283015198	3.017052489995214	14	0.963387764138313	0.3401227810443009	-0.047459518883549365
Si	9.642304355399942	1.3546654771905473	4.318480832664774	14	-1.0431318811953656	-0.3254865068988259	-0.12527710672421516
Si	5.445930001758088	2.8120867975687083	3.069414508466655	14	0.07728279793407498	-1.090052753514344	-0.33758252898799457
Si	6.932852432299669	3.9498063199010356	4.4586705004923335	14	-128.74520615581935	-415.5950138110225	630.7897966681359
Si	5.5033618083521825	0.01398877909337568	5.7637170066544146	14	-0.17018094691953733	0.2720229428716668	0.2957904975616476
Si	6.965674188294933	1.3263173841882967	7.242896349360345	14	-0.3263087463802093	-0.035569442330524566	-0.830995637661652
Si	8.339335023821219	2.656535192213863	5.802348530595049	14	0.16416147514400664	-0.01992272379423142	0.40079032506798296
Si	9.60142237735929	4.067098025939027	7.290350961142984	14	0.6022968478766084	-0.11526959348660279	-1.3835135725454055
Si	8.348251835175379	0.01347983862620472	8.670732644337455	14	0.1460125569101454	0.4536021138964845	-0.020848578820016745
Si	9.83517317590868	1.2797498763462944	10.068260281215013	14	-0.035406177142695165	-0.5932357585073424	-0.10758841634266039
Si	5.552925199158325	2.776786817542724	8.456585317144537	14	-0.23207876483891024	-0.3320965615663946	0.37863331075054285
Si	6.86010772955093	4.100618349042334	9.887580966327917	14	0.4440458296425582	-0.3715589144621554	-0.10681888452034007
Si	5.582333675617871	5.346286651020668	0.4038720508113192	14	-0.617812440041574	0.7038737628702306	0.1648189067743685
Si	6.945845126624321	6.763295700727236	1.7768953484932901	14	0.1161694803486546	-0.041976122567269555	-1.0681140260385844
Si	8.338676779619567	8.169730340684426	0.27829671203035944	14	-0.23505867590496188	-0.21891676248400815	0.8127037659719905
Si	9.567285222769005	9.557277513325685	1.7057188798607363	14	0.4239616404342214	0.04826633173301183	0.31122844234594477
Si	8.247766062636838	5.363433694512033	3.126860482568402	14	1.2171939115956665	0.165938880251825	-0.18950537450577026
Si	9.716353558660895	6.736264096128288	4.5164859196012985	14	-1.2001330851332919	-0.05725902970076175	-0.16095684947297406
Si	5.573250123596737	8.170870280146227	2.9933764050930964	14	-0.6317424315556043	0.7525288457276488	-0.3366944692104154
Si	6.802305388141336	9.545188270065882	4.412084465909556	14	0.3353819199444798	-0.2910727764097079	0.37751565126787445
Si	5.527037893254301	5.401935531267243	5.815789136123142	14	-0.4316970679004189	-0.10326818807321558	-1.0418632978304045
Si	6.79605751726705	6.795856992543369	7.184679880804016	14	3.465530383168316	4.57694516523511	-8.500150550237557
Si	8.145354598865984	8.090903417920094	5.765135937036121	14	1.2730730290711048	1.0299135716339523	-0.11750542667300355
Si	9.523617694762425	9.712747383059464	7.082971343374328	14	-0.4895595360198195	-0.5544262092523673	-0.9378163219557162
Si	8.249471612596416	5.424203583870464	8.524527234799438	14	0.5949601988455658	0.53012823553484	0.6583425729767922
Si	9.689150854161849	6.853746518615433	9.852079371769971	14	-0.44497374155259956	-0.7338759908510385	-0.01573490744877423
Si	5.55644963913869	8.202847434723807	8.522731230752548	14	-1.1289450923606281	0.6427714449369115	0.8099768516694414
H	45.91544176349519	44.13618262084067	45.95494840348537	1	-29.57239496426462	20.627838629639683	-45.9198230041105
H	50.06406071826888	50.05809292812278	51.85644551185832	1	-3.4225600141737456	-5.309077689568556	8.517418350678204
H	0.06917993986198152	0.0901652881186068	0.10435677155222615	1	-0.25867633515477806	0.30795311127860814	-0.6682215309483973
H	31.895770964589683	30.08467961185894	30.074619591618138	1	-29.379732786646777	-6.059155500594509	-7.661443139278654
H	39.714891454574236	36.99989894617397	36.99989894617397	1	128.22276861051816	416.4223643926718	-630.3855260949065
