67
config_type=vacancy dft_energy=-6722.196576310108 dft_virial="-18.73651416748024 28.58782842683079 6.7674960325495634 28.587828426830793 -2.840822272119678 23.523651864052162 6.7674960325495634 23.523651864052162 35.7814478001983" pbc="T T T" Lattice="10.8561719904 -0.001139898058992 -0.0029854472973600004 -0.0011507542309824 10.84965828720576 0.0014981517346751999 -0.0029963034693503998 0.0014981517346751999 10.854695551009305" Properties=species:S:1:pos:R:3:Z:I:1:dft_force:R:3
Si	6.779604500418067	9.55314909108025	9.609863904792498	14	0.6256316855412084	-0.4256824812249965	-0.1744757212463127
Si	1.2475945419883652	1.2317803562499494	1.3275621904868506	14	-0.9436586445746886	0.33477128243094467	-1.1967325412368641
Si	2.717188030625619	2.6922134069617036	0.04242374890408512	14	0.08450863232581915	-0.47402080390697243	-0.03323719269461825
Si	4.073134768398569	4.000406015383283	1.430405964603507	14	0.3717494333663784	0.60649032065377	0.19656794370968506
Si	2.7049704946676227	0.03372035581938144	2.7727976860292434	14	23.4687050913093	-82.81716461355302	39.318208246865716
Si	4.1859217104412325	1.3653253847554572	4.090430821613674	14	-0.04149635431452992	-0.048798550534282475	1.1521984259865792
Si	0.10751301368972736	2.751228643518717	2.7911033632394564	14	0.5989500400813715	-0.1163291459890358	0.10903080642726345
Si	1.5047891982301305	4.121494672147005	4.157937755901579	14	-0.2410663205960199	-0.1658082681015615	0.20853849585923045
Si	0.051349693514591996	0.15930998149032383	5.571853195251667	14	0.30693572490342547	-0.14941670035402144	-0.4223672980251976
Si	1.4519695790280385	1.4092483710114163	6.906268887116058	14	0.2930401862006852	0.21194263930310653	0.41465321073315736
Si	2.8337474924349464	2.7416231025416113	5.550147364974062	14	0.07913399376458162	-0.23111691433864284	-0.7010982546771306
Si	4.172836766341204	4.0855086332332275	6.920401451813161	14	0.2193695341308863	-0.48858071622443905	0.31566462746532825
Si	2.712111684602908	-0.04130882004067104	8.324723291975333	14	-0.06961987563790566	-0.1800046261267591	-0.5115216605539924
Si	4.1514381657309265	1.3652298504419416	9.500887479118465	14	-0.6260271215394472	-0.36789123272296415	1.2056625042348024
Si	0.0586938938660976	2.764552423402535	8.257999087687939	14	0.2961712782595615	-0.44424046231529335	0.35150892095457664
Si	1.4555141191829042	4.149649068586909	9.540918527715865	14	-1.082067414611028	-0.6393361911186616	0.9506332819766544
Si	0.06578188855862976	5.4899857166548625	0.08788179787948704	14	0.336565656833876	-0.4785495488178813	0.2093260254187918
Si	1.4474675245036197	6.807820777038315	1.4744907078221232	14	-0.48529895739380213	0.04759141658647295	0.5756769089444553
Si	2.614958715843619	8.240379520547519	0.11172303718760448	14	0.45039414578853576	0.20439798785166402	-0.4690084340853438
Si	4.077574942742642	9.453236483401001	1.5078897209505888	14	-0.004904126287650446	0.637745448257086	-0.7727765572343469
Si	2.880855679552889	5.49674042686729	2.8302300927100568	14	-0.6157966934705779	-0.6164183867369898	-0.4214653542788897
Si	4.115930884001925	6.824521912028347	4.245559005653297	14	0.8518264758549596	0.24212330199313273	0.2996307004678208
Si	0.0501880831116192	8.23552572605061	2.833320844875724	14	0.10564954582073673	-0.21891933358932836	-0.4116295908766632
Si	1.3467179059639114	9.591715642076146	4.2486356447953755	14	0.12119830524433224	0.11611291603161135	-0.46570893462799784
Si	0.06088358375656128	5.369825262596319	5.5767395582645465	14	0.3341439327328285	0.3563197161191057	-0.1102765069548752
Si	1.454996279778962	6.771680580482273	6.908464005092517	14	-0.9957831769511146	0.08761709865787819	-0.16608389059188133
Si	2.7249751627943324	8.207020675255418	5.561255400154639	14	-0.21589699928549427	-0.4047133175654649	-0.48187475932842894
Si	4.118461457692887	9.43444227845122	6.867360366702465	14	0.2992995421025857	1.3389612024473476	0.17541777423561494
Si	2.778503690027398	5.420099109466663	8.255012554773378	14	0.8855076984383674	0.7963643916624494	-0.24297408074356974
Si	4.0445808648294195	6.8966144933649955	9.589398934973394	14	0.1099656603216693	-0.5992184634767951	0.6813010008225225
Si	-0.00228630982117824	8.20359121052365	8.26565051770677	14	114.24305474781204	-27.80558332458633	-26.899498813160285
Si	1.1530589962959619	9.685064608169997	9.752141638047084	14	0.20753885011075687	-0.09724203142385252	-0.010806098550050361
Si	5.446921453603345	0.013404115556546881	0.11084802972517824	14	-0.7347722781656422	-0.06011629904304232	0.14415570464793442
Si	6.827028602140929	1.3417653203018909	1.4309835129533963	14	0.2688519986803281	0.27720474853389315	0.02132603307796824
Si	8.249235985657286	2.6591791612121156	0.12037432064675424	14	0.25065500077698005	0.25808189560475986	-0.3281481151262432
Si	9.584114150448467	4.0723694082732464	1.4566203631087258	14	-0.13224145970490025	0.06698629245847798	-0.2996661817212388
Si	8.24344204666601	0.060009661911334077	2.7591178237041407	14	0.49341850799482967	-0.01921181317321048	-0.17163207876222888
Si	9.592386553505152	1.417056129906912	4.130446671570289	14	-0.04612948610143676	-0.08908185735876653	-0.38141139004896285
Si	5.5295673197318616	2.7377007676014795	2.7789487930790044	14	-0.4783124929073637	-0.04785752598710828	-0.2827272256510393
Si	6.784140209075656	4.094359670257	4.1830524241841704	14	0.8906491377470676	0.2100495344558815	-0.1268976744075045
Si	5.5466386501867655	0.00719438517803808	5.4973863691007185	14	-0.3707616147023775	-0.28388345171350987	0.005424260893916402
Si	6.956963953459629	1.3287737392809793	6.84444407324793	14	-0.41204482438586704	0.2941560459096295	-0.3054455122598677
Si	8.226672517792439	2.7161588655209288	5.431622936034473	14	-0.2639059633759593	0.5874847101272352	0.9466627240307495
Si	9.524020896012807	4.070572711808834	6.948374550180825	14	-0.22119630446085148	-0.11188293355890373	-0.8692084333718207
Si	8.218421827079736	0.0595081067653776	8.302987064416154	14	0.948250124455409	-0.1949774579586414	0.6455145572029775
Si	9.787414426461092	1.2891660813912038	9.744130868735366	14	-0.4301387209658772	-0.20229970879989118	0.040644547121964865
Si	5.549588272116557	2.6063986242291888	8.219668115624232	14	0.4352505925633956	1.2856051106225703	-0.45795448098243124
Si	6.861659790790306	4.059742594631212	9.61266479716602	14	-0.3189389300905368	0.16226168542294922	0.16137671097175427
Si	5.430126955534194	5.473370345423556	0.14549550263253985	14	0.16683825289281282	-0.28733438927421256	-0.6242070360833143
Si	6.916918791838641	6.729845236100068	1.493152467473621	14	-0.5555551815984444	0.6770615052601303	-0.0656012380225142
Si	8.214511433928793	8.237123754567596	0.13485319723035072	14	-0.438278326188402	-0.016534264092808268	-0.0007458776533749577
Si	9.64479363817161	9.620527922538667	1.3648781104694525	14	0.37402666134843354	0.052951914068449686	0.12940964430528915
Si	8.281841412613254	5.427855844353804	2.8655528195152216	14	-0.2270427408483362	-0.025103758124861812	0.2788605403600686
Si	9.63390164081364	6.8156046523554314	4.224889939800773	14	-0.5069111544939028	-0.005539189301727022	0.19601721295010932
Si	5.494735291900662	8.17805640838503	2.8392276880557006	14	0.3019799193988401	-0.8103645743517197	-0.024049347833069088
Si	6.92235881962303	9.53931832796448	4.076794383976534	14	-0.5092115224238392	0.01815894554460984	0.6917751696757417
Si	5.5459851086329435	5.440102691976174	5.6302821985212	14	-0.7765964484084908	0.26229105212437426	-0.5994208094654907
Si	6.8852676224006295	6.838561113646332	6.908550854468441	14	0.3137267853855326	0.08466624108194422	-1.6278467395612057
Si	8.19210212370621	8.224343868900498	5.545217577273221	14	0.9934635257312772	0.016605483710176366	-0.27075513083830177
Si	9.60826587627551	9.641634492122403	6.8615783695003785	14	-1.0918386432697187	-0.2044617512636037	-0.09662290926276085
Si	8.220547465555455	5.524930648674761	8.264957893933785	14	0.25055138523257814	-1.1848684328475727	0.36853992259523755
Si	9.515076495909916	6.834649634878191	9.667426585537196	14	-0.017226148534460112	-0.2643204255535671	0.3572322013972263
Si	5.487252132547679	8.121222176780888	8.231248394286393	14	-0.6257710394495604	0.9737102377776433	0.6170207967135004
H	45.93545130991416	44.082735912415295	45.88311913283443	1	-22.70159165065311	82.58947626815878	-38.385247971528166
H	50.07784194190828	50.10568368059487	51.91993566073174	1	-0.12334672084984796	-0.18379443536865736	1.024874462316994
H	31.92012024290137	30.061914879226958	30.122611736825288	1	-113.44852381135341	27.825041192538677	26.910674636655372
H	0.049775548575984	0.09770120544480385	0.1172032328083584	1	-0.22505116266734948	0.13843679508432905	-0.29440338624142776
