68
config_type=vacancy dft_energy=-6761.500663494228 dft_virial="11.699434999591709 16.036468328887896 -28.42968634670172 16.036468328887896 46.70404964205993 18.632521366303635 -28.42968634670172 18.632521366303635 22.678995995660646" pbc="T T T" Lattice="10.878174875414247 0.011204531326208002 -0.009735976249472 0.0110848712829184 10.905729319928115 0.015664587485184 -0.00979036717824 0.0157298565997056 10.887812947991936" Properties=species:S:1:pos:R:3:Z:I:1:dft_force:R:3
Si	6.901310322515953	9.400467981003743	9.781761445490327	14	0.8570100812909102	0.6358554287362452	-0.210631632700363
Si	1.2976533394540672	1.2698943850480309	1.557278647560937	14	-1.458499087875928	0.44798424877196097	-1.3468056447791192
Si	2.713309974507461	2.6624598952022582	0.24957277665196803	14	0.6400183053600969	0.06156794510679792	0.33875958100355835
Si	4.12929839422634	4.038576500678467	1.609883378228196	14	0.29518011715864445	0.05680368694856352	-0.4738534249506309
Si	2.777743644363185	-0.03014127708607488	2.95279214605439	14	35.152913498460364	-29.89073714081035	49.932238287516654
Si	4.27348113166028	1.2804603668705024	4.359134878465551	14	-0.3520329122188228	-0.03870516237897716	-0.558794517191299
Si	0.10118562042426112	2.6188764439804597	3.105930893819269	14	0.4117031244888194	0.6260196653340188	-0.9641508681973328
Si	1.4857991767926066	4.012609183466048	4.392682115511079	14	0.7375349308321412	-0.8289390105160656	0.5002270519931138
Si	-0.023200994575278078	-0.09460975713620993	5.62624444796066	14	2.2392851524036	-0.298054355796038	0.7948579810553746
Si	1.5606791684275125	1.1835727176374886	7.04735540535091	14	-2.1725641980141615	0.006731410838679686	-0.20421646781606154
Si	2.911990246929787	2.4983069843618586	5.809973741883238	14	-0.3885806601236637	1.277173942056741	-1.5314493162350216
Si	4.131378303342428	4.023832207708037	7.0239509887020395	14	1.3516316094650371	0.11384314425498462	0.6122773645083591
Si	2.697871653285952	-0.03828359912264448	8.564143269899796	14	0.560270845866128	-0.5040767679889715	0.13785366839771948
Si	4.090591633677881	1.3088589585988506	9.80734585056422	14	0.8031071153645377	0.041200420092180876	0.6073377569672908
Si	0.14838933186485762	2.523475842739963	8.452032687523195	14	-0.36304855585246526	0.7944499466410672	-0.22996994425532477
Si	1.45279584903476	4.068184746662615	9.718746291056874	14	-0.23586111787538006	-0.2596315007812131	-0.21988426941597988
Si	0.10744166505115649	5.338865624540631	0.24896142261261567	14	0.49866279151633575	0.14063971812263193	0.18593488054768062
Si	1.5511346482473038	6.774822042028818	1.5821037552692274	14	0.06503970862059387	-1.2843609527581508	-0.13683911023838907
Si	2.9095132840336926	8.168684231924875	0.3293794986146791	14	0.3895998462725704	-0.017666578875801482	-0.7459082495282674
Si	4.257966663138496	9.57827301496491	1.6943068022247347	14	-0.3311280261922948	-0.5901648303129576	-0.4255305289005758
Si	2.8715516792093547	5.362862902313073	3.0250809538427883	14	-0.43131860119729315	0.5868285640495335	0.2648963531452803
Si	4.239918665154698	6.7351688793197955	4.461556260791421	14	-0.23482984753146868	0.34600367024307555	-0.882129008937161
Si	0.15695481532724223	8.055086601555756	2.8258774406857143	14	-0.3949976247816893	0.7984122770499473	1.6268283247438946
Si	1.49407421269537	9.50625181054605	4.322138168717558	14	-1.0669560002023897	-0.5634633873421558	-0.623455244887703
Si	0.16742506911508226	5.338397862553227	5.788654673443333	14	-0.7425069343002436	-0.2269463243988306	0.28863459723461143
Si	1.4198186289227213	6.901954311112566	6.935849650102209	14	0.5837411807810997	-0.7040647959955175	0.626891270037549
Si	2.8858151563694743	8.232305301304805	5.7074250847840515	14	-0.08449500546762236	-0.3377627634709369	-0.22315805782012446
Si	4.067621256640579	9.598375902237564	7.150635076532739	14	0.845284812588907	-0.050043993951362206	-0.27396824115689083
Si	2.808573510607463	5.4628138486543	8.335220553263888	14	-0.6016188474036853	-0.1514859259156766	-0.26982644759666424
Si	4.163046877708308	6.748104129999402	9.675879712276236	14	0.6259633581275074	0.8604047116451017	0.9449583383140234
Si	0.28297533382697215	8.196340931384826	8.470956379460159	14	33.14780127617894	-3.236289347271253	6.664621749999263
Si	1.437785040513367	9.625587683900195	10.053404973217773	14	-0.6978630328527885	-0.17537303700304435	0.3585434651105018
Si	5.600234705823803	-0.1072752288091264	0.23215897689760515	14	-0.7715645381864291	0.23908811216269793	-0.4853339244261561
Si	6.873638393595946	1.2522205966541569	1.60330860275872	14	0.264404757808068	0.32751665165961485	-0.04298605273702372
Si	8.257002046421203	2.583517989006958	0.2581882997688192	14	0.19322627812508858	0.1700192243949	-0.3650337062701516
Si	9.602092978309567	3.9615676480915814	1.5655743520166325	14	0.33501193788891054	0.13822262201116073	0.7495759312674587
Si	8.284878485233378	-0.040002352471713284	2.938109858742756	14	0.5414274720852947	-0.49373912482825216	-0.5910685738329898
Si	9.629343921440912	1.2592022162708174	4.307585331816392	14	-1.2305410335336193	0.8345838722464507	0.33073953217842045
Si	5.5038887902413185	2.656208201849664	2.8810135251778357	14	0.4668253085580061	0.17716946829023184	0.9203934838642648
Si	6.977058393373996	3.939120511789028	4.371128078258895	14	-0.187121959873993	0.24260384157746842	-1.6477861755400176
Si	5.583566061793562	-0.13772762200775424	5.695162105984019	14	-0.47044671040143465	-0.14501008294581963	0.00326530375658806
Si	6.826733832263572	1.2725758578362931	7.033672823310032	14	0.9190480244502311	0.7311099957476233	0.6896519509023635
Si	8.297611401657967	2.67053368466858	5.7276128219055815	14	-0.01135477242536996	-0.9010595431883471	0.40379337608191596
Si	9.507338541302836	4.072593675348549	7.16592763006515	14	1.2572465902729333	-0.5810448626318604	-0.2808325781406221
Si	8.31709749579839	0.07458519280098305	8.527739421275374	14	-0.782814152404205	-1.3319847652716577	-0.6579021426354509
Si	9.74659444658609	1.1915605694363571	9.923616251172998	14	0.5747718798717631	0.2164981237093449	0.6782912649347572
Si	5.539522463314387	2.6478733359252558	8.525391908789747	14	-0.4669726328928506	0.5726442902193406	-0.8544695721240719
Si	6.852202928568477	4.088834806678674	9.883884765526549	14	-0.16211101865118854	-0.609964141051822	0.36767088899702743
Si	5.551050076757476	5.521585422825274	0.3524836773367501	14	-0.32700680147462946	-0.4253667494916823	-0.347452488090979
Si	6.952063585967949	6.847870147182817	1.7359158627322546	14	0.29144378690740524	-0.0663026355538506	-0.3683383479381379
Si	8.401245701695363	8.195765475358462	0.305988135788713	14	-0.6228656904377929	-0.6661047399383193	-0.49746697043193483
Si	9.791835733316736	9.57150025651472	1.4954372493702963	14	0.09452360176885995	0.6477046247146796	0.5834658154013118
Si	8.343058286099357	5.399859612061066	3.017629396601572	14	-0.3379813074231495	-0.4653260970458278	-0.07298982338102375
Si	9.73217867482542	6.6740878663133305	4.406507201785328	14	-0.254820962727216	0.819659634305119	-0.6959326469784212
Si	5.5255831560897235	8.18562591841753	3.060469867736399	14	0.03848918953208473	-0.5518628172481796	-0.001135142998845377
Si	6.982878222752172	9.480279054240755	4.301949343777451	14	-0.48865039317861503	0.310641716111887	0.22630611917411375
Si	5.664229984793657	5.332363732915704	5.628884583643059	14	-1.1658648792052941	-0.48668581160348995	0.9296587189959503
Si	6.832092426565796	6.776843208941838	7.012500610377799	14	0.990060153618997	1.0178180637658476	-3.9693662385887896
Si	8.246593798292158	8.10996160958979	5.6522422240931895	14	1.4545786664837663	-0.4968915570612858	0.5867935970171795
Si	9.563202376421874	9.55016813425191	7.021443566885835	14	-0.8824210865015297	0.17761246973689335	0.2549634019619522
Si	8.16570360902839	5.425255824521421	8.512223864935015	14	1.2656587326593938	-0.06578121539492457	0.14317199975244577
Si	9.683292108048741	6.771795730752166	9.769511520513198	14	-0.4769207535975676	0.05908477158859891	0.32896264129166614
Si	5.548555708764176	8.175191562642679	8.303511729610719	14	-1.220483383742264	0.3280426998081172	0.8992628547906276
H	50.095021168590094	50.07017756796603	51.90159411124771	1	-0.6103860594348582	-1.03455698784214	3.409195151609083
H	31.966806355226716	30.159592687428216	30.075113784684337	1	-33.8807611822044	3.96607393822634	-5.638691848948348
H	0.05211630012692224	0.09317274879815937	0.11932934644269055	1	-0.532107986631354	0.3528651790109547	-0.49823264559627495
H	45.87729835364705	44.06583892994892	45.924156138780674	1	-33.4874090648276	29.904828597738486	-48.574141376613575
H	31.71499049667236	28.999991139917363	28.999991139917363	1	0.03544217261717724	-0.5482601844735883	-0.4802912155617497
