67
config_type=vacancy dft_energy=-6733.459919791453 dft_virial="-22.993654631558723 24.250428672236684 -9.920844469464418 24.25042867223668 21.614153360617376 22.67975613876967 -9.920844469464416 22.67975613876967 43.28613012780116" pbc="T T T" Lattice="10.8739523376 -0.0011635129001232 -0.0018811937544048 -0.0011635129001232 10.870255193805216 0.001957311420768 -0.0018811937544048 0.001957311420768 10.873289026507408" Properties=species:S:1:pos:R:3:Z:I:1:dft_force:R:3
Si	6.859260862282002	9.546112269750989	9.59290832363585	14	-0.21739543946607656	-0.05746703212116172	0.4303294969806322
Si	1.2605281280887999	1.148217598765132	1.1860132823001621	14	-1.1753208903517347	0.6765159167111949	-0.46048521994905295
Si	2.7588619820342752	2.687429901733347	0.10878084439488289	14	0.19601926983436543	0.4963819639868324	0.7715722515023895
Si	4.188455058882378	4.099241891719006	1.5300346871952808	14	0.01691144524327399	-0.5894760311976901	-1.322023017708744
Si	2.7610074128304833	-0.01321402688065152	2.7509935901227873	14	41.72021325566031	-63.796605680687065	36.1245637666555
Si	4.127370631625911	1.4025495573844922	4.15815587808889	14	-0.024693666826298196	-0.6481481403824052	0.4604188854317931
Si	0.0303274530695664	2.681758048194055	2.7428174653601465	14	0.4310000412481268	-0.19460927567679623	-0.16536038155479169
Si	1.454911987470971	4.060567592835099	4.091279983817416	14	-0.6556848214073552	0.3805955783308798	0.2417769741065088
Si	0.051939433340546404	0.0043713288397152	5.42296725600347	14	0.05509827278970931	-0.13764335198253136	0.5732780676807571
Si	1.351569206640122	1.344655547743876	6.8736101297867	14	0.29269617230884937	-0.18359363204315382	-0.004147707102462881
Si	2.699717467874835	2.6803955419661536	5.511150659880472	14	0.4260725179020631	0.5535438059064925	0.04722889073633208
Si	4.0848665267287	4.141886270601373	6.849293797569358	14	0.04871884626935789	-0.31439964364781536	-0.7898309559334211
Si	2.791106512900961	0.07080465325104864	8.282016397900223	14	-0.6090606546423218	-0.003883654586083673	-0.37172655052902903
Si	4.109489504401961	1.4282642798724485	9.624839684675214	14	0.4160734893120071	0.004404560523945674	-0.39931605327741004
Si	0.0656623611905976	2.6553843641944397	8.308461849985266	14	-0.3641682722193897	0.17448729122025336	0.031640279180274275
Si	1.475002701809921	4.060126110370192	9.571620387144531	14	-0.46589739664796465	-0.01564671853629315	0.1726306960685744
Si	0.1216121081532509	5.453538285605399	0.044746313869224	14	0.07691744386808194	0.40094176317133967	-0.14832809436147074
Si	1.4687295187063596	6.88549644708693	1.4366926803293223	14	0.00034787054981603505	-0.34076710003753	-0.6722825918015711
Si	2.7620795845309707	8.293537350401909	-0.005805603153044641	14	-0.29430105624968583	-0.3469629496380228	0.180124439634678
Si	4.16044049547502	9.58455604084534	1.376733707139796	14	-0.3148138487148912	0.025254167786090475	-0.2694479808935385
Si	2.813539476573429	5.43559082727219	2.728564976031254	14	-0.46782752541179984	0.6268557887841307	0.8330548359125587
Si	4.171785289948837	6.836360318659017	4.1113913586658075	14	-0.17593610906815677	-0.2045746227871582	-0.612639119026904
Si	0.03800772560561328	8.185278455719232	2.723267186452375	14	-0.5211414511093264	0.12290757606116667	0.3427442800287238
Si	1.4190409934996964	9.457827738117247	4.1486574807219965	14	-0.3121982632727046	0.5288375406641256	-0.6644684885125771
Si	0.047475675905961606	5.492034251670971	5.530100696619207	14	-0.17736641495775518	-0.48834057498753725	-1.0182446101384603
Si	1.413364790379469	6.871544078842556	6.807929282877128	14	-0.5548589262777482	0.2930000769576909	0.6292664571323017
Si	2.8201725874993655	8.161838564060302	5.438829090278327	14	0.03250417056784403	0.3636823333138817	0.8087008120990519
Si	4.073961039929321	9.570252443940461	6.896407370862478	14	0.4248867241284107	-0.5497043743319153	-0.14112822813346007
Si	2.7302830605005948	5.4755297668129606	8.188292715307215	14	-0.11104835277198367	0.1666420775568855	0.08788912160074984
Si	4.07727215841612	6.771361268561013	9.58513997208587	14	0.0964380467902422	0.11486053063016723	0.40451739934006964
Si	0.0076008926839824	8.343607551335623	8.290423050452421	14	87.55804242555864	1.4093467532495931	-3.0566806713637966
Si	1.3296995136987408	9.800109310638351	9.712595742225346	14	-0.4868205375222657	-0.4098876670222629	0.17221957632788273
Si	5.500973727887712	0.12359986664056416	0.08267248483230528	14	0.3012782647569717	-0.5290180322576	-0.33641627561477544
Si	6.8479780493365086	1.441502229448243	1.4443925259795767	14	0.25034981057547856	0.024665898888840593	0.0059395104000740774
Si	8.238349867498123	2.72773964304883	0.05237330403881665	14	0.12430317202894307	-0.1698575018702627	-0.36864816612921575
Si	9.591083674433602	4.114835139371125	1.3734280256291655	14	-0.12635002897431297	-0.12061929232623488	0.20380097719632562
Si	8.231008862275008	-0.00525538116476208	2.6753902617051564	14	0.26209487678844695	0.07775253887606604	0.33632885803389034
Si	9.523304154722874	1.3609588644836397	4.147339557698679	14	-0.1643188267895997	0.11913756433023355	-0.47813508664027343
Si	5.507977640588359	2.7411450514906237	2.860082167368825	14	0.2628320126837334	0.10830112673740544	0.13844193729496937
Si	6.921281536834738	4.107113545816195	4.18488405293471	14	-0.573831883766717	-0.15027287842563075	0.22715664081401873
Si	5.486972426857817	0.036179814217662726	5.570625742190975	14	0.011809858067036171	0.2973393314065048	-0.4056962511293575
Si	6.845198667119018	1.4169586316270457	6.954003434209044	14	-0.2021644686600514	-0.07875321306666767	-0.9958276570731532
Si	8.232724771953881	2.7429088065597824	5.575550555204674	14	-0.02721077893472316	-0.24017003328141623	-0.16657162927111344
Si	9.61733665756227	4.064550721576362	6.901577935199006	14	0.3288595399683282	0.1513866812503189	-0.004113768512236927
Si	8.157695588219676	-0.00244990146166128	8.200163809074173	14	0.5771912899780225	0.36712684311128413	0.7853780586294566
Si	9.612583652995504	1.2199204404792663	9.662555988358179	14	0.2005842673302884	0.022104306658377065	0.44167912719536184
Si	5.4208120386501575	2.7478510178972213	8.181431251382188	14	0.14115445340772556	0.42333120540972113	0.5456672247582188
Si	6.878333774682153	4.070323702872393	9.511947398901484	14	-0.15772188475916377	0.005732022200738127	0.33654277399652666
Si	5.510596088311254	5.399992769504589	0.04307389999970112	14	0.0704973938836722	0.44808992120061913	0.1536595383533298
Si	6.885240909206997	6.900537297960299	1.360567402199486	14	-0.18577238669144727	-0.7732005325016392	-0.10035769685080795
Si	8.32529146601817	8.226968101586356	0.03053514555921456	14	-0.24308001028275986	0.12204754133157715	-0.058183599173887
Si	9.719956320562668	9.654784374622496	1.2620483066255963	14	0.10986153055620332	0.19782187177432126	0.19143550326960543
Si	8.152440207054914	5.427438625204691	2.7466005133783975	14	0.32313368842035844	0.31777961870168203	-0.5668042815951563
Si	9.454520969211385	6.795738494911444	4.097290017274408	14	0.8584856386341432	0.07786001107844823	0.43534212391279287
Si	5.476918370526473	8.208296438027464	2.7149116414761636	14	0.2873894109280638	0.10530398926570883	0.3708117512561203
Si	6.8043702382770315	9.604459723204084	4.094720502337033	14	0.1769907764704815	-0.4774483444092619	0.4337184709031194
Si	5.494212304324192	5.516738783986764	5.471487918729075	14	-0.14171341170432578	-0.9456808189089851	0.37445809282115433
Si	6.76236633518735	6.817132996135673	6.925216820185716	14	0.505890425681804	0.3137301278224488	-2.866575200876304
Si	8.109893693743587	8.126027376826883	5.524087400976514	14	0.44323361747192336	0.794794474753967	-0.43549330490561755
Si	9.491374968473979	9.591542555222247	6.819228406751128	14	-0.014135679939642124	0.029636102583218846	-1.1785627970499095
Si	8.227457429441548	5.491389426297351	8.1781429681953	14	0.3612145864276037	-1.0004402200174989	-0.06944735447092372
Si	9.579871542178303	6.81333798676985	9.499827291625994	14	0.21769548745693787	-0.620815233944975	1.401184265189719
Si	5.463851142002378	8.159180970108991	8.304481983429705	14	-0.9994598575589264	1.0062804857522152	-0.011311320745459458
H	31.864834198960963	30.07116814910721	30.058818601437398	1	-86.26649729031493	-1.4389226919683205	2.5638532604820696
H	50.06634068063311	50.08041374974844	51.882714805153476	1	-0.2395455117991523	-0.3341195072322871	2.179222846572281
H	45.86725415855027	44.05477182157153	45.922327464954506	1	-41.03076210808346	63.85647438228777	-35.0162127136882
H	0.10415723986093536	0.08946544285760401	0.07005761272545552	1	-0.30569208126006986	-0.0439250203999418	-0.28211093170579976
