221
config_type=divacancy dft_energy=-22769.36494635988 dft_virial="86.16093897657169 -23.94578877481264 -19.551736534634518 -23.94578877481264 145.0995070809772 13.449551361853098 -19.551736534634518 13.449551361853098 -2.1790667785079503" pbc="T T T" Lattice="16.3199774331 0.0 0.0 0.0 16.3199774331 0.0 0.0 0.0 16.3199774331" Properties=species:S:1:pos:R:3:Z:I:1:dft_force:R:3
Si	0.8361214038300123	0.7265327553667459	0.9448777334441907	14	-1.0742985627756685	-0.11548170967551498	0.6478025838273773
Si	2.2598925550710898	2.4894819975999405	0.0228806083612062	14	7.280134593442496	8.286142542030777	2.1083477573170795
Si	3.8106331307416847	3.7797883733931257	1.3885689599178805	14	68.83598599214602	39.13572738920513	-221.95248607590747
Si	2.167048203454183	-0.045581696970648296	2.8044902020136364	14	1.8259437196047823	-0.2936559659248607	-1.7631457577128256
Si	3.9139222679157744	0.9953391036673359	4.057554389304488	14	-1.5477619510492329	1.249877545314857	0.486929809498372
Si	-0.1484465147314776	2.3667557673030286	2.3709010415710354	14	0.4429461678971308	-0.4689058469830699	1.8184949703817814
Si	1.232011416402152	3.8504538756784488	3.7309263609584242	14	-0.5009616167830802	0.5920509931758183	0.14337460285167344
Si	0.1244398279273875	-0.0568914413317866	5.344923169159715	14	0.11427303306451338	0.032102821027368916	0.5313577380989348
Si	1.3507229322505216	1.503706400708401	6.711704959204407	14	0.5385118386522468	-1.448740457633306	-0.6890940210478914
Si	2.5936524135554175	2.7806303950064444	5.207541599127879	14	1.4610210850844614	-0.855634797055163	0.7367625707939688
Si	4.061667023617629	4.08283403434836	6.650194964259053	14	0.2032556457579222	-0.10401997926882688	-0.26597724582187054
Si	2.573644121222437	0.0333417138958233	8.114521259421384	14	1.5365149079367775	0.6929671341021625	-1.0488027110894842
Si	3.9390223932078823	1.3410778255875593	9.563180376247937	14	-0.295015566418155	-1.084427946405456	0.36119504602717045
Si	0.0228642883837731	2.7774153594521236	7.98720911546577	14	-0.10889428073476361	1.1662135210867064	0.5697548820605581
Si	1.339217348160186	4.070137091905408	9.475819537048555	14	0.3207448744674088	0.01484350523427889	-1.652739152828751
Si	0.0196492528294524	-0.0691314244066116	10.933585201282778	14	-1.5887278863362164	0.3848965233104235	-1.751204259053398
Si	1.2046754542017097	1.1239242058627308	12.292288602498086	14	3.2572374278671594	2.41364183147359	1.195708469987849
Si	2.7373334948764296	2.8815368154753016	10.739018430325359	14	-0.9039594928789423	-1.7357897113275145	1.907645476252596
Si	3.9302096053940083	4.313941234778488	12.109390615405335	14	-0.2823829546486714	-1.419429599873086	1.7643076402070006
Si	2.867925954296096	-0.1759130367513849	13.709760242449986	14	-0.5412744913187458	0.644917546547639	-2.549902443014946
Si	4.069565892695249	1.2063237719224527	14.99401190661549	14	-0.3660906876672645	1.7721348561331276	1.068158763271155
Si	-0.0216402900762906	2.621151575530191	13.634117147047567	14	-0.3135162118598125	0.6287643202632768	-0.033529784480051096
Si	1.0739034750302794	4.084025392700975	15.15631408218767	14	0.15537883648091283	0.6480992893813222	-0.2921716668235392
Si	-0.1142398420317	5.608866164185241	0.3829482704676915	14	0.31304544247569344	-1.196923060141087	-0.8267520283307475
Si	1.3424160637370735	6.891273670900806	1.6472079622776492	14	0.8757385266639328	-0.37333323424358955	-0.9880282090844841
Si	2.7527069136184097	7.985120158354334	-0.0006854390521902	14	-0.00011621396047069318	0.3671317282113924	0.18347510408789497
Si	4.207241222320881	9.25269280558321	1.3917676754947679	14	-0.3852672766975889	0.9825967490956712	-0.7043723001918073
Si	2.7727968058385564	5.218981903308482	2.6305518825316567	14	-1.3070841244670874	3.098829572208581	1.9773414566079777
Si	3.9567622086776617	6.927879380283249	4.178877101542152	14	-0.896732372934538	-2.3305516779528967	1.2691574927790514
Si	0.0079641489873528	8.310067229024787	2.9398317748663345	14	-0.0022186067807557774	0.0012361874379271964	-0.09718058200670097
Si	1.6240825542549466	9.68096165338262	3.989271603724397	14	-0.9410751979490037	0.15692098545193764	0.0774478628956285
Si	0.19698212761751702	5.549281926576993	5.245795626231065	14	0.6555817200840173	0.264353335701665	-1.0746937416633755
Si	1.3403434266030698	6.825340962071082	6.885382159047457	14	-0.15064286048120004	0.28960107572445515	-0.5711013699167197
Si	2.5837461872535257	8.362225876900975	5.645373953703086	14	1.0244337748651207	-0.866486918390444	-0.697508734539672
Si	3.9567622086776617	9.735356138167143	6.951347507832048	14	1.6236594374368123	0.13571707987667642	-0.9229473627787677
Si	2.7646531370994394	5.419146426525454	8.10934782657509	14	-0.19172680950237822	0.007367759405416336	-0.3529698229974848
Si	4.143397470602594	6.852236284880831	9.289412754807685	14	0.29992020692686944	1.0551116893240635	1.4837987642261852
Si	-0.1412494046834805	8.28501606366498	8.01795595294973	14	1.2965641899391698	-1.6346802232810949	1.7546739656829378
Si	1.3040967567241548	9.572466443407372	9.414750181493893	14	0.49142924380863107	-0.9683926777545132	0.928994859602288
Si	0.029424919311879297	5.366334979551942	10.7525966515497	14	-1.1857546928514278	0.5579869330102405	0.4812870046522431
Si	1.1985554626642971	6.726001259435803	12.165955657188459	14	0.24508752931673145	0.024246037390060416	2.033663061309014
Si	2.611212709273433	8.051705666281382	10.953919893164421	14	1.4136525833292453	1.5619865912329525	-1.8585345364219155
Si	4.204222026495757	9.588492661246676	12.172875327620092	14	-1.2842791916089702	-2.060873583133205	-0.014741175242536996
Si	2.5230521911798265	5.3663186595745085	13.761853610416441	14	0.35326884254621804	0.526047120060169	-0.9106307398531304
Si	4.194723799629693	6.658142793268972	14.917471212454252	14	-1.4333457074183875	0.08779373359337235	0.24961241756966002
Si	-0.1824410277246249	8.026572901034408	13.711767599674257	14	0.874456059330243	0.8689454092975696	-0.0845721386272268
Si	1.4589243826319744	9.481482569217839	14.970413219247227	14	-1.1494997938425517	-0.864125872374952	0.4222400283118503
Si	0.1380017291742936	10.982512493627212	0.07291765917109079	14	0.20299622123111924	0.1410541803002398	-1.1828863677562704
Si	1.656640909233981	12.408176762250529	1.2392738063598816	14	-1.6814861671922627	0.37753082078926337	-0.06295274243222966
Si	2.9598074272444492	13.69814041851762	-0.2582310029239413	14	-1.065051839602288	-1.2283381104953162	-1.2333746487069543
Si	3.7491720957286296	14.832395170095502	1.4266434672693027	14	1.5508333934646819	1.997031238260204	1.9473718816647363
Si	2.946506645636473	10.980749936064438	2.465638510570181	14	-0.18408239916451397	-1.617854652955514	0.49787423351464627
Si	4.0560692713580755	11.991217658812257	4.177065584047079	14	-0.8538795034530979	2.1213205263204182	-0.16454611249990078
Si	-0.1306740593068317	13.6201309263874	2.6630123176460923	14	0.6196646643142086	-1.9885177943241295	-1.8201422775604001
Si	1.2151528797137598	14.615502670009603	4.043062249343895	14	0.7458511709901602	2.0256018747987534	1.286445862062259
Si	0.14967051303896012	10.910345553418043	5.361308426502547	14	0.21739672501873664	0.010146867145964394	0.7743109928894113
Si	1.4890021010411778	12.309979458035565	6.894178626883898	14	-0.2923902107757517	0.025233341832997278	-1.1780390628961954
Si	2.814363788360662	13.698319938269382	5.390341666356032	14	-1.3130578305679197	-3.0926128966549946	-0.6634459599267541
Si	4.013718929919181	14.790322268272972	6.823072485207881	14	-0.5269758033018064	1.7014068341022381	1.822127942199151
Si	2.777235839700359	11.07726628260379	8.372735942367893	14	-0.020561129245224186	-0.44447109046251065	0.4255356711112161
Si	4.227412714428192	12.249742421329994	9.816401146099919	14	1.0211350467393707	-0.614878808871285	-1.286296223732626
Si	0.14420332059887161	13.646144970415762	8.217043357656118	14	0.30656548573732423	0.47281829794873925	0.2675484482830131
Si	1.4285855445838416	15.117684695603522	9.547170478386068	14	-0.5793523039996069	-1.7464181464999422	0.16251185397059964
Si	-0.0520444080341559	10.909660114365854	10.763824796023673	14	1.597727783398863	0.4894212105535955	1.0816791777076857
Si	1.3685280276300336	12.30878809968295	12.336956380732481	14	1.1748076977298332	-0.5711851879501566	-1.7192024824651109
Si	2.7841065501996947	13.63349698790511	10.763906395910837	14	-1.0375201867236103	0.6558187759945349	2.0328801597390287
Si	4.1760047855139275	15.028316499179867	12.094588395873513	14	-2.059064296319417	-2.762547508291517	1.9611010698532627
Si	2.7865545468146595	10.755403687668192	13.581044580435128	14	-0.04585952004282121	1.231909632895534	-0.1059094845686037
Si	4.28304751749763	12.211618954046273	14.717943168357172	14	-0.6045419370421616	-0.6659838979882724	1.3497127935646107
Si	0.15327722805167518	13.813473699037337	13.62744227627743	14	18.671817806788503	18.84913305675039	15.417110089445837
Si	1.447092398992977	15.318322498166054	15.173254218763228	14	-0.9762633453605506	-1.364492278276418	1.0122989290856177
Si	5.35179387965905	-0.0326725948210662	0.2045872371013416	14	-1.2045921530900248	-0.552927254850721	-0.1623287912718051
Si	6.68719235309989	1.3959619096950748	1.3572672432011947	14	1.4040217370210344	0.2279827369533823	1.0134086181417938
Si	8.216031519055266	2.7859507076496346	0.1902256569602136	14	-0.687352611414555	-0.28578118455031115	-1.0338237086048334
Si	9.638823471650356	4.173524148944096	1.3702579452379422	14	-0.7625571849183544	0.7151506308044001	-0.7416520417812944
Si	8.141432902208566	0.0022195169309016	2.7798307161122224	14	-0.5107187043625101	0.04427417650241791	-0.7478993134881902
Si	9.401596279682815	1.510854550824099	4.01287029109266	14	1.3128657690005046	-0.8843224188857792	0.5959485317306307
Si	5.224302215951672	2.4593553192584374	2.869019392784114	14	0.304774196660777	-1.4417035994825929	-1.846563212940774
Si	6.726327658984464	4.0799453983427005	3.8822288717406943	14	11.303312266608263	1.935855900935793	2.3285374740450924
Si	5.227011332205567	-0.2613481186136634	5.458934531507351	14	2.058215317342704	0.9847212534217095	-0.4397867936797329
Si	6.428945030198515	1.2571441816491262	6.919441951950336	14	0.6349041197677904	0.811043346156239	-1.6050911719252348
Si	8.057841977796226	2.684309888196288	5.531003551851921	14	-1.989147715127566	-0.9651327733190973	-0.6244402353358517
Si	9.580071552891196	3.8339870184484504	6.732871969935137	14	-0.944583728268878	2.1616580834671573	0.8735055216933842
Si	7.906898506517485	0.0896782759948845	8.191502592973317	14	1.9424317599026033	-1.3709143851450838	-0.545893739136924
Si	9.336561169611912	1.3437869418414539	9.508475811892188	14	1.3001480536449241	0.14098398912499976	0.17399800987782915
Si	5.166333656109301	2.6654929542159236	8.286680701363155	14	1.4793085858950785	1.8222798945235716	-1.1687355182952395
Si	6.719359028620531	4.18006845989477	9.543645363260518	14	-0.3809881861132664	-1.822929869948505	-0.25993720520377867
Si	5.347860765097672	0.0260466839832276	10.959550285378839	14	1.9119441072373515	1.5996964787425	-2.3159097473757173
Si	6.651174162905039	1.1903954739477471	12.454900857641494	14	1.2606376210796766	1.2914008962352483	-0.23426060481358787
Si	8.042762318648043	2.6858602860524323	10.859133464232976	14	-0.13156783011102147	0.19398783952091644	1.4975927442687795
Si	9.742487968305408	3.912486109901662	12.21703718655406	14	-1.7721525967598364	-0.0054736261160632455	0.06548373850938342
Si	8.132195794981431	-0.1987283652028587	13.87829664940161	14	-0.7655142131470566	0.2849954547644739	-1.5614949958957398
Si	9.367112167366674	1.2222194299422922	15.145347057352627	14	0.6407932365035895	1.0546175228815313	0.14732536328661297
Si	5.170250450693246	2.714240726808593	13.566307640813037	14	1.480545030443538	0.8780563781100464	0.3050781013096185
Si	6.931273935589334	4.132593645541881	15.01468931802323	14	-1.7263007900329757	-1.3009849484266323	-0.05479899613044406
Si	5.336191981233006	5.285192051754569	0.08802995827414141	14	1.1685917935078431	0.03326676040579995	0.457551588778764
Si	6.8268913599272265	6.823774244237504	1.4414130468462583	14	-0.2960298674669534	-1.119034252683053	0.10202325887719987
Si	8.066361006016306	8.155174323207236	-0.0909349142572332	14	-1.107413885078112	2.326917420582867	0.708463957198291
Si	9.28095900649734	9.852696775911133	1.348372855500155	14	1.1511262750680775	-2.1800278596480194	-0.8150074763388432
Si	8.37030426573036	5.450546063106738	2.7892636630685543	14	-1.634954817329287	0.3596274431134762	-0.7370273946419439
Si	9.707791696282637	6.719505908417429	4.188293728521051	14	-0.5992408320930804	1.2807418649095104	-0.04965909948493605
Si	5.395661978999223	7.989347032509506	2.9404682539862255	14	1.6627651780246686	1.4260381118774625	-1.4239904836004968
Si	6.696054100846064	9.499842543830077	4.223773359460611	14	1.8821627372035445	-0.967833462347381	-0.3368813885671902
Si	5.626312220061225	5.49820039721139	5.327167033712501	14	-2.0857441420055296	0.41447914690298326	0.9242311156651177
Si	6.914382758946076	6.783969819278174	6.784965337901593	14	-1.0153827128066035	-0.8015629095092569	0.3520280271187145
Si	8.267847447405357	8.061203893147447	5.614186476828432	14	0.445587978613583	1.3335204864793821	-1.6693834602292617
Si	9.611079510014086	9.406606512754776	7.002837036633477	14	-0.4828692628662621	0.6878079541667533	-0.6708777398546423
Si	8.116561256600521	5.417400188940112	8.193330430445824	14	1.271016916146582	-0.24596067668345373	-0.16862208576393153
Si	9.414293222125766	6.811044661839686	9.702634583413777	14	1.8595097566698477	-0.9560711697287675	-1.7260184826688236
Si	5.658054576168604	8.472842683942527	8.018380272362991	14	-35.76239632859625	-0.6306576822210338	-10.438524334613371
Si	6.984770821615036	9.58529394566979	9.585277625692356	14	0.622968534650599	1.6327158988165018	1.4485247418969456
Si	5.383927915224824	5.506180866176176	10.842503407228648	14	0.4450341625276231	1.2797576457929578	-0.43988346723977045
Si	6.8683604225847334	6.76557720471107	12.216580227185935	14	0.37104057962961356	0.0380130208267933	-1.076458291244593
Si	8.337892790548224	8.290401656217902	11.004038543861471	14	-2.149660534711751	-0.8745884712542306	0.0724246944316552
Si	8.179866449063516	5.375082487456083	13.517445628378336	14	0.9513079400126612	-0.3345547953629882	-0.2568480221616208
Si	9.325692064641467	6.893215748215345	14.898637958496456	14	1.0709898073391702	-0.7937583193099473	-0.4306071763552082
Si	5.473426671467944	8.01984907033197	13.468599935921068	14	-1.0104150802175453	0.6837978011989183	0.43061848921861684
Si	6.669321977810647	9.547757997573658	14.676066106263837	14	1.168603620592316	0.4366209916990346	1.8014966217786865
Si	5.504630468320031	10.819165839499314	0.09467218908941309	14	-0.5125153927602295	-0.22230856462234755	-1.4636261289948354
Si	6.4886435076487965	12.368241777471733	1.5140532664009863	14	2.3195103232660528	-1.460424588650187	-0.6020428226709778
Si	7.958208515567152	13.533912485608335	0.0478828137887154	14	1.2186936373289088	-0.1399761158395017	0.6614312417978863
Si	9.60430671937935	14.907156986716533	1.5411607489173655	14	-0.5547062026217315	0.16119416249402374	-1.2002351580145019
Si	8.103113595195646	10.994931996453802	2.893825758482426	14	-1.7490561005584144	0.6974413715802841	0.19958539291341082
Si	9.542486644862768	12.383011357048689	4.166033279302304	14	-0.3774968821990374	-0.32023682405614756	-0.3538398850378229
Si	5.218100624527095	13.521509302759176	2.9152702088295195	14	-0.7164117579639327	1.3105134647431012	-0.459479146437279
Si	6.747951629083322	14.879576224854594	3.998557670883831	14	0.5830366979233791	-0.18729808058842315	2.0820322372548317
Si	5.4852096951746425	10.938285354783511	5.464581243699205	14	0.04368565049463601	-0.7414610086560074	2.1519526751046625
Si	6.815973295024483	12.210003276280396	6.977116752198913	14	-0.47091413734863763	-0.36868544715635787	-0.19136814031021757
Si	8.228695821543353	13.529816171272627	5.803155495526297	14	0.2747598844849644	1.6082724005378541	-2.3649764641948914
Si	9.773544885360597	14.974117854124543	6.897050942912124	14	-2.2837439342680046	1.1830221221171746	-0.04158068656903078
Si	8.351177252178767	11.012345412374918	8.263946972798847	14	-0.5668464477224067	-1.2124936739599037	-0.29553904346133714
Si	9.633829558555828	12.337086940551945	9.631397881918296	14	0.030517477486965608	-0.5404103428206442	-0.19802961708418923
Si	5.373809529216302	13.59707079827443	8.191600512837914	14	0.5513239135730768	-0.7979777602508423	1.192130519824331
Si	6.738796121743352	14.954191161678727	9.564469654465153	14	-0.049970974560270005	-0.2203460399314785	0.47666647128140494
Si	5.73510118963027	10.878031998100505	11.103084486902954	14	0.5287483233095165	0.9720140795979417	0.003269931746164327
Si	7.288599841487058	12.30968569844177	12.671793357727394	14	0.5142655441516544	-1.2535611679070329	-0.8403040673627161
Si	8.260634017379928	13.58463497547041	10.907375317525219	14	-0.4962955748480754	1.2451156011514104	1.0539449217297803
Si	9.639802670296342	15.086562498638601	12.262814723253907	14	-1.310723009826693	-0.9854108238685735	0.6971292393944181
Si	9.931636506755037	9.32187318992212	12.128762428618423	14	-0.09465241414539938	1.5524231078841295	-0.15951883026741526
Si	9.015171854021874	12.213724231135142	14.561646744480374	14	0.5020214263960452	0.8481256268571385	0.3688152879750254
Si	5.582786840247148	13.595912079876681	13.40364642573733	14	-0.6052482196736064	0.9382837489029191	0.8173173573584641
Si	6.601169752050021	14.88502709731725	15.154714724399225	14	0.04413662236778998	0.25688530318876296	-0.7644652021764362
Si	10.917118344052781	0.1074017714872311	0.1383444487003887	14	-0.7204905594438156	-1.1030818297241942	-0.02696600970824507
Si	12.21703718655406	1.543853545193827	1.3632403549417091	14	1.6728858198963672	-1.4598211502315483	0.1291846725897762
Si	13.609017021755461	2.8442946269729674	-0.013920940750434301	14	-1.064998103501097	0.03583940838914011	-0.5172387703438736
Si	14.90276691278703	3.9670274744830816	1.457896224053689	14	-0.12543111593289202	1.4611923206987831	-0.013283615636545051
Si	13.782547341801612	-0.229295682935055	2.475561056849506	14	-1.5080370883002852	1.019577728246957	0.7900998935499086
Si	14.74935912491589	1.0440379163277063	4.237906459917676	14	0.5096977184398793	1.6123193203117672	-1.3639875703020727
Si	10.88694270577898	2.869590591994272	2.631449481290477	14	0.14244232006258775	-1.2000191851676092	1.7674346184973648
Si	12.216759746937699	4.125771894974846	4.060965264588005	14	1.377601315861725	-1.1646248351093869	-1.7371009750407895
Si	11.029073389243846	-0.0316117962879147	5.374282808561862	14	-1.0317583397011587	0.7153614614406523	-0.7282727810268398
Si	12.263369602486632	1.4433551241607971	6.660509189996771	14	-0.07623712940037077	0.7586840718640833	0.46105909065651
Si	13.616132531916293	2.9678368561415343	5.438224480144747	14	0.9072978160266224	-1.5516373780982924	-0.11453117203865625
Si	15.236053491925798	4.346287430050893	6.593352482859566	14	-0.7641970358915448	-2.4805157666295776	0.28554721396617766
Si	13.767255522946797	0.27420826083094624	7.9256338406106845	14	0.5226126375735152	-2.0167109926016815	1.1571370050855194
Si	15.099471600788183	1.533441399591509	9.46078883783267	14	-1.2614328639551982	-0.8070421920570243	1.2274024852693144
Si	10.867603532520755	2.667973590785755	8.16793654555992	14	0.9763232521145099	-0.38204362484718724	1.1425182144562218
Si	12.466324841844663	4.207649221756708	9.479785291564797	14	-1.5617549346436068	-1.896224112199434	0.009652700703431934
Si	10.88601246706529	0.0792171704602674	10.937208236272927	14	1.1263220507130127	0.7953099813706567	-1.1972986986283607
Si	12.228020531366537	1.496362410863506	12.441697995898117	14	1.2359264707372013	-2.0026010237152407	-1.900383389275838
Si	13.546772627825616	2.7996594886934387	11.028632749853152	14	1.0265089139690122	-0.06356877926693714	-0.9330299522917285
Si	15.004244532466045	4.152618257852295	12.28977532597339	14	-0.5922857350915478	0.0017514369440848716	0.5738905049680163
Si	13.706006647640372	0.025149085224407102	13.637201622782422	14	-0.9112827721623199	0.9497269673513021	1.362805376075869
Si	15.025297303354744	1.4178143594779955	15.157962399908413	14	0.04694195538260355	-0.9917331718508174	-0.25269954372756187
Si	10.827603267832226	2.508804850880731	13.744554434337356	14	-1.0329490185749193	1.914799576805908	1.80496427152397
Si	12.132254903789107	4.205870344216501	14.998809979980823	14	-1.0265626500702034	-0.9374643376373878	0.3548703840501382
Si	10.732980038675112	5.702314354967172	0.015993577884438	14	1.002783525406282	-0.7892313741727627	-0.5986373936744416
Si	12.242414751462531	6.887977035459319	1.3724121822591115	14	-0.08641562114177298	-0.05296914047409468	0.8643140772843868
Si	13.389252205641334	8.563663358357728	0.2779618556405592	14	1.0260769682752275	-0.22998717066096974	-1.6446309150911322
Si	15.103355755417262	9.749521878579074	1.525624130401054	14	-1.1168783808721088	-0.41477893778331254	-0.15178983056451809
Si	13.658662393106951	5.420092985216574	2.8172197844114546	14	-0.7305983457889138	0.7419466904509833	-0.9445045382250173
Si	14.884439578129658	6.862191471115022	4.164450241491292	14	0.7754924157840194	0.34418152790268663	-0.1700436498954414
Si	10.830279744131255	8.306476833989505	2.6706174271299172	14	-0.557268051962727	-0.3928450954076613	0.05256573404936345
Si	12.172108288680736	9.471413143141618	4.202084109452021	14	0.17882603144800321	0.8848009015858588	-1.2998238372640536
Si	10.949595099144648	5.180597316385831	5.406743243676297	14	-1.7609718881646406	1.5720100453235497	1.5014913112657202
Si	12.219354623349561	6.534388404393775	6.756291137551636	14	1.1418378999885106	0.7756546525297208	0.830874281490541
Si	13.51741298842347	8.157899759438562	5.531395231310316	14	0.2156820548807299	-0.16107974830727714	0.6373348427374583
Si	14.970853858637922	9.637028274132714	6.805495869512432	14	-1.2501035454724978	1.4008849885304537	-1.7393686899331602
Si	13.870365140369124	5.288439727263755	8.084002901621487	14	-1.5940115077691206	1.4731147931788418	-0.6286794737877118
Si	14.958646515517962	6.743398355379487	9.41630057935004	14	0.26679357176101753	1.9347169012789671	1.2997166221722032
Si	11.071195250998677	8.045145035353276	8.170661981791248	14	-1.0330924862517836	-0.9062858289726123	0.7113245689774876
Si	12.413741874555216	9.614163985748942	9.215874936494137	14	0.954169066012922	0.6020163402861802	0.9953807989685115
Si	10.962944840684925	5.34684892649682	10.847529960278042	14	0.1735578366470198	1.635808167185044	0.3045569382612245
Si	12.334361504320617	6.971616919803957	12.157257109216616	14	-0.5072055460530598	-0.9437128948969437	0.5171917191165148
Si	13.687809872802466	8.405490137076123	10.895102694495527	14	0.2588974502123108	-0.716383990026475	-1.0880927999287953
Si	15.084620421324063	9.737135015707352	12.29520987845861	14	0.10727448438307033	-2.5531116966755545	-0.17989072616107654
Si	13.489261027351372	5.5332883486925555	13.762326889762	14	1.3497948118243235	0.40906028533023925	-1.2250283266166897
Si	14.801501452814643	6.804239231250084	15.336111273568134	14	-0.9682630940463777	1.5517512780639748	-0.9643696692600775
Si	10.921720577688916	8.147014334490686	13.729703254873234	14	0.5873132174023815	-0.2250701888467186	0.329429811128337
Si	11.966607132843142	9.902423747149786	14.909866102970428	14	2.1071920454756725	-1.7541641154979524	0.32142930270363224
Si	10.577189534098741	11.182415897205253	-0.17478695830850102	14	-1.107054444554355	-0.06502325354654492	0.06929025993586267
Si	12.233308204054863	12.392901263373147	1.0010184558140547	14	-0.4453056712494307	-1.625913782581518	2.066361864549593
Si	13.607189184282953	13.739723721017157	-0.0635826320793576	14	1.0260278601636126	-0.5369576054862173	-1.0041109870830742
Si	15.386327844129783	15.035007689927438	1.0755844327058888	14	88.12699615120144	-13.180891494357578	149.11406505987648
Si	13.482814636265298	11.020081081678208	2.762939539468964	14	-0.056704699393737824	-0.3949660001862515	-0.3249337192549941
Si	15.061739812962855	12.241647712523177	4.047484963228265	14	-1.3504013355693463	-0.4406887374260408	0.4108366619959295
Si	11.09210114209048	13.508779720361359	2.699128427705543	14	-0.35567719689960064	0.7502955836465681	1.2622347917045524
Si	12.512608297844935	14.876622308939202	4.227461674360492	14	-1.0805039254658462	0.6218598740365511	-2.7467429238885663
Si	10.648556795413686	10.769226708554028	5.374788727862288	14	1.315943896289786	0.5190066623620074	1.2687078064585573
Si	12.120814599608503	12.330297829939775	6.75367994116234	14	-0.3858704580056957	0.06198343572653384	-0.9537666880303188
Si	13.781388623403862	13.599012875588969	5.501986631975869	14	-0.0663388881388647	-1.2179536732177703	0.6111041691507756
Si	15.22232839090456	14.874125352391939	6.732741410115673	14	-1.1202979509479059	1.5253681379318071	1.086857898043528
Si	13.737112524627863	11.344783352687164	7.995695503730983	14	-0.137463631720653	-2.388552728649053	0.5755308701622708
Si	15.088667775727473	12.396964937753989	9.56424117478109	14	-0.542978877035472	0.007554935872723116	-0.48929291239812017
Si	10.944209506591728	13.683093399324301	8.32992864156087	14	1.3548208085041489	0.04529104865653647	-0.2297763400247176
Si	12.487263372891332	15.078745229448145	9.465505311310835	14	-0.21885274196153653	0.7451572296642522	0.5137659783879496
Si	11.019640442287516	10.848786598540391	10.732718919036182	14	0.31751942284328305	0.08555095842260717	0.5004630794615035
Si	12.14031697264106	12.42224458279786	12.151789916776528	14	1.1984963194864857	-1.3287300030468823	0.24664613336180524
Si	13.742498117180784	13.605687746359106	10.939721512797624	14	-0.49333057619288073	1.6586136142642254	0.36991572105204873
Si	15.080426187123756	15.040262722660897	12.427923934944578	14	-1.3274377655129759	-0.19963013014598138	-2.215143244779006
Si	13.643403214207002	10.914768267302414	13.476825204547351	14	-2.2371372510191487	1.4696057486379037	0.4765592561895547
Si	14.990764231106304	12.257788170204512	14.797209298749738	14	0.1755684410073756	0.5417794564036229	2.2353709016642065
Si	10.919517380735448	13.688984911177648	13.666104302816445	14	-1.660875672724892	-0.7911306496727559	-0.3222345728899026
Si	12.174360445566505	15.05527710189935	15.003085814068296	14	0.9034748395260943	0.8332044742421911	0.12444972503219151
H	137.13682422626482	138.99672555843483	138.87033059721097	1	34.067067587470845	-1.660501319790278	10.195070999838126
H	117.90574960256495	117.9334511322599	116.10312975918737	1	-67.4557600919735	-40.16107699178528	220.39111397884605
H	70.81976360801389	69.0798647019072	69.01109068500638	1	-9.520744122196504	-1.2315131684551672	-0.7870024829707263
H	15.085855843615748	15.080031243669875	16.90245701166026	1	-88.83269899839642	14.198593858384019	-149.1340433195456
H	17.914331516462813	17.83974105960483	16.022661716221528	1	-5.162301514378328	-7.706825462174057	-3.036695726820818
H	163.88548266281785	162.11646728497277	163.9650115448471	1	0.1925230808200281	-0.2024328920554748	-0.4117722872219314
H	211.71470654163616	208.99971019987242	208.99971019987242	1	-18.29274020903864	-20.0212935444426	-14.080618433658492
