226
config_type=divacancy dft_energy=-22931.472400939652 dft_virial="118.200404357271 -30.8860765547125 21.112203769793144 -30.886076554712506 181.41728672277634 18.805426117819525 21.112203769793144 18.805426117819525 166.37134944260242" pbc="T T T" Lattice="16.3199774331 0.0 0.0 0.0 16.3199774331 0.0 0.0 0.0 16.3199774331" Properties=species:S:1:pos:R:3:Z:I:1:dft_force:R:3
Si	1.1736511771013867	1.3636483543775368	1.1392160247175456	14	-0.862147149720566	-1.3349680187746253	-0.45686613210041255
Si	2.9850217923785887	2.4237451284994136	0.038188747193454	14	-1.6343187258730822	0.5974482574638732	-1.503450493519673
Si	4.192275803014728	3.8631671380988335	1.4271330665922957	14	77.82345664566955	28.892244790183398	-29.211461913869577
Si	2.5810533909770643	0.10333809710638919	2.7512870755817307	14	1.3600424662988375	1.275071806346988	0.017165727559436635
Si	4.337148242688357	1.5165991828805498	4.417834211117603	14	-2.359107144970057	1.1401209158557157	-2.7476451247454063
Si	0.0178050953795121	2.803445723457918	2.726431749951119	14	0.09290740496461486	-1.1035662259665102	-1.366365585612678
Si	1.3646601929783888	3.8572919462229174	4.111181835149654	14	2.9306468883438623	1.0933545669664781	0.9409309589405436
Si	-0.1564596236511297	-0.0396085852301337	5.366073859913012	14	0.6168621595152473	-0.31480716384105883	1.1290363665994931
Si	1.3190621760303074	1.1478819327345215	6.8106693023587255	14	-0.4177069125218972	1.1004749860400962	0.5302696463274481
Si	2.786946226273054	2.7351139779455282	5.807186529952273	14	-0.7959036495890789	-0.5641907530372258	-1.5595607533633926
Si	4.171631031561856	4.329412573385067	6.747641549512093	14	-1.545832336506462	0.002823844973118635	1.7983357048980966
Si	2.592134655654139	-0.0716936608636083	8.342478704206925	14	-0.9791599526142293	0.2801679474153639	0.5772583958268784
Si	3.998214951357736	1.364382753362026	9.487210881296857	14	0.06913033718494946	0.904944997548155	-0.6051764858351742
Si	-0.083395084683141	2.742213168128927	8.033459931511176	14	0.827330784138313	-0.1838936800340151	0.11254319340511776
Si	1.225320225654581	4.099823130856217	9.496790708050087	14	0.10789257810203391	-0.2635940883006253	0.6620673332540907
Si	-0.08739347915425051	-0.0196492528294524	11.11901278487766	14	0.25342356698571555	0.5324820824554356	-0.5446639794622972
Si	1.5465137015154222	1.211431924859013	12.29489979888738	14	-0.9795404762016111	0.6679307389366885	0.8035668289957801
Si	2.656092647214458	2.643330424861774	10.879092796633657	14	-0.17244891892243994	1.5229006481560612	0.11138336779519896
Si	3.8062920167444796	4.158624009547675	12.473685151666992	14	-0.1296032485358963	-1.2493514971663546	-0.5219883732017832
Si	2.843902947514573	0.0335538736024536	13.861862432126479	14	0.5916267607979939	0.7079749329663987	-0.35884428443295907
Si	4.646591334797367	1.3191927358497724	15.055081262170152	14	-1.8444903878316707	-0.012412010933014852	-0.6620804458912235
Si	-0.05574904291146961	2.5074502927537834	13.637479062398786	14	0.8923170137682477	1.0887281200534038	-0.37864333806129136
Si	1.1729983780040625	4.061552783775597	15.224760067542093	14	0.9099316563165822	-0.892357380121774	-0.7480268403120695
Si	-0.1709517636117225	5.495474960980062	0.2672885903993118	14	1.508709689452036	-2.1380687063758628	0.7784784975028394
Si	1.4479083978646319	6.68461379666546	1.382595848177366	14	-0.038102238181402445	0.38929594162372894	1.7019765910411828
Si	2.873132027097255	8.06228101165803	0.23641119309588662	14	-0.3463998775729104	0.7237373512420986	-1.390296919711552
Si	4.176902384272748	9.657868885314786	1.295479808639478	14	-0.410480563909089	0.2249861137027497	1.1879373041577015
Si	2.9241156365982595	5.458183812545429	2.8903332833117426	14	-0.5689002466521409	0.04196172437747672	0.2860943451783052
Si	4.049231200813606	7.236098474084775	4.060426705332713	14	0.33582877804912153	-2.2266165451596347	0.2836811057248142
Si	0.21490146283906078	8.175443735179146	2.870537150685392	14	-0.17753019436664857	0.9356823045399933	-0.8202448178759848
Si	1.5481946591910316	9.830060967211422	4.216151929999353	14	-1.66397128353035	-1.5487729096611154	-0.21657731375320546
Si	0.0953739481190364	5.447559507236481	5.286644529746114	14	0.2505390439270414	-0.8813993292473028	1.826385949719848
Si	1.3854681642055913	6.83043279503021	6.791672848626597	14	-1.9282302596667655	-0.6836679603802509	0.6937724042884328
Si	2.6164024620971587	8.185268361593872	5.54742144914962	14	0.7275361593526173	1.6918258672372382	-0.4426906000283081
Si	3.9380758345167624	9.491307195632565	6.985668420373856	14	-0.7072102862441867	-0.7543206490252601	0.9065575948049518
Si	2.613807585685296	5.524883560314508	8.292082613893513	14	1.6151411084006297	0.15387576831075425	-0.5634523315892792
Si	4.231280549079837	6.820918248186712	9.61968013812133	14	-1.979421480811978	-0.37351038340014775	0.33389273574305006
Si	-0.2035427585456232	8.268810326073911	8.069902441119288	14	0.821601847263959	-0.389714260459317	-0.7024388289910559
Si	1.160839994816403	9.435492872811365	9.532482498696277	14	-0.02712361846437015	0.6404155411320598	0.8869459747544584
Si	-0.13096781890062748	5.618135911367243	10.866656973829636	14	0.18550781995400406	-0.977524472520083	-1.9385527333060961
Si	1.267425767431979	6.733720608761658	12.194466657764083	14	0.8981513659607276	1.2352723815437556	0.767620976846386
Si	2.628642445171984	8.171102621181943	10.830247104176388	14	0.8753083807438721	0.04803878891217873	0.5620549358477787
Si	4.125722935042547	9.556195425906571	12.200880408895292	14	-0.17299322191871527	-1.221858667978011	0.20966335443679524
Si	2.471546342400963	5.554308479626387	13.79369388638842	14	0.04358229206076606	-0.9881379952816545	0.20553493062423345
Si	4.097962653428843	6.765560884733637	15.016304995789106	14	-1.0477007353492687	-0.9505016413842627	1.213837333600213
Si	0.07663861402583759	7.75714639359136	13.982124345830991	14	-0.6835959694312866	1.5090341629434385	-1.1343176740376093
Si	1.3513267714155461	9.353044346819342	15.117293016145128	14	1.1416880045483457	0.5358492019827015	0.39100289844577524
Si	0.13224077714040933	10.948420060769466	0.1487239543478403	14	-0.3827532499155481	-0.7369494901507436	-1.498414983750163
Si	1.425696908578183	12.571849815927088	1.1118637425396698	14	1.3384631793468347	-1.2743490686414942	0.6065903366507237
Si	2.716280723987731	13.989615215472785	-0.2525842907320887	14	-0.6751881979238704	0.6785887418202983	0.4021658664142621
Si	4.074951485248172	15.363430915791144	1.2396002059085436	14	-1.2563590447164181	-1.627459531099991	0.7561186229756396
Si	2.6445870631241224	11.114769590745055	2.6721678249860616	14	1.0658722793099473	0.04740603989289028	-1.2200887190756213
Si	4.115376069349961	12.370396014492902	3.992666159030482	14	-0.4594194967938515	0.26573144815326444	0.3454683661154207
Si	0.2746978601539392	13.675341410043577	2.66226159868417	14	-1.2069174607415667	1.0227648704018126	1.7508785000093352
Si	1.4798629136786416	15.129451399332787	4.249803723466406	14	-0.08065274567719308	-2.036718048650414	-0.2922505997568678
Si	-0.1471409165368296	10.954164692825918	5.444377111637026	14	0.8968190191838269	-0.5384673585302082	-0.3167702027529919
Si	1.2669688080638521	12.124404994643786	6.823252004959645	14	0.6557413857243984	1.9185515907996002	-0.04924977951796847
Si	2.95296935669998	13.660751350218387	5.608947764072407	14	-2.7729126622791616	-1.4283675332975168	-1.6608751585038277
Si	3.8807927137265814	15.098019122796638	6.929054418658432	14	3.724046281351117	0.14951388813512304	0.6046355252758151
Si	2.5351942543900536	10.906510358721265	8.30528547563689	14	-0.35544374053653127	-1.4564586586938584	-0.5704321112018852
Si	3.9855996088019494	12.27151327122575	9.333966293200048	14	0.7259035074743233	-1.0391160717958263	1.2140679617474306
Si	-0.057952239864938096	13.541223835498363	8.2694957651261	14	1.5089243767462681	0.33330420973526814	0.32610074395980926
Si	1.280791828949688	14.927785438191972	9.798612370697839	14	-0.7623412120714619	-0.3446024178435949	-1.334282562096274
Si	-0.157161382680753	10.628809622719634	11.21619825049177	14	0.46213869778044014	0.2961005728632574	-1.678905291671898
Si	1.4966561704573016	11.97318408374868	12.164046219828785	14	-1.3390049112377902	1.9328428226111112	-0.22836300343023222
Si	2.7254525513051333	13.42833855159361	10.734709956283023	14	-0.3076998574045735	1.0280289514342837	2.4158239285587997
Si	3.910462432699957	15.039707843428172	12.22560517470644	14	0.9971918855560238	-0.3477185974916143	-1.1067608243267943
Si	2.7284717471302566	10.772474384063214	13.600840713061476	14	0.34146464091088613	0.05075953256195942	1.636830181549803
Si	4.014437008926238	12.548920247633584	14.768600378309513	14	0.7052392769057612	-1.2099287392925242	-0.338892764259142
Si	0.0314485965135837	13.861356512826053	13.308174557753693	14	0.8305829752577683	-1.9686266951253364	1.161014746129367
Si	0.940846699018215	15.45116711447149	14.906308347890013	14	0.5981792227063912	-1.0122048266309005	0.32372581397558853
Si	5.808802207718149	-0.0803595688805844	0.1301681400064056	14	0.7379023417823903	1.2875606933290753	-0.15868553503315527
Si	7.025685005039818	1.6362735773974724	1.3595030801095294	14	0.1574393202844795	-0.6473181875850613	-1.368071513992596
Si	8.35861916188826	2.6700625478971918	-0.43541699791510796	14	0.11437999104583155	-1.0851437421265853	1.6002569797022925
Si	9.477875854205124	4.080908277011254	1.0627242904886056	14	1.1773924299081782	-0.8290433973920636	0.41370575842268276
Si	8.207332971083424	0.1459658781616464	2.643950584004232	14	0.29901466363311335	0.2568194828925671	1.7319307393525039
Si	9.68422564886924	1.622532156398802	4.004122783188518	14	-0.172780077287675	-0.8510194058949652	-0.4273709260887378
Si	5.643154436772184	2.858590927204363	2.772862085748289	14	-0.46044228249020647	-2.062469982426485	0.1338743686937263
Si	6.87492105351284	4.29752333748079	3.9503647775238866	14	2.676775177700845	2.829397532168027	-1.3066516645522386
Si	5.554194239784356	0.2182796981677125	5.649894587452054	14	0.6728402645455113	-3.095691795275872	0.44042391357806554
Si	6.879637526991006	1.6352290988417537	6.909960045061705	14	0.5193015681422284	-0.7928360638316102	-0.10609151882527018
Si	8.079319068098187	2.8644334791254127	5.31146721542186	14	1.4626740486947847	0.09009358730224482	0.6401386330890798
Si	9.366834727750312	4.218404086885122	6.868850021907726	14	0.9547316238569703	-1.1741453809993632	-1.1574943887250202
Si	8.229626060257038	0.1777571942013252	8.234048774141408	14	0.5987590069560846	-0.018190570140047657	-1.4713713266612494
Si	9.568076369477868	1.3161735400246488	9.77445880409685	14	0.19576087374969056	0.2684694182086901	0.04689413282364881
Si	5.3819205580005525	2.789720622436681	8.18605172051066	14	-0.3991371043471277	0.6019883152381906	0.21078358502478375
Si	6.666906621150547	4.077040442359609	9.665881994234438	14	-0.20918898550522794	0.012184468112181747	-0.16545756933589328
Si	5.426033457002222	0.0955861078256667	10.689275139109272	14	0.179325597211708	-0.6330066440415211	1.7222168463424528
Si	6.829894235774917	1.425729548533049	12.205678482260623	14	-0.9679175374913499	-0.39909802354626145	-0.16292683036927152
Si	8.134692751528695	2.8391211941266747	10.972002428160296	14	0.9107009310283705	-0.10211324756340505	-0.11908871332915073
Si	9.497557746989443	4.258910270874075	12.33991029664787	14	0.07433862523197342	-1.8054759214826797	-0.140501906877472
Si	8.15847095864872	-0.0532194464093391	13.469579134567054	14	0.38501325149195825	-0.6589922912911936	0.45677897163005954
Si	9.754842191222265	1.0342132899129801	14.744348891843927	14	-1.563822360431538	1.0768339297318665	0.3114603560458221
Si	5.495540240889794	2.8873467274414852	13.55458989701607	14	0.6638840762733074	0.047619955855526606	0.1594288415812101
Si	7.051682729090746	4.217996087449294	14.892958606349737	14	-2.296157744974744	-0.8746568626557465	-0.05292337479939604
Si	5.406482124037368	5.254445214270608	-0.0132518216756772	14	1.3227416416457254	1.2761552701288983	-0.10770411608206706
Si	7.005448233022774	6.8905392719163165	1.2214034310706372	14	-1.6251331950063213	0.07296436943835428	0.02497905951683463
Si	8.150816889232598	8.512891908563354	-0.22162529354149801	14	0.5223827807578938	-2.154182080527763	0.9340591657513838
Si	9.478349133550685	9.542584564727365	1.3423834237822072	14	-0.7589368115170538	0.9312024106301672	0.26160148167751057
Si	8.371919943496238	5.4611377284608205	2.530689940618518	14	-0.9536193636954743	0.16846242012355034	-0.04265232326646849
Si	9.495958389200998	6.7935333260539705	4.0317688249601895	14	0.9704644744214884	-0.07988347096540477	-0.38963172797854023
Si	5.497596558046365	8.266639769075308	2.697724909646296	14	1.6128574526552741	0.8481839909479058	-0.6414992620245022
Si	6.809902263419369	9.556146465974273	4.349943104995907	14	-1.6331750982266804	0.5407574420388641	-0.8055265254707971
Si	5.426098736911954	5.622982944664873	5.352462998733807	14	-0.9540351114257423	1.242967442656427	-2.3045351774393823
Si	6.66276134688254	6.7466297109112405	6.733916448490856	14	2.547887467775546	0.1584276531695444	0.6227656744408393
Si	8.205031854265355	8.027976419093655	5.409892999320886	14	-0.3791315909615875	0.9107814066248912	1.476189320920675
Si	9.562951896563874	9.595216491949113	6.78227254162513	14	-0.9317955646275253	-0.8189800911690039	0.0447516307603694
Si	7.999024779127335	5.39469910033067	8.213779362169497	14	-0.8172232549037467	1.1043560695208596	0.8082007321142831
Si	9.40283659796773	6.8914858306074365	9.461702756568922	14	0.3554414265417431	-0.7837574909461673	0.7968415888098689
Si	5.457123014012277	8.03558152857748	8.142754820380647	14	-12.144769217596533	-2.6668247430013396	-1.7382638859770927
Si	6.74831066858685	9.542829364388862	9.739354532638254	14	1.4474978424320786	0.47237169695462955	-0.779011230525174
Si	5.199610090095392	5.317326087320343	11.060016066457004	14	1.674319468222882	0.5853154685686264	-0.028723874415630308
Si	6.821081447961044	6.737425243638972	12.219729982830522	14	-0.18143133246890925	0.025368324862305055	0.5015946229129006
Si	8.229120140956612	8.266150169752315	10.993153118913593	14	-0.34284403891514564	-0.36219083511766387	-0.1333105252970178
Si	8.322747851490307	5.621220387102098	13.721347426427487	14	-1.1727682969898918	0.38033949624099306	-1.51596611999709
Si	9.605971357077525	6.844141576074014	15.044962876161629	14	-0.33986567051228606	1.1403111776494066	0.9100946643938795
Si	5.391190305182553	7.9524638835107	13.68718971366001	14	1.4805195765008683	2.5303779834348052	-1.8676622174189732
Si	6.811664820982144	9.745784603746893	14.778604524476005	14	-0.5153443799439885	-0.04860803163005951	-1.3905090359004644
Si	5.423683380251855	10.98145169509406	-0.16827528731269412	14	-0.6819255223047864	1.2399782756112228	-0.25521177073587853
Si	6.702843211458234	12.35254195918109	1.2438597200185826	14	-0.7937773454893164	-0.7721085840721724	1.2801109156639463
Si	8.318977936703261	13.423997437596405	0.14036812590209308	14	0.5592154071322071	1.5208990426643259	-1.3178022912151888
Si	9.604078239695285	15.090544573132277	1.4837797082625859	14	0.387092504364362	-1.2516927456708813	-0.8203386632201702
Si	7.91687001272911	10.838129653276576	2.68042573356721	14	0.8108942220476703	0.47011246670981544	0.2545785074955261
Si	9.485888963124776	12.241859872229806	3.9044240410497104	14	0.053697020390228604	0.8422326534633591	-0.8523381258136691
Si	5.331540787664572	13.804514031426566	2.6036728796993405	14	0.2371950073154729	-0.16889359448573918	-0.4023137049701707
Si	6.778682146589849	15.0073779681332	3.962131481253152	14	0.5482182754568697	0.528600484753608	1.6178536245133859
Si	4.928355745179838	11.006127500972907	5.709658344812066	14	2.557660239097429	-0.4185327515507288	-1.9632276310635568
Si	6.6834387582902774	11.96980584842003	6.842166858804608	14	-0.19880814777513006	2.170222178178039	-1.3614964263573814
Si	8.144419458078822	13.443891490087353	5.444067032065798	14	-0.6015561124338737	1.0368303591662147	-0.3491733288817541
Si	9.56686869114782	15.134788031953413	6.582662897640885	14	-2.185161328530227	0.3851580047214826	-0.4321940625588036
Si	8.077605470467711	10.932948722162886	8.210335846931114	14	1.1488053382955798	-2.306334436942422	0.7947381675474557
Si	9.455207405550548	12.331831907818486	9.435590792675962	14	-0.6126152077474266	0.578988492596806	1.3786228160054195
Si	5.482304739191551	13.410778255875595	8.227830862739395	14	0.699643780397523	2.6960576962703593	-1.5938950366981182
Si	6.82612432098787	15.077880270644192	9.345537157200116	14	-0.721053631508928	-1.2654355607176049	0.9790247124743896
Si	5.424580979010676	10.989676963720342	10.815477524599434	14	-2.6147215507990715	-0.6255067298226492	-0.38482504658252337
Si	6.647910167418418	12.198840411716155	12.14575152512628	14	1.5912527117606017	1.053362052153703	1.4448254355623165
Si	7.977825128441737	13.712697838387944	11.001068307968646	14	1.8011335817074818	-0.4933272337559645	-0.7907064172949315
Si	9.736367976767996	14.774410290275698	12.408633721618655	14	-2.226738158441278	0.10497231667940973	-0.6958861099721265
Si	9.51302908559602	9.713487368406788	12.360636667987908	14	0.015501965306768813	0.21461967416244468	-0.11675337836686024
Si	9.072357054947455	11.939369090507299	14.742896413852382	14	0.774375013411883	-0.862943163927684	0.8155152696395723
Si	5.604704569939801	13.853849323206825	13.39839139300387	14	-1.7007720281986936	-1.2896216913537057	0.43608825867669987
Si	6.941800321033684	14.846691470326897	14.963232429176664	14	1.1646736861104696	0.10299359402502377	0.5785475480344006
Si	10.951390296662291	-0.044716738166694	0.0042758340874722005	14	0.7554164541127071	-1.0246721163282986	0.1679062900428023
Si	12.50420350946689	1.2820321472346037	1.1687715038488895	14	-1.261858638996215	0.16002250979963226	0.7554439649396326
Si	13.78638253649839	2.628332365600755	-0.1470756366270972	14	1.0059642397978372	-0.4065987090967295	0.35251473735581856
Si	14.876328549345407	3.984604090178531	1.5034452810694712	14	-0.7872202555913429	0.8321996862830774	-0.7460653440633285
Si	13.76784304213439	-0.0479970536307471	2.577430355986916	14	1.6188967219417698	0.38381074553372496	0.16363002767433202
Si	15.104041194469453	1.4701525271059472	4.045330726207096	14	-2.6119347297425626	-0.6567384603675519	0.13012698268961048
Si	11.079600039376723	2.830014646719005	2.408028990231338	14	-1.1949235115336077	-0.7830200979403489	-0.32581689393246493
Si	12.179713398164562	4.160419207065317	3.887239104812656	14	0.5140354302255011	-0.3243809316111622	1.4962747956816718
Si	11.02830635030449	0.0838030841189685	5.2943312391171045	14	0.7186709882087469	0.299773396813089	0.05214612966111528
Si	12.18390763236487	1.3947705513424584	7.054114405728278	14	1.0730973423700954	-0.8801834535414048	-2.0893341763640523
Si	13.41875872484038	2.7105034519764137	5.4153112318286745	14	0.6187483223781078	0.19840474135039882	-0.2339620994859187
Si	14.913342258163677	4.113189192373925	6.68255747950889	14	0.06772368546429644	-0.0895863082225796	-0.6526509171295805
Si	13.768251041570215	0.09153875342225791	8.285668862762302	14	-0.6144111248135501	0.5602690460924039	0.4454475962631029
Si	15.11487765948503	1.5575623262376308	9.686396205867844	14	-0.6451988254696632	-0.9487401771294293	-0.3834785587263619
Si	10.75876560301941	2.6754155004952485	8.208654889255504	14	-0.29070485123839473	1.641831752729087	1.321222118401518
Si	12.228526450666964	4.212626814873803	9.628574525822371	14	-0.9667389428125939	-0.24820550873847502	-1.450947751550653
Si	10.976343542157501	-0.298329187477068	10.960986443392953	14	0.31925054805533876	1.9614540826137188	0.025615922304635313
Si	12.428935773545431	1.221550310867535	12.254328334988694	14	-1.973663747558038	0.4865264030736408	-0.2579857362657863
Si	13.453732436479513	2.733090300743824	10.845718442782967	14	1.8181062192573751	0.3804569957541239	0.7666390717246214
Si	15.036884487332244	4.164319681671827	12.142813929188323	14	-1.5494447394812698	-1.6250231516986189	1.4021877675961731
Si	13.453095957359622	-0.06586742891999159	13.819707930416781	14	0.8637592327562988	-1.059945367325942	0.40050416104585046
Si	15.279268792168647	0.9016134732690426	15.114763419642998	14	-0.5272511686815943	0.752464568094645	-0.24208422119226647
Si	10.80888425371646	2.5906658576851602	13.497535255909954	14	0.9007389263549247	0.2894920608588809	-1.1138496188049745
Si	12.167832454593265	3.7639743152604517	14.952624443845151	14	1.1572169664609762	1.1963926411135404	-1.062341123263256
Si	10.971839228385964	5.340337255501013	-0.1639668132703557	14	0.012060797946282623	0.5707961797152181	0.9320634738018849
Si	12.041222069667274	6.78889845246297	1.3936281529221413	14	1.6263866088498935	-0.5945760757107357	-0.8551640276710439
Si	13.49077878525265	8.176928853125558	0.0706002223755906	14	0.39981844725696697	0.10099327408594856	0.4256840238881886
Si	14.985035919027286	9.583156028626052	1.3635504345129381	14	0.7196366953669944	-1.2160821656552343	0.723971321826232
Si	13.612999096249135	5.551256643846398	2.7309523837000875	14	-0.2310446662791467	0.16802378955593308	-0.16472377587752302
Si	15.079234828771138	6.786907415216131	4.116436867883112	14	-0.2684573340136854	0.6604135983121715	-1.453513714660161
Si	10.769961107538517	8.179654289356886	2.6278754062326284	14	0.10733361980543371	0.2652347106054118	1.2772032526573904
Si	12.18012139760039	9.422926490187876	4.121593980751972	14	0.6054009433296232	0.22244611875697545	-1.2142217138455753
Si	10.84731780057141	5.4460907092675015	5.393654621774951	14	-0.25202951368113125	-0.5694653756015096	-0.06256064887090708
Si	12.285222052269553	6.641316896535446	6.757694655610883	14	-0.46260766739083525	1.8376162806477225	-1.4274239376450224
Si	13.689033871109949	8.120902370597726	5.3321446268295976	14	-1.36140052412894	-0.38497134247523984	1.0930604325178532
Si	14.75867783203019	9.629716924242688	6.71888574927497	14	0.010668287304890424	0.1078699523752166	0.4334467050707797
Si	13.613766135188492	5.483218657927805	8.061252853079745	14	0.06160779723926021	-1.8568823441431885	1.311117417382804
Si	14.821836144696286	6.878609368412721	9.37204080055147	14	0.012431037112383947	0.559038000865117	1.947737235730729
Si	10.82515527121726	8.014088118298085	8.007707007121745	14	0.4183057229509597	0.8961453895899482	0.5116497015989356
Si	12.35580595466771	9.267462385160167	9.469454745849644	14	-0.293695818057323	0.5788720215258033	0.14274648182196129
Si	10.848492838946594	5.5406812984697495	11.035193380781259	14	-0.8181072009128136	-0.2800645889814939	-2.3306730341240076
Si	12.105408540911657	6.716437752660005	12.412142516766773	14	0.9390671646939681	1.073122282091701	0.6139226148027219
Si	13.520921783571586	8.078258269565035	11.180490139868148	14	1.0074832488209804	0.31228773773784574	-1.024192348075559
Si	14.953603642491135	9.358119859801036	12.734772150641724	14	-0.17336346108481662	-1.2081176527050117	-0.9073461528066412
Si	13.570142835509817	5.3813003988580945	13.654794558455306	14	0.012131760453118711	-1.1673406936590591	0.47339319709832434
Si	14.845793871568077	6.603421908935788	15.269525765641085	14	-1.5357883135733035	1.1661083628791125	-1.7667751299827468
Si	10.760430240717586	8.178985170282129	13.657960634077327	14	1.17256646522226	1.226627554125822	-0.3690479730064988
Si	12.261851844585355	9.549536875113866	14.97147401778038	14	-1.1561676983798237	0.06975228756189328	0.41946349167662234
Si	10.792564276283361	10.959370765627076	0.0571036010384169	14	-0.11155614607271291	-0.4482107631506661	-1.4009878327432597
Si	12.388837588992306	11.997223410507639	1.396663668724698	14	-0.7420608475271979	2.169934728603246	-0.7119979414608345
Si	13.769067040441872	13.396906275057459	-0.039331145613771	14	0.999697170579976	-0.035170149674305574	0.8835929963064532
Si	15.394748952485262	15.059895655512916	1.167221105992745	14	-1.53902662072403	-0.1447303466869875	-0.28871198750474797
Si	13.692950665693894	10.846550761632056	2.800687647271724	14	0.1409798753564875	-0.34532798376494067	1.5634675478973576
Si	14.98937703302449	12.425508578284482	4.176053745446227	14	0.1088246037805876	-0.4204798496096769	-1.70373728396442
Si	11.190118926553676	13.727744857581262	2.6460558610931018	14	-1.1709854925609013	-1.2323665183109243	0.3289307595856963
Si	12.632951811436614	14.894198924634651	4.061487503865865	14	-1.1605776582249416	0.21047093861785376	1.1069554569995292
Si	10.738528831002366	10.863197138613817	5.222833417982693	14	0.4259074529405095	-0.16904528969962793	0.8189461525787779
Si	11.882559249062679	12.22877125032846	6.777392868372634	14	-0.2727603358774852	0.2214716698406393	0.9692611971316591
Si	13.566927799955495	13.360447445471914	5.725700882628804	14	0.5153027280378021	2.2849500397736864	-0.6619953423051267
Si	14.980254165639387	14.953962681994662	6.98374266303675	14	-0.6500934386676291	-0.48397818059084197	-1.274342640878194
Si	13.43060702845681	11.004283343522967	8.162501993074697	14	0.020578098540337163	-0.9963413639161187	-0.12063703295294391
Si	15.04179680053961	12.057019807822517	9.550418153895254	14	-1.24298698305686	-0.08933511123280112	1.14429433401138
Si	10.511876984411474	13.888920954710557	8.125863643737388	14	2.2828926412965043	-1.5300112970294628	-0.05279919041243288
Si	12.218065345132347	14.969450340578677	9.341424522886975	14	0.5060498342116532	-0.7976296325904944	0.3974198631038008
Si	10.93644119733357	10.890353581062495	10.742902584954438	14	-1.5646721107398471	-0.8722791044556736	-0.3905578401148576
Si	12.032621441560032	12.22256965890388	12.269163194475382	14	2.0323535973694624	-0.5122181729852204	-0.1358970572490868
Si	13.411888014341045	13.416457608022313	10.770597586658408	14	0.7850206749899561	1.0736406169242427	0.10332578083238689
Si	14.688730408751923	14.984627919591459	12.233634603603525	14	-0.9349852778877011	-0.5435110958367427	-0.6510419194202318
Si	13.61960868710954	10.981941294417053	13.743281476097573	14	-1.135459501910287	0.06000651284587198	-0.6227173376608205
Si	15.22469478763236	12.17432780561164	14.829310694360647	14	0.5526760578609425	1.2977499837128221	0.33961293085931554
Si	10.772360144221183	13.27540404306803	13.809981223866652	14	-0.968672156902813	0.22585386174829972	0.4089726106388222
Si	12.207734799417194	14.555902112423922	15.082841543783854	14	-0.12365165394081754	1.776273307256438	0.03566688722215818
H	139.95997469047546	139.93520912472073	139.83616807767248	1	-0.012310452272869001	0.03978811193982354	0.04697717952548958
H	135.89438271228516	134.09704238160722	135.9385054032733	1	-1.868147127882353	-1.2215046267754266	2.4479018098645633
H	192.14744691080543	192.10402924284242	193.98345742801112	1	0.17704194146635246	-0.03468986720050191	0.12588311624817405
H	3.094525576959203	3.0600936885708485	3.1094306123488535	1	-0.7754587343043254	-0.14020905798150712	0.32520574219786574
H	-0.9349160192190265	-0.8958639452193614	-0.9054013400312652	1	0.13159379827475495	0.07445766740829628	1.0637698864896623
H	137.12216725453214	138.98783280273156	138.865803435471	1	11.358869224587085	4.003998513030121	1.6867049967710992
H	2.1668001397972003	1.9234235803328668	2.1980186246289772	1	1.4593514092895574	0.7184110494608799	1.4508263953795422
H	117.76426029421322	117.86759675932184	115.92324770392428	1	-78.79612635712414	-27.297257547945282	29.360101883306385
H	126.84401029893786	125.01266239928479	125.10024029418405	1	-0.08508481702806434	-0.12405480325501674	-0.17488349855008814
H	101.09794519602119	102.85494743847777	102.9754443598573	1	-0.1087497846157713	-0.223306153486565	-0.223913448563184
H	71.08881801997146	68.85671185847796	70.06130571279252	1	-0.4824067210191675	-2.0492856114552978	-0.27369287577710294
H	155.71478477707623	152.9997884353125	152.9997884353125	1	0.1219475253346234	-0.07226451457020996	0.025268823086415322
