222
config_type=interstitial dft_energy=-22785.5111102226 dft_virial="-21.491345425394343 -177.91321963206212 -177.91321963206212 -177.9132196320621 -22.7365264416846 -180.3716539462762 -177.9132196320621 -180.3716539462762 -22.7365264416846" pbc="T T T" Lattice="16.3199774331 0.0 0.0 0.0 16.3199774331 0.0 0.0 0.0 16.3199774331" Properties=species:S:1:pos:R:3:Z:I:1:dft_force:R:3
Si	-1.3599926794325223	-1.3599926794325223	-1.3599926794325223	14	-1.074620208051219	0.16535292534936324	0.16535292534936324
Si	0.0	0.0	0.0	14	-2129.391763795596	-2129.174777676097	-2129.174777676097
Si	1.3599926794325223	1.3599926794325223	1.3599926794325223	14	-20.537411055756355	-20.508386104907736	-20.508386104907736
Si	2.7200016788424777	2.7200016788424777	0.0	14	0.024831735181990146	0.06024485430904972	-0.9298788056113549
Si	4.079994358275	4.079994358275	1.3599926794325223	14	-0.22623104289876542	-0.2374256354626902	0.2517019548633444
Si	2.7200016788424777	0.0	2.7200016788424777	14	0.024831735181990146	-0.9298788056113549	0.06024485430904972
Si	4.079994358275	1.3599926794325223	4.079994358275	14	-0.22623104289876542	0.2517019548633444	-0.2374256354626902
Si	0.0	2.7200016788424777	2.7200016788424777	14	-0.948197159685814	0.07274813948092981	0.07274813948092981
Si	1.3599926794325223	4.079994358275	4.079994358275	14	0.2674656586917043	-0.22126083920438716	-0.22126083920438716
Si	0.0	0.0	5.439987037707522	14	-0.017015317898207972	-0.01390119513444462	0.014294060027363248
Si	1.3599926794325223	1.3599926794325223	6.799996037117478	14	-0.004842162649434877	-0.003953074429727671	0.005273079901091695
Si	2.7200016788424777	2.7200016788424777	5.439987037707522	14	-0.038572236233925514	-0.028758327226920295	0.06671581217879839
Si	4.079994358275	4.079994358275	6.799996037117478	14	0.025288363486848448	0.021883962932440375	-0.001842968293482143
Si	2.7200016788424777	0.0	8.15998871655	14	0.0009248265836572641	0.04935262373077439	0.0025351098456660058
Si	4.079994358275	1.3599926794325223	9.519981395982523	14	-0.002546679819606672	-0.008051159199511696	-0.010611465877315152
Si	0.0	2.7200016788424777	8.15998871655	14	0.052387556450677185	-0.00020388865188774268	0.010181577067786394
Si	1.3599926794325223	4.079994358275	9.519981395982523	14	-0.017259572903622036	-0.000799099533502023	-0.02493226540000794
Si	0.0	0.0	10.879990395392477	14	0.15138411014499875	0.1245019184701905	-0.049197328969437445
Si	1.3599926794325223	1.3599926794325223	12.239983074825	14	-0.06826078936567538	0.0020265452133407156	-0.005353812608144345
Si	2.7200016788424777	2.7200016788424777	10.879990395392477	14	0.04386485653545033	0.020641604841744824	0.002368759331452425
Si	4.079994358275	4.079994358275	12.239983074825	14	-0.00327224574095246	0.008812720595339555	0.01331883977943108
Si	2.7200016788424777	0.0	13.599975754257523	14	-0.08757544675169178	0.07491738103953877	-0.37789360374993625
Si	4.079994358275	1.3599926794325223	14.959984753667477	14	-0.05137428384400682	0.009547799606369891	0.24442109881774907
Si	0.0	2.7200016788424777	13.599975754257523	14	0.21744043380917918	0.0037818388154058093	-0.08544939976246133
Si	1.3599926794325223	4.079994358275	14.959984753667477	14	0.044639273457878936	-0.01982810711844997	0.06344228088518586
Si	0.0	5.439987037707522	0.0	14	-0.017015317898207972	0.014294060027363248	-0.01390119513444462
Si	1.3599926794325223	6.799996037117478	1.3599926794325223	14	-0.004842162649434877	0.005273079901091695	-0.003953074429727671
Si	2.7200016788424777	8.15998871655	0.0	14	0.0009248265836572641	0.0025351098456660058	0.04935262373077439
Si	4.079994358275	9.519981395982523	1.3599926794325223	14	-0.002546679819606672	-0.010611465877315152	-0.008051159199511696
Si	2.7200016788424777	5.439987037707522	2.7200016788424777	14	-0.038572236233925514	0.06671581217879839	-0.028758327226920295
Si	4.079994358275	6.799996037117478	4.079994358275	14	0.025288363486848448	-0.001842968293482143	0.021883962932440375
Si	0.0	8.15998871655	2.7200016788424777	14	0.052387556450677185	0.010181577067786394	-0.00020388865188774268
Si	1.3599926794325223	9.519981395982523	4.079994358275	14	-0.017259572903622036	-0.02493226540000794	-0.000799099533502023
Si	0.0	5.439987037707522	5.439987037707522	14	-0.14602464110515007	0.0702438828991056	0.0702438828991056
Si	1.3599926794325223	6.799996037117478	6.799996037117478	14	0.044514317739319735	-0.003034675609370778	-0.003034675609370778
Si	2.7200016788424777	8.15998871655	5.439987037707522	14	0.0033784323906745754	0.009049519395325193	-0.00787015338497327
Si	4.079994358275	9.519981395982523	6.799996037117478	14	0.010203688573539668	-0.009007353268074765	0.014672783841021055
Si	2.7200016788424777	5.439987037707522	8.15998871655	14	0.0033784323906745754	-0.00787015338497327	0.009049519395325193
Si	4.079994358275	6.799996037117478	9.519981395982523	14	0.010203688573539668	0.014672783841021055	-0.009007353268074765
Si	0.0	8.15998871655	8.15998871655	14	-0.01193224268027522	0.0048192798120855595	0.0048192798120855595
Si	1.3599926794325223	9.519981395982523	9.519981395982523	14	0.11674617927196383	0.010851607114216982	0.010851607114216982
Si	0.0	5.439987037707522	10.879990395392477	14	0.0775139403023563	-0.0039224782764179095	0.041716440929934595
Si	1.3599926794325223	6.799996037117478	12.239983074825	14	0.008272017146512415	0.018388802360231073	0.003696992339840923
Si	2.7200016788424777	8.15998871655	10.879990395392477	14	-0.0103049901231535	-0.015465198500690697	0.0033146689787349037
Si	4.079994358275	9.519981395982523	12.239983074825	14	-0.0028210167572664726	0.003176857733574966	-0.06533307173762276
Si	2.7200016788424777	5.439987037707522	13.599975754257523	14	-0.0018103152559162624	0.0037273313826186693	-0.0506446041541488
Si	4.079994358275	6.799996037117478	14.959984753667477	14	-0.01796122754549045	-0.009301487716699704	-0.0020640833510148777
Si	0.0	8.15998871655	13.599975754257523	14	-0.001462958927164257	-0.045039594556225984	0.013633285960085189
Si	1.3599926794325223	9.519981395982523	14.959984753667477	14	-0.015017826174984929	-0.0007919004386056083	-0.10741383829142234
Si	0.0	10.879990395392477	0.0	14	0.15138411014499875	-0.049197328969437445	0.1245019184701905
Si	1.3599926794325223	12.239983074825	1.3599926794325223	14	-0.06826078936567538	-0.005353812608144345	0.0020265452133407156
Si	2.7200016788424777	13.599975754257523	0.0	14	-0.08757544675169178	-0.37789360374993625	0.07491738103953877
Si	4.079994358275	14.959984753667477	1.3599926794325223	14	-0.05137428384400682	0.24442109881774907	0.009547799606369891
Si	2.7200016788424777	10.879990395392477	2.7200016788424777	14	0.04386485653545033	0.002368759331452425	0.020641604841744824
Si	4.079994358275	12.239983074825	4.079994358275	14	-0.00327224574095246	0.01331883977943108	0.008812720595339555
Si	0.0	13.599975754257523	2.7200016788424777	14	0.21744043380917918	-0.08544939976246133	0.0037818388154058093
Si	1.3599926794325223	14.959984753667477	4.079994358275	14	0.044639273457878936	0.06344228088518586	-0.01982810711844997
Si	0.0	10.879990395392477	5.439987037707522	14	0.0775139403023563	0.041716440929934595	-0.0039224782764179095
Si	1.3599926794325223	12.239983074825	6.799996037117478	14	0.008272017146512415	0.003696992339840923	0.018388802360231073
Si	2.7200016788424777	13.599975754257523	5.439987037707522	14	-0.0018103152559162624	-0.0506446041541488	0.0037273313826186693
Si	4.079994358275	14.959984753667477	6.799996037117478	14	-0.01796122754549045	-0.0020640833510148777	-0.009301487716699704
Si	2.7200016788424777	10.879990395392477	8.15998871655	14	-0.0103049901231535	0.0033146689787349037	-0.015465198500690697
Si	4.079994358275	12.239983074825	9.519981395982523	14	-0.0028210167572664726	-0.06533307173762276	0.003176857733574966
Si	0.0	13.599975754257523	8.15998871655	14	-0.001462958927164257	0.013633285960085189	-0.045039594556225984
Si	1.3599926794325223	14.959984753667477	9.519981395982523	14	-0.015017826174984929	-0.10741383829142234	-0.0007919004386056083
Si	0.0	10.879990395392477	10.879990395392477	14	-0.17750062665546687	0.005227828447457089	0.005227828447457089
Si	1.3599926794325223	12.239983074825	12.239983074825	14	0.4876170659504475	-0.2809500776537529	-0.2809500776537529
Si	2.7200016788424777	13.599975754257523	10.879990395392477	14	-0.006385340062587754	0.11259307284832863	-0.0151144997350225
Si	4.079994358275	14.959984753667477	12.239983074825	14	0.008995011962538055	-0.19000982536958336	-0.008703448619233263
Si	2.7200016788424777	10.879990395392477	13.599975754257523	14	-0.006385340062587754	-0.0151144997350225	0.11259307284832863
Si	4.079994358275	12.239983074825	14.959984753667477	14	0.008995011962538055	-0.008703448619233263	-0.19000982536958336
Si	0.0	13.599975754257523	13.599975754257523	14	-19.919722542991213	-21.19819412190303	-21.19819412190303
Si	1.3599926794325223	14.959984753667477	14.959984753667477	14	3.0429041748373797	2.806108203067594	2.806108203067594
Si	5.439987037707522	0.0	0.0	14	0.024027493437847828	-0.029218555079226795	-0.029218555079226795
Si	6.799996037117478	1.3599926794325223	1.3599926794325223	14	0.0015622035925219727	0.006894418915977073	0.006894418915977073
Si	8.15998871655	2.7200016788424777	0.0	14	0.01236213148980398	0.0008258390288315629	0.04454877055060972
Si	9.519981395982523	4.079994358275	1.3599926794325223	14	-0.009818279886049467	-0.0019920924020507312	-0.008508044614902009
Si	8.15998871655	0.0	2.7200016788424777	14	0.01236213148980398	0.04454877055060972	0.0008258390288315629
Si	9.519981395982523	1.3599926794325223	4.079994358275	14	-0.009818279886049467	-0.008508044614902009	-0.0019920924020507312
Si	5.439987037707522	2.7200016788424777	2.7200016788424777	14	0.07021045852994368	-0.03034804164636785	-0.03034804164636785
Si	6.799996037117478	4.079994358275	4.079994358275	14	-0.003392830580467405	0.02045982769561035	0.02045982769561035
Si	5.439987037707522	0.0	5.439987037707522	14	0.07376835407196458	-0.1415699440274615	0.08296082692309001
Si	6.799996037117478	1.3599926794325223	6.799996037117478	14	0.0010112157224142395	0.043460935889655064	-0.002958056670830365
Si	8.15998871655	2.7200016788424777	5.439987037707522	14	0.004273434152618123	0.0020658831247389814	-0.007750596987586384
Si	9.519981395982523	4.079994358275	6.799996037117478	14	-0.0013351749927528974	0.006704928453882161	0.01736987332185639
Si	8.15998871655	0.0	8.15998871655	14	-0.0046393024396751935	-0.012965055687378702	0.00023808435264571212
Si	9.519981395982523	1.3599926794325223	9.519981395982523	14	0.016858223363146924	0.09128503750760143	0.011660991068999598
Si	5.439987037707522	2.7200016788424777	8.15998871655	14	-0.003079927063005384	0.0031182365322755903	-0.009545999832645787
Si	6.799996037117478	4.079994358275	9.519981395982523	14	0.015608409067022945	0.013084354974233573	0.024253493595488843
Si	5.439987037707522	0.0	10.879990395392477	14	-0.007392699127021771	0.09235281754705893	0.017072910657379287
Si	6.799996037117478	1.3599926794325223	12.239983074825	14	0.024708836347687068	-0.003649426891418184	-0.0008469220924567772
Si	8.15998871655	2.7200016788424777	10.879990395392477	14	-0.01618202266394798	-0.0032825301622330526	0.004096027885527905
Si	9.519981395982523	4.079994358275	12.239983074825	14	0.006796202692747417	-0.008832003885240667	-0.07379457934623009
Si	8.15998871655	0.0	13.599975754257523	14	-0.005827667318647636	-0.010323502081458567	0.004579395685715743
Si	9.519981395982523	1.3599926794325223	14.959984753667477	14	-0.0032167098660372618	-0.016032127223783346	-0.09189438946847651
Si	5.439987037707522	2.7200016788424777	13.599975754257523	14	-0.007119647742022046	-0.008015163725029622	-0.1392952871507265
Si	6.799996037117478	4.079994358275	14.959984753667477	14	-0.015156408751740914	-0.025707967875096615	0.044298087781895285
Si	5.439987037707522	5.439987037707522	0.0	14	0.07376835407196458	0.08296082692309001	-0.1415699440274615
Si	6.799996037117478	6.799996037117478	1.3599926794325223	14	0.0010112157224142395	-0.002958056670830365	0.043460935889655064
Si	8.15998871655	8.15998871655	0.0	14	-0.0046393024396751935	0.00023808435264571212	-0.012965055687378702
Si	9.519981395982523	9.519981395982523	1.3599926794325223	14	0.016858223363146924	0.011660991068999598	0.09128503750760143
Si	8.15998871655	5.439987037707522	2.7200016788424777	14	0.004273434152618123	-0.007750596987586384	0.0020658831247389814
Si	9.519981395982523	6.799996037117478	4.079994358275	14	-0.0013351749927528974	0.01736987332185639	0.006704928453882161
Si	5.439987037707522	8.15998871655	2.7200016788424777	14	-0.003079927063005384	-0.009545999832645787	0.0031182365322755903
Si	6.799996037117478	9.519981395982523	4.079994358275	14	0.015608409067022945	0.024253493595488843	0.013084354974233573
Si	5.439987037707522	5.439987037707522	5.439987037707522	14	0.008869027801850799	0.004176760592580554	0.004176760592580554
Si	6.799996037117478	6.799996037117478	6.799996037117478	14	-0.0002344848051975048	0.009240038299548168	0.009240038299548168
Si	8.15998871655	8.15998871655	5.439987037707522	14	0.005209316489152023	-0.0873309346357457	0.014764572300950343
Si	9.519981395982523	9.519981395982523	6.799996037117478	14	0.024271234222197867	0.10016717794658499	0.01784038559544349
Si	8.15998871655	5.439987037707522	8.15998871655	14	0.005209316489152023	0.014764572300950343	-0.0873309346357457
Si	9.519981395982523	6.799996037117478	9.519981395982523	14	0.024271234222197867	0.01784038559544349	0.10016717794658499
Si	5.439987037707522	8.15998871655	8.15998871655	14	0.005291334748864746	-0.006192764274108664	-0.006192764274108664
Si	6.799996037117478	9.519981395982523	9.519981395982523	14	-0.010048136701670709	-0.002176183542973334	-0.002176183542973334
Si	5.439987037707522	5.439987037707522	10.879990395392477	14	-0.00606215212384514	-0.007483973365887028	-0.0012845242179459803
Si	6.799996037117478	6.799996037117478	12.239983074825	14	0.00603592684957963	-0.0039137365183294056	-0.025751162444475104
Si	8.15998871655	8.15998871655	10.879990395392477	14	-0.0019640673540611176	0.019416473156694262	-0.00480488162229273
Si	9.519981395982523	9.519981395982523	12.239983074825	14	-0.027987766962471915	-0.06313451957836415	0.004204271419506139
Si	8.15998871655	5.439987037707522	13.599975754257523	14	-0.0078428996685797	-0.0006234930401359092	-0.011001502554381615
Si	9.519981395982523	6.799996037117478	14.959984753667477	14	0.009746546047617339	-0.008498788635749474	0.0028811806217579373
Si	5.439987037707522	8.15998871655	13.599975754257523	14	0.0059670212269996616	-0.0028552124580244415	0.011705728301570174
Si	6.799996037117478	9.519981395982523	14.959984753667477	14	-0.0038080640896713197	-0.008193341323715884	-0.023026047915650154
Si	5.439987037707522	10.879990395392477	0.0	14	-0.007392699127021771	0.017072910657379287	0.09235281754705893
Si	6.799996037117478	12.239983074825	1.3599926794325223	14	0.024708836347687068	-0.0008469220924567772	-0.003649426891418184
Si	8.15998871655	13.599975754257523	0.0	14	-0.005827667318647636	0.004579395685715743	-0.010323502081458567
Si	9.519981395982523	14.959984753667477	1.3599926794325223	14	-0.0032167098660372618	-0.09189438946847651	-0.016032127223783346
Si	8.15998871655	10.879990395392477	2.7200016788424777	14	-0.01618202266394798	0.004096027885527905	-0.0032825301622330526
Si	9.519981395982523	12.239983074825	4.079994358275	14	0.006796202692747417	-0.07379457934623009	-0.008832003885240667
Si	5.439987037707522	13.599975754257523	2.7200016788424777	14	-0.007119647742022046	-0.1392952871507265	-0.008015163725029622
Si	6.799996037117478	14.959984753667477	4.079994358275	14	-0.015156408751740914	0.044298087781895285	-0.025707967875096615
Si	5.439987037707522	10.879990395392477	5.439987037707522	14	-0.00606215212384514	-0.0012845242179459803	-0.007483973365887028
Si	6.799996037117478	12.239983074825	6.799996037117478	14	0.00603592684957963	-0.025751162444475104	-0.0039137365183294056
Si	8.15998871655	13.599975754257523	5.439987037707522	14	-0.0078428996685797	-0.011001502554381615	-0.0006234930401359092
Si	9.519981395982523	14.959984753667477	6.799996037117478	14	0.009746546047617339	0.0028811806217579373	-0.008498788635749474
Si	8.15998871655	10.879990395392477	8.15998871655	14	-0.0019640673540611176	-0.00480488162229273	0.019416473156694262
Si	9.519981395982523	12.239983074825	9.519981395982523	14	-0.027987766962471915	0.004204271419506139	-0.06313451957836415
Si	5.439987037707522	13.599975754257523	8.15998871655	14	0.0059670212269996616	0.011705728301570174	-0.0028552124580244415
Si	6.799996037117478	14.959984753667477	9.519981395982523	14	-0.0038080640896713197	-0.023026047915650154	-0.008193341323715884
Si	5.439987037707522	10.879990395392477	10.879990395392477	14	0.015267994722635339	-0.0010765217975460006	-0.0010765217975460006
Si	6.799996037117478	12.239983074825	12.239983074825	14	-0.012297339635736246	-0.008476420019464187	-0.008476420019464187
Si	8.15998871655	13.599975754257523	10.879990395392477	14	0.02018317676316242	-0.04255282149057877	0.0417634921572933
Si	9.519981395982523	14.959984753667477	12.239983074825	14	-0.00495143462554117	0.09500311291106757	0.01957099658643516
Si	8.15998871655	10.879990395392477	13.599975754257523	14	0.02018317676316242	0.0417634921572933	-0.04255282149057877
Si	9.519981395982523	12.239983074825	14.959984753667477	14	-0.00495143462554117	0.01957099658643516	0.09500311291106757
Si	5.439987037707522	13.599975754257523	13.599975754257523	14	0.015559043844876101	0.026720469150170924	0.026720469150170924
Si	6.799996037117478	14.959984753667477	14.959984753667477	14	0.003116693869083501	0.0013128063764676092	0.0013128063764676092
Si	10.879990395392477	0.0	0.0	14	-0.05139022469699175	0.1456189206856307	0.1456189206856307
Si	12.239983074825	1.3599926794325223	1.3599926794325223	14	-0.00043117436218883284	-0.026077949930665922	-0.026077949930665922
Si	13.599975754257523	2.7200016788424777	0.0	14	-0.08571705182628875	-0.005577755881529243	0.23937659017961854
Si	14.959984753667477	4.079994358275	1.3599926794325223	14	0.07315308856885314	-0.028043817058451142	0.03508298920395256
Si	13.599975754257523	0.0	2.7200016788424777	14	-0.08571705182628875	0.23937659017961854	-0.005577755881529243
Si	14.959984753667477	1.3599926794325223	4.079994358275	14	0.07315308856885314	0.03508298920395256	-0.028043817058451142
Si	10.879990395392477	2.7200016788424777	2.7200016788424777	14	-0.028967358089448333	0.0258900021317631	0.0258900021317631
Si	12.239983074825	4.079994358275	4.079994358275	14	0.04741632431417088	0.004176246371516525	0.004176246371516525
Si	10.879990395392477	0.0	5.439987037707522	14	0.005913028015276552	0.08442404296078627	-0.011492840781061914
Si	12.239983074825	1.3599926794325223	6.799996037117478	14	-0.0008235250340434297	-0.0020242312185525823	0.02130417868274698
Si	13.599975754257523	2.7200016788424777	5.439987037707522	14	-0.048927877131885934	0.003796237005198639	0.0022463747182133766
Si	14.959984753667477	4.079994358275	6.799996037117478	14	0.002270285997690754	-0.01206542593585889	-0.013626858196784818
Si	13.599975754257523	0.0	8.15998871655	14	0.012117619373857897	-0.013263561015047895	-0.01076701774918411
Si	14.959984753667477	1.3599926794325223	9.519981395982523	14	-0.10850193006290902	-0.008885739986431761	-0.0031904845917717518
Si	10.879990395392477	2.7200016788424777	8.15998871655	14	-0.0007484487586951057	-0.0017408954122722642	-0.015893544647027365
Si	12.239983074825	4.079994358275	9.519981395982523	14	-0.07002045384678472	-0.010723051848209578	0.007254373660797805
Si	10.879990395392477	0.0	10.879990395392477	14	0.006134657293873316	-0.15237964212496008	0.01101307252832228
Si	12.239983074825	1.3599926794325223	12.239983074825	14	-0.281038780787298	0.39386299600390795	-0.3286103998628058
Si	13.599975754257523	2.7200016788424777	10.879990395392477	14	0.1117420369873596	-0.007433065480548096	0.004867102371040313
Si	14.959984753667477	4.079994358275	12.239983074825	14	-0.16097073344170287	-0.014385077155696488	0.010275936633035828
Si	13.599975754257523	0.0	13.599975754257523	14	-0.6322219426978118	0.4846253277999233	-0.5461158826365847
Si	14.959984753667477	1.3599926794325223	14.959984753667477	14	0.030739620986626397	0.7267414306981597	0.012675549228330028
Si	10.879990395392477	2.7200016788424777	13.599975754257523	14	0.004543657321765685	-0.012785849646564382	0.11944609696865133
Si	12.239983074825	4.079994358275	14.959984753667477	14	0.005467712573826905	-0.013685993619148224	-0.1630291603610134
Si	10.879990395392477	5.439987037707522	0.0	14	0.005913028015276552	-0.011492840781061914	0.08442404296078627
Si	12.239983074825	6.799996037117478	1.3599926794325223	14	-0.0008235250340434297	0.02130417868274698	-0.0020242312185525823
Si	13.599975754257523	8.15998871655	0.0	14	0.012117619373857897	-0.01076701774918411	-0.013263561015047895
Si	14.959984753667477	9.519981395982523	1.3599926794325223	14	-0.10850193006290902	-0.0031904845917717518	-0.008885739986431761
Si	13.599975754257523	5.439987037707522	2.7200016788424777	14	-0.048927877131885934	0.0022463747182133766	0.003796237005198639
Si	14.959984753667477	6.799996037117478	4.079994358275	14	0.002270285997690754	-0.013626858196784818	-0.01206542593585889
Si	10.879990395392477	8.15998871655	2.7200016788424777	14	-0.0007484487586951057	-0.015893544647027365	-0.0017408954122722642
Si	12.239983074825	9.519981395982523	4.079994358275	14	-0.07002045384678472	0.007254373660797805	-0.010723051848209578
Si	10.879990395392477	5.439987037707522	5.439987037707522	14	-0.0848431331279704	0.004678383240541444	0.004678383240541444
Si	12.239983074825	6.799996037117478	6.799996037117478	14	0.07595405070462247	0.02636951327397071	0.02636951327397071
Si	13.599975754257523	8.15998871655	5.439987037707522	14	0.013663110781798906	0.013047073947091427	-0.001046696975832283
Si	14.959984753667477	9.519981395982523	6.799996037117478	14	-0.010792214581321562	-0.04708002373829551	-0.029291317359786993
Si	13.599975754257523	5.439987037707522	8.15998871655	14	0.013663110781798906	-0.001046696975832283	0.013047073947091427
Si	14.959984753667477	6.799996037117478	9.519981395982523	14	-0.010792214581321562	-0.029291317359786993	-0.04708002373829551
Si	10.879990395392477	8.15998871655	8.15998871655	14	-0.436437671889708	-0.4277853882663457	-0.4277853882663457
Si	12.239983074825	9.519981395982523	9.519981395982523	14	-0.6004235405403485	-0.6156126023296552	-0.6156126023296552
Si	10.879990395392477	5.439987037707522	10.879990395392477	14	0.01434085414418994	0.009171132676968199	0.0008968015356676499
Si	12.239983074825	6.799996037117478	12.239983074825	14	-0.05593362490822541	-0.036581429384534854	0.0009767629111242552
Si	13.599975754257523	8.15998871655	10.879990395392477	14	0.12878846525994136	-0.39347064533205334	0.1733842870379098
Si	14.959984753667477	9.519981395982523	12.239983074825	14	0.10671526897593811	0.03185033848493038	0.02779082029494857
Si	13.599975754257523	5.439987037707522	13.599975754257523	14	0.05461361943686139	0.01580329885029017	0.0172606013457501
Si	14.959984753667477	6.799996037117478	14.959984753667477	14	0.007633611695519646	-0.0015182376915474408	0.009549085159029965
Si	10.879990395392477	8.15998871655	13.599975754257523	14	0.004874044355404714	0.02365442605589434	-0.06198137884227772
Si	12.239983074825	9.519981395982523	14.959984753667477	14	0.018878855034251296	0.005699883384236276	0.15726654200696552
Si	10.879990395392477	10.879990395392477	0.0	14	0.006134657293873316	0.01101307252832228	-0.15237964212496008
Si	12.239983074825	12.239983074825	1.3599926794325223	14	-0.281038780787298	-0.3286103998628058	0.39386299600390795
Si	13.599975754257523	13.599975754257523	0.0	14	-0.6322219426978118	-0.5461158826365847	0.4846253277999233
Si	14.959984753667477	14.959984753667477	1.3599926794325223	14	0.030739620986626397	0.012675549228330028	0.7267414306981597
Si	13.599975754257523	10.879990395392477	2.7200016788424777	14	0.1117420369873596	0.004867102371040313	-0.007433065480548096
Si	14.959984753667477	12.239983074825	4.079994358275	14	-0.16097073344170287	0.010275936633035828	-0.014385077155696488
Si	10.879990395392477	13.599975754257523	2.7200016788424777	14	0.004543657321765685	0.11944609696865133	-0.012785849646564382
Si	12.239983074825	14.959984753667477	4.079994358275	14	0.005467712573826905	-0.1630291603610134	-0.013685993619148224
Si	10.879990395392477	10.879990395392477	5.439987037707522	14	0.01434085414418994	0.0008968015356676499	0.009171132676968199
Si	12.239983074825	12.239983074825	6.799996037117478	14	-0.05593362490822541	0.0009767629111242552	-0.036581429384534854
Si	13.599975754257523	13.599975754257523	5.439987037707522	14	0.05461361943686139	0.0172606013457501	0.01580329885029017
Si	14.959984753667477	14.959984753667477	6.799996037117478	14	0.007633611695519646	0.009549085159029965	-0.0015182376915474408
Si	13.599975754257523	10.879990395392477	8.15998871655	14	0.12878846525994136	0.1733842870379098	-0.39347064533205334
Si	14.959984753667477	12.239983074825	9.519981395982523	14	0.10671526897593811	0.02779082029494857	0.03185033848493038
Si	10.879990395392477	13.599975754257523	8.15998871655	14	0.004874044355404714	-0.06198137884227772	0.02365442605589434
Si	12.239983074825	14.959984753667477	9.519981395982523	14	0.018878855034251296	0.15726654200696552	0.005699883384236276
Si	10.879990395392477	10.879990395392477	10.879990395392477	14	-0.4208099795327839	0.16138468139824672	0.16138468139824672
Si	12.239983074825	12.239983074825	12.239983074825	14	0.0518339974752493	0.024685439289273723	0.024685439289273723
Si	13.599975754257523	13.599975754257523	10.879990395392477	14	-0.1187321010212462	-0.2459107972402429	-0.057583503192164445
Si	14.959984753667477	14.959984753667477	12.239983074825	14	0.0888625420749579	0.17671695375388577	-0.6805785202275609
Si	13.599975754257523	10.879990395392477	13.599975754257523	14	-0.1187321010212462	-0.057583503192164445	-0.2459107972402429
Si	14.959984753667477	12.239983074825	14.959984753667477	14	0.0888625420749579	-0.6805785202275609	0.17671695375388577
Si	10.879990395392477	13.599975754257523	13.599975754257523	14	-0.07505622072682676	-0.12628909377822542	-0.12628909377822542
Si	12.239983074825	14.959984753667477	14.959984753667477	14	-0.6571205266181259	-0.0011950497528048273	-0.0011950497528048273
H	1.9122101238385836	1.9122101238385836	1.9122101238385836	1	22.211870906329715	22.291694984762227	22.291694984762227
H	195.911941833346	195.911941833346	195.911941833346	1	2129.714388919384	2129.383285575803	2129.383285575803
H	165.91198322061817	165.91198322061817	165.91198322061817	1	0.0034892470299729577	-0.004217384056638894	-0.004217384056638894
H	94.71486909439615	91.9998727526324	91.9998727526324	1	0.9544549729245225	0.9671127815261434	0.9671127815261434
H	212.71470663085842	209.99971028909465	209.99971028909465	1	18.80036561659048	17.617873142169255	17.617873142169255
