228
config_type=divacancy dft_energy=-22625.452743967035 dft_virial="46.09564339151433 -8.217396514556537 -177.3784303494246 -8.217396514556539 119.19415459142573 29.60896782005583 -177.37843034942463 29.60896782005583 -197.1815976661947" pbc="T T T" Lattice="16.3199774331 0.0 0.0 0.0 16.3199774331 0.0 0.0 0.0 16.3199774331" Properties=species:S:1:pos:R:3:Z:I:1:dft_force:R:3
Si	1.0168161939692955	1.1325411539474075	0.9950943040058394	14	-358.0903641050322	99.04678512185075	-531.1475399545914
Si	2.437062230084823	2.647638898904112	-0.299797985446047	14	1.4515735585855774	0.0013022648446550018	0.8698933758291082
Si	3.8134238468827446	4.0880564271269515	1.334484554704587	14	15.724154572104306	70.63917825788336	-84.85719784540322
Si	2.512493165780611	0.0487640925701028	2.6628654378491947	14	0.07670172813172152	-2.1356775784281252	0.2494221557759691
Si	4.047452323273399	1.1279715602661395	4.014485968858537	14	-0.0030842979420496355	1.3148948853191655	0.6438595367083981
Si	0.0665365479947487	2.683183809753404	2.524423069284207	14	-1.089426432258356	0.7768350469822007	1.3981768432967419
Si	1.5622135198060645	4.09305034022148	4.022156358252094	14	-0.6853862300657058	-1.0891958041111387	-0.08823005016620147
Si	-0.06658550792704801	0.046838335232997005	5.292291241937967	14	-0.1761237997565276	0.31280632968091965	0.01861891628638433
Si	1.2639332922612958	1.4189077979660134	6.773035434397997	14	0.12623741456129045	-1.8129493533167542	0.3672227453397257
Si	2.6720862250988957	2.49553670922762	5.438648799558009	14	1.7904071874223557	1.6095664378454846	-0.528097576552987
Si	4.226466155737072	3.888169343526343	6.954758383115564	14	-1.0392924496207885	0.0952797638435155	-1.1531553913867383
Si	2.8468079034976648	0.209711710015335	8.251184750446164	14	-1.2216205836253653	0.21848096013224308	-1.578334707300582
Si	4.184817573327802	1.3908537567585144	9.620708296699615	14	0.7512085831457528	-0.22318094065747376	-0.3263108032644654
Si	0.0675157466407347	2.816371145584933	8.081538585029088	14	-0.4816261334439706	0.0036046896588476066	1.2823596043769476
Si	1.3912127962620426	3.7308774010261248	9.818082103775527	14	0.4368865868786059	0.8406689072076452	-0.8553463190382425
Si	0.00815998871655	0.1405802856087234	11.03547082039762	14	0.2555964080917727	-1.3059996322430492	-0.8737158381085725
Si	1.510723991004634	1.0944340066411191	12.541478337924088	14	-0.8513346234072154	0.1136881066041797	0.23638099537111404
Si	2.8162569057429017	2.312818241886633	11.126177254970791	14	-0.16152223553287462	2.77701383237533	0.5342533169104855
Si	4.094633378032491	4.174470707635216	12.306389063000283	14	-0.4542189220627881	-0.4861728760921205	-0.8801274034454256
Si	2.6489444970987606	-0.210038109563997	14.139024608872814	14	-0.47601341053008733	-0.2825210230043634	-1.044216116308872
Si	4.0874036280296275	1.368266907991104	14.881779421808062	14	0.6923207582246772	0.26910062456478645	1.3873386059301898
Si	-0.08112660781994009	2.5891644197613153	13.490550305568588	14	0.6817406598322678	0.27269888646033374	1.2876038878984537
Si	1.3011754807636298	4.229273191855566	14.82485534052141	14	-0.8103278075456417	0.041464472608560086	-1.0902471290765472
Si	-0.2020086806669118	5.453614218864161	-0.13078829914886342	14	2.4531154972327593	0.8683887649957576	0.3416389618515922
Si	1.2837783848199453	6.993502009541745	1.1603340755159768	14	0.3529399981757711	-1.1033268560612046	-0.2339168480322841
Si	2.772437766335028	8.429284664173583	-0.1216327918088943	14	-0.9562655452909707	-0.11334332138074785	1.052441853559622
Si	4.040287853180268	9.759787144384493	1.3402455067384713	14	1.3559250982391524	-1.939259530158605	-0.5967288621952958
Si	2.643705784342735	5.657108017477484	2.7011684248846803	14	-0.5151952558354198	-0.2112116740605884	-1.2925391245604778
Si	4.101912087967653	6.777343908440335	4.010944533755554	14	-0.003554810215636734	1.4719341416158298	0.6138974179705845
Si	-0.0165321371397303	8.033900570901869	2.7384106133870145	14	-2.5533834625078944	0.08679743028181497	-2.082424845037218
Si	1.213031282647457	9.135515367613554	4.114380550726542	14	2.176373290545961	2.549143195613906	0.7179644484667701
Si	0.1983693256993305	5.31357249251073	5.48334921774727	14	-0.409821332505003	1.481362899045877	-0.5606274581740325
Si	1.5036084808438024	6.644026012789341	7.061605275370071	14	-0.6559229057600009	-0.2969320683237934	-0.35012026697116466
Si	2.658083684461296	8.04969830905711	5.61759735211195	14	-0.3161868189558503	-2.405093677615694	-2.140381158500804
Si	3.8474183598758915	9.446035578233147	6.719179508868766	14	2.8748459324701567	1.3288199917330874	2.067159164309371
Si	2.759936663621273	5.302491227833654	8.562847359486073	14	0.4605852359460067	-0.6222815353090554	-1.0621138375529549
Si	4.311395318298925	6.845659333975291	9.3537134658941	14	-0.6333239184380273	-0.7145726463284308	1.663883608838933
Si	0.1730733606780255	8.308777950807574	8.166989986868801	14	-0.451561170493351	-1.3821657991365837	-0.6503433501047475
Si	1.2542392256660344	9.758106186708885	9.461278437155663	14	0.7025308745615173	-0.17443226956640218	1.753411038749681
Si	0.1066347325478754	5.503667589651479	10.70784727342814	14	0.17384322933755625	-1.3445667262663343	1.3250571790970507
Si	1.4267413871339014	6.989503615070635	11.886231243985124	14	0.8686505035173486	0.004756544842273946	0.7154828176117632
Si	2.8906923228152706	8.391193836844728	10.61567204088599	14	-0.020885345626094863	-0.34405374396827526	-0.09106649355538884
Si	4.329151453746137	9.61968013812133	12.032311361988803	14	-1.026051257222026	-1.0309211878089184	1.7576582476280336
Si	2.714714006154153	5.724901203734582	13.44487068873334	14	-0.5120975881457055	-0.9401735113132279	0.2865131782349573
Si	3.9707157893829623	6.932922253310077	15.000637817453331	14	1.1565765041257272	-0.3001598339427073	-0.6458865961428029
Si	0.047703294036951296	8.129290838998338	13.382838454510127	14	0.5661663903652275	0.8517226032000256	1.7601187954194155
Si	1.3980508668065117	9.881142496577025	15.001176376708623	14	-1.0511560437890157	-2.022468468745089	-0.6258456015038446
Si	-0.222441292413153	10.879092796633657	0.0921589125647157	14	0.5621822055611261	-0.02395216005196749	-0.10363842723931689
Si	1.2124927233921645	12.143874727721474	1.4708379661581374	14	0.7387443787747389	0.6596345534001667	-1.44373862934349
Si	2.7835027110346697	13.570828274562006	0.056385522031360505	14	-0.9309373296716599	-1.8985859295465222	-1.3655232915097975
Si	3.95922652527006	14.87265655442296	1.4395199294640186	14	0.4228838330840153	1.8091340901321866	0.13985733077371088
Si	2.576891796731624	10.749593775702008	2.6430693052228444	14	-0.6834584152966588	0.2035173842795133	2.271801150055917
Si	4.163993282123166	12.208175438807888	3.7416322661545376	14	-1.3033740194901138	-1.1543800088507248	1.4587806239084844
Si	0.0552431236110435	13.580587621067	2.804735001675133	14	-3.064407099961374	-0.5412464662707563	-2.335087621958702
Si	1.189710034895557	14.757486473677574	4.12921541021323	14	1.424899112220637	3.6433390282411366	0.5316462161158553
Si	0.024218846510720402	10.725081169597491	5.357048912392508	14	-0.3301198957962647	0.15802553229747324	-0.42591902291445016
Si	1.3604006788683498	12.249464981713633	6.448431083253638	14	0.528394539217464	0.7288394526394004	1.574885055292539
Si	2.8062853995312773	13.592762324232092	5.099748148182254	14	1.0896768579165383	-0.13927548963976136	2.0812673334220873
Si	3.984522490291365	15.115514138604922	6.838217424265798	14	0.14711504687142488	-0.5707869237360657	-1.931260050176028
Si	2.5730566020348453	10.889570222145707	8.051199746980956	14	1.2316226975418056	1.5961635229220847	-0.24286660854118755
Si	4.090683943493681	12.3309995889694	9.532319298921946	14	0.6179026858383111	-0.816030004924666	-1.4604364157346599
Si	0.14464395998956528	13.816574494749627	8.050579587838499	14	-0.883623078238699	-1.0074595946520353	-2.009525781673996
Si	1.355374125818955	15.199382502633622	9.303562175242183	14	-0.12703522854213242	0.3073645852708262	2.2972167832561126
Si	-0.094982268660642	11.041394972205836	10.953724053435224	14	1.7622384146453456	0.2092702324333446	-0.24636202622392886
Si	1.5002465654925836	12.220937661160573	12.282692455767423	14	-0.1989531581151864	1.350187676717242	-1.1793053322663685
Si	2.6712049463175087	13.717887591211671	10.604802935915545	14	-0.7825639838565547	-0.037259944078521935	2.1557972488898796
Si	3.7884053214778026	14.947907970366984	12.390910226126309	14	0.1674388630955994	-0.9135237475593612	-0.04290737691422719
Si	2.8611368436839264	10.858529625067952	13.541387035272693	14	0.9968504427695081	0.39587025792734754	-0.466493635971707
Si	4.357956213915559	12.246021466475247	14.76541798271006	14	-2.015116393082126	0.890792091202868	0.7295742745398988
Si	0.24153566600988002	13.7787447870597	13.60870694218423	14	-1.4226571083814679	-0.40111402722778955	0.11571413759645638
Si	1.01905203087763	15.083673862632942	15.500632966071214	14	0.7311323643639085	-1.3363610436370819	-1.349126067330553
Si	5.383519915788996	0.0758715750864819	0.2245139295471567	14	-1.1658149997620835	-1.0041896629058706	-1.9783408452459197
Si	6.555098455756379	1.5431354661867704	1.4489202364654843	14	0.42010652511719143	-0.2344238700014173	1.289990130746083
Si	7.859717451758393	2.663110237510691	-0.0452552974219863	14	0.8910188626921048	-0.35861417050680583	-0.8391658390374865
Si	9.267021745769473	3.8070264157289695	1.279633110551938	14	0.4022262873892857	1.772039211015218	0.7676163488568097
Si	7.799464095075387	0.0626523933656709	2.8950823967447743	14	1.5862408561600372	-0.48204059562157836	-0.4705703805673338
Si	9.568827088439791	1.1942143486670926	4.074266046195982	14	-1.8650430324293383	0.2505740109593954	0.14079964087354516
Si	5.125925391984946	2.883234093128344	2.786587186769526	14	0.11820965242019212	-2.977312707015082	-1.1723070406954574
Si	6.726295019029598	3.9588674857665316	4.1198803831214965	14	19.300006199460068	-0.3296113311639395	6.674340013888359
Si	5.585202196907246	-0.0842437235096622	5.3977509361106595	14	-0.6606367702539604	-0.5616386738964467	0.2551068696388165
Si	7.002526957062249	1.1223574880291531	6.826777120085195	14	-0.8360722851162843	1.9607848238988848	-1.0498527505022326
Si	8.232514696262696	2.7691574508709746	5.3925448633095	14	0.12304333042207051	-1.8955815929799293	0.7596086413372085
Si	9.596652649963225	4.130374128610979	6.676780207497573	14	-0.6405669792354165	0.7750054484363833	0.9769716848762513
Si	8.188662916899958	-0.1143867218285979	8.24264940224865	14	-0.4622109458399364	-0.8493548723107014	1.8198738541649768
Si	9.388654537578367	1.3675325090066144	9.625016770741954	14	1.3975767473150196	-1.4840329919208506	-0.9614753760011866
Si	5.64018420087936	2.5095555698426533	8.203285616680015	14	0.08069028381486724	0.17764126611647899	-0.5273951505795226
Si	6.872881056333702	3.9893368836341296	9.470923543818625	14	-0.04217358345585693	0.12233190557998555	0.5282477291036836
Si	5.165305497531016	-0.10098802035602279	11.068045495354088	14	1.6439287462281995	-0.24791728783208647	-0.5793258216148094
Si	6.63775914145503	1.3719225829361184	12.190174503699177	14	0.013805035795471082	0.11166747493307533	-0.13146524300874754
Si	8.136096269587942	2.634680836822231	10.879092796633657	14	-1.0841178711038462	1.2247298212890205	1.3713782125448386
Si	9.457231082752253	4.115620869011457	12.213430471541345	14	-0.5944290084864232	-0.3515901678826933	0.006762264102521463
Si	8.017123634100642	0.0577400801583078	13.492378143041094	14	0.04089728677493542	0.09166093310540707	1.6975686880803211
Si	9.39472556918348	1.4409397675006983	14.892550606913908	14	-0.7036493053757816	-0.5604117424376721	0.26850824189902434
Si	5.434846244816096	2.8017484458048756	13.582186978855443	14	0.30907359897712866	0.39373264096417643	0.8743025643426302
Si	6.758086335069277	4.251990600442441	15.069214362627216	14	-1.4070415002195487	-0.4033642586039831	-0.6997558805894815
Si	5.269345353667029	5.529844833454171	0.1352599729655328	14	0.7868086216295871	0.11952528701251189	-0.26317242702812105
Si	6.821522087351737	6.7804773441074895	1.5508548155126267	14	-0.42280875680866703	0.3719031854645232	-0.45915570138800443
Si	8.284967103732681	8.039057683770729	0.0568261614220542	14	-0.18793828581314	0.930331577258233	0.5142318626719605
Si	9.752802194043127	9.5775582763665	1.4797649938140431	14	-0.27271405598172255	-2.0525262326008122	-1.7827445222367186
Si	8.058984376216545	5.2113278338923585	2.8438213476274075	14	1.835539084659575	1.5642959580315092	-1.0160249749155763
Si	9.831121765744573	6.68097444169788	4.258028992092688	14	-2.359379682133993	0.10538317930956938	-1.460807169121825
Si	5.466523321013743	8.336521912443843	2.7776601591136196	14	-0.8559878098156193	-1.087222480777925	-0.9277149633739183
Si	6.722117104806725	9.384068623919665	4.323880101035247	14	2.0342618717380763	0.8677385324602922	-0.3796573819995578
Si	5.529126754447114	5.462280126881137	5.299227232347035	14	-0.7763151694864667	1.3752664951204983	2.711625481873324
Si	7.074775497158583	6.724630381331422	6.7301465337038096	14	-1.5659337521204435	-0.8994847411797565	0.627917141060288
Si	8.380912251061876	8.032856092346151	5.532243870136837	14	0.42086294430237897	1.2020423879440336	-0.858151137831992
Si	9.515167002639757	9.600536804592304	7.01501173979857	14	-3.641853957808219	5.25156154933578	-11.971076140809672
Si	8.216308958671627	5.430276651134827	8.276856074948428	14	0.616353851993454	-0.29535495232041453	-1.2738942401103601
Si	9.620985736315978	6.843570376863855	9.478365453528118	14	0.23852375454492541	0.731886983775372	0.7631349122837917
Si	5.78500768062069	8.086842577694846	8.185039881909807	14	-1.2634511816315146	1.061509884913252	-1.8983326756724879
Si	6.7984293192839	9.557843743627314	9.6730138243727	14	0.19180934198315497	0.1184801326998717	0.37507027299788165
Si	5.585512276478475	5.366400259461675	10.865302415702688	14	-0.40082117833182473	0.972125922679368	0.04688461973396425
Si	7.008369508983299	6.875492252722998	12.168860613171551	14	-1.2057193256623777	-0.13952077308730348	0.09032961477063439
Si	8.347635817075783	8.366664910762779	10.947718301739842	14	0.2434463927908809	-0.19692429890705757	0.1268357107692889
Si	8.09896832092764	5.458950851484785	13.602521670737087	14	1.188347909677329	0.30722420292034613	0.5890782812046631
Si	9.654229530347202	6.698061458070335	15.063469730570766	14	-1.0797120250272405	-1.0214741755310983	-0.04291123357220741
Si	5.573468133132847	8.15230200717901	13.621599724356381	14	-0.4044994016028286	0.06506053457368706	-1.0116687511716496
Si	6.997157684486759	9.50070750263403	14.870192237830562	14	0.05922386838641891	0.19736112970095074	0.697821638057134
Si	5.455507336246401	10.874441603065224	-0.1297764605480112	14	1.102921906973281	-0.6224026343696344	-0.23445755148111125
Si	6.766980722770317	11.979516234992724	1.398801585768434	14	0.8202895551085554	2.217151535144574	-0.656341738816653
Si	8.082778903314004	13.892756149407335	0.16830792726756028	14	-0.46518957135332795	-3.5873771211743897	-1.1001962782233923
Si	9.453575407807238	15.097056244128085	1.3813718498698833	14	0.2843668195136977	1.8713522677744496	1.086041829214913
Si	8.225023826620903	10.64415040150675	2.615782302954701	14	-1.5575637758612335	1.0517044605538035	2.7761381139032877
Si	9.659598802922693	12.18792234681341	3.894991094093378	14	-1.9719897008840899	-0.6456783366118709	0.3822901938473895
Si	5.466294841329679	13.604137348502963	2.6057128768784783	14	1.4908122253184852	-0.2641682161186144	0.020261338364894924
Si	6.871852897755417	14.628460732091483	4.236062302467735	14	-0.3640273756478456	0.6917116633743342	-0.4173592990826132
Si	5.248129383003999	10.835175737361185	5.4052744457073185	14	0.6382262449519537	0.7340521115654687	0.6953839731031016
Si	6.719848627943524	12.202887766119565	6.9572226997079625	14	0.36533144026622477	-1.4066784601483435	-1.3378563984912797
Si	8.320691534333736	13.261385182452997	5.562925427711065	14	-0.6556254288744598	0.5085875151626393	-0.5958667705814501
Si	9.40441963577874	14.81116287945504	6.936186248796697	14	1.5163219609733984	-0.012682234102162416	-0.741195413476436
Si	8.197753144330195	10.839973810726516	8.358961881414356	14	-1.1831023406031629	1.4384015289199268	0.26335060462680726
Si	9.468655066955423	12.282594535902824	9.788738784350814	14	1.1688044239178197	-0.3593664759234812	-0.6209700144852478
Si	5.3809413593545665	13.71062520125394	7.990587350794422	14	0.22661953691263984	-0.12468009606887677	2.2586563741066596
Si	6.745438352558625	14.751382802117595	9.775535922607435	14	-0.6212420374281196	0.9299060593277486	-0.9036699864198936
Si	5.6545947409527875	11.134402523597073	10.989644323765477	14	-0.13996094631811284	0.34343822135463187	-0.40738341044043863
Si	7.028932680549004	12.104282462468774	12.697595242049124	14	0.797571011389195	-0.8887184947621685	-0.0009335683417457676
Si	8.14645945525796	13.435323501934976	11.179674140996493	14	-0.16407045801567338	1.2085688816886977	0.1716585611470264
Si	9.448891574283937	15.149019052275076	12.226600693329857	14	0.6671992594731064	-1.6352600075307882	-0.017535452504473928
Si	9.452612529138685	9.94518208802451	12.467450920287549	14	-1.6916929410921866	-0.9516380699357682	0.5664795509932216
Si	9.35714066115505	12.255927692777139	14.725189238337467	14	-0.04694915447749997	0.7617729977957092	0.08262838300519486
Si	5.588759951987662	13.689686670207273	13.44139453354009	14	-1.1141604654381807	0.48599701248822225	0.518581401542055
Si	6.767747761709671	14.95241228413852	15.010576683710088	14	-0.6425467303319305	1.7465731841507472	-0.22084946235316352
Si	10.790964918494918	0.3140290057677102	0.1065531326607099	14	0.37109765816772083	-1.4328705671552242	-0.6922140573538911
Si	12.294557079361287	1.5876726846017004	1.386675842535641	14	-1.286968310663313	1.0718277305630064	-0.293140716418703
Si	13.71088632089287	2.9125121326433256	-0.1201803138173484	14	-0.1976868887450135	-1.4538240470723027	1.910399901382071
Si	14.940368140792891	4.229273191855566	1.316516259550744	14	1.1199408244189373	-1.8024294187888363	0.16738718387866441
Si	13.324592455051393	0.0706165423530237	2.7112868108932022	14	0.4176313220254848	-1.672238415576754	0.30559875013694854
Si	14.688567208977592	1.388683199759912	3.9850610495466574	14	2.7396021930829195	-0.47206470697940384	-0.7528718311773565
Si	10.567805547074707	2.7770563199485956	2.824204734752821	14	3.0263390574807296	0.157864581104432	-0.3970362541900347
Si	12.338735258272688	4.187249249965333	4.025175554077217	14	-0.8089790056946919	-1.4818637503622416	0.17856763536332831
Si	10.821858635775776	-0.1900298172310164	5.378199603145806	14	0.3827465650417157	0.1356530593542047	1.9470867460847314
Si	12.070891788640651	1.5228986941697265	6.789029012282435	14	-1.1762788841940222	-1.5717835309448447	1.1796424041738398
Si	13.531644008745133	2.5768265168218916	5.466621240878342	14	-0.05623495845174677	2.532769882714139	-0.38960241737789053
Si	15.04907551047477	4.029288188390359	6.628114034792069	14	-1.1058665938964467	0.04917624590581223	1.150563717224029
Si	13.700947454636113	0.3676727715903099	8.179213649966192	14	0.03459807874057263	-1.2884366689116495	-0.8411425048076163
Si	15.104955113205705	1.545534502869436	9.657395605969224	14	-0.4145673358154644	0.36082609241372926	-0.738328631044471
Si	10.578021852947828	2.829378167599114	8.300373162429526	14	1.5921171173692357	-0.4826653742143744	-1.5274507332411273
Si	12.261590724946425	4.185535652334858	9.211501182542067	14	-0.6944172375027259	-0.8925980355797398	1.6557326907529997
Si	10.878619517288097	0.057886959955205694	10.920398659516835	14	0.4689796377057582	-0.05054458815719504	-1.064343500086587
Si	12.074008904330373	1.6206716789714286	12.104233502536474	14	0.9739246679613437	-1.7392774156942952	1.3788213053361351
Si	13.439093416722022	2.8166485852012957	10.746003380666727	14	1.5306324760748107	1.2398461207977671	0.240009082088375
Si	15.048128951783651	4.190725405158584	12.251145939389241	14	-0.69837751102735	-0.6870764747031711	-1.4749613610197723
Si	13.441671973156451	0.12780174327860608	13.797920760543594	14	1.0911218191064616	1.1268732956936525	-1.9809960257100365
Si	15.008797806169879	1.2894250970117977	15.252014429855368	14	0.30961173132063563	-0.5310322361654041	-1.7679850921464084
Si	10.731103241270306	2.725583111124598	13.527710894183755	14	0.8451202618484174	1.4169513114549954	1.1989326360593149
Si	12.307710981172365	4.080663477349757	14.968373222068092	14	-1.9194769316043212	0.12293611533022031	-1.4256753289167896
Si	10.861614100802807	5.2046529631222205	0.15038859204601648	14	-0.24228502451777006	0.007702260207567599	-0.6133130057313149
Si	12.230158448410274	6.664719744174512	1.3022362792967814	14	0.21681694076904326	1.0063241945426578	0.3156895671869337
Si	13.462316744609325	8.146590015077425	-0.1710007235440218	14	-0.5653096980725542	-0.5108811982187436	-0.5406093463724236
Si	14.626796094393308	9.482527047773559	1.2745249576153777	14	1.3885513963097036	-0.35389747779699415	1.4505834259267882
Si	13.72058038748813	5.476396907360768	2.6653623943964586	14	-0.8172299397775792	1.0782953459958389	1.3944546541247635
Si	14.965027626694306	6.834643349207949	4.210684737559265	14	0.39445872110658625	-0.8938082548539337	0.292532392899956
Si	10.940260072052915	8.05012262847037	2.7765993605804686	14	1.102972300637556	0.482657660898414	0.09704482764579715
Si	12.255748173025374	9.515950361556547	4.279799841988443	14	-0.8230375524747295	-1.234685398199166	0.4083668582253953
Si	11.160139128009073	5.4848506556711145	5.576732128619468	14	0.39511589562641614	-0.9560457157860981	0.1789399314136858
Si	12.499797115559954	6.801628034860788	6.889298953631401	14	-1.473969428587259	-0.8716661529473503	1.941621347505693
Si	13.636434583843068	8.191420993086151	5.718487452603374	14	1.1609682091230722	1.1959588956460314	-2.6829561148904806
Si	15.049287670181402	9.56334357602227	6.883603281507249	14	-0.2084209963460997	0.4308380616129575	0.09557389829214044
Si	13.895710065322728	5.4548218971942095	8.306117794485978	14	-0.26574584634305726	0.050145552611508055	-2.183320417121001
Si	15.184971962560194	6.921286109400277	9.47743521481443	14	-0.9065020589300365	0.6156023179083746	0.4079595951426838
Si	11.015886847477901	8.390279918108474	8.147112254355285	14	5.765892142452034	-4.6429950611359905	1.4269827359720848
Si	12.425165858758385	9.608027674234098	9.626175489139705	14	-0.1680137622451845	0.3773529003011091	-0.8338328523824353
Si	10.876595840086393	5.27482886608455	10.795681391973083	14	1.1450507531965675	2.06189636882956	0.1840520601217362
Si	12.328355752625235	6.922444827798027	12.242806430920925	14	-1.5980072625471629	-1.701283678157403	0.5166949815686623
Si	13.713350637485268	8.16261623291673	10.922601856470303	14	0.4431539132069988	0.16971249153020634	-0.44814057197542595
Si	15.057643498627147	9.622585094104423	12.223271417933505	14	-1.3728558267723276	-0.7834672131555226	0.18078289970716793
Si	13.710429361524742	5.413728194017665	13.665973742996979	14	-2.084142600501609	-0.0014639873692923163	-1.532878593682492
Si	14.925631201170802	6.7874786144262895	14.835398045943192	14	0.7700190467784881	2.3842137313107714	0.33486821310151427
Si	10.494039249077096	8.127397721616099	13.526078896440445	14	2.3723784193010657	0.4835140960805553	-0.668790773666278
Si	12.064347477689976	9.525513868332343	14.707220943183625	14	-0.5305938627083188	-0.4840509428714022	1.1880864282662702
Si	10.7455464212986	10.939313513361796	-0.1177159972249503	14	0.6594985419287308	-0.06111928722843208	-0.7346000141091922
Si	12.168289413961393	12.247229144805296	1.2895066968989635	14	1.2356562475680537	-0.49598267133061336	-0.9114311249392926
Si	13.74868338862793	13.620147246364834	-0.06834806548982279	14	-0.746456152071991	0.40428008631901985	0.6975233898399967
Si	14.945753733345814	15.254576666312367	1.3214448927355402	14	0.056304892516454805	-1.4899210802145217	0.33746657213805586
Si	13.39943587155959	10.806207777417432	2.8219362578896203	14	0.877303301361775	1.185358999742657	-1.0869288605503642
Si	15.00053989758873	12.150598558423912	4.050912158489216	14	-1.079531276323234	-0.15150752320036584	0.2171218738600128
Si	10.800414185428682	13.551260621619718	2.493023432702923	14	0.44265409033276204	1.4768765773727506	1.0904286491121495
Si	12.169513412268874	14.683540655928196	4.157416331217627	14	0.0851866327987422	0.6925747834303079	-1.4124271945336626
Si	10.769471508215524	10.95054165783577	5.462231166948838	14	1.3738349036782402	-0.5907811242581972	1.0231047705251364
Si	11.980103754180314	12.166396296579153	7.195543330163523	14	1.552603599477604	-0.018948531988427313	-2.3335524149720417
Si	13.570958834381472	13.439974695503409	5.544239053550165	14	-0.2656044355504491	-0.38359760090268474	0.5125449604714113
Si	14.917699692138315	15.073212757098325	6.636959462560809	14	-0.494153329895328	-0.07991843799775877	1.5524878997381972
Si	13.7693771200131	11.031162346355284	8.213028643207574	14	-0.2605974650499927	-0.1954145458630666	0.7002078809047635
Si	15.217824077133026	12.476426907875751	9.51080956866512	14	-1.6531641565381716	0.3075890427652751	-0.14463213046375786
Si	10.829267905530402	13.657879034190161	8.442650725691292	14	0.44056403881801365	1.2798252658628777	0.5887476370604922
Si	12.557471915808527	15.2032176973304	9.609398552338478	14	-2.09515670147206	-0.7118984396849447	-0.34303070116138834
Si	10.9950299163184	10.842177007679984	11.052247757198849	14	-0.3459273084150672	0.28464938398838197	-1.7219689917895904
Si	12.405288126244871	12.350355082205056	12.233487723806626	14	-415.12125011764755	-181.03809785104562	-895.4475815787492
Si	13.664537584982865	13.67787100654571	10.998799831105446	14	0.5587322964425514	-0.4272891649395571	-2.956440988247184
Si	14.785671074704537	15.074485715338108	12.213446791518779	14	2.133155581219592	1.2950282116209133	2.756942498693594
Si	13.630951071425546	10.843760045490995	13.63666306352713	14	-0.04037740927920148	-0.17062754791364704	-0.633402851371356
Si	15.059014376731527	12.225964214209966	14.852289222586451	14	0.018878083702655257	1.458673151706102	-0.2258345784583986
Si	11.011855813051925	13.753595701835293	13.497910615390914	14	-1.994167026933559	-0.42099484200530257	0.33033278331677307
Si	12.211929033617501	15.032918732816	15.008961005944212	14	-0.6810048094896415	-0.22573661934570097	1.5911092440837378
H	140.3971966778947	139.61615356590363	138.59506806583786	1	-1.1424925034030202	-2.569487580680642	9.078299319836804
H	138.23118316100977	139.933255623422	137.9828094244554	1	-0.21775205177398108	-0.16783352776224214	-0.13477759799269431
H	109.86842673239536	108.0907340225491	109.95665416239645	1	0.6035191513458068	-0.8245974420724635	0.975418994373414
H	-0.9744952284897807	-0.947138050318675	-0.8060273654433759	1	0.6337736047585213	0.5947259711509003	0.49199283009480765
H	117.9492015424806	117.88813218692592	116.10204448068808	1	-17.334001003319155	-70.55570141012252	83.70553549487589
H	97.95459187857989	98.22167973325678	98.10642478862874	1	-1.0657912894923627	-0.0664034228824004	-0.41241737754675656
H	33.05281112731159	34.80638780650496	33.02579830066432	1	-2.7505101074036475	3.990943211546004	-2.619653445024179
H	70.97696415864048	69.20856730794013	69.0430680487888	1	-17.935508007641413	0.64566162442729	-5.655257994747126
H	45.14458759107338	45.03385164819657	45.08809598918871	1	414.90467306100487	180.83462314711443	897.1513052358554
H	45.93924482823911	45.83686960980128	45.95578349336982	1	0.4822077174673881	0.8557168153148758	0.29038012063646
H	135.7889572900651	134.0627736929932	135.99761146554278	1	-0.29446972075868755	-0.03113222876901302	0.6570307950424527
H	163.89445049041734	162.1006842347972	163.9418910328176	1	-0.284720089384686	-0.5845701051363154	0.3480147888244954
H	99.10265333106618	99.00657599191977	99.16034118729671	1	361.23521774802407	-100.3131509084732	533.8162521460082
H	119.03058119917296	120.8402610647881	120.92212696758575	1	0.200074674255835	-0.28543948465326346	-0.13178303162631785
