224
config_type=divacancy dft_energy=-22877.89522116593 dft_virial="89.59316870096148 -51.52335551380519 -31.400911013370976 -51.5233555138052 107.89972421930574 3.1768079774584765 -31.400911013370976 3.1768079774584765 123.22103807039002" pbc="T T T" Lattice="16.3199774331 0.0 0.0 0.0 16.3199774331 0.0 0.0 0.0 16.3199774331" Properties=species:S:1:pos:R:3:Z:I:1:dft_force:R:3
Si	1.3210532132771458	1.2954471686846118	1.394525751680962	14	-0.5240570845423743	-1.6319975319900526	1.9126833000168941
Si	2.638434431631844	2.4139041821072538	0.0788744509341723	14	0.6404664490173987	2.4428678427582455	-1.1392547104733577
Si	3.943347187227654	4.308180282744604	1.205540413005664	14	14.424920546400696	27.322182614250394	-27.801792486902308
Si	2.84504534593489	-0.028559960507925	2.856306130363729	14	-0.9255668048789347	1.423785052285417	-0.5877485055330824
Si	4.117301826687067	1.5392676315351257	4.095204577242649	14	-1.7736299538767937	-0.5059181936192617	-0.6193461043650422
Si	0.0511468092753354	2.746782761810195	2.7752611224309547	14	-1.1660474276830248	-0.550393944778779	-0.3742498332902224
Si	1.3460227787497887	4.181961577277009	4.071915969445616	14	-0.6959683853423713	0.003681565707920034	0.44708153369405695
Si	0.0120931032779271	0.2038201981619859	5.552970241476873	14	1.383991541024421	-0.7180768057692606	0.6508498578528167
Si	1.5268318087311037	1.5213809362684483	6.99079289328785	14	-0.801617159831512	-1.4221112627220005	-0.6983330309053115
Si	2.599462325521601	2.772519366222194	5.462883966046161	14	0.9206894180866138	0.5770233968006168	-0.6340654252123581
Si	4.076224443487954	4.0887418661791415	6.7719093559551125	14	-0.041552661521041166	-0.3329403983324672	1.0154624170715283
Si	3.081032219617516	0.13250189677933888	8.006238209152764	14	-0.5695944450885809	-0.585621430101724	1.747490297418444
Si	4.3296573730465635	1.3319223182475903	9.738718053518362	14	-1.0889692897324335	0.0975716471258955	-0.14306195644474345
Si	0.1413636445255122	2.8205000998755074	8.219262874587018	14	-2.1644623880398433	-2.031600777731723	0.5409538744853234
Si	1.3086010704956905	4.033661942342429	9.550010154459427	14	2.0256730944161214	1.9801125939220336	2.3954443193491777
Si	0.09964978220650861	-0.1105515271318194	11.0135694106824	14	-0.892618347311769	0.8840221137843859	-2.173457657112913
Si	1.2393390862696139	1.1372249874707072	12.538703941760462	14	1.9621909613984734	0.5637675491015294	-0.8719991110863096
Si	2.6554235281397007	2.6355947555584844	11.035634020171953	14	0.49939221409566176	-0.1367082409775935	0.06697240848974917
Si	4.18581309195122	4.210260418146004	12.274010227773013	14	0.5643439909143065	-1.551896031293499	-1.2137548011194363
Si	2.7478598803207794	-0.22281665189411431	13.791866048915912	14	-0.702215914159799	0.9296512627905219	-0.5157462437055276
Si	4.02708499143689	1.3685117076526006	14.952983483348678	14	-0.4003013008360908	0.525631372329901	-1.1800062155766409
Si	-0.120278233681947	2.4757568965787033	13.776476310196498	14	0.9121461493288257	0.2754075459151097	1.0840196548806165
Si	1.3174628182418635	3.9075411567394323	15.13003891852038	14	0.802643030854251	-0.014395618687509094	-1.1222746167180357
Si	0.0645618307253436	5.320165763393701	0.14583531834218158	14	-0.38650037880913185	0.08211853282020949	-0.7890886778274945
Si	1.0790605878991388	7.0594020784166025	1.1564009609545998	14	1.1733416534762848	-0.3343028270416137	1.6685601923057503
Si	2.5904373780010967	8.431406261239886	0.0439333792499052	14	0.7768206487924078	-0.35575098762228896	0.18867824992427865
Si	4.00745205858487	9.651879453596838	1.5541351309766798	14	-0.4261856465361495	-0.15207548036558655	-1.4814086647205755
Si	2.4361483113485694	5.592823626368504	2.571457244246402	14	0.40210981631828285	1.0906479643959581	0.09105312380772407
Si	3.8953338136194735	6.696054100846064	4.117465026461398	14	0.24697832016916835	0.9245581602618406	-0.44039203187209575
Si	-0.06332151244042801	8.124607005475038	2.9202967618789137	14	0.31470226274399676	-0.4353050999961828	-0.4041098791468261
Si	1.4182713188461222	9.562282777489118	4.007582618404335	14	-0.32041114499685364	-0.7530777767135004	1.7122782387274202
Si	-0.2193568166782971	5.282287095771477	5.5972953001851735	14	2.279873649429586	1.5188321310974588	-1.1228065784087744
Si	1.2034677758716603	6.899939578917782	6.785454937224586	14	0.7751118921966375	-0.7756446252189722	0.32980030740497035
Si	2.78418815008686	8.253241067602733	5.548531207615071	14	-0.2829717377669853	0.16432859698981625	0.017043342946197585
Si	4.163063043409479	9.744723805213741	7.0603159971528555	14	0.18686279245772205	-1.133737375566852	-1.0524526522019666
Si	2.7757507217539477	5.425772337363292	8.082207704103846	14	-1.7604826068222166	0.9231178270614935	0.7668568443452379
Si	3.8671328926150768	6.854374201924567	9.617427981235563	14	1.5250063834132626	-0.02989012778884948	-0.48893090076904333
Si	-0.1153985604294501	8.167593826033825	8.282845506666376	14	0.5721182420708383	-1.5887106599305714	1.1784116160570848
Si	1.21304760262489	9.505962535367491	9.714760326646571	14	0.9743059628803217	0.4640875956131124	-1.2110844511339305
Si	0.0069033504542013	5.257758169689527	11.314607714413363	14	0.5979434523485336	0.9734999213624552	-2.2296589340849655
Si	1.3735219407245622	6.780656863859255	12.59850033907534	14	0.5910708878277778	-1.406147012678669	-0.6578399218867033
Si	2.545410560263174	8.124411165745842	11.081542116691262	14	0.8200339872397326	0.6638395961512689	-0.09117036621032282
Si	4.2253237573167555	9.54517944113923	12.195706976049001	14	-0.6093655877332915	-0.47792656999880945	0.15866779440644624
Si	2.904319503971909	5.288048047805361	13.75016850657434	14	-1.5476969020846332	1.481226373353377	1.3166995441433773
Si	4.09252810094362	7.01922229397631	15.093857528551197	14	-1.514683138442336	-1.3229313892183523	0.3449050369397763
Si	0.0069523103865006	8.075842912904937	13.8439267769275	14	-0.5645836179301443	1.5751167118818845	-0.17734995988370622
Si	1.2092287279055445	9.773789685022093	15.09529368656531	14	0.032008718572651494	0.2004323150058676	-1.0139866026177629
Si	-0.4471184217346407	11.059412227291979	0.1112696061388758	14	2.412214868020908	-1.431170552317542	-0.2619655501908435
Si	1.2091634479958122	12.338931098001886	1.0654986866522327	14	0.3915826826954686	1.0964967147782312	2.0728058258134805
Si	2.890937122476767	13.668878698980071	0.0018115174950741	14	-0.3879363411304346	-1.0100232437667547	1.4538155624247464
Si	4.13406244351086	15.079887627868464	1.4481368775486954	14	0.8681247124793784	-0.4154695366723043	-0.5194949152623036
Si	2.536826252133363	11.056588871196052	2.7130983283882766	14	-0.0760450678329557	0.37289357523384425	-1.0078730283875148
Si	4.070267651724873	12.179876597938893	4.01660756592484	14	-0.07907382990009013	2.1558970077763018	0.4616044220949134
Si	-0.1345582139359095	13.961544854287853	2.6946404339114403	14	-0.2347925665043265	-0.6985382051098593	-0.5659396188759905
Si	1.2882826985914808	15.173613258266755	4.073352127459729	14	-0.0017149272485387685	-0.6815560544702812	1.058923610071715
Si	-0.0813877274588697	10.645896639092092	5.55536927815954	14	0.6154920174901404	0.9453841133550399	-0.9917190307715567
Si	1.3674835490743154	12.083066491805743	6.7219702250098265	14	-0.8543692990165862	1.3407206098179247	-0.5452049400216563
Si	2.5646681336342323	13.606830144779424	5.36653081928114	14	1.1492336844419164	0.11412030940849659	-0.3121818081986557
Si	4.243292052470599	14.964162667890353	6.596028959158594	14	-0.9644162062663721	-0.877444197933319	0.6336663896666711
Si	2.6706174271299172	11.057959749300432	8.206239532595406	14	-0.11037138074118867	-1.6172028777568563	2.30369391177863
Si	3.8948278943190475	12.332386787051211	9.765384896644047	14	1.0953957674801438	0.2695230571688868	-1.7704227571004407
Si	0.15162891033093212	13.713317997530401	7.96109715157281	14	-1.4263533293897126	-0.422113272819567	0.3874205774032129
Si	1.4400421687418778	15.04138880110378	9.395998527423263	14	1.1724674776674344	0.42481010518987034	0.4446477253980048
Si	-0.020824291204635602	10.922977215951263	11.02466699533691	14	-1.0572019979493439	0.6708252893061111	-0.8742267167356859
Si	1.3285930428512378	12.14000689306983	12.451685822087173	14	0.978599708764969	0.9009063053112664	-1.1664459490076478
Si	2.7098506528790893	13.712322478906982	11.075928044454276	14	-1.7359871722161015	0.20197112153997623	-0.07964384394956697
Si	4.141390113378322	14.848029708476412	12.49277952526372	14	1.297471790117182	-0.20396604215787914	-0.768767175598108
Si	2.901332948101652	10.91037819337291	13.567466359210787	14	-0.9651312306559053	-0.43388584985946094	1.4724877005912578
Si	4.1205658221736865	12.252076178102927	15.089859134080088	14	0.31950945836107764	-1.7131966375477767	-0.1866421916212534
Si	-0.076051094838246	13.518016827588495	13.632583069168858	14	-49.93726351286488	-54.00920348397992	-38.197799738389044
Si	1.4019023814807232	14.677110584819555	15.045158715890826	14	0.7023604102787915	2.7063829981255423	0.9562056385370112
Si	5.326040955269618	0.2011763618178237	-0.059339437946751596	14	1.6261945472824781	-2.0077198372971234	1.3872398754858961
Si	6.714414075458301	1.5781744577356362	1.2753246365095996	14	-1.0049627942756392	-0.18976916991161746	0.010361554440196758
Si	8.135541390355217	2.697349550165335	-0.1490829938513685	14	1.1112965112220676	0.7519518896938077	0.4224966246228011
Si	9.657607765675856	3.9446038254900024	1.377242895579309	14	-1.1407775761544814	-0.2620308562659753	-1.0303511737594415
Si	8.041391440543661	0.0275154819522066	2.3808235878503607	14	-0.3560086123753678	0.6819638317740567	2.0348056605132876
Si	9.438348868862157	1.2686334457620285	3.906007078860721	14	-1.4305861400782727	0.38114296665353936	0.42475765464133924
Si	5.257905049486426	2.925339634905742	2.6720699051214627	14	1.853923516140762	-0.26464489904496985	-1.1244739402088906
Si	6.811632181027278	4.127599732447353	3.9506095771853835	14	-0.49640818926109787	0.6818751286405116	-0.38940598493143125
Si	5.4210395439076935	0.1615024966779576	5.3083990596644375	14	2.095491459384743	-0.3899132640110965	1.0489790889144464
Si	6.807340026962373	1.4605074204429853	6.885985998212481	14	-0.33359603018910494	-0.18096724795862254	-0.06449180607687031
Si	8.047217672487278	2.844555746611897	5.305918423094606	14	1.080343488493869	-2.0497478961918603	0.8991705521096344
Si	9.570328526363635	4.0723566088363095	6.620998524631236	14	-1.7722744671520116	2.29425589836943	-0.3043450791828443
Si	8.235778691749315	-0.0526808871540468	8.200070581125694	14	-0.6947368258940203	0.2303052163890721	-0.4711334526324462
Si	9.35681426160639	1.435162495489381	9.659713042764723	14	-0.6146574367032203	1.0357286405365311	-1.058122453653957
Si	5.468661238057479	2.8992766309450815	8.374335300156336	14	0.2537380131663697	-0.7871865741116489	-1.0969237753719077
Si	7.091601393892109	4.169737914179617	9.44637829775924	14	-2.1018431179676362	2.8917756325612034	-1.4289537453105106
Si	5.654366261268724	-0.1536525875326365	11.08878818667156	14	-1.9086795748123595	-0.015627435246392037	-0.2852697917021337
Si	6.765544564756203	1.3744848193931152	12.281501097414806	14	1.1558434819989531	0.37022168258514637	1.3053897660611098
Si	7.944875094004309	2.946066006245779	10.992043360448143	14	1.4967897880772976	-2.4541809632774285	0.7438274539926717
Si	9.63493931702128	4.035555059724668	12.069504590558838	14	-0.1847136055206103	1.4942011992409723	0.2709523346163571
Si	8.212375844110252	0.0658347889651254	13.759258734004579	14	-0.9607788635699586	-1.1827441856320664	-1.917105344057017
Si	9.655290328880355	1.2778868729665962	14.97057641902156	14	0.19780541670027232	0.4352482785686075	0.9023507522801255
Si	5.5268745975613465	2.7405322104533174	13.696932740187568	14	-2.0536436349729486	-0.6037790900936738	-1.5768689201575654
Si	6.859825074387222	4.137146919245716	14.74904904534466	14	0.46026590466524436	0.49515117587007745	2.0508586136901643
Si	5.462965565933327	5.487282332308646	-0.0663407082655515	14	1.0205827733166029	0.5130224147293627	-0.38404420189679445
Si	6.806279228429221	6.747478349737762	1.4425880852214414	14	0.7614788633470843	0.5612393812402278	0.2806232901675621
Si	8.310736348099546	8.300748521910487	0.0951128284801068	14	-1.2168864073993766	-1.880916779565401	-0.7458897375699625
Si	9.78287991245233	9.463400034221964	1.3856640039347885	14	-1.0011619292808644	1.2064886003741657	0.20122987187617752
Si	8.382136249369356	5.260663125672619	2.8127644305722184	14	-0.1836890200505313	1.7215031075055796	-1.290766347442236
Si	9.650916574928283	6.815891695137317	4.054518873501931	14	-0.6370769608738475	0.3520316266661628	0.4183849129948202
Si	5.241340272391828	8.157491760002735	2.7368438955534367	14	0.956530369138946	-0.7228546907856918	0.8789668065039109
Si	6.584262255429328	9.698048669755076	4.082817714370926	14	-0.6878804593367814	-0.5182754400089572	0.1666348784619891
Si	5.368962495918671	5.358403470519455	5.341087974462936	14	0.5922438260748294	2.02828636586352	0.5799850530188954
Si	6.746662350866107	6.827364639272786	6.670856055689358	14	-1.1877650401012516	-0.30439881528403534	-0.37586423032074334
Si	7.892504286421491	8.142950660109843	5.192249780273064	14	1.8834189792629688	0.4094194687434639	0.31554095729942916
Si	9.313419441611774	9.537574331655405	6.656641355345127	14	-0.4152587060360522	-0.48830946461316355	0.2941421619409007
Si	8.235468612178087	5.805260772615166	8.038763924176934	14	1.075692616080253	-1.9330580241264075	0.6608668841801137
Si	9.462518755440577	7.220431295749	9.60835407378276	14	0.16911573798539997	-1.437710415809871	-0.613105517531979
Si	5.568408940128586	8.198128503811155	8.266084889842583	14	-21.33419479469652	-4.088945518813025	-3.7105276666883102
Si	6.823888484079536	9.526525706933196	9.607081115542977	14	-0.1853175581603131	3.2046356983433144	1.5249755301494208
Si	5.530350752754597	5.63176309252388	10.800332585541517	14	0.3498603282232977	-0.7995474200487928	0.7224191455444586
Si	6.921596188971506	6.843717256660753	12.432232408986918	14	-1.9549314455270352	0.5695113983867401	-0.7808657687925968
Si	8.072187237959922	8.321360653408492	11.06068518553176	14	0.9788249375910139	0.15924783576667162	1.063333312806301
Si	8.311780826655264	5.45245550046641	13.536327842268433	14	-0.017272171319690763	-1.420557286666503	-1.131273742449086
Si	9.396259647062191	6.569313156100609	15.08145434570204	14	1.4977935475942832	2.6922398619804717	0.5483064643693509
Si	5.4457316697639735	8.261352096386984	13.809736424205157	14	0.22489226835856435	-0.9137649172383909	-2.492589677212993
Si	6.858503156215141	9.49728030737308	14.928372957379564	14	1.4575830030503594	1.2133380249470405	1.091616242659526
Si	5.494316242582313	10.74970801554404	-0.0008649588039543	14	-0.02996828939058198	1.0958809350540557	0.9105602915673584
Si	6.990417533806889	12.250623700111381	1.265287850388243	14	-1.1580446052635318	0.016343230967521265	0.47115273592234735
Si	8.160739435511923	13.62670787729294	-0.2748447399508371	14	0.8529065971999539	-0.18120764630605637	2.5068472275448106
Si	9.492971833330742	15.172927819214566	1.1806034874878872	14	-0.42726268255475963	-2.5877997641023325	-0.31845813339566914
Si	8.130367957508923	10.698871285839934	2.68626828548826	14	0.49996968435056705	0.6121146135415938	-0.8429289087840552
Si	9.47526465781583	12.13553521925316	3.9445711855351364	14	0.3004948489659226	1.0738815294927408	-0.39157676915323225
Si	5.586197715530665	13.712746798320243	2.803462043435351	14	-0.17162102300935225	-1.1865833600961115	-0.7617084630521735
Si	6.99405688877447	15.071792919061645	4.153352656836785	14	-0.9634008767754455	0.25986675691800665	-0.9569420031007017
Si	5.3894114276423455	11.19197940398105	5.662199850436612	14	-0.8804133103570261	-2.2264748772564946	-1.810204955498028
Si	6.80938002414151	12.256808971558526	6.939058564824923	14	-0.4708532021525501	2.9591280504172706	-1.0966448104446718
Si	8.178169171410472	13.468616255898501	5.380631279783337	14	-0.3011877618497025	0.08393553294995813	0.23431896890435525
Si	9.481678408947037	14.907434426332896	6.624703159508551	14	0.6945015697572269	1.4281176218603984	-0.3274176641047891
Si	7.998127180368514	10.940945511105108	8.114668139218281	14	2.5394143901929978	-2.4354607454414308	1.5888119614801854
Si	9.494734390893518	12.26356544221583	9.44479525994823	14	-0.920782492099203	0.04714661536608734	0.16801633335050464
Si	5.457808453064467	13.603060229992378	8.26154793611618	14	-1.0892132876273155	0.507036624433526	0.12515883587948834
Si	6.85107756648308	14.886626455105693	9.64385002469975	14	0.5125891834829178	-0.39277490423242134	-0.7969066377744687
Si	5.463226685572257	11.144569869537895	10.96955443154533	14	0.7987238950147493	-1.5530016065811627	0.1692183250876739
Si	7.257037005131443	11.815941101180764	12.489907209235493	14	-1.0229541037533754	0.3166066804546305	1.1055320930942956
Si	8.117099815855813	13.421614720891172	11.017975804589339	14	-0.9552391600471677	-1.2784391829847859	-1.802114201276586
Si	9.277466531326656	14.847197389627324	12.113911249154302	14	2.3614183115423386	2.933200510147833	1.2529690423518027
Si	9.758383626325246	9.532923138086971	12.322105201268359	14	-1.3660313419210586	0.6025714419248002	-1.017770498317425
Si	9.189893532420642	12.15859534736613	14.676196666083301	14	0.30352129703826886	-0.7786754441703627	-0.7038249118691478
Si	5.554993918678578	13.414907210166168	13.826154321502854	14	0.7721216967093052	-0.009477094210065819	-2.0596098848683524
Si	6.759881532586918	14.953815802197767	15.000050298265737	14	-0.9669096642058518	2.1006611808519646	-0.3047022057118129
Si	11.052867916341306	-0.2497609346361624	-0.07978836967042591	14	0.896643926911525	2.5578307033801546	-0.6243736437080598
Si	12.34637300771138	1.2511710699086114	1.4011516625188005	14	0.2663708820463852	-0.8442185752126414	-0.492051451296107
Si	13.685786195600762	2.6161576624356626	-0.011815663661564401	14	-1.2173036977928366	-0.2388397433887716	0.0991636755401312
Si	14.913472817983143	4.042148330607641	1.3119140259146098	14	0.7796164687175369	-0.658026841243478	1.0856461361061422
Si	14.202998920410568	-0.6213668207878493	2.053591720339272	14	-0.08363317096430874	-0.24560380726501718	0.3480528411832336
Si	15.012143401543666	1.3185399367524484	4.18744508969453	14	-0.9040237705119459	1.1659934344713014	-1.517692360109037
Si	10.859508823713938	2.571832603727363	2.7545837110232165	14	1.755983172511957	0.4812358396563721	0.0719472401737037
Si	12.269897593459872	4.056624150590801	4.124237817096135	14	-0.10942238576752203	0.0636166018258919	-0.6020867885719523
Si	10.981533294981226	0.0337497133316508	5.063370918483873	14	-0.550410399852828	0.05912153839467702	2.6009165150036
Si	12.071185548234446	1.417553239839066	6.819498410150032	14	0.6201315770403476	-0.5428364378007359	-0.7475524713805022
Si	13.639894419058885	2.806709718944538	5.546523850390799	14	-0.7647377393403719	-1.5252812345719862	-0.49134748265945044
Si	14.968340582113225	3.9911484011292035	6.984379142156642	14	-0.5986379078955057	-0.2194710927910321	0.10195358192302387
Si	13.619935086658202	0.10425201584264279	8.181025167461266	14	0.11518526123210192	-0.17720649220684193	-0.2801286095039656
Si	14.892142607478082	1.522621254553364	9.731961582861059	14	1.3608693337697972	-1.367721586558524	-1.1217413694746372
Si	10.565488110279206	2.748528999395537	8.039873682642384	14	1.416789588930358	-1.2143896070229812	1.8669855024987105
Si	12.163426060686328	4.066824136486488	9.286475158869727	14	-0.3548336172440601	0.28583054977245803	1.0165029433945918
Si	10.84594692246703	0.057674800248575395	10.600739261534704	14	-0.12509635802020874	-2.1367242754039575	1.3298227228079451
Si	12.085971447788834	1.1167923757244662	12.195527456297237	14	1.6325734595817656	1.5872929524570416	-0.10980856578660828
Si	13.500995091125771	2.875351544028157	10.938187434918913	14	-1.281183580803512	-0.9662581461177262	0.09798225264552314
Si	14.988920073656365	3.821143196208601	12.463909485184566	14	-0.9468609562509329	0.5090086622140796	-0.7678606038622238
Si	13.735268367177921	0.043574339746377	13.581370979983788	14	-1.8789149169631332	-1.5603583102337026	-2.0377151232935673
Si	14.879217185351067	1.0901418525762137	15.054510062959993	14	1.3177110169763235	2.186237850327773	1.3751986179400466
Si	10.806860576514758	2.62893620476578	13.45440155555427	14	0.472049023236951	-0.577043194311582	0.596558140802038
Si	12.141932650406934	3.828519826008362	14.95721035750385	14	0.3463289150660743	0.24931031269454262	0.1923515880951742
Si	10.889407022371376	5.303127706953545	-0.0169401365755578	14	0.8962927139247928	0.476112140974381	0.7889089575656161
Si	12.341215894842518	6.736217565308923	1.4692712483245598	14	-1.6788191596436732	0.30404348852879093	-0.9843767253088097
Si	13.499689492931124	8.030293855889155	-0.0270748425615129	14	0.829969766638913	1.481643920857369	1.0235590848352063
Si	15.003036854135996	9.532743618335207	1.5795616558174497	14	-1.6532891122567308	-1.0579033954806805	-1.0552685267485924
Si	13.646912009355118	5.392365343557737	2.681698691806992	14	-0.3987393543541008	-0.9563082256392853	0.7081394837068883
Si	14.876540709052037	6.624197240208124	4.173736308650727	14	0.4211267397082262	0.9277733274646859	-0.2559903014268194
Si	11.082749795021313	8.262200735213506	2.818117383170275	14	0.8109037351373549	-0.3417726593282399	0.7335165503272818
Si	12.352966278594351	9.882382814861941	4.295124300798125	14	-0.21572833477649256	-1.1624501942296057	-1.7316291486984505
Si	11.008722377384771	5.495899280393322	5.501790792246672	14	-0.07842102625930454	0.14617736476116686	-0.583310777750507
Si	12.291342043806965	6.926394262336838	6.824737122906058	14	0.6192597152262853	0.24609823081808171	-0.30395401406364975
Si	13.748960828244293	8.3161382606299	5.324213117797111	14	-1.938935313777734	-1.453461521222162	0.25353463873554594
Si	14.877421987833424	9.352260987902554	6.919082912446808	14	0.20552387487135684	1.2577129887780083	0.4773958938607309
Si	13.649931205180241	5.460631809160394	8.16641878765864	14	-1.4705287754478369	-0.3696560394147138	-1.0544259755351801
Si	14.8978709195571	6.500801890836456	9.636506034854857	14	1.9030362557451663	1.6694845046683435	1.6455441717008485
Si	10.800887464774242	8.32860672338879	8.090400332775262	14	0.3782594720369933	0.7531952762266311	0.40800896036483064
Si	12.201043608669623	9.55350262963011	9.660349521884616	14	0.29528398981357845	-1.274637289547883	-0.6661672177975989
Si	10.896555172487075	5.605602168698621	10.700601203447842	14	-1.2992828767046942	-1.446171923418478	-1.121045628375005
Si	12.02477153241471	6.703153291029462	12.241207073132482	14	3.4823688090204983	-0.17515963526147205	0.5690097757387793
Si	13.636907863188627	8.050661187725662	10.913136269559104	14	-1.556878576293414	-0.7268900405856642	-0.31742197795164945
Si	14.96288970965057	9.380070229448556	12.186159789250636	14	0.8147043430215978	0.0032287940610419576	1.3717911320592544
Si	13.554394057286872	5.1239343547381075	13.670429096836216	14	-0.1130247614315815	2.404613652252422	0.3839896944640073
Si	15.033555211935893	6.692888025224043	15.183454204658915	14	-1.4136746948349985	-0.8226883963722534	-1.6064500010869331
Si	10.983491692273198	8.106834550050394	13.627083236773903	14	-2.055182441507057	-1.0266043019763897	1.0614306948693917
Si	12.005726118750284	9.484860804546491	15.062751651563708	14	1.6825950849168425	0.4708215775571123	0.32090582566045006
Si	10.66789596867191	11.059428547269412	-0.1277691033237399	14	0.4954275696919934	-0.15500602620949133	0.3965744836745361
Si	12.23619684006052	12.420122985731558	1.1725414186359355	14	-0.9140647081187203	-0.5970867600558604	1.0985044909227348
Si	13.605459266675044	13.882229763962988	0.11428880196399929	14	0.3861563649172961	0.6909747845895796	0.3361295973715789
Si	16.197544962396883	16.069318899705017	0.1295479808639478	14	4.512638221630758	3.3606213156797815	5.929562793590424
Si	13.693146505423089	11.06210502356844	2.672428944624991	14	-1.5240496751236354	0.22105129412079513	0.18149046789127268
Si	15.121030290977309	12.247065945030966	4.064849419217083	14	0.07168061655200435	0.5517486601719652	0.2599006955082326
Si	10.760642400424217	13.784163019567488	2.592150975631572	14	0.6433566285077772	-0.9007204143966197	0.49582403413236026
Si	12.42856041406447	15.081943945025033	3.867687771847802	14	0.4881917079895007	-1.3237400018415388	-1.2340853022174432
Si	10.702070001416823	10.958065167432428	5.5020192719307355	14	0.8187522912376387	0.3384330506278995	-0.06997006018250983
Si	12.21628646759214	12.291064604190602	6.744557073777237	14	-0.008544811420980125	-0.9111398187065196	1.04427962261028
Si	13.578857703459091	13.54605454881856	5.311695695105923	14	0.05355535248708844	0.4587648933793419	-0.2295184581611068
Si	14.89640212158812	15.018344992968244	6.590969766154333	14	0.3331360594473305	0.05394616049575095	1.5338314453141388
Si	13.593464083261715	10.754718248616003	8.290940215473196	14	-0.20498831363317002	1.8334017248069359	-0.980095063619167
Si	14.950551806711147	12.399315014504355	9.439295427553276	14	0.3949174062957007	-0.4862623505572615	0.8487691745187717
Si	10.707145514398515	13.594133202336472	8.015246836695836	14	2.012996773856196	0.29950034542808923	0.7276672857239449
Si	12.316556408941105	14.893937804995721	9.452188209725424	14	-0.8014492666541063	0.005470026568615038	-0.10728091214637069
Si	10.877558718754946	11.013651010569568	10.8037761007799	14	-0.6268899844848889	-1.4007042398264475	0.17278881904576351
Si	12.04329470680128	12.158350547704634	12.348951564145809	14	0.9928143216379396	1.0827577563894877	-0.057557535028430945
Si	13.459118029032437	13.524055219238742	11.102627527534828	14	-0.0019771799911938726	-0.5897292850717245	-2.549472039984353
Si	15.13261747495481	14.749799764306584	12.253642895936505	14	38.670577412873726	20.75009982982337	-13.653969473943652
Si	13.649702725496178	10.609307249687081	13.708324084435874	14	5.935946333879287	-21.594476270902668	7.8892736667970835
Si	14.726658036306446	12.366397620021793	15.053171824810478	14	-0.5822285995212566	0.8110027226921805	-0.869749908152244
Si	10.669838045986449	13.52736817465766	13.506266443836662	14	0.039174131989372175	0.9444708567453235	0.7308012059986734
Si	12.362040186047155	14.839527000233767	14.747433367578783	14	-0.5439808367787338	-0.6785800000622098	-0.5415069192396873
H	139.91795890857395	139.94631813335945	139.87015932667015	1	0.18185222240981752	-0.2518636773879817	-0.0039762143776090044
H	143.92735794046658	142.1255132960171	143.93342570807621	1	-6.2074041478015864	21.227551516669543	-7.625829731047155
H	137.1956708008931	138.93220615965083	138.9899560317956	1	18.78889360176251	2.5084081455846716	2.3666517964215
H	146.08794180085954	146.05448747911942	146.1215560583785	1	-4.9766391709945825	-4.591542101469187	-5.045310822990417
H	135.87879876583432	133.95836337336945	135.79928783578026	1	11.326203845715668	9.927585286524925	18.55375470737156
H	54.03512214544092	52.11779244468158	53.80404268897244	1	-11.170010483069332	-11.830441564897681	-17.80711394993758
H	193.86405394511957	193.9020419565906	192.03268482949585	1	-40.32375031116999	-18.35988770980069	13.03246029867277
H	192.88862684591837	192.95920422032555	192.88612172938238	1	-0.23086340335407624	-0.18783569871086614	0.7891665823186949
H	117.84799973042018	117.93815454975612	116.05296051656029	1	-15.64446727647483	-28.57494416840286	28.264497856295304
H	16.714976374904293	13.999980033140545	13.999980033140545	1	50.229575304928375	51.75822623013294	39.35398492028505
