68
config_type=vacancy dft_energy=-6752.401560706336 dft_virial="-5.001076839602153 15.640378386627654 -18.625600054110226 15.640378386627656 19.145284907193435 8.73616340925045 -18.625600054110226 8.73616340925045 32.941849910964216" pbc="T T T" Lattice="10.8931614627 -0.0011655682765089 -0.0002505427136421 -0.0011655682765089 10.89074318085528 0.0016121878964796 -0.0002505427136421 0.0016121878964796 10.892703949918566" Properties=species:S:1:pos:R:3:Z:I:1:dft_force:R:3
Si	6.894879924307133	9.481987253323895	9.527721102408895	14	0.1669665510482882	0.3329121161739456	-0.144061859303749
Si	1.2736632963355647	1.252728818636548	1.2133642010587888	14	-1.6145093878234693	-0.05683479732293732	-1.153221211682934
Si	2.702326476440034	2.6899017364756785	0.02906077615019106	14	0.4327995578616985	-0.34252393630278716	-0.5612136701870263
Si	4.036389085137832	4.0480621969612605	1.3499393915296827	14	0.3736425382136034	0.42558323655963887	0.5668042815951563
Si	2.770376056097521	-0.02092467385370043	2.7167261465775767	14	41.17475917553313	-52.64385451341083	38.072692324615964
Si	4.11347998880936	1.442057411439005	4.02895994902027	14	0.5313209712928566	-0.4317993978921608	0.29392284665709206
Si	0.04566957943236975	2.7508086701620726	2.631767112381541	14	0.1315567743581448	-0.47985104233094034	0.4562246413230356
Si	1.3684610339647114	4.042133049177113	4.0953189100187455	14	0.10185202326287802	0.47442292477904363	-0.1404224597230794
Si	0.1327614946428025	-0.0109258409470881	5.525765300654658	14	-0.5372437695083498	0.3880034469792905	-0.30631660274233385
Si	1.4677620045425381	1.3267326003495465	6.8805390772414885	14	0.04074533445051467	0.9964071842123146	-0.738485211358468
Si	2.790114464667933	2.762198559787472	5.413822816199369	14	-0.40528821671505	-0.5521906331764986	0.6214222719110619
Si	4.13770746921855	4.098182722167289	6.798964548311912	14	0.33082540709611336	0.05280716083892535	0.3696370132353447
Si	2.78982034930844	0.03474373848528165	8.216852213097479	14	0.08789734913777432	-0.8148717219779394	0.2347498861560121
Si	4.190551284790255	1.3811417632234406	9.503273580138158	14	-0.5226943987226957	0.293557749701631	0.8354403074285919
Si	0.06019234229444139	2.6578954494659732	8.209111532562083	14	-0.44800661738824626	-0.19825715990502235	0.27543428541043924
Si	1.3273415280753114	4.079996589105312	9.564606436437744	14	0.28869116155165475	-0.11345259335685415	0.012509455824648463
Si	-0.04640159988266319	5.468198210272727	-0.02176998318320595	14	0.6352933851132608	-0.09717801090138083	0.5330351272097994
Si	1.3564774670395952	6.754155528635096	1.4335335125944424	14	-0.5505723794879974	0.8242909663183018	-0.4835678321817463
Si	2.592585499916355	8.212355516045676	0.018443211672497368	14	0.5884110793740847	-0.17557101211269574	0.04653340674723202
Si	4.126010392439903	9.507562217806024	1.3729882318686095	14	-0.24297382363303774	-0.16212515973044936	-0.5791047065572766
Si	2.7182533678146474	5.46071242971556	2.7595308245452568	14	0.21961713157321655	-0.9153631163053949	-0.06075444738350306
Si	4.043296438821329	6.805635520391671	4.109436447274405	14	0.19029496094958775	-0.14868907754841953	0.5153924596134752
Si	0.0740484436749958	8.29402699411227	2.765413131735115	14	0.10524305406962133	-0.4031025200823921	-0.532785472883213
Si	1.4717554375347643	9.574125970239997	4.159629956662234	14	-0.3060787755002201	-0.35867330592916924	-0.17031695839097316
Si	0.0823631938194747	5.444421706748093	5.496390801454343	14	-0.4432382454614997	0.16724680152818436	-0.15355797969318394
Si	1.43401607964724	6.805693254147423	6.880043438394935	14	-0.256590911629606	-0.7652740719101548	0.4173814105883665
Si	2.7215104230919946	8.121239666990922	5.5242958131733415	14	0.9037468624689661	1.1449227121516243	-0.07013255403874318
Si	4.162609236322282	9.579027892898212	6.849423850839431	14	-0.44819276541342495	-0.14287092331945644	-0.7792323455827068
Si	2.800800656062842	5.415060279341532	8.276425823820839	14	-0.1213001210150101	0.18475602875839275	-0.32638125155023745
Si	4.0989038494561205	6.881652358342976	9.58919448049135	14	0.07343153927502519	0.026519408714135346	0.03134820161590546
Si	0.12382038771421836	8.241488187061522	8.235272549130904	14	49.636609512479644	-7.599779549053947	-11.071722011780178
Si	1.2725282289111515	9.7512629367334	9.670311496639492	14	7.73987213596445	13.083106188379578	11.925096293037868
Si	5.498895139274618	-0.03858139926859086	-0.04059772345533663	14	-0.11259127307460454	-0.10751179740412	0.2741942413145318
Si	6.823547145784787	1.2838298839287026	1.3839086262349665	14	0.6202475338902862	0.3721407555961049	0.05552456205178986
Si	8.27439860647263	2.5769570811658196	-0.03963041071744887	14	-0.4437025870823184	0.5476744866816585	0.33853718039336556
Si	9.505817133339699	4.109781760492773	1.3373730404663118	14	0.30160428091156644	-1.058922324519055	-0.7479111405726628
Si	8.299805816268233	0.00465464789301171	2.795260394142913	14	-0.3961492228545836	-0.15674229363218734	-0.5693591889517874
Si	9.648647177122474	1.3894750317424058	4.118070367049741	14	0.04202857311580057	0.12301299137929277	0.18406774386418912
Si	5.521483198883672	2.77565052487776	2.6972862106312427	14	-0.494344105910083	-0.41014657732800175	-0.5590775958870473
Si	6.8370165399334155	4.125408000611015	4.031397838555622	14	0.4780774938811022	0.1026745198547934	0.8136273070029876
Si	5.4879181004686535	0.08090786744805797	5.441772489880364	14	0.17786958026890815	-0.30918929871653533	-0.12048148108107495
Si	6.921865553198679	1.3835545984874285	6.8159273793416295	14	-0.2629690525972973	-0.05275908116943858	0.3648611851031696
Si	8.220714928152153	2.7628630426366967	5.44485198662587	14	0.14394847355913049	0.16592268228830806	-0.13839308629388655
Si	9.592467875510891	4.09413482336775	6.865568605443299	14	0.23825481692843795	-0.37087062956795175	-0.3526124393579842
Si	8.32874785695848	-0.00930602783758461	8.198452574070831	14	-0.5399493436367415	0.058813005756259244	0.38154560174667457
Si	9.743578900637612	1.1472296391864445	9.690151211611507	14	0.5357486717646838	0.18698929083947338	0.014124109965701459
Si	5.556988369355196	2.7792659651672302	8.23497298719068	14	0.08005393524813058	-0.0671863244523855	-1.0205084683728505
Si	6.920744646884167	4.1381965721682255	9.560489910720989	14	-0.29182868137383144	-0.16491146656589384	0.918835136929723
Si	5.42117896813513	5.466887762948765	0.08125862724715692	14	0.632414775596823	-0.09112871430413642	-0.48212467076554727
Si	6.874092504287862	6.7501283268423355	1.4672837947543258	14	-0.5411603342425314	0.24176309013777997	-0.38353460882234114
Si	8.203990657358469	8.199996135050096	0.10847301252942033	14	-0.248864740142561	0.11825053299478247	0.0532090246004645
Si	9.628617921141007	9.590988584184258	1.3251759675765267	14	0.2609548486894933	0.5149139769133958	0.06023122745085293
Si	8.306557397742813	5.4306734476660194	2.7386050613754103	14	-0.5600366181714626	0.46571690505449026	0.5838697360471071
Si	9.644099282211798	6.848722331241233	4.062726570922347	14	0.05937530648977563	-0.3037550105118703	0.5435943996491154
Si	5.426443633070053	8.107369404500467	2.80728753371388	14	0.7803356068755823	0.6374428291609046	-0.38334717524450235
Si	6.888757967565096	9.506639567030133	4.120685815116936	14	-0.8019696583709043	0.627464626523942	-0.13528384863023146
Si	5.499024767896023	5.510888510045049	5.448088344896438	14	-0.2637403841933417	-0.6364115588169932	-0.13703939934282858
Si	6.9213971472557825	6.775123775134647	6.805484105447339	14	-0.07110828850773938	0.6308571999938772	-1.3004607000518542
Si	8.258662345423614	8.189462447915666	5.434728971678583	14	0.3355351578215606	-0.5365423719770134	0.22329149818624014
Si	9.611377314493993	9.502587310966007	6.826305294267144	14	-0.018445366677274335	1.145303235739006	-1.034266452940963
Si	8.270848525151937	5.501436513843865	8.195827322158323	14	0.47343613455717093	-0.5040597986938586	0.12789706304544604
Si	9.529938950082702	6.889079315828245	9.61463763771978	14	-0.10922955286851091	-0.741003094798489	0.5876076089615384
Si	5.514168440961469	8.181411312278586	8.138740620196895	14	-0.30935847744660105	-0.031741580729888114	0.6327611034834469
H	50.121770294384156	50.08797099299769	51.94520273521302	1	-0.3088056898027692	-0.09980336654378404	0.8732823497515955
H	45.920633035284446	44.09003180489699	45.905920731412934	1	-40.0885862199469	52.83369953092939	-37.15738757240133
H	0.09102325718232121	0.07866605481903433	0.09374110096726486	1	-0.159080713920862	0.46507824249296553	0.1765197499758304
H	31.933016337758584	30.068122345770387	30.12963167128567	1	-52.77810580614448	3.1181388302734243	6.8764448329049825
H	11.714986225408085	8.999989912870785	8.999989912870785	1	-4.216747450961625	-8.705445596735421	-7.498585728753026
