226
config_type=divacancy dft_energy=-22904.410142165594 dft_virial="79.23262409105924 -16.163407422998535 2.1391571305499295 -16.16340742299853 140.35025897397267 -18.9530918152642 2.139157130549929 -18.9530918152642 129.05981956664854" pbc="T T T" Lattice="16.3199774331 0.0 0.0 0.0 16.3199774331 0.0 0.0 0.0 16.3199774331" Properties=species:S:1:pos:R:3:Z:I:1:dft_force:R:3
Si	1.6033561829149094	0.9948005444120437	1.4108294091366287	14	-1.9562295966031782	1.5579072755320051	-0.18671392545968551
Si	2.668397910199016	2.6987204282697155	0.2206950548278113	14	1.0186032793306208	-0.9478122652193878	-1.245625194225864
Si	4.093670499363938	4.148652503336052	1.3712697838387944	14	40.58640517469716	25.843430415546592	-47.0725572484458
Si	2.826310011841691	-0.18435046508429762	2.8978404729309686	14	0.35668789840095094	0.5474369165500769	0.7859951239062922
Si	4.0543719937050335	1.5784355773745657	4.071132610528827	14	-0.09385125772764123	-0.8841861503038113	-0.21406097297637652
Si	0.0600901569086742	2.6321512403201006	2.6225877335443037	14	-0.49625212316816497	-1.5189761129953872	-0.09320796717654016
Si	1.404823657441248	4.017570444593392	3.888495743075005	14	0.015098815992569596	1.5738540420591596	0.34731416262475506
Si	0.009139187362536	0.243330863527521	5.519661167535916	14	-0.47512329386825203	-1.5738717826858688	-0.1169783500823732
Si	1.2754878362839306	1.7098766756207533	6.779857184965032	14	1.5300231241139353	-1.414586408781523	0.5848727242324969
Si	2.7731558453420844	2.970594932327728	5.448685585679365	14	-0.77283055044607	-0.7570084825269427	-0.12001533968653211
Si	4.150072341372732	4.06183022339196	6.911918442353677	14	0.5192992541474403	0.4370089714918449	-0.934516565387838
Si	2.882777133760217	0.30315990079726557	8.281131909035901	14	-0.26538409182451245	-0.3228642365828069	-2.4876652391933134
Si	4.171990071065385	1.633972460579405	9.719411520215004	14	0.5899894809301235	-1.821523475338384	0.2709657043640219
Si	-0.2162560209660081	2.6494830563540526	8.195011388121433	14	-0.12284458398082305	0.36321593480880693	0.9230556063127461
Si	1.2438923599734488	4.002637665242106	9.507708772952832	14	0.7689052439537999	0.28312908941257836	-0.8405868889479324
Si	0.17747975458496248	0.025393884885903602	10.94691862284562	14	-0.7037745182048729	-1.2088041378254915	-1.4783984146117461
Si	1.224667426557257	1.5147713454080427	12.272019190526176	14	1.569102639427526	0.3013980782648906	-0.14351884186013378
Si	2.71306568843341	2.900043669884437	10.962014601971237	14	-0.8485663143090119	-0.4591970961836588	0.25459804789595913
Si	4.062303502737519	4.212039295686212	12.270240312985967	14	0.8629745314125897	0.94864967422216	-0.47703568200537816
Si	2.463533233481311	0.2266355266134597	13.783314380740967	14	0.30365319474119246	-0.8409026206812465	0.2733956560020938
Si	4.118950144407809	1.4124450869025056	14.986635276815731	14	-1.0742389131322412	1.1826115165975468	-0.5770015424053955
Si	0.0244962861270831	2.6314005213581777	13.824962963150238	14	0.19760795581168494	0.9468396160767758	0.22049876358749532
Si	1.532625400719854	4.0646046195555865	15.045566715326654	14	-0.9049732797066765	0.0004247465988884627	0.01942470069371874
Si	0.2561583657899376	5.578511006159675	0.0341413927900452	14	-1.3143405550121416	-0.6409698714390837	-0.7269226936232299
Si	1.6409084509884726	6.8501799677242605	1.3041946765887533	14	-0.6532978072281297	0.5707722684357408	0.3902842745087939
Si	2.729010306385549	8.276203275851106	-0.1215185519668626	14	0.005076904565164397	-0.8929790733881858	0.032051141810433934
Si	3.7923710759940454	9.492824953533844	1.4007110231281068	14	2.201516386582221	-0.34850664127223974	0.6397655657071264
Si	2.9136708510410756	5.541170897792742	2.6298174835471673	14	-1.281585187454519	0.34861488480621794	2.0925233754031636
Si	4.278559523703527	6.782403101444595	4.091124582884374	14	-1.0951916217177238	1.1977093041479883	-1.0978668568033378
Si	0.3264648285717324	8.118421734027894	2.7911894204056598	14	-1.8039574266806002	0.2028373269223341	-0.825387542737345
Si	1.3357085530120696	9.4842243254266	4.317972269204464	14	1.019023140829401	1.4643681499902301	-1.826599865682484
Si	-0.065116709958069	5.417024829459151	5.323756158428984	14	1.3635463686291354	-0.9056939605279141	0.9362592605738345
Si	1.3797724920814394	6.76205208958552	6.764695925929682	14	0.2809253950426795	0.1707365627792213	-1.1820291612425333
Si	2.9579469498170754	8.362030037171778	5.353230037673163	14	-0.18727879729852207	-1.8869138827246459	1.5881779269082368
Si	4.023641476198505	9.68912164209917	6.979222029287782	14	0.4000783860048339	1.1421124940367022	-2.725739307417745
Si	2.821479298521494	5.450382863332407	8.070473640329446	14	-2.1883150463159207	0.27550704769099943	1.4376055147128086
Si	3.8328119800732674	6.999622001079157	9.492367994165717	14	1.7148334031945833	-1.2367775065981705	-0.7991278156605446
Si	-0.14772843572442118	7.9037813908277625	8.142412100854552	14	0.67816528077407	0.08892656259742959	1.6729549826294792
Si	1.3658352313535722	9.170309559500922	9.743956766274385	14	-0.6874788526857742	0.5942289764925157	-1.6450829154064142
Si	-0.0067075107250041	5.252682656707833	10.971643388656767	14	0.18441947107198536	-0.005696540947320084	1.4687140893128765
Si	1.4223349932269642	6.792701007204881	12.193928098508792	14	-0.699716542678083	-2.32049891326165	0.9968800104806896
Si	2.87952945825103	8.070832679832975	11.161150966609926	14	-0.22121070265064433	2.048232743826697	-0.18517974691515315
Si	4.04477584697437	9.805238281535678	12.272394550007137	14	-0.5193722735385325	-1.8930045741175447	1.0127419305322793
Si	2.7947145355312095	5.506246146085909	13.74073555961801	14	-0.24248917028018982	0.14877598090824054	-0.8879993566041231
Si	4.1452579480299665	6.944509437287579	14.964195307845218	14	0.6052191661834887	0.20108151909920496	-0.17409519765893075
Si	0.1181729565930771	8.111959022964387	13.49399382080697	14	-0.8249121453636497	0.47266685984538254	1.1860637397109095
Si	1.3529914091137225	9.509830370019134	14.947157251405061	14	-0.3381206613315016	0.8650784668960669	-1.2637846539915376
Si	0.019420773145389002	10.808541534190367	0.0177071755149135	14	0.48198943062570754	0.8042196326365657	1.136467118085253
Si	1.4991694469819992	12.421118504354977	1.4311477810408382	14	-1.4175403516838412	-0.20045391229055684	-0.3954403691178188
Si	2.834127281032146	13.676793888035125	-0.0611183154869595	14	-0.32286012281429466	0.13776470815364233	0.5231296868533968
Si	4.1603702471330175	15.019568991275726	1.3760025772943933	14	1.0238383068729744	-0.7221314388591341	0.05534201357405935
Si	2.8031682838415555	11.034964901097196	2.7663340947750483	14	-0.7489686361908398	0.2596543836185624	1.6792451917952218
Si	4.167028797925722	12.585101637602767	4.165527360001877	14	-1.5622658132707203	-1.2740590479613816	-0.1644748928825327
Si	0.0290332398534849	14.042769381972391	2.719577359429217	14	-0.932258877806216	-2.361791378924292	-1.3790128526824863
Si	1.329572241497224	14.907124346761668	4.311427958253791	14	0.22178277358437726	1.8404372974049894	0.2169583515616514
Si	-0.080783888293845	10.846126442218795	5.442565594141952	14	-1.093562312276346	0.8891008181232744	0.810752039923466
Si	1.1349238706526403	12.190517223225275	7.0125963831384714	14	0.654726313344004	0.6378686042019212	-1.4764469456737537
Si	2.7278189480329322	13.715912873942264	5.6719918368964715	14	-1.3362990799988663	-2.1957607102125376	-0.08093710992560146
Si	4.21192505584418	15.173776458041088	6.394852597340771	14	1.0913604176801712	1.4047221061102428	3.12507001599548
Si	2.417951536510663	10.745921780779561	8.183979083376656	14	0.8489620074177827	0.34593939261007184	2.505962253093615
Si	3.885623427046779	12.392509583914752	9.864577719482428	14	1.256910803918122	-1.105975351651489	-2.706084749908405
Si	-0.07130198140521389	13.607042304486054	8.373307141578051	14	-1.8046963623496106	0.2844174702885046	-1.37213514595109
Si	1.4772027573570465	15.020972509334973	9.269828781887965	14	-0.40214195513478473	1.24444685665764	1.231334476635417
Si	-0.08076756831641191	10.67747579542514	10.797835628994253	14	1.138492120635402	0.9594043506658074	0.5487039572518457
Si	1.2496369920299002	12.17675948224917	12.394631180981056	14	-1.1095990674897058	1.3311645826745304	-1.7230128605495705
Si	2.48411272502445	13.80807178650698	10.919811140329243	14	0.13572196497678468	-0.5398102468389216	1.8343445491278343
Si	3.8631344981439675	15.154453604760299	12.380563360433724	14	-0.8547523937092881	-0.420151519460294	0.11711076200636082
Si	2.698328748811321	11.073169968268083	13.682962839504835	14	1.110849653117426	-0.7135740290220853	1.483047230141106
Si	4.317809069430133	12.230827567485031	15.20432745579585	14	-1.5793446374703362	-0.550668538826971	-0.5701099517052706
Si	-0.24001790810860169	13.477559603531839	13.750152186596909	14	0.5740252308867921	0.427461428996007	0.37051967369175154
Si	1.0389297633911458	15.08081786658215	15.41758060091417	14	1.2746840836647095	-0.24755270509768942	-2.0949150175719655
Si	5.445927509493171	-0.0598779972020439	-0.2401321479506334	14	-0.5877613610596832	-0.40649355088913536	0.9537250361241322
Si	6.7470540303245015	1.5046366394220876	0.7762270866505353	14	1.1004587880765793	0.21867842102083046	2.7394983204279852
Si	8.585058848772523	2.720523918120337	-0.0330642742794606	14	-0.6097062591882111	0.15933139668957647	-0.7308783391582778
Si	9.843818708187527	4.1192928639339055	1.5076558352472111	14	-1.1008768498016355	0.8391516979582256	-1.250543461592775
Si	8.143554499274869	0.23544831442733372	2.432508956380988	14	0.7476702280041649	0.16521022900409504	-0.4552679330334085
Si	9.45685572327129	1.4660725327476722	4.103364565959199	14	-0.2844917752322569	-0.6532450995690667	0.057647009493572085
Si	5.5175232504921805	2.6990631477958105	2.689891320478408	14	0.20014846497852323	-1.4438191049400106	-2.541554835372021
Si	6.837727824942805	4.184948133147267	3.9847672899528614	14	8.268125007278774	0.9738673323127045	2.6461551131116052
Si	5.668891041184183	0.2421068652200385	5.069556189931019	14	-0.542994560777925	0.08668790119517666	1.5939953098056039
Si	6.911069803527156	1.4354072951508774	6.752031623441597	14	-0.8676768259326086	0.3284293940482674	-0.49182493691740187
Si	8.32860672338879	2.9590403883050933	5.596658821065282	14	-2.0389376838732978	-1.8129053874157797	-1.64771881258063
Si	9.685514927086455	4.236992541181422	6.7136307165415126	14	-0.1208190672096104	1.6066181513748707	1.484558268737757
Si	8.100567678716082	-0.0102163058731206	8.07723011098675	14	1.237347006426583	-0.7545654182517381	0.1352511955926656
Si	9.382583505973255	1.480058753407839	9.4096746685122	14	0.9130992580710046	-0.2199881420709139	0.11278590574733972
Si	5.511990778142359	2.75970818393721	8.177940691726409	14	0.9368182188704347	-0.5595473368290383	0.31709981845503493
Si	6.817360493106296	4.252414919855702	9.455648044941242	14	0.5816413590661348	0.5289702096986453	-0.32035998000098265
Si	5.481913059733156	-0.1248315073857819	11.064242940612177	14	0.1812495553227748	1.6375068964700659	-0.8405364952836575
Si	6.921808348678136	1.4926088160538928	12.154629592849888	14	0.4528096992368149	-0.39937853113668964	-0.05281410282328975
Si	8.34908829506733	3.0713055130673883	10.827032068622067	14	-1.3588219626033633	-1.8248797962233052	-0.07170915582105798
Si	9.642903466008631	3.9746325839669066	12.470698595796733	14	0.39439932857369087	0.6392659999434216	-0.2877164555247866
Si	8.384861685600685	0.1166062387594995	13.581942179193947	14	-2.967230374612653	0.21741112320852948	0.06723388990080824
Si	9.840766872407535	1.0853927391431817	14.963575148702759	14	0.42329675259843114	1.4828855076164686	1.120748408599996
Si	5.466670200810641	2.784041270289962	13.475438006465536	14	-0.08945312496699592	-0.758834995746376	0.5642372900435204
Si	6.956015021377914	3.934567039368646	14.872787114242424	14	-0.08425974933082882	0.9040813632711173	0.6907603544058794
Si	5.599433217228909	5.57648732895797	-0.13044557962276832	14	-0.4933352041824569	-2.001754101622784	-0.6583451440821124
Si	7.073845258444896	6.6827206792832206	1.1184570134226421	14	-0.6537102125214815	1.1400548384489877	0.7503300364578581
Si	8.043153998106437	8.154390964290448	-0.3483662382869526	14	1.097920335793997	1.663550650699974	0.6667667995582575
Si	9.618749899407645	9.65927240337403	1.1938063492312652	14	0.2149927415443982	-2.779671583944767	-0.8084488437776775
Si	8.256227623472991	5.485062815377744	2.6509192143681655	14	0.917653971145647	0.2000818733507314	0.5169060693154465
Si	9.339368205730405	7.067725266907483	4.242541333508677	14	0.22668998519841188	-0.6909665570525553	-1.2643690662308074
Si	5.492553685019538	7.927151598511963	2.386111260538685	14	-0.33538012017075575	1.0561460449943592	0.917272933337201
Si	6.686343714273369	9.45347748794264	3.8636077774895274	14	-0.3609924429279428	0.7724415422111316	-1.3146855973461054
Si	5.446694548432526	5.424009779800517	5.40375668780604	14	0.721333110657228	-0.18981750669163625	1.6775431200732838
Si	6.7535330613654425	6.835981587357463	6.8504410873631905	14	-2.21303442419542	0.7557584111202869	-0.31615159481296423
Si	7.72445747879286	8.384437366187425	5.530056993160801	14	2.3777301750249538	-0.657871032261077	-0.029998371322827715
Si	9.444060860963742	9.545832240236553	6.7384860421721235	14	-1.0244815974240755	1.5321442860030576	-1.2886040478679912
Si	8.21668431815259	5.71525609707162	8.04468807598515	14	0.6721733198254648	-2.1372161278517017	1.0715297394564012
Si	9.224655084353145	6.918462753304351	9.75187195532944	14	0.673650934052954	-1.1663886133590085	1.0491025019698135
Si	5.268382474998476	8.31919009640989	8.174154456961931	14	0.279927806178462	-2.4961915386559888	-0.3397880231316176
Si	6.612773256004955	9.421914651587024	9.52528538864828	14	0.28713718549615724	1.6765640431673712	-0.040779530151272635
Si	5.37717144456752	5.641244999412511	10.688883459650876	14	0.019314400275484384	-0.24283215572989758	1.2903693687808049
Si	6.7935333260539705	6.841465099774985	12.306503302842316	14	-1.5376567358094553	1.3953383430232984	-1.6984058399725614
Si	7.994814224949595	8.501451604382751	10.99824495187272	14	0.41557443776936637	-1.9905613088325835	1.5523745139935787
Si	8.08865409518992	5.447396307462149	13.452932757585291	14	0.8643199908266233	-1.1601832506688312	0.9337838003715959
Si	9.445823418526516	6.7611055308944	14.781036201113537	14	0.8043679854135384	0.1725900726045161	0.7406225712111071
Si	5.4695425168388665	8.411463248816638	13.629368033614536	14	-0.36360237193842515	-0.8863661905047648	-0.6699881374138711
Si	6.94947071042724	9.855291652322995	14.618097546421467	14	0.38555292649865736	0.23583463549058253	1.0710502283141934
Si	5.431827048990972	10.698234806720043	0.2484226964866482	14	0.871053972770623	0.3044998597231172	-1.3111541841888819
Si	6.716160313043643	12.121483718683262	1.5761507805339317	14	0.8778715156375276	0.6421834331501937	-1.2387058355882814
Si	7.970448498641977	13.689637710274974	-0.0109180649027439	14	0.2962342703399052	-2.57955834310913	0.43064831404033055
Si	9.474367059057007	14.855226818524407	1.238343567646195	14	1.1297246514936967	0.8734399585077205	1.0024030018188999
Si	8.307521312545225	10.761605279092771	2.6005394440321856	14	-1.479385204833619	0.7656857058719105	1.4862042903637156
Si	9.297572743524237	12.222439099084417	4.164009602100599	14	-0.8769862840758006	-0.3130919794819881	-0.26201465830245835
Si	5.631028693539391	13.686047315239692	2.859570125850349	14	0.18696949332850823	1.5744531095987544	-0.6907832372432285
Si	7.166656970106936	15.217726157268425	4.003780063662423	14	-0.8782677229673624	-1.4385565665707316	-0.3777102839406097
Si	5.45687821435078	11.001753747020835	5.196509294383103	14	-0.5385864007065312	-0.8638764751588976	1.3659626934090108
Si	6.67882020467671	12.26141120519466	6.733606368919626	14	1.808882893142408	-0.4264733532214741	0.23595830565648163
Si	8.239646526400962	13.748895548334561	5.552431682221581	14	-1.617353801639149	-1.0256236824072853	-0.5519934293984433
Si	9.810395394404537	14.820367346727307	6.6795056437289	14	0.040351441115467984	1.5211155297322825	1.7283453329835574
Si	8.059930934907664	10.829659584988798	8.282959746508407	14	-0.053432710763317376	1.37661683963464	-1.4797785839476019
Si	9.60482895865721	12.25840832934697	9.540462967661062	14	0.9009888377920431	-1.727413050194472	-1.394636431270898
Si	5.492113045628844	13.69446842359517	8.023455785344686	14	-2.677647553735971	0.0024407502804165713	0.2595212003629787
Si	6.7393999609083775	14.888095253074672	9.501654061325151	14	0.02174846568206857	1.1635051187424623	-0.4905386129257318
Si	5.438273440077047	10.8456858028281	10.917085704097914	14	-0.12473023262261963	1.4546450010010261	-0.879072993153633
Si	6.705764487418758	12.156457430322394	12.351056841234678	14	0.6081728519752749	0.677264108359358	-0.3839004771093982
Si	8.142102021283323	13.4826677564684	10.59076775532308	14	-1.3956607596304451	0.4416019940357574	3.355928277138916
Si	9.173377715258345	14.865590004194427	12.259697607564185	14	1.6298002653834538	-0.9344124356223721	-1.7858488748002652
Si	8.957203294179502	9.93602658068454	12.616158554657956	14	0.9773573506742733	0.26457367942760174	0.4790614558871229
Si	9.688158763430618	12.25419777516923	15.198354344055337	14	-1.1382758906779775	0.7305268690610136	-0.17786340961613978
Si	5.150568557908927	13.676467488486463	13.668111660040715	14	1.833089849731602	-0.36789303249668825	-0.9208156593578329
Si	6.808270265676059	14.923052644736373	14.815928312865504	14	0.2072717122679935	0.8316823798926635	-1.1964697742731447
Si	11.19618995815879	-0.24241694479126738	0.014231020321663202	14	-1.4378906502928133	-0.21586511757952445	0.027781564315796037
Si	12.1211573191346	1.3529914091137225	1.407092134304449	14	1.691974734235275	-0.014672783841021055	-0.028784295390653792
Si	13.73025813410596	2.568846047857105	0.0179030152441107	14	0.48261446632903554	-0.987108781821999	0.16415324760698216
Si	15.1588926386221	4.040663212661229	1.1560908813833708	14	-0.09807969753715676	-0.014654528993248006	0.9614890028593837
Si	13.703379131273644	-0.0382866670580526	2.55549630631683	14	-0.4850816989942496	-0.32424414880813035	-0.5202814163797369
Si	14.77073829535325	1.2982868447579712	4.135922920938234	14	0.9121584906343625	1.3716358372979174	-0.3583830281385245
Si	10.927106170241837	2.6990631477958105	2.8877873668321787	14	0.6059030801986481	-0.17175137804908375	-0.25606589192323176
Si	12.28383485418774	4.003127264565099	4.216837369051543	14	1.1412126071746505	-0.19415444714566205	-0.9890520232229668
Si	11.010697094654176	-0.0149327793512865	5.236460599139332	14	-1.0082805485807584	0.045676457344026665	0.4358203495023404
Si	12.209219917363606	1.0744583542630048	6.921302429377709	14	-1.8325920837416214	2.5441706779247397	-0.6857328150628618
Si	13.426265914459606	2.633603718311646	5.756757799683993	14	1.190012957482657	0.12874038559045461	-1.0741386400247552
Si	14.879951584335554	4.144001309767618	6.8679034632166065	14	0.366377880131525	-0.6453662044260049	-0.5751989404654398
Si	13.27672596124011	-0.018816933980364298	8.451691993189229	14	2.440053767985343	-1.6405084048208067	-0.27635808355196845
Si	14.848094988386144	1.1388080252817179	9.667970951345872	14	0.25318831084892207	1.831318615276552	-0.007944458328725548
Si	10.91248347046178	2.9706438922600276	8.150865849164898	14	-0.2253478682212946	-2.7691943297651638	-0.03918467352118478
Si	12.16527021813627	4.12079430185775	9.673764543334622	14	-0.5331369429804772	0.16917101674978316	0.14635451391772508
Si	10.641506565162588	-0.1622042557075809	10.804086180351131	14	0.12874707046428702	0.42275682048120006	0.011901646526965457
Si	12.087962485035675	1.3314816788568966	12.080292095642116	14	1.3140937289014074	-1.649145004701716	-0.03498528720178693
Si	13.49498933943039	2.7776111991813206	10.935233519003521	14	1.2955851130332574	-1.0505058112535504	0.5551967695168157
Si	14.895994122152292	3.927549449072413	12.562775908474284	14	-0.22974600098193987	0.886975285355108	-1.076768366546203
Si	13.772771675319186	0.014524779915458998	13.53999983719088	14	-1.193766257029009	0.6689337271220782	0.3239672407651504
Si	15.42580586954045	0.9477010895401169	15.104449193905278	14	-1.8789043754313208	0.2066086242059273	0.7369700589933047
Si	11.183623575535304	2.5699721262999895	13.694223623933674	14	-1.1700354691451065	1.1970356745541095	0.9023690071278986
Si	12.431628569821893	4.073286847549996	15.14373137958675	14	-1.5566849720628069	-1.0926958497834562	0.19860091668632612
Si	10.985352169700572	5.615067755609819	-0.037046348773137	14	-1.0878634573342378	-1.4503450844636103	-0.4257673277005614
Si	12.263908161741924	6.850555327205221	1.3397722273929114	14	0.7526435170249274	-1.1546923981471229	1.4872041932227213
Si	13.556874693856704	8.259361059140145	0.1344602940713109	14	0.6574617122941095	0.02921495553177859	-1.1770700133010317
Si	14.98152712387917	9.493232952969672	1.4412824870267935	14	1.8932040918903883	-0.5163540530032106	0.054243894491824096
Si	13.738907722145502	5.235807800042008	2.6811601325516996	14	-0.4083311198614452	0.8241315577884527	-0.290918252979967
Si	15.0819765849799	6.771109677060891	3.974681543899206	14	-0.9210172340149326	0.00678566116093481	-0.655022761787417
Si	10.905988119443405	8.15925431756551	2.675464460427548	14	-0.9804385632899388	0.9110256616303052	0.33227936715465717
Si	12.332060387502551	9.557370464281755	4.003094624610233	14	-0.3211667928504451	-1.0338195948363214	0.3710410938506776
Si	10.818415120537392	5.426686256099545	5.16127446310504	14	-0.35240135161120006	1.5641082673431383	0.7738687627743458
Si	12.066632274530612	6.640500897663791	6.767682481799939	14	0.3469724627277074	-0.18057978238687622	1.0612327197597402
Si	13.512794434809903	7.861985928621594	5.368407616685945	14	0.2826747751025082	1.9301516466725122	0.40826864200216556
Si	14.850853064572338	9.34782195404075	6.873680735227924	14	-0.2507838131535195	0.26791020280155786	-1.002474992767864
Si	13.585630494093827	5.264857359872926	8.374955459298793	14	-0.7401250623316584	1.8556276447469562	-1.3142407961257199
Si	14.859421052724716	6.5611858073389255	9.814703868446875	14	-0.15507416050047526	1.4265682737944771	-1.2449155691575031
Si	10.579588570781405	8.122730208070234	8.141498182118298	14	86.15607962967798	7.934091632074711	1.6154496410390475
Si	12.063449878931157	9.325333025137938	9.35908273846959	14	2.5194032203757533	-13.732170156477022	-10.583534931780257
Si	10.78535084625793	5.497482318204334	10.998179671962987	14	-0.29208116391627	0.1843071137694949	0.231849679354885
Si	12.097623911676068	6.847291331718602	12.417968748710388	14	0.02363771387131338	-0.8584501573807252	1.0048499227520846
Si	13.479207921252582	8.036364887494267	11.112664313656184	14	1.063293460673839	0.9149257712904378	-1.3403691397206605
Si	15.031221455162958	9.530230341810508	12.310371137493961	14	-0.16882186064730706	-1.8279152431642722	-1.2481399923395007
Si	13.656377596266315	5.4251848181757	13.93451897165864	14	0.6893560166800144	1.7785819027233989	-2.041514702735682
Si	15.058296297724473	6.986272259538881	15.097627443338242	14	0.14998002952966588	-0.7188969883663878	-0.16129700670682964
Si	10.776146378985663	8.347113577797924	13.685606675848998	14	-1.5312868223787883	-0.5720729906172036	-1.203345167009753
Si	12.258669448985898	9.525301708625713	14.893154446078935	14	0.4286011999844287	-1.082968844136272	1.2070545006551305
Si	11.172117991444969	10.877281279138582	0.0028396760733594	14	-1.389621490343949	0.1354334869598641	-0.5119176107732951
Si	12.065261396426232	12.183466992974175	1.5597165632588001	14	2.647465091272221	-0.05815223168898119	-0.4909618168614282
Si	13.396367715802166	13.55521005615853	0.0431663403105495	14	0.6677844430439721	-1.368174615315934	0.26342233846523944
Si	15.072886357549663	15.079430668500336	0.8068923242473302	14	-0.5395955595446893	0.15949234788261774	2.0015568978447287
Si	13.760074732876232	10.879647675866382	2.7177495219567103	14	-0.8556391679342074	1.4077107589343831	0.6801098077276979
Si	14.974068894192243	12.467548840152146	4.024539074957326	14	0.8104519919326048	-0.8783489698954792	-0.25145127209463
Si	10.651641271148543	13.326877251892027	2.78887198361016	14	0.03443378511061517	2.981862534989616	-0.145676513444802
Si	12.248208343451282	14.88471701774602	3.886635265647631	14	0.15909305522639874	-0.7733553130419123	-0.3359074538719181
Si	10.736847873326758	10.853992671341551	5.19580753535348	14	0.8266828655976356	-1.1575141862359855	1.0470523025875276
Si	12.14380944781174	11.994155254750215	6.647534807937458	14	0.6863239121759638	0.8177971256112038	-0.7669080093411089
Si	13.558996290923007	13.608511102455035	5.451998541098284	14	-0.875532838238321	-0.31917367200626634	-0.24318028339024558
Si	14.782472359127649	15.041029761600253	6.774895911825371	14	1.1148412941269557	0.541137965626246	1.7479253284386134
Si	13.446323166724886	10.840545009936676	8.100779838422714	14	1.3274891876193788	-0.9267240593835334	0.2206201197586063
Si	14.838939481046175	12.114857807845423	9.63330731927797	14	-0.4054401690394708	0.7455948317897415	-0.012332563778622276
Si	11.111750394919932	13.376881662747046	8.104827192826122	14	-1.6277783481596895	0.4646856347105789	-0.23258244437112724
Si	12.199819610362141	14.680407220261042	9.597011689466756	14	-0.3441301057962837	0.5823728385297169	1.42422059752665
Si	10.863964177553173	10.619898915041164	10.83999013070395	14	-6.776911946640879	2.370941942758699	2.6034737363550193
Si	12.107317978271329	12.075738821938282	12.369204656140285	14	1.7027422662055232	1.2339865717731497	-0.012852184163824203
Si	13.587882650979596	13.559387970381403	11.167858477334928	14	-0.08511644162350215	-0.8787348928040334	-1.403556109847556
Si	15.04532191566516	14.995676544313667	12.227628851908143	14	0.6391605846252955	-0.5878189538188546	0.37343453579320346
Si	13.612313657196946	10.641751364824085	13.543949271729689	14	-0.16398843975596067	2.1741958214503274	0.6633595707879972
Si	14.782292839375884	11.99381253522412	15.093759608686598	14	-0.1876984016867702	0.8731278263218546	-0.2098639006517668
Si	10.692033215295465	13.520171064609665	13.512843394742202	14	-0.24909819650563042	0.4712095573499226	0.34326544307711787
Si	12.309555138622306	14.77326789185538	14.747825047037178	14	0.14733384793416948	0.8219708008774002	-0.5632733826589968
H	60.176099541834645	59.838285800955944	61.561719481830366	1	-1.2488650440397824	-0.9171171243547999	0.9998581217730175
H	61.09480329547163	58.89916901954563	59.70670598290157	1	4.223311482843964	-1.8289781381036214	7.285580451621103
H	192.19687685845477	192.12758876226482	194.04432931183882	1	0.04483724856753033	0.04491566727979485	-0.1296307593628219
H	117.84536405406475	118.05849153535684	116.1869834352364	1	-38.95491363623412	-26.581454884831693	46.357003211216664
H	11.980795721223478	10.249936450616989	10.01416989662971	1	0.39274173697379133	14.057693430181924	2.1437804168445718
H	58.176123843356336	58.06148089788204	58.03188298680937	1	-15.544811748486952	-45.764535441868446	-21.94436539550555
H	163.8801150222401	162.03750960215368	163.8916499822898	1	-0.2121989785035253	0.459773795106968	-0.19032581421342956
H	70.89852055511055	69.21953270077742	68.96072070665686	1	-6.979670854850948	-0.10921284068392995	-1.5561257566556748
H	58.78406421870998	56.992569703948554	57.06892271836931	1	-84.47039459038737	-10.610312993689597	-3.744451344503408
H	139.89381676595718	140.02152711736215	139.80803406857555	1	15.51098577267402	46.783153119388864	23.30218925502363
H	-0.852292869468471	-0.9300477699507327	-0.9513143325438054	1	-0.06585732011240095	0.44700851430296484	0.35524216587943164
H	135.9333238104383	134.16146875651987	135.9600885734286	1	0.09704714164058528	-0.25068739670401397	0.24734161735090526
