223
config_type=divacancy dft_energy=-22918.878032703626 dft_virial="120.00032948017773 -6.648947349806309 -40.831560825851355 -6.64894734980631 140.68550001682004 -13.194129614921764 -40.831560825851355 -13.194129614921764 128.34543686819993" pbc="T T T" Lattice="16.3199774331 0.0 0.0 0.0 16.3199774331 0.0 0.0 0.0 16.3199774331" Properties=species:S:1:pos:R:3:Z:I:1:dft_force:R:3
Si	1.3599926794325223	1.3599926794325223	1.3599926794325223	14	-0.26323901865591287	-0.430395831497892	-0.30303895768020905
Si	2.7200016788424777	2.7200016788424777	0.0	14	-0.12430625735532724	-0.25109208868140526	-0.025304561450365377
Si	4.079994358275	4.079994358275	1.3599926794325223	14	-0.030704139733208364	0.24147049835234713	-0.0055456170650273915
Si	2.7200016788424777	0.0	2.7200016788424777	14	-0.11289954860249028	0.11250719793063568	-0.2616405624783768
Si	4.079994358275	1.3599926794325223	4.079994358275	14	-0.023337665880452097	-0.05384151650922093	0.25578795543812377
Si	0.0	2.7200016788424777	2.7200016788424777	14	-0.07303096106614611	-0.1421286452135297	-0.1605688696801637
Si	1.3599926794325223	4.079994358275	4.079994358275	14	0.07783892801482302	-0.006831941056697476	0.006378655188755369
Si	0.0	0.0	5.439987037707522	14	-0.001136171440973436	-0.00013755413462792222	0.00245669113340149
Si	1.3599926794325223	1.3599926794325223	6.799996037117478	14	-0.008293614431201659	-0.03383985978166096	-0.013779838963333629
Si	2.7200016788424777	2.7200016788424777	5.439987037707522	14	-0.03423246756404757	0.04092659737558511	-0.02496543265863785
Si	4.079994358275	4.079994358275	6.799996037117478	14	0.013335809074544057	-0.11167210292265159	0.01011292855573844
Si	2.7200016788424777	0.0	8.15998871655	14	-0.0038587148644782373	0.007335106367850454	-0.005644861730385108
Si	4.079994358275	1.3599926794325223	9.519981395982523	14	-0.001687416421613184	-0.00947349466261761	0.007298082451240322
Si	0.0	2.7200016788424777	8.15998871655	14	0.019132108908285886	0.00458402367529201	0.024339111402649775
Si	1.3599926794325223	4.079994358275	9.519981395982523	14	-0.013097467611366329	-0.021238101276019175	-0.02237787226444082
Si	0.0	0.0	10.879990395392477	14	0.07011198519618199	-0.0034370535919739523	-0.041352629527133644
Si	1.3599926794325223	1.3599926794325223	12.239983074825	14	-0.05627815302112525	0.03221440699826334	0.025557043992803924
Si	2.7200016788424777	2.7200016788424777	10.879990395392477	14	0.022521339941305084	-0.01229965363052438	-0.05406134601409359
Si	4.079994358275	4.079994358275	12.239983074825	14	-0.04436725051500726	-0.016896789942949145	0.11740463934445373
Si	2.7200016788424777	0.0	13.599975754257523	14	-0.16808086809404038	-0.04233324909623812	-0.34433245178497934
Si	4.079994358275	1.3599926794325223	14.959984753667477	14	-0.041096290326714885	-0.005228085557989103	0.2328087016393003
Si	0.0	2.7200016788424777	13.599975754257523	14	0.1140560317754929	-0.14315065957828854	0.12796725422068606
Si	1.3599926794325223	4.079994358275	14.959984753667477	14	0.021244529039319546	0.05759044517652883	0.025830866709399696
Si	0.0	5.439987037707522	0.0	14	-0.0037252744983625515	0.014524431064048512	0.015903571957775944
Si	1.3599926794325223	6.799996037117478	1.3599926794325223	14	-0.0016663333579879699	-0.03808038378618118	-0.042765709011087026
Si	2.7200016788424777	8.15998871655	0.0	14	-0.009105569491304423	0.021474385854940787	0.030469140706946823
Si	4.079994358275	9.519981395982523	1.3599926794325223	14	0.0035751219476659038	0.023315297264166812	-0.017566305768315707
Si	2.7200016788424777	5.439987037707522	2.7200016788424777	14	-0.055301390110001	-0.01231662292563736	0.0354570850280341
Si	4.079994358275	6.799996037117478	4.079994358275	14	0.02917947427836055	0.004304030305927884	-0.10474683074283275
Si	0.0	8.15998871655	2.7200016788424777	14	0.024666670220436643	0.01349856004130943	0.007504027987384184
Si	1.3599926794325223	9.519981395982523	4.079994358275	14	-0.015343070997983658	0.020580412535125298	-0.015774759581236523
Si	0.0	5.439987037707522	5.439987037707522	14	-0.024177388878012462	0.028119664665395512	0.0005311903591425931
Si	1.3599926794325223	6.799996037117478	6.799996037117478	14	0.02019551806869913	-0.010260767111646954	0.0034859045930567658
Si	2.7200016788424777	8.15998871655	5.439987037707522	14	-0.005562586360140369	-0.061283066637325516	0.05792571731027615
Si	4.079994358275	9.519981395982523	6.799996037117478	14	-0.02133503194658876	0.12051850499768509	-0.027580760990292476
Si	2.7200016788424777	5.439987037707522	8.15998871655	14	0.01164402177388662	0.07906534525253366	-0.006475071638260922
Si	4.079994358275	6.799996037117478	9.519981395982523	14	-0.02749077230408729	-0.01288046632234583	0.0033601775429015247
Si	0.0	8.15998871655	8.15998871655	14	-0.019178645914580565	0.015831581008811796	0.016681331317120737
Si	1.3599926794325223	9.519981395982523	9.519981395982523	14	0.05984761853708683	-0.037728399467852905	0.006658134337055465
Si	0.0	5.439987037707522	10.879990395392477	14	0.037048599221205764	0.022840157001003447	0.0429197182197639
Si	1.3599926794325223	6.799996037117478	12.239983074825	14	-0.00016095119304126976	0.020034309765125845	-0.06714801498311529
Si	2.7200016788424777	8.15998871655	10.879990395392477	14	-0.0027492829188343407	0.009645501608535518	0.0018203425666648398
Si	4.079994358275	9.519981395982523	12.239983074825	14	-0.037166098734336524	-0.007465204297049947	-0.03778856333234437
Si	2.7200016788424777	5.439987037707522	13.599975754257523	14	0.01782058808447835	0.028135348407848412	-0.003036218272562866
Si	4.079994358275	6.799996037117478	14.959984753667477	14	-0.059698751539050264	-0.12294639975150091	0.022463232961069737
Si	0.0	8.15998871655	13.599975754257523	14	-0.018752099541968	-0.09034221318670312	0.10215669924331557
Si	1.3599926794325223	9.519981395982523	14.959984753667477	14	-0.005055307280475153	0.0363878251539277	-0.06309800988281804
Si	0.0	10.879990395392477	0.0	14	0.19387213978150977	-0.0912914652709018	0.010769074633440229
Si	1.3599926794325223	12.239983074825	1.3599926794325223	14	-0.06039629241240644	0.04191570159224607	0.04048333881839158
Si	2.7200016788424777	13.599975754257523	0.0	14	-0.05480748077800055	-0.420150748128698	-0.3998726975792221
Si	4.079994358275	14.959984753667477	1.3599926794325223	14	-0.06105218137957621	0.21275819391065748	-0.01840988542385629
Si	2.7200016788424777	10.879990395392477	2.7200016788424777	14	0.018411428087048376	-0.022771251378423476	-0.0009698209267598553
Si	4.079994358275	12.239983074825	4.079994358275	14	-0.024002296605710374	0.029654357430991898	0.0041646763975758585
Si	0.0	13.599975754257523	2.7200016788424777	14	-0.2522925377553824	-0.021088205835854544	-0.030698997522568064
Si	1.3599926794325223	14.959984753667477	4.079994358275	14	-0.0016547633840473038	0.034228610906067346	0.05143213371371015
Si	0.0	10.879990395392477	5.439987037707522	14	-0.03835986293448128	0.013751813915344014	0.03978116995545914
Si	1.3599926794325223	12.239983074825	6.799996037117478	14	0.004780199011219309	-0.020480139427639522	-0.018819462501355882
Si	2.7200016788424777	13.599975754257523	5.439987037707522	14	-0.0032408782560466535	-0.006015358007018445	0.0012400440959074183
Si	4.079994358275	14.959984753667477	6.799996037117478	14	-0.042430436877339724	0.001425420789490095	-0.027602615385513733
Si	2.7200016788424777	10.879990395392477	8.15998871655	14	0.00824347787745877	-0.005376438334961649	0.03198583573530218
Si	4.079994358275	12.239983074825	9.519981395982523	14	-0.024255293369212946	-0.03128855197247801	-0.12624204255086674
Si	0.0	13.599975754257523	8.15998871655	14	-0.019129023581901706	0.027333420658494225	-0.1013707123469463
Si	1.3599926794325223	14.959984753667477	9.519981395982523	14	-0.012895121622670674	-0.02351044415796605	0.010564157539424428
Si	0.0	10.879990395392477	10.879990395392477	14	-0.075963306683775	0.05307275601849665	-0.0032113105448649507
Si	1.3599926794325223	12.239983074825	12.239983074825	14	0.21370153245261983	-0.15320548115379162	-0.07951785978887972
Si	2.7200016788424777	13.599975754257523	10.879990395392477	14	-0.03185805180089082	0.10367596537699106	0.05225668718988164
Si	4.079994358275	14.959984753667477	12.239983074825	14	0.04720163701993851	-0.09506199122289895	-0.026861108611183026
Si	2.7200016788424777	10.879990395392477	13.599975754257523	14	-0.0038363462481929484	0.019208984957358313	0.08404686181032056
Si	4.079994358275	12.239983074825	14.959984753667477	14	0.10257810340528783	-0.09422021134108248	0.04084869288438462
Si	0.0	13.599975754257523	13.599975754257523	14	-27.896977119848977	-28.24119232923135	-28.29381205649244
Si	1.3599926794325223	14.959984753667477	14.959984753667477	14	1.6706168194513367	2.254628223401584	3.2053795191124332
Si	5.439987037707522	0.0	0.0	14	-0.2291980984382163	-0.008104123969106746	0.013079984095189321
Si	6.799996037117478	1.3599926794325223	1.3599926794325223	14	0.46247602679844363	0.012634411543207661	0.002733084955317408
Si	8.15998871655	2.7200016788424777	0.0	14	0.04871936049042192	0.045144752763820045	-0.0015159236967593073
Si	9.519981395982523	4.079994358275	1.3599926794325223	14	0.007577304489008404	-0.09038669330874169	0.015355669414052385
Si	8.15998871655	0.0	2.7200016788424777	14	0.009982316405474916	-0.024465609784401057	0.058660539210774465
Si	9.519981395982523	1.3599926794325223	4.079994358275	14	0.022426723265523633	0.019546056864829728	-0.09581043998159407
Si	5.439987037707522	2.7200016788424777	2.7200016788424777	14	-1.0820774419217765	-2.0636660606214177	-2.045380873805589
Si	6.799996037117478	4.079994358275	4.079994358275	14	10.148499797842687	2.7831356341426026	2.782235490170019
Si	5.439987037707522	0.0	5.439987037707522	14	0.08698254986486563	-9.384534418540489e-05	0.0045403148848494924
Si	6.799996037117478	1.3599926794325223	6.799996037117478	14	-0.06013249700655923	-0.01601515792867037	0.03999997101820374
Si	8.15998871655	2.7200016788424777	5.439987037707522	14	-0.14001905329834818	-0.4179383120007106	0.07330195556688972
Si	9.519981395982523	4.079994358275	6.799996037117478	14	0.05964295855360305	0.17588005897217754	-0.034931808211127846
Si	8.15998871655	0.0	8.15998871655	14	0.03867173800981524	0.027987252741407887	7.044828577205736e-05
Si	9.519981395982523	1.3599926794325223	9.519981395982523	14	-0.015288820675728535	0.0026199563212308927	0.0009281690205734566
Si	5.439987037707522	2.7200016788424777	8.15998871655	14	0.030755047618547294	0.012566277252223736	-0.02062489265716386
Si	6.799996037117478	4.079994358275	9.519981395982523	14	0.007043028803481632	-0.02345105162507063	0.05922875348652719
Si	5.439987037707522	0.0	10.879990395392477	14	0.0036571402073786274	0.05885362922031759	0.011215418517017935
Si	6.799996037117478	1.3599926794325223	12.239983074825	14	0.01915576307723125	-0.009345710728206252	-0.02933425481863346
Si	8.15998871655	2.7200016788424777	10.879990395392477	14	0.001953268711716496	0.0005959822132103247	0.0006294065823722497
Si	9.519981395982523	4.079994358275	12.239983074825	14	-0.02171838374982284	-0.030159322515868982	-0.004734433336520673
Si	8.15998871655	0.0	13.599975754257523	14	-0.010593982361138145	0.030099672872441547	0.06234030514497039
Si	9.519981395982523	1.3599926794325223	14.959984753667477	14	-0.021204419796325237	-0.04934825285173015	-0.05345867892705088
Si	5.439987037707522	2.7200016788424777	13.599975754257523	14	0.020658831247389813	0.0074268948277797404	-0.13570113902369152
Si	6.799996037117478	4.079994358275	14.959984753667477	14	-0.14163833542897744	-0.04010307234154168	0.07747897327000229
Si	5.439987037707522	5.439987037707522	0.0	14	0.08827530161983609	0.0291612194305875	-0.056055752410932455
Si	6.799996037117478	6.799996037117478	1.3599926794325223	14	-0.0436488836885579	0.04843499624201355	0.0073392201363626924
Si	8.15998871655	8.15998871655	0.0	14	0.040605209210566595	0.00289737858527487	-0.017722886082312723
Si	9.519981395982523	9.519981395982523	1.3599926794325223	14	-0.017876638180457576	-0.04339305870920316	0.03372004627374206
Si	8.15998871655	5.439987037707522	2.7200016788424777	14	-0.10670498455465752	0.08080135556469764	-0.4028551797505939
Si	9.519981395982523	6.799996037117478	4.079994358275	14	-0.022756338967566618	0.0004969946583846237	0.18971080582085012
Si	5.439987037707522	8.15998871655	2.7200016788424777	14	0.011695700990821596	-0.02475588757504578	0.00983062119158618
Si	6.799996037117478	9.519981395982523	4.079994358275	14	0.023662653592918817	0.0582617607756195	0.0004944235530644756
Si	5.439987037707522	5.439987037707522	5.439987037707522	14	-0.26611145751958226	0.42702408398104985	0.4232396740603238
Si	6.799996037117478	6.799996037117478	6.799996037117478	14	0.15175203531631193	0.003914250739393435	-0.015384980014702076
Si	8.15998871655	8.15998871655	5.439987037707522	14	-0.0037147329665499444	-0.11773554059915682	0.009552684706478173
Si	9.519981395982523	9.519981395982523	6.799996037117478	14	-0.039574967308783265	0.2200611614620061	-0.10895958680989536
Si	8.15998871655	5.439987037707522	8.15998871655	14	-0.0389540453739675	0.1841855004878519	0.07229202539713554
Si	9.519981395982523	6.799996037117478	9.519981395982523	14	-0.27341493929199495	0.14567342811841785	0.39374755337503325
Si	5.439987037707522	8.15998871655	8.15998871655	14	0.08809223892104154	-0.1119035024014649	0.17572913508988486
Si	6.799996037117478	9.519981395982523	9.519981395982523	14	0.1852172850528273	-0.18059340924507303	0.16687090593037868
Si	5.439987037707522	5.439987037707522	10.879990395392477	14	0.19233230480527308	0.19195100988629513	-0.11371304632578512
Si	6.799996037117478	6.799996037117478	12.239983074825	14	0.10059398142972957	0.1395559972301895	-0.14433439646768473
Si	9.519981395982523	9.519981395982523	12.239983074825	14	-0.2028668946335158	-0.2889176759303598	-0.18925006374747957
Si	8.15998871655	5.439987037707522	13.599975754257523	14	0.11656311657316927	0.19879606358012533	-0.22823033439571258
Si	9.519981395982523	6.799996037117478	14.959984753667477	14	-0.0002082595309319944	-0.0064771285225170405	0.08211441905169727
Si	5.439987037707522	8.15998871655	13.599975754257523	14	0.20713441524389758	0.11472040539021916	-0.17099033087431995
Si	6.799996037117478	9.519981395982523	14.959984753667477	14	-0.007291397577407937	-0.031139170753377417	0.049797424951160005
Si	5.439987037707522	10.879990395392477	0.0	14	0.03216632732877657	-0.006905217558321695	-0.017251345366597566
Si	6.799996037117478	12.239983074825	1.3599926794325223	14	-0.004482722125678176	-0.03804747363808329	-0.01788203750162989
Si	8.15998871655	13.599975754257523	0.0	14	-0.04900475318095836	0.04921121293816625	0.003854343985433985
Si	9.519981395982523	14.959984753667477	1.3599926794325223	14	0.017467318213490006	-0.0045585697326225435	-0.054737546713292534
Si	8.15998871655	10.879990395392477	2.7200016788424777	14	0.006832455277761505	0.021568488309658202	-0.015110643077042274
Si	9.519981395982523	12.239983074825	4.079994358275	14	-0.022777679141723847	-0.05923081037078331	0.004442612882683866
Si	5.439987037707522	13.599975754257523	2.7200016788424777	14	0.013422455323833047	-0.0970350574455806	-0.026448703317831276
Si	6.799996037117478	14.959984753667477	4.079994358275	14	-0.06906991620992597	0.04637836909642709	-0.012716429802920386
Si	5.439987037707522	10.879990395392477	5.439987037707522	14	0.03040434885287909	-0.05118710737670005	0.03150838147735068
Si	6.799996037117478	12.239983074825	6.799996037117478	14	-0.10832735201167094	0.05774342594307765	-0.05051527755654535
Si	8.15998871655	13.599975754257523	5.439987037707522	14	0.06584395036473618	0.0056710870046506184	-0.01461184864493355
Si	9.519981395982523	14.959984753667477	6.799996037117478	14	-0.016226245675454526	0.008368947817081997	0.004457525293540725
Si	8.15998871655	10.879990395392477	8.15998871655	14	0.0785452106462677	-0.2777950743153992	0.24261515444087706
Si	9.519981395982523	12.239983074825	9.519981395982523	14	0.035474311433679094	0.23752745123336805	-0.050487252508555736
Si	5.439987037707522	13.599975754257523	8.15998871655	14	0.03320402543598834	0.004657043066384215	0.04309918137111023
Si	6.799996037117478	14.959984753667477	9.519981395982523	14	0.005116756697626693	-0.02713775954363096	-0.03448109344850589
Si	5.439987037707522	10.879990395392477	10.879990395392477	14	0.15291391781048685	-0.16925817722013617	0.11138593890051912
Si	6.799996037117478	12.239983074825	12.239983074825	14	0.03226608621519832	0.01871096185684563	-0.015227885479641027
Si	8.15998871655	13.599975754257523	10.879990395392477	14	-0.0061287437516369765	-0.0065321501763682096	0.06725420163283741
Si	9.519981395982523	14.959984753667477	12.239983074825	14	-0.12884117291900443	0.07764121001570362	-0.18368696316627517
Si	8.15998871655	10.879990395392477	13.599975754257523	14	-0.07655748912326121	-0.11262495455429848	-0.19990343864151314
Si	9.519981395982523	12.239983074825	14.959984753667477	14	0.06579509936365337	-0.03602169975633862	0.056383054118187295
Si	5.439987037707522	13.599975754257523	13.599975754257523	14	-0.08785646856318396	0.023822062122767995	0.05198826379445819
Si	6.799996037117478	14.959984753667477	14.959984753667477	14	0.14171881102549808	0.016270211576429057	0.003883397475551658
Si	10.879990395392477	0.0	0.0	14	-0.007577304489008404	0.10360885952813521	0.07553984563754661
Si	12.239983074825	1.3599926794325223	1.3599926794325223	14	0.023001622415108745	0.00499900007396391	-0.00295779956029835
Si	13.599975754257523	2.7200016788424777	0.0	14	0.12319065475691497	-0.0914912401542773	0.07323382127590579
Si	14.959984753667477	4.079994358275	1.3599926794325223	14	0.002271571550350828	-0.011828112914809223	0.006159854126010768
Si	13.599975754257523	0.0	2.7200016788424777	14	0.07641196456214085	0.13259421535482455	-0.12055630024589126
Si	14.959984753667477	1.3599926794325223	4.079994358275	14	0.05249862820050758	-0.006169367215695316	0.0009963033115573806
Si	10.879990395392477	2.7200016788424777	2.7200016788424777	14	-0.06406757369904587	0.0025420518300304056	0.022719315050956482
Si	12.239983074825	4.079994358275	4.079994358275	14	0.11414087825105777	0.00602358554404292	0.008027762141098347
Si	10.879990395392477	0.0	5.439987037707522	14	-0.021694729580877474	0.051287123373653806	0.044099598451179854
Si	12.239983074825	1.3599926794325223	6.799996037117478	14	-0.05419607193286934	2.5453942669465983e-05	-0.0073916706848937115
Si	13.599975754257523	2.7200016788424777	5.439987037707522	14	0.010219629426524584	-0.01568631355822343	0.013965472767448322
Si	14.959984753667477	4.079994358275	6.799996037117478	14	0.003644541791309902	-0.0045593410642185885	-0.05454702780906955
Si	13.599975754257523	0.0	8.15998871655	14	0.14683813882844493	-0.026876021022039887	0.025521562739385877
Si	14.959984753667477	1.3599926794325223	9.519981395982523	14	-0.035981333402812295	0.0006687444937705153	-0.023081840901097363
Si	10.879990395392477	2.7200016788424777	8.15998871655	14	-0.0443348545879734	-0.08686993545184316	0.01786378265385684
Si	12.239983074825	4.079994358275	9.519981395982523	14	-0.008179457354987084	0.024687753284061857	-0.11806335652747568
Si	10.879990395392477	0.0	10.879990395392477	14	-0.0047208064783238884	-0.0015925426352997201	0.03553550374029862
Si	12.239983074825	1.3599926794325223	12.239983074825	14	-0.07498808643584283	0.023054072963639767	-0.05044868592875351
Si	13.599975754257523	2.7200016788424777	10.879990395392477	14	0.047741826247701624	-0.04572170879766128	0.06486101680084358
Si	14.959984753667477	4.079994358275	12.239983074825	14	-0.10500111305899539	0.02159162825753954	-0.015150238098972556
Si	13.599975754257523	0.0	13.599975754257523	14	0.06684693855012595	0.10128175210286919	0.1346747537798884
Si	14.959984753667477	1.3599926794325223	14.959984753667477	14	0.21828349924365573	-0.09609146179308625	0.3121512120453459
Si	10.879990395392477	2.7200016788424777	13.599975754257523	14	0.020261081254362906	0.0045493137534700105	0.027736827083225463
Si	12.239983074825	4.079994358275	14.959984753667477	14	-0.024666927330968653	-0.021310349335515337	-0.08635597149834554
Si	10.879990395392477	5.439987037707522	0.0	14	-0.013943618372227063	0.06482296444210538	0.03696195297191677
Si	12.239983074825	6.799996037117478	1.3599926794325223	14	-0.07821508072316069	0.0015583469345417506	-0.003550182226060468
Si	13.599975754257523	8.15998871655	0.0	14	0.1517067838626773	-0.030177063142578002	-0.03116411047498285
Si	14.959984753667477	9.519981395982523	1.3599926794325223	14	-0.04662185277024511	0.03841899835684469	-0.011636565568458192
Si	13.599975754257523	5.439987037707522	2.7200016788424777	14	0.047272599526774595	0.024862845556363943	-0.024020808564015443
Si	14.959984753667477	6.799996037117478	4.079994358275	14	-0.011894961653133073	-0.0693031154624634	0.003770525951997158
Si	10.879990395392477	8.15998871655	2.7200016788424777	14	-0.013246334609402902	-0.005728679763821934	-0.1164487023864227
Si	12.239983074825	9.519981395982523	4.079994358275	14	-0.06425809260326884	-0.015471369153459051	0.041323576037015974
Si	10.879990395392477	5.439987037707522	5.439987037707522	14	-0.26558695203427213	0.03131014925716726	0.03702134550481219
Si	12.239983074825	6.799996037117478	6.799996037117478	14	0.5300613867965162	-0.04987558655289251	-0.00827921624140883
Si	13.599975754257523	8.15998871655	5.439987037707522	14	0.03099287486066099	0.10656588775683751	-0.03245017735612092
Si	14.959984753667477	9.519981395982523	6.799996037117478	14	0.02849761714745728	-0.1022058073549304	0.025750391112879054
Si	13.599975754257523	5.439987037707522	8.15998871655	14	-0.028899223798464407	0.004385020123512548	0.09044685717323316
Si	14.959984753667477	6.799996037117478	9.519981395982523	14	0.015809726613590536	0.018448194893126497	-0.08715429970025151
Si	10.879990395392477	8.15998871655	8.15998871655	14	-1.3667371103314392	-3.197185920678185	-3.030153806444233
Si	12.239983074825	9.519981395982523	9.519981395982523	14	5.786252982592819	2.0530911044396487	2.0467389316356908
Si	10.879990395392477	5.439987037707522	10.879990395392477	14	-0.12472714729623546	0.16660813896665957	0.06529630493154465
Si	12.239983074825	6.799996037117478	12.239983074825	14	-0.029507804427743457	-0.024209784805046326	0.0250687910925078
Si	13.599975754257523	8.15998871655	10.879990395392477	14	-0.15633965853905216	-0.4475867558894661	0.03468369654773355
Si	14.959984753667477	9.519981395982523	12.239983074825	14	0.10203662862486466	0.05075644723557524	-0.2789271319878604
Si	13.599975754257523	5.439987037707522	13.599975754257523	14	0.052826701239358474	-0.0017185267959869762	0.02325976138925161
Si	14.959984753667477	6.799996037117478	14.959984753667477	14	-0.0016619624789437184	-0.007792506004304798	-0.0018077441505961142
Si	10.879990395392477	8.15998871655	13.599975754257523	14	-0.13193909771925083	-0.05430714368269974	-0.26269882942814976
Si	12.239983074825	9.519981395982523	14.959984753667477	14	-0.19884311480748407	-0.02186236564775113	0.2358960849077341
Si	10.879990395392477	10.879990395392477	0.0	14	-0.012911576696719622	0.048499530985549266	-0.09742175168573088
Si	12.239983074825	12.239983074825	1.3599926794325223	14	-0.12602169882493003	-0.17064683120354815	0.045246054313433884
Si	13.599975754257523	13.599975754257523	0.0	14	1.164852635040752	1.1104758144038762	3.632196886225743
Si	14.959984753667477	14.959984753667477	1.3599926794325223	14	1.1683768491030788	0.06997365972995803	0.055726136708889464
Si	13.599975754257523	10.879990395392477	2.7200016788424777	14	0.08444975401398776	0.04126701171997271	-0.022543451447058355
Si	14.959984753667477	12.239983074825	4.079994358275	14	0.04946009593315658	-0.07794511466454514	0.09371858869312158
Si	10.879990395392477	13.599975754257523	2.7200016788424777	14	0.025833437814719837	0.09062760587723956	-0.010186719278426688
Si	12.239983074825	14.959984753667477	4.079994358275	14	-0.014225925736379319	-0.09659796954115542	-0.01286169725350875
Si	10.879990395392477	10.879990395392477	5.439987037707522	14	0.05810620890375054	0.0076426105641401645	-0.01939487587200502
Si	12.239983074825	12.239983074825	6.799996037117478	14	-0.06692715703611457	0.025092445261453163	-0.01186745082620749
Si	13.599975754257523	13.599975754257523	5.439987037707522	14	0.06663456525068172	0.0038882825756599397	-0.006545777034564995
Si	14.959984753667477	14.959984753667477	6.799996037117478	14	0.0019553255959726145	0.0038430311220253336	-0.01424032392617215
Si	13.599975754257523	10.879990395392477	8.15998871655	14	-0.11845647853092633	0.051593342017283446	-0.4289652684977616
Si	14.959984753667477	12.239983074825	9.519981395982523	14	0.016605483710176366	-0.08742863663791133	0.1954507984480807
Si	10.879990395392477	13.599975754257523	8.15998871655	14	0.03175237937223273	-0.054206099243617925	0.005983990522112639
Si	12.239983074825	14.959984753667477	9.519981395982523	14	-0.2732532167673576	0.05551196363572113	0.04886719904633043
Si	10.879990395392477	10.879990395392477	10.879990395392477	14	-0.2718033704773261	-0.1415748291275698	0.3079546539418002
Si	12.239983074825	12.239983074825	12.239983074825	14	-1.816851262750611	2.2842393862631973	-1.505588367593376
Si	13.599975754257523	13.599975754257523	10.879990395392477	14	0.4714733527557698	-0.2704453126472239	0.08410805411694007
Si	14.959984753667477	14.959984753667477	12.239983074825	14	0.025447000685101584	0.31750682442721434	0.0708552917442368
Si	13.599975754257523	10.879990395392477	13.599975754257523	14	31.482176514817198	-15.341279966017648	31.626625839692696
Si	14.959984753667477	12.239983074825	14.959984753667477	14	1.1486554428554152	-0.3402379665626435	0.2895550529392245
Si	10.879990395392477	13.599975754257523	13.599975754257523	14	-0.13925774901305232	-0.025183462389786405	0.09316965770726997
Si	12.239983074825	14.959984753667477	14.959984753667477	14	-0.49464749633786054	1.0429074237009168	-0.11745374745606857
H	108.91206299883376	107.08763803360782	107.08763803360782	1	-4.37486245772424	0.9567537981912668	0.9504818438732976
H	110.91205991328273	109.08763494805679	110.91205991328273	1	-29.967456352458253	13.65362828826767	-30.229805511562862
H	113.91205365295843	113.91205365295843	113.91206018094941	1	-0.8436837853060506	-0.2446162457115483	-0.6171416386635473
H	111.08763512650125	111.08763512650125	112.91206172372493	1	-1.6755880515878432	-1.5355288890465004	-3.433582599791752
H	192.0875215856688	192.0875215856688	193.911944918897	1	-0.16846473411833848	-0.41229525004404954	-0.12468523827951707
H	163.9119863061692	162.08756297294102	163.9119863061692	1	-0.6526853699408705	0.6573372707966144	-0.36718649275471155
H	70.9121150963123	69.08769176308412	69.08769176308412	1	-8.903333803027001	-1.047325611083059	-1.0480668607468577
H	-0.9122116666140977	-0.9122116666140977	-0.9122116666140977	1	0.632953679271926	0.6680263840545979	0.40506401633113304
H	163.71477406686986	160.99977772510613	160.99977772510613	1	26.355332599687966	26.185101773325222	26.144765501731143
