226
config_type=divacancy dft_energy=-22877.09519210966 dft_virial="88.0686201489651 -88.1205026913105 29.45332019301955 -88.12050269131052 50.44180405414282 13.090364530230907 29.453320193019547 13.090364530230907 121.56478768013216" pbc="T T T" Lattice="16.3199774331 0.0 0.0 0.0 16.3199774331 0.0 0.0 0.0 16.3199774331" Properties=species:S:1:pos:R:3:Z:I:1:dft_force:R:3
Si	1.4313436207700356	1.3232727302080474	1.2034840958490933	14	-0.5702657606876717	1.6500456628953641	-0.3007560732664496
Si	2.7745104034690318	2.951631118550466	-0.0208569311595018	14	-1.1480522615473083	-1.7393635477225202	-0.885846570119563
Si	3.95664796883563	4.024375875182995	1.5379457133630448	14	108.02330569492631	132.0886843696665	-85.88105029335547
Si	2.636165954768643	0.024659485901414098	2.602171441775496	14	1.1929676717165714	-1.0096527474901216	-0.4648062195500939
Si	3.9559462098060068	1.276075355471522	3.9716786680515153	14	0.9299348557073343	-0.7673738936251198	1.8769891590783425
Si	0.11278736404015409	2.9084974181947825	2.467401068132956	14	-0.32339671249460955	-0.6154951028165245	1.1256134540867802
Si	1.387018562061736	4.027068671459457	4.220150324470462	14	-0.5283624004009623	0.28740560889158073	-0.19719837873418536
Si	-0.1219428713801232	-0.1495236332420622	5.479252903411561	14	0.2361789064929504	1.0215983599180616	-1.185947268639907
Si	1.375104978535573	1.1026592752674016	6.803749631927091	14	-0.41187718831899345	0.7506830492183145	0.15312089178875876
Si	2.7741513639655033	2.5678668492111196	5.550261125222979	14	-1.6894167415522594	-0.5109452187412151	-1.0200060743932937
Si	4.147510104915734	3.9659666759499306	6.672683893161865	14	-0.6052978420062852	0.9101342594158099	2.0880403961669534
Si	2.6085362329744046	-0.2363948731184535	8.235648131929851	14	1.7555373428494436	0.1171192466539173	-2.5468834511480276
Si	3.842832446217191	1.1583593582465719	9.539141049488983	14	1.15457721262878	0.5772236859050563	-0.6407117324649408
Si	0.0602696766604383	2.5439254423167617	8.216814877972054	14	1.0875554389168842	2.240903148981569	-1.5884972581889991
Si	1.5502999362799013	4.235327903483246	9.353125946706507	14	-1.5586076446212138	-0.26641150551044357	-0.49977196635144766
Si	0.047050494939627305	-0.0483724131117084	11.194688520234944	14	-0.09521780020529992	0.6113196277766041	-1.2297349920157528
Si	1.4391935299153567	1.5648247161953603	12.327148074295188	14	-1.2336019344172553	0.26115719467818893	0.742600779644429
Si	2.634109637612072	2.7231677544644994	10.639482887960883	14	0.1432247074115088	-0.03913967917808219	1.751204259053398
Si	4.087305708165029	3.9575292476170176	12.074270023969303	14	-1.442819716302069	0.5051229507437398	0.6108218617866235
Si	2.975099246099264	0.2644162743710862	13.598555916220842	14	-0.9939723474741343	0.3569563217963744	0.23230990720719155
Si	4.252316999991103	1.5900880412617993	15.117293016145128	14	-0.4877916440016856	-0.5339548115828164	-0.40050030438787027
Si	-0.19890788495462278	3.0876418104779213	13.731596372255474	14	0.2700179949430153	-1.1855356346781512	-1.1904251056654769
Si	1.2830439858354556	4.283112797407362	15.108529188263553	14	0.46724876960423445	-0.33029627362122693	-1.102015335237397
Si	-0.0051897528237258	5.538347541696816	0.1558231445312388	14	-0.7375153904317081	0.8624783080858012	-0.5555443829560998
Si	1.4254194689618203	6.790465170296547	1.51122991030506	14	0.6240000621050423	0.4734626169419684	-0.8933871078024933
Si	2.947567444169624	8.149837690586612	0.2058601953411234	14	-1.1889793731439573	0.35570085106854604	-1.1336121627377607
Si	4.36601828276751	9.639606830567146	1.452641191320231	14	0.04388131160949928	-1.3269672532393886	-0.8236065380820784
Si	2.7009889051329163	5.4688244378318105	2.872642427774262	14	1.1966718631513087	0.3629799073404173	1.4485607373714278
Si	4.403717430637972	6.778698466567282	4.334879765825156	14	-2.0015509843024923	-0.523967352966701	-1.118041548918944
Si	0.0870181196732892	8.103423674766875	2.762662099852601	14	-0.15723337474833562	0.871450694321522	1.2229627006024828
Si	1.487565943027065	9.70007234695678	4.114511110546006	14	-0.09632954614573196	-0.7556959332610073	-1.3381615886927816
Si	-0.0777646924687215	5.539277780410503	5.5494777663061905	14	-0.9890221984012533	-2.4578129066526704	-1.4460600803370516
Si	1.3667001901575264	6.677286126797999	6.722068144874425	14	1.8406743533155072	2.5403680131562405	0.8309249322653479
Si	2.824873853827578	8.215264480115911	5.387812069853902	14	-0.21320659467849132	-1.2916037564450078	0.7042530009049524
Si	4.254128517486177	9.100606935884151	7.022372049620898	14	-0.6563610221065541	2.677600759619144	-0.9319174350197004
Si	2.981986276576032	5.48334921774727	7.997196941654828	14	-1.8553679631096212	-1.2079872976652803	-1.773118303918084
Si	3.991670640407063	6.573311550571718	9.548214956941786	14	1.5947926095653817	2.0036104396639307	1.6019045439914432
Si	0.3165912422247069	8.382691128602083	8.05227686549154	14	-2.7811587112619405	-1.29511074410169	-0.6317133780654867
Si	1.4809726721440926	9.844063507849024	9.2837497226384	14	-0.3419690917746992	-1.5978141725376196	2.4924282117988876
Si	0.2143139436514692	5.674113433962775	10.740878907752734	14	-1.1185655401831902	-0.526673955537221	-0.960980181116526
Si	1.472421003969148	6.935794569338302	12.161679823100986	14	-0.07414450678030224	0.14923029521831072	1.29340712971656
Si	2.7857875078753036	8.223179669170962	10.727871885738553	14	-0.08268494732223812	0.9553985685770169	-0.31108600311120854
Si	4.326115937943581	9.471641622825679	12.04577534337111	14	-0.6858140619909785	0.5623025332901089	0.628559917390325
Si	2.7004013859453244	5.39148406477635	13.543688152090759	14	0.08382497542119177	0.12215758463927949	-0.7659957811735204
Si	4.051744477338303	6.762247929314717	14.881224542575337	14	0.6456688235221864	0.3884389922205236	1.0937191497008751
Si	0.053398966161103206	8.197508344668698	13.696704260503505	14	0.17617522186293055	-0.3710876308569723	-0.919373012162698
Si	1.2595595383092248	9.672312065343078	14.963052909424901	14	2.087300689166347	-0.9705755461713189	0.8538193395886066
Si	-0.1178465570444151	10.865498255431886	0.052060728011589	14	-0.6411963858177888	-0.8492304308132063	0.21375552566434292
Si	1.2356344513923003	12.312411134673098	1.2500286714882944	14	0.5454414817111098	-0.8828825999064962	-0.0026909188280669796
Si	2.7418704486028314	13.563141565191016	0.10235889846040319	14	-0.9212396346251254	1.5743384383014756	-0.8052629871754821
Si	4.195115479088088	14.878319586592246	1.3568755637428	14	-0.8425000484166546	0.09894487447738658	1.1650040731441087
Si	2.841144871328379	11.021664119489218	2.4544430060510747	14	-1.091719601093396	-0.3650864139292146	1.3948683449707753
Si	3.9981659914254366	12.055812129492466	4.196306837440703	14	1.9135057966088096	-0.07073136446780566	-2.0032728535353956
Si	0.1339543747708848	13.515030271718237	2.7482515597791735	14	-1.709392430116086	0.15888788102185092	0.9146465492526696
Si	1.323223770275748	15.074061395924845	3.956093089602905	14	-0.001741152522804279	-1.0203984250651483	1.0741198709559183
Si	-0.049286331847962	10.78902284118038	5.5207872459788	14	0.39748388362627246	-0.0029462295863576836	-0.7744937984776739
Si	1.1558624016993075	12.293382040986105	6.64854664653831	14	1.1931522770785579	0.5195630495532875	1.192619029835159
Si	2.708594014616741	13.44702492575451	5.276297664053529	14	-2.2341038609624375	1.3641042984836076	0.1979180311132948
Si	4.023510916379041	14.55446595440981	6.7387471618110535	14	0.5536579629827071	2.3352285185302457	0.9897891591182534
Si	2.731507262932813	10.97275314712222	7.932651430906917	14	1.490095915376292	0.10034766954005937	-1.4956520739731318
Si	3.874705362144035	12.19213290099115	9.504248937737014	14	0.3370479961919358	1.4896022631548236	0.392093561322582
Si	-0.1276059035494089	13.615316533044638	8.20721873124139	14	0.603871906995731	-0.7043437609227536	0.002972454860623194
Si	1.24684627588884	14.980286805594254	9.484664964817295	14	-1.137087011577941	-1.1349951602894686	2.8327970476223268
Si	0.0315791563330485	11.072631409012791	10.674130200051355	14	-1.4787727675463598	-1.0454204220408294	-0.6093756150440401
Si	1.2613384158494327	12.257739210272213	12.068704911664614	14	1.5745510687114521	-0.12546968251269425	2.0243898557508357
Si	2.6489934570310596	13.70582712788861	11.050550479545805	14	-0.09722583346033557	-0.3731684263925681	-2.233848807314679
Si	4.047941922596392	15.056713259913462	12.231806766131017	14	-0.5350786417182531	-0.6860331201642551	1.4198831428515601
Si	2.7600345834858717	10.825971270088916	13.498008535255513	14	-0.14801930461252094	0.5537723771694537	-0.3544752051624315
Si	3.952339494793292	12.32442263806386	15.017822753690384	14	1.1430298644149313	-0.577721194784505	-1.9275111215087204
Si	0.0744027771175029	13.491970143605267	13.645361611498974	14	0.1818972167529201	-4.201730653228768	-4.259340124584667
Si	1.5170561422486766	15.034061131236317	14.751121682478665	14	1.188257663880592	0.5972186577587839	2.002416418353254
Si	5.407559242547952	0.047442174398021696	0.1309188589683282	14	1.511541761962179	1.2049176550235554	0.47155177146803434
Si	6.9966354452088995	1.4401400886064764	1.6503740378996705	14	-2.144876221932019	0.5473654398221768	-1.8397073606045993
Si	8.235125892651993	2.677749257268182	-0.1085768098624143	14	-1.372894650462662	-1.772682244455787	-0.6167719137185101
Si	9.476700815829942	3.9511644564181085	1.1400320235892005	14	0.09613722746778489	2.8404710256713726	1.3879230181694595
Si	8.097385283116628	-0.1350804532137687	2.822311617370582	14	0.8699599674569002	-0.8424835933426055	0.7601416314700752
Si	9.378291351908349	1.2859326218411147	4.205576584622705	14	0.9890949606818135	0.7835983395268501	-1.1245796126375485
Si	5.315220810231472	2.8052898809078584	2.9740058076112463	14	1.8717261064879993	-1.089568100161496	-2.0496147129362763
Si	6.937426567081613	4.020524360508784	4.043861928238116	14	0.816045174446055	0.9668171044143264	-0.770555122237739
Si	5.515825972839138	-0.1623184955496126	5.587225874108951	14	-2.5131014412360706	0.17556227035460725	-0.7287376368687226
Si	6.591410405545027	1.25874353943757	6.992800250512121	14	1.4931233918907663	0.9576297737738413	-0.715341921040219
Si	8.134578511686664	2.7297447053700385	5.561015990351392	14	-0.7596016993528442	-1.043156563806439	0.4401457199824256
Si	9.497296627350513	4.038231536023697	6.917858914139326	14	1.8988183574674635	-0.35491486417217677	-1.0132132141374626
Si	8.179066770169294	-0.0388741862456442	8.079955547218077	14	0.582061734785979	-0.41320233600099776	0.923105485755957
Si	9.55550998685438	1.3912780761717751	9.755723470003652	14	0.17345422110261785	-2.227521317121795	-1.7876728169143785
Si	5.239822514490551	2.632281800139565	8.231976137007406	14	0.48562163111148066	0.23292851514721918	0.8384209898262396
Si	6.796715721653425	4.072634048452672	9.51191932713057	14	0.3950356771404275	-0.37910382302413	0.3416405045147843
Si	5.242792750383375	-0.2196995362043922	10.755795367126586	14	2.3823422237482355	1.8740946087089199	-0.1761327986251481
Si	6.603585108710119	1.337585350416876	12.315136570904425	14	0.030808012388142337	0.13982802017306117	-2.4411205195826726
Si	8.220307353142738	2.651833133104419	10.96291220073006	14	-2.2968863962224737	1.1562862263350826	0.8161408195639644
Si	9.579059714290343	3.9788757780995123	12.401257091818893	14	-0.9708758512727121	-0.4805976913159113	-0.6898026176741241
Si	8.037409366049985	0.2541183686108001	13.629841312960096	14	0.9919931105986844	-1.346904889444477	1.113182416974396
Si	9.726559670330703	1.1462662549686446	15.020760349628342	14	-2.0353862160945773	-0.07092908246692506	0.9593349308221634
Si	5.409697159591689	2.8510674176077035	13.536132002539235	14	0.020236141532757473	-0.7987184956935771	0.4258837987715641
Si	6.787364374584259	4.067281095854615	14.881795741785496	14	1.220554603359632	-0.17175394915440392	0.1915684294146571
Si	5.442141274728692	5.276656703557057	-0.035283791210362195	14	-0.3935650048973028	1.587276240272461	0.6287010710724011
Si	6.871069538838628	6.861049072694705	1.250763070472784	14	-1.006414183228863	0.2954104881953297	-0.18678591640864967
Si	8.03110985476081	8.450516954814047	-0.2179043386867512	14	0.8559423012514528	-0.5274661130863586	1.2585552828808888
Si	9.618978379091708	9.417573537589819	1.4895896202287693	14	-0.4573307308317633	-0.9743576420972566	-1.806049020858541
Si	8.15582712230456	5.5181107696797715	2.655146088523338	14	0.6742137490075344	-1.4359867468032437	-0.8578374629829338
Si	9.479915851384263	6.649003605906437	4.165200960453214	14	-0.2860416375192421	0.5294263237824396	-0.2942591472329674
Si	5.584565717787355	8.116169577142127	2.905771981963455	14	0.3608770002990682	0.37495251637421884	-1.369891085227665
Si	6.845936773591655	9.529381702983988	4.25788211229579	14	0.7671563781150352	0.07427614737269383	-1.664510701426517
Si	5.6789604672604055	5.233327163472177	5.537890582328689	14	-0.5276440335745128	1.9150733995225038	-0.2613006623550532
Si	6.875312732971234	6.576640825968071	6.815614255520955	14	1.1767046592350385	0.5903728327333576	1.223954633034996
Si	8.081065305683529	8.01968587055764	5.471729393814902	14	0.5554772771072439	-0.13716178395606762	-0.03768880444592263
Si	9.593225454702276	9.213296380059706	6.7541532205079	14	1.173084028723206	-0.44741320628035613	0.5683045215494626
Si	8.387228082328486	5.45113358229433	8.265056731264298	14	-1.4618376681341403	0.39293894075184677	0.7165192301663148
Si	9.652613852581325	6.7867442154418	9.778848878026356	14	-1.7107587154832125	1.156362331052559	-0.09393327598735396
Si	5.68424813994873	7.885127656621729	8.394164072737551	14	-17.898515458516187	-9.74917525991772	-0.42442263961812393
Si	6.768922800084855	9.560422300061743	9.624788291057891	14	1.16026861136546	0.6914069873938965	1.9257337164009019
Si	5.426229296731419	5.425478577769496	10.955649810772329	14	0.24574007584698504	-0.4755593533305491	-1.0086263622463185
Si	6.63780810138733	6.801464835086456	12.314859131288063	14	1.0816889479079024	0.2109401653387808	-0.1463239177644153
Si	8.054545342354741	8.43121042151069	11.335480965550298	14	-0.0760607515754086	-1.4584237544900478	-2.2057733656607903
Si	8.124868125113968	5.417269629120647	13.441361893585222	14	0.28498594167478936	1.1267041169635867	1.5184580352733772
Si	9.470384984563331	7.055420003922926	14.883541979370838	14	-2.4727852242634887	-2.568344724365836	0.7706721075298056
Si	5.562403188433206	8.260666657334793	13.681216601919495	14	-0.4087041872433987	0.4471668943906859	0.43599055667453424
Si	7.1014586602617005	10.02588437643119	14.612809873733141	14	0.3140546013138515	-0.37367287725638115	-0.7844380625244105
Si	5.5177517301762435	10.893682856458849	-0.2850120858916584	14	-0.9212337210828891	-0.17515937815094007	0.5977344214860056
Si	6.8447454152390375	11.999671407122603	1.1808319671719505	14	0.09214301535293484	2.1761136089086257	1.1176360856099565
Si	8.12392156642285	13.728234456904255	0.0171686162596212	14	-0.767064332544574	-1.691026767703736	0.2329984492119272
Si	9.50397149812065	14.734801705045564	1.4661541326348377	14	0.5064473270941481	1.611445915834513	0.8448590375478905
Si	8.21746767706938	10.714913823656671	2.5703474857809505	14	-1.8298960227029142	0.11938207644617964	0.9908808504371883
Si	9.408107950678623	11.932775819624327	4.03292754335794	14	1.0230700606033143	1.559461765808567	0.5907464143363752
Si	5.60870296441091	13.49725781629359	2.716737683355858	14	-0.7106159723512548	-0.7528317219343622	0.6229448804816535
Si	6.821652647171201	14.817837750225177	4.320828265255257	14	0.14247728709494176	-0.19205693942548524	-1.7695213275751969
Si	5.4377838407540535	10.756905125592036	5.528914594740485	14	-0.27631283209833385	-0.054144906936998395	1.6947343015753895
Si	6.866679464909124	12.02803552790133	7.088843317705914	14	0.41638202195042495	-0.26497862851552506	-2.122672927718816
Si	8.149821370609178	13.325620613629678	5.432055528675035	14	0.10578015797100027	-0.12682954011652053	1.0747963287656492
Si	9.586028344654279	14.912134579833628	6.508945559575572	14	-1.520744519234585	-1.6369818767636914	3.1162896913271743
Si	8.453731990368366	10.631894098454492	8.21067856645721	14	3.7412305208688585	5.76172643761233	3.248918873714353
Si	9.482119048337731	12.406316284823156	9.637876912959237	14	0.7656749072295659	-1.1443717242815163	-0.835544951415122
Si	5.455180936697738	13.403581145827596	8.175427415201712	14	-0.8214352396392134	0.16929442980515025	0.798823139680107
Si	6.756584897145432	14.791758426287084	9.502470060196806	14	0.3587998043109205	1.1654270199692731	-0.6307726106288445
Si	5.515238453651547	11.12922909075078	10.728345165084113	14	-1.0873188972274306	-0.7379244532881437	0.5056667395189511
Si	6.715784953562682	12.419421226701933	12.167930374457864	14	0.06806744224560024	0.4338269715476296	1.2373619188374398
Si	8.223473428764759	13.694223623933674	10.932149043268666	14	-0.5372921062883685	0.6931442832587206	1.3347445897223047
Si	9.45468516627269	15.103780074830523	12.475480349184634	14	-1.1191113858426576	-0.8661267065350913	-0.44905459991673863
Si	9.456872043248726	9.848779981327189	12.40923756078368	14	-0.3417158379006646	-0.39899955021249983	1.2647691302186226
Si	9.207111108612564	12.098260390795959	15.086676738480632	14	0.1273008237217037	-0.6621912605305219	-0.06841094191637202
Si	5.4062536443533045	13.88177280459486	13.695806661744685	14	0.10793937221886062	-1.8330661955626566	0.168560893457312
Si	6.848858049552179	15.135359231163571	15.072788437685066	14	-0.5386128830913286	0.4464374718113599	-0.5788108292191837
Si	10.952238935488811	-0.16334665412789792	0.1939139718600942	14	-0.7702085372405831	-1.1908459956063848	-0.9516110733299067
Si	12.0161872242849	1.424423950338401	1.3700294655538787	14	1.7577893739993613	-1.112679508773775	-0.24994229038223503
Si	13.375053825274538	2.819700420981286	0.1538484272618337	14	-0.6147839350849715	0.5579473379883101	-1.227743156724234
Si	14.79237858542954	4.202573708775014	1.283419345316417	14	0.5115309165331449	0.34838065711155247	1.0916422108232593
Si	13.375755584304162	0.1285851021953949	2.732111102097838	14	1.9293512615863502	1.2962502579795796	-0.3994836893442837
Si	15.096958324263486	1.449703595382273	3.866333213720855	14	-0.9650512692804487	-0.6399632837062458	0.8029600481402254
Si	10.772817103589311	2.7398794113559934	2.5496700743732132	14	-1.2155628023805647	0.7020014839760987	3.2680170440324128
Si	12.243100190514722	4.14664514611178	3.9610217227877014	14	-0.3763907926903096	-0.38701665675741764	-1.4499067110065251
Si	10.84304196648394	0.043492739859211496	5.514667254441388	14	2.26313678223755	1.204998901951672	-0.9639919738885477
Si	12.354108677014668	1.3580669220954165	6.900918777563768	14	-0.7965022029076093	-0.537092331404993	-0.28831269484852895
Si	13.407481620434108	2.7289613464532496	5.33362974477601	14	2.0934060358595703	-0.34554447083289713	-0.04646990044582437
Si	14.902456833215801	4.001984866144782	6.799963397162611	14	-0.004534658453145167	-0.29713827097046924	0.2053847780735368
Si	13.842882298371782	0.014247340299096299	8.168067105379384	14	-0.5623313296696946	0.7471300387764018	1.1074215983940723
Si	15.145167537600864	1.5044244797154573	9.708999374612686	14	-1.8126467342205725	-1.7400400055322511	1.216264971243497
Si	10.882585271804341	2.5900783384975687	8.26864712629958	14	0.1993244257234158	1.173271462301045	-0.14024968144556546
Si	12.135926898711555	4.304083968408896	9.452759408935584	14	0.7362730323410126	-1.780671182906551	-0.4226632322475467
Si	10.828647746387945	-0.0750392562373938	11.10832319965898	14	1.7530675390789092	0.7795323935735681	-1.7322189602588924
Si	12.261182725510597	1.5147550254306095	12.177820280782322	14	-1.1245744704269083	-1.2266393812102943	1.259482423459334
Si	13.491643744056605	2.8842948916614954	10.899590688289631	14	1.3529773259896027	0.7374806805098861	-1.6497127047564046
Si	14.97206153696797	4.390449288984861	11.961009380583588	14	0.5159737865263607	-0.8677812128086067	0.8710154061908207
Si	13.374678465793577	0.0531215265447405	13.700963774613545	14	-0.29896915506894667	0.9341249860475795	0.5126071812201588
Si	14.661068047002818	1.5764935000600269	15.058361577634205	14	1.1061545576923035	-0.5549268034582002	-0.9861320189108747
Si	10.802682662291883	2.5736604411998703	13.732298131285097	14	1.1349460521778536	0.478455703473696	-1.388090654236333
Si	12.043914865943737	4.103087126342836	14.841338517728841	14	2.147935580152463	0.7869742008122047	0.5457680120867687
Si	10.692947134031717	5.488767450255058	-0.1801562308839909	14	0.2767758881664925	0.4592420905267614	0.6370846741898079
Si	11.979712074721922	6.984672901750438	1.2176008763287247	14	0.1405990946585736	-1.1631590479663705	-0.09196380931212052
Si	13.518865466415015	8.091722250947344	-0.1225303905677148	14	-0.9216412412761327	1.3162426587279872	-0.01050656478025311
Si	14.829294374383213	9.210342464144315	1.4351135355570817	14	1.0121562327403495	1.538351705577491	-0.5175200492658978
Si	13.409505297635812	5.70172683577958	2.5575689434508333	14	0.5342114078937672	-1.3436951215628041	0.23111100079640648
Si	14.916443053875968	6.731191012259528	4.010438614455128	14	0.7511437912916851	0.43063314451894164	-0.10208805073126763
Si	10.809798172452714	8.069902441119288	2.9017735874923454	14	0.5107927521957304	0.6307497277914951	-0.14266986288342087
Si	12.201174168489088	9.654817049534794	4.037105457580814	14	0.004015038067943241	-1.2262737700337694	0.48867096202117627
Si	10.987114727263346	5.415164352031777	5.347077406180884	14	-1.2950364391579376	-0.41971674555065697	1.8962575365685963
Si	12.303663626768955	6.9315513752056965	6.600288473268633	14	0.46684099230045906	-0.24327181473964285	-0.14005299188857415
Si	13.727402138055167	8.256651942886252	5.243853548916527	14	-1.0808032021251113	0.42662093466685064	0.6381393415921327
Si	14.81364351602487	9.639721070409177	6.778600546702684	14	0.2579507692334323	-1.0407021866678257	1.7108523037168661
Si	13.488118628931055	5.53178691076871	7.9993511786759965	14	1.5982841705901427	0.011585400572587244	0.6414151868805334
Si	15.000033978288304	6.995411446901417	9.384819342881588	14	0.319288600414077	-0.3523887531951313	-0.40044116896550686
Si	11.094434898863412	7.960787072001581	8.338202870119453	14	-1.1206111115758999	-2.2090924055185694	-2.899916523336388
Si	12.178799479428308	9.506354214825883	9.877339941835114	14	3.7462585744329404	1.7043175824351775	1.046177355447081
Si	10.806207777417432	5.278957820375124	10.964772678157432	14	0.9702194480844784	1.2379633003718227	1.7361802622256448
Si	12.13837489532652	6.887993355436754	12.435072085060277	14	-0.3482659858142738	-0.1960670923933202	-1.3334035011873155
Si	13.642489295470748	8.108140148245042	11.026266353125353	14	0.2412720090216317	-0.16014206619701915	-0.09858311995884175
Si	15.235253813031575	9.527406985714583	12.126624511574688	14	-1.256074166246946	0.4241922685814387	0.16808935274159686
Si	13.662415987916562	5.545626251631979	13.470656253077637	14	-0.8898724068298509	-0.9903406612094251	1.1373983724322108
Si	14.935325267766062	6.815451055746623	14.931555352979018	14	0.7700100479098676	-0.44331614995270013	0.23803190209718114
Si	10.760511840604753	8.307374432748325	13.726537179251212	14	1.3743763784586631	1.7498233183859466	-1.9465344726619636
Si	12.091813999709887	9.73245118218405	14.995888704020297	14	1.6433227367042407	-0.685996353358177	-0.009687153514721917
Si	10.806436257101495	10.941761509976763	0.18676582174439638	14	0.0005383894540390077	0.5635569755758092	-0.3300121664833506
Si	12.346144528027315	12.238204197284793	1.4744283611934195	14	-0.3017192093193771	0.6251940834157191	-0.04345862189486694
Si	13.773979353649235	13.445539807808096	-0.0134639813823075	14	-1.362517669390544	1.600423587327038	0.22715149860337847
Si	16.291123712998278	16.545927520661273	-0.2087977912790814	14	-0.29718480797676394	-0.837681025715101	-0.7150866102819283
Si	13.69257530621293	10.812066649315916	2.7454118837058146	14	-0.23104029540010246	-0.012307366946484825	-0.6194340361669914
Si	15.01454243822633	12.099663908855206	4.14742850502857	14	-0.038777924659537354	1.5712852507338	-0.8417037770990048
Si	10.87747711886778	13.55310477906966	2.937873377574363	14	0.4791470736942838	-0.7807330997580771	-0.32210498918176717
Si	12.371375213138888	15.051213427518507	4.088660266291976	14	-1.9056081323969105	-0.9045565035342805	0.8974250287077857
Si	10.80335178136664	10.779899973795274	5.521162605459762	14	0.7385440896702994	0.8652820984374225	0.38752804960559506
Si	12.219109823688065	12.381966878492971	6.902844534900874	14	-1.8347548975369299	-0.752464568094645	0.11215444228071136
Si	13.560758848485783	13.56758059905282	5.424189299552282	14	0.26659199710391795	-0.799498054826646	-0.5368236508990376
Si	14.864251766044912	14.793096664436598	6.813329458680321	14	0.4652808455921931	0.9747790462592291	-0.36916984339867376
Si	13.341663151446417	10.921606337846882	8.341956464929066	14	1.169175177304985	-0.0977626802511825	-0.5226951700542919
Si	14.717323009214713	12.481747220518944	9.628068606521945	14	0.3907463021348244	-1.378104995393942	-0.0638909387635517
Si	10.877297599116018	13.783624460312195	8.422838273087509	14	-1.2862622851424004	-0.9284161037947228	-3.4363776483852853
Si	12.3332680658326	14.97495017297363	9.486476482312368	14	0.33034898128029	2.0345938014349074	1.572762864961289
Si	10.79897802741457	11.015903167455335	10.985433769587736	14	-0.0008883168881111613	0.37300310432048256	0.24329624024018426
Si	12.055110370462844	12.120798279631071	12.701854756159163	14	-0.7631205140939988	1.6493964588020267	-1.469297473110018
Si	13.208263655908256	13.536572641929927	11.081917476172224	14	-0.1318095140111154	0.43877274974146646	-0.6923197297825492
Si	14.682855216876007	15.070373081024966	12.381722078831475	14	52.335651747805635	77.03595176871927	-23.797240672007288
Si	13.707965044932344	10.904600921361592	13.512011075893113	14	0.17993777738843525	-2.3038443214398585	0.07463944455443075
Si	14.964668587190777	12.166200456849955	14.852370822473617	14	0.6492992242342355	0.1818866752211075	1.2611217602114604
Si	10.528556001348102	13.600416393648215	13.864114589012246	14	-0.5272426840340377	-1.6850011252754369	-0.820629969452943
Si	12.095143275106238	14.752737360244542	14.9396827017407	14	2.1509910817149276	0.8831268549119103	1.6573159774091464
H	112.01379221383193	113.88539660181921	113.86001414091751	1	0.8152028803431746	-0.40718106445174296	0.24563748874471114
H	137.2023521996542	138.9756189316206	138.95283134713077	1	16.680021338960124	8.333366033445937	-0.702768444693099
H	117.88268294646102	117.88141814820995	116.03040793974549	1	-107.19853418902366	-131.02780234867245	86.19103097828953
H	139.93026253956077	139.9476318915428	139.85553989088558	1	-0.4141305050215712	0.8004915299223512	-0.158369031968245
H	108.90734652535559	107.0463909226434	107.12591654067715	1	-3.1845988174728683	1.6341004390314016	0.049662699032384246
H	24.061969095646983	25.95071272393451	24.155787749916644	1	-3.8308649087609252	-5.589816679475525	-2.0297590949909012
H	146.8199319566799	145.0954897012001	144.99680279766216	1	-1.5601719050979919	4.773482769902017	3.1295239417415726
H	45.07805757106961	46.8785378654057	45.06473883748645	1	-0.21106203573095578	0.4392723155051712	0.03793048834601655
H	193.81188224126143	193.99910828636945	192.08427880615284	1	-50.38349992424021	-78.32624940366165	23.65969630757958
H	54.02910823375683	52.14439727189302	53.839718159641194	1	-4.501816182227723	-7.21968713603422	-9.762901619890396
H	135.84318367908207	134.03583757023986	135.9249467660219	1	4.605056859474014	4.07438586360609	9.602673935886218
H	192.92550673092168	192.99980669218135	192.79923090553305	1	-0.3947507986709551	-0.18721117722860214	1.0500589531489084
