224
config_type=divacancy dft_energy=-22869.931323532423 dft_virial="122.55454694949108 -9.107381664020407 37.57094258768103 -9.107381664020407 123.42457727497595 19.47590820351428 37.570942587681024 19.47590820351428 89.7967079055474" pbc="T T T" Lattice="16.3199774331 0.0 0.0 0.0 16.3199774331 0.0 0.0 0.0 16.3199774331" Properties=species:S:1:pos:R:3:Z:I:1:dft_force:R:3
Si	0.8575821741545387	1.3961087894919726	0.9282639964172948	14	5.57531564546989	-14.547462254174803	6.21632973992048
Si	2.580172112195677	2.8224911371223453	-0.0153081388322478	14	-0.6722363119058085	-0.01994046442094044	0.5011606203348596
Si	3.9640245986353912	4.044580007245173	1.4471087189704102	14	74.0573100573642	94.87340758965047	-87.5485254792161
Si	2.3731205585019373	-0.0993233826578466	2.5407920066496064	14	1.423128906207715	0.05353221253920711	-1.3619083174296691
Si	3.7659327125524236	1.1049114321531692	4.087778987510589	14	0.5232543854614241	1.725954719256884	-0.45769171401871206
Si	-0.11530064056485151	2.671661905685635	2.6145583046472183	14	0.27826095859941	1.379148349932858	0.9419676286056272
Si	1.275259356599867	4.197579795680486	4.053947674291773	14	0.19355306561127938	-1.8224375032796964	-0.3506008065555003
Si	0.0765243741838059	0.083558284457472	5.369729534858027	14	0.1735488377783993	-1.4589731996969635	-1.0078989965512484
Si	1.294500609993492	1.2728766398946345	6.841040780361724	14	1.5615140220751091	0.4560680610090386	1.4165353066141952
Si	2.6763620591863684	2.8201573803494124	5.515842292816571	14	-4.387459845350837	-4.207662707423414	-1.3128860807325338
Si	4.190594845339119	4.010862933868388	6.855500280367451	14	1.0648574640400847	1.6169115715240834	2.874996856352449
Si	2.93222666538251	-0.1830122269347834	8.267096728443436	14	-2.0143859420606716	1.0969620848411779	0.707008454476555
Si	3.983886011171474	1.466349972364035	9.748983319323782	14	0.8215997903797027	-1.350865677190165	-1.3991412649023294
Si	-0.071971100479971	2.7156932048001394	8.09908256076967	14	-0.15270103028997858	-0.3565200052235452	0.4805969199843153
Si	1.357316203133494	4.107509840227207	9.285675479975506	14	0.2105722401674676	-0.574735113065685	0.6720051695375272
Si	0.2034121987261584	-0.1504212320008827	10.876677439973557	14	-0.092197779896254	0.48723037171029726	1.5136176723976666
Si	1.455562467280756	1.4965908905475693	12.292533402159583	14	-0.7773914341734807	-0.4508692860516992	-1.4777278703442516
Si	2.679936134244217	2.966939257382714	10.926714490783443	14	-0.7205540657452233	-0.8272305110308271	-0.5068311931184462
Si	4.071475330054922	4.0168523655863355	12.36212178593432	14	0.8405848320636762	0.7856477675775403	-0.2435530936616671
Si	2.757553946916041	0.244473261947838	13.646389770077258	14	1.0827549281736355	-0.4549411455472176	0.3585761181480676
Si	4.021013959831777	1.511523669898856	15.27138624306846	14	1.3983658195377728	-1.1376871075596635	-2.2078816720233116
Si	0.0392658657040386	2.779455356631261	13.555977095097884	14	-1.0043213034982623	-1.4275149547733557	0.7175913810848167
Si	1.2467320360468084	4.10168360828359	14.921420646993063	14	0.6293446187340342	1.1896074941736698	-0.0745677107159986
Si	-0.0417465022738698	5.490317848111203	-0.008910707678472601	14	-0.9434074475849101	0.5007597850154485	0.09091891211001234
Si	1.4102582099264704	6.7783231070863215	1.4194953171536049	14	-0.05079475670484545	-1.0752172187065574	-0.4027222536055422
Si	2.7054279389947196	8.022052267285439	-0.0601717567958397	14	0.6655933470901418	0.5419663757603977	0.40411836379438254
Si	4.098060573293442	9.487161921364558	1.3066100332488522	14	-1.0737069514415027	0.1329783384896547	-0.25431291231595476
Si	2.7827519920727473	5.479579302960222	2.9087911777885784	14	-0.35566896936257625	0.7168251916994124	-0.876398272289083
Si	4.141504353220355	6.925056024187323	4.080614517417458	14	1.5418993166982315	-0.40428599986125624	0.07482482124801343
Si	-0.0501676106293494	7.985870877316256	2.7168519231978894	14	-0.2091429627199973	0.9794810836687158	-0.26504444881172085
Si	1.3256228069584135	9.537639611565137	3.825223190566876	14	-0.9930922581230477	-1.1343940358656177	1.5772802970087891
Si	0.026193563780125502	5.651151225714403	5.248194662913731	14	-0.4886791895582008	0.4565344595141134	1.9404360679531045
Si	1.3676467488486461	6.983644743172152	6.816152814776247	14	0.12947880703840114	-0.5279697926185757	-0.690060499537735
Si	2.7478762002982124	8.321328013453625	5.328815351433245	14	-1.729935561624069	-1.2988491312371853	-0.762083073097319
Si	4.025714113332509	9.542192885268973	6.58279345746035	14	1.8902766313728678	0.7957020749319793	3.3203948302828734
Si	2.820271620191444	5.395580379112057	8.076104032543867	14	-0.5588698505771792	1.8443970567085493	0.14796891094824605
Si	4.158591369592809	6.764222646584122	9.637011954155282	14	-1.9687439375279348	1.080171995769015	-1.0190573365301592
Si	-0.0898088358143493	8.356954524190083	8.166581987432972	14	0.4190068633717641	0.28745163167681137	-0.711677838848476
Si	1.4907320186490862	9.48053601052672	9.528239304563671	14	-1.287211023005535	0.7580937460825772	-0.9102651286766054
Si	-0.0169074966206916	5.401063891529579	10.620682273957952	14	-0.3873249322853034	1.527705786888886	-0.08197352248015315
Si	1.2963284474659993	6.744981393190497	12.035542717520556	14	0.8930981155645088	-0.18898781100482448	-0.23312957558325478
Si	2.7395693317847645	8.307619232409822	10.946608543274392	14	1.1903523433849166	-1.5369877342051526	0.5092490605615134
Si	4.2645080231336285	9.57819475548639	12.303990026317617	14	-0.6431005464178904	-0.22386973977274144	-0.44513109319819266
Si	2.6293605241790403	5.419603385893581	13.463377543142474	14	-0.06861328790506768	0.10277813539919535	0.8819652295282675
Si	4.080059638184732	6.63686154269621	14.925141601847809	14	-1.2122689593549227	0.6961589042465943	-0.217680575046081
Si	0.048470332976307	8.087054737401477	13.359810966352024	14	-0.8616486123989893	0.2845372837964235	2.3044289907896602
Si	1.4124450869025056	9.412204265014331	14.91298321866015	14	0.5462264401653512	-0.4897847648458644	-1.3523450911913784
Si	0.22402433022416368	10.70469751778355	0.0040473544034088	14	-2.052699782209922	1.1874590785681538	0.8852125355476146
Si	1.4291241038391338	12.381297759418212	1.2288453407801307	14	-0.6333748263233664	-1.3552884925618838	0.6358225185881473
Si	2.6557009677560637	13.534124645314963	-0.2942981530510923	14	-0.39528713124073794	1.9322555821559895	0.2268360239805963
Si	4.055628631967382	14.756344075257257	1.1656054282268682	14	-1.4937075470195038	0.8259148764385074	0.9259792101722863
Si	2.643330424861774	10.905661719894743	2.7107319316604768	14	0.9815245981771695	0.29707296489533747	-2.1479715756269453
Si	4.158819849276873	11.89416275301761	4.069337413011186	14	1.1668717240486643	1.7179871209802768	-1.2150799488014408
Si	-0.0671077472049072	13.591522005947176	2.591955135902375	14	0.9784714106094935	0.2783779438914768	1.3488255051186278
Si	1.5802960548019391	14.82991453352567	4.14338115062516	14	-2.13475429450766	-0.42810523376817206	-0.18466604007218757
Si	0.09765874495967039	10.890369901039929	5.3254044761497275	14	-1.086654523612704	-0.29291240226627385	-0.3873077058796584
Si	1.3793808126230451	12.21139047436221	6.664295424761251	14	0.9965326541519378	0.23250145455354257	1.685969660649537
Si	3.0107583967905875	13.34210379083711	5.337856618931182	14	-0.9836452458452277	1.7437596235989095	1.544218967918069
Si	4.2238549593477765	14.932273431986074	6.823774244237504	14	0.02953994324424531	-2.1253520194624107	0.013654883244774433
Si	2.841797670425703	10.88705694562101	8.304159397194006	14	-0.549783821486308	-0.4979058581100842	-2.498701451669517
Si	4.329037213904106	11.982633350682445	9.614947344665731	14	0.42053075749501584	0.42717115120536225	1.3960166006067536
Si	0.0556348030694379	13.437004459610586	8.280479109938577	14	-0.5084828711761094	0.7737247808764176	-0.6975154194135044
Si	1.5526173730754016	14.596228776661112	9.716294404525282	14	0.1502821344047833	0.8395497050617847	-1.2112662282800652
Si	0.0178050953795121	10.818823119973219	10.766174872774037	14	-1.110818542743052	0.3802042561011533	0.29816568465640036
Si	1.2153976793752563	11.958463464104025	12.379257762239076	14	1.8758154494996948	0.3773564998485573	-0.5484630446833479
Si	2.8955719960677677	13.226460430746164	11.071064691179211	14	-1.046786193186892	-0.2794598650101951	-0.09177354751842955
Si	3.919879059678856	14.849531146400258	12.314483771807103	14	1.7010149976514477	1.3135663952002448	-0.2427239121959193
Si	2.9287341902118267	10.902365084453258	13.723420063561491	14	-1.6870186716201574	-1.4592819894459133	-1.0671544895331053
Si	4.102450647222946	12.184364591732995	15.084359301685133	14	1.701318130968693	1.1081546205208466	-0.9087229797055806
Si	0.0816978070300986	13.56395756406267	13.521770422398106	14	-0.5998391283010789	1.284658686754224	0.896212495438804
Si	1.2809876686788852	15.241585964275618	14.791676826399918	14	23.190230216747253	2.536617284715209	-49.85865505302774
Si	5.353050517921399	-0.164178972976986	-0.0733093386294852	14	0.3310159260003364	1.3620877805810154	0.7637378364813664
Si	6.608268942233418	1.2039573751946533	1.5072804757662497	14	0.029024693738087637	0.6758093769692182	-1.3278856520597457
Si	8.006270849107631	2.6904461997111335	0.2194220965880295	14	0.8151650850949682	-0.40024550785064356	-0.15348136075464353
Si	9.46175171650122	4.308931001706527	1.3616409971532653	14	-0.11778464871077164	-1.3900218114422962	0.8094716294740324
Si	8.101351037632872	-0.10180401922767779	2.581657230142089	14	-0.44738543834289857	-0.14089811420730683	1.915616159855587
Si	9.197825041453129	1.2258587849098734	4.188473248272816	14	0.30811149136632926	1.1430943991584668	-0.6918867556466363
Si	5.189002104763878	2.628299725645889	2.6706174271299172	14	0.4992117225021873	-2.153260082159958	1.2719229736614026
Si	6.934080971707828	3.869434009433144	4.204466826157254	14	4.399941019016964	1.0283009743771554	1.2269841664337264
Si	5.410872197966872	-0.09625522690042379	5.360329227856561	14	-0.01316483057075421	-0.2685792044058604	-1.1001289152640044
Si	6.629794992467677	1.1544262436851946	6.8013832351992916	14	0.30375758161719046	1.0406787896094123	0.4051563190121264
Si	8.091591691127878	2.660303201392198	5.776390732536012	14	0.6257872374130773	-0.8219857132882571	-0.6030684365831848
Si	9.718840321004846	4.02076916017028	6.859955634206687	14	-0.7593497310314696	0.0827610520397145	-0.009741403836977042
Si	8.151208568690992	0.0054835124175216	8.111534703551126	14	-0.13949094826558978	-0.4020918185810418	-1.1100490109207317
Si	9.312897202333916	1.4606869401947493	9.329347739586481	14	1.833873522633183	0.5504029436473996	1.7511320109939017
Si	5.366122819845312	2.5990543260857737	8.133272913492016	14	-0.8983647677023	-2.333520533266072	0.078880225669483
Si	6.537456560151198	3.872094165754739	9.455876524625305	14	2.3470648589820797	2.6244418715724227	1.5254943792030267
Si	5.600624575581525	-0.0677115863699319	10.734889476034786	14	-2.783926763249612	0.9843031916966536	2.0512591918990433
Si	6.684728036507493	1.3440807014352498	12.2772579032822	14	0.7557712666468874	0.39224911319445105	-0.48108311600035525
Si	8.115990057390363	2.783731190718733	10.884086709728185	14	-0.9236515885259564	-0.8347913604457866	-0.08878566602588547
Si	9.532090819237883	3.949597738584531	12.32326391966611	14	-0.11477028483343002	1.2367062869808023	0.4898814384059019
Si	8.164166630772874	0.03756858805099619	13.483875434798449	14	0.5175046226339769	-0.6723954633251256	0.7195137965326914
Si	9.49200895466219	1.2451653182132307	14.997145342282646	14	-0.9120399626791036	0.7118783850634476	1.0276479136258378
Si	5.480183142125247	2.7517766749047237	13.755978418540526	14	-0.34134637006615937	0.0020864519673001658	0.722807125337269
Si	6.651516882431134	4.194054680554936	15.378282095255264	14	1.51002840937074	-2.154555919241312	-2.5006526634969775
Si	5.251507618332651	5.444964630824618	0.147858995543886	14	-0.08189227555203647	0.9812237788547122	0.7304263388429958
Si	6.83527982832784	6.679097644293073	1.3826611280870984	14	-0.5331315436593049	0.7267784546147698	-1.4278371142699702
Si	8.088050256024895	8.249161073244458	0.0366546693147426	14	-0.6920765032192631	-0.4837619506334176	-1.5410626790270552
Si	9.483783686035908	9.490572796648076	1.2862427014123434	14	0.28284241116938186	1.2698879438005053	1.8484578604511912
Si	8.023259945615488	5.5371561833442	2.8768203419971354	14	1.002141520407841	-1.6048188918718314	0.12363622730889665
Si	9.125315381717865	6.9228528272338545	4.354577978586907	14	3.104365419073391	-1.9120091562019514	-0.9674156577328569
Si	5.620306468365844	8.213289762846504	2.47105674307797	14	-1.2618532396750426	-0.1411341416756964	2.0249534420370123
Si	6.956161901174812	9.409739948421933	3.983216892096717	14	-0.1554978786572357	1.3635093447125255	0.6574586269677254
Si	5.557409275338677	5.331067508319013	5.527005157380811	14	-0.2180397584593057	1.5696456568711414	-0.778370511079393
Si	6.768710640378226	6.713663356496379	6.996096885953607	14	2.0711819156932747	-1.7726040828540544	-1.0750943198722545
Si	8.070669480058644	8.194423868933841	5.713852579012373	14	-1.038431129338539	1.5903654233146187	1.0220331338276984
Si	9.680455734082194	9.53271097838034	6.875541212655298	14	0.11844105189900542	-0.38803944245377253	-1.1693888361570892
Si	8.260356577763565	5.221054540442485	8.23990764603989	14	-0.6722355405742124	0.8295997845833436	0.6236437069076699
Si	9.668884870082127	6.747037710347068	9.610083991390667	14	-0.9621623753427303	-0.9230437792282734	-0.22741323712496953
Si	5.528669795078987	7.974903852481213	8.215737759461469	14	-1.965098881515561	2.5698423932148224	0.6002548760313469
Si	6.963489571042273	9.273043817442286	9.655910488022812	14	0.7196130411980491	0.06868887840148002	-1.827481754807295
Si	5.360655627405223	5.4361844829656105	10.900390367183853	14	1.359993872408287	-1.3607523484777306	1.4151026867298087
Si	6.736870364406247	6.752439622877424	12.446740868924945	14	1.4190233652325026	-1.0913473050430385	-1.2789199796796535
Si	8.339002549013674	8.034373850247428	11.020113721633074	14	-0.38755864575890486	0.1652860766110394	0.7900279026009445
Si	8.110751344634338	5.290300204691129	13.845003895438085	14	-0.5217634014862702	0.3954097729645091	-1.1628201762851749
Si	9.407993710836589	6.975811154004264	14.770607735533785	14	0.3250525043207849	-0.06746143272164135	1.111167184624464
Si	5.387240870643743	8.083268502636997	13.65729151500257	14	0.5870900454605925	1.375833938064655	0.9371460347987535
Si	6.828441757783371	9.830501606602116	14.887311894157882	14	0.14704742680150498	-1.193520202249871	-0.005410891146251632
Si	5.447396307462149	10.959795085040335	0.10116754010778689	14	-0.3433793430428005	-1.4165095955609939	-0.6345922446924563
Si	6.765397684959305	12.162104142514247	1.409882850445509	14	-0.5302637327852118	1.9993251784268402	-0.6913002865231105
Si	8.09449664711097	13.377305982160307	-0.09945394247731139	14	0.02889973801952844	1.717120915597919	1.593809676001489
Si	9.477402574859564	14.91340753807341	1.369066586885326	14	0.5412467233812883	-1.8590659838915902	-0.6465265442569877
Si	8.13593306981361	11.19392148129559	2.774543043423898	14	1.2389495763726315	-3.3585407772547184	0.29848630148982286
Si	9.403081397629226	12.470600675932136	4.158264970044148	14	1.994605914611708	-1.2113963262092646	-1.1347755878951278
Si	5.445617429921941	13.617323890268908	2.629964363344065	14	-0.4288451978793107	-0.9818225892837745	1.4490775295407776
Si	6.903513653975631	14.810330560605951	4.13316484475204	14	-1.2542054869002621	1.0038677605197883	-1.214708424082679
Si	5.594716743750744	10.831177342890076	5.4523739005792455	14	0.6031949349649361	-1.187128177313451	-0.3807133349545426
Si	6.946174074985755	12.127146750852548	6.8333377510133015	14	0.050690369828847434	0.557164179307793	0.48913684630518717
Si	8.249210033176757	13.66329726669795	5.545838411338608	14	-0.8622109131325056	0.5363017165190476	2.0206159873619223
Si	9.6473751398253	15.12466964594489	6.777229668598303	14	-0.5475011941830805	-0.062326935397305626	-0.31919989728053183
Si	8.441932646684235	10.85794210588036	8.225448146034164	14	-0.6108470586187609	-0.14449997565030226	1.302592660583321
Si	9.768077692920508	12.463925805161999	9.456333483993433	14	-1.6807521166233605	-0.9543672982331054	1.3859864616423239
Si	5.5345939468872025	13.407334740637209	8.286321661859628	14	0.48393755712678366	1.3613074501163505	-1.1183451964572535
Si	6.9173529948389	14.994240386299554	9.47616225657465	14	-0.36880063267470053	-1.521508908846265	-0.6940166592938468
Si	5.8817688268215385	10.701041842838537	10.984389291032018	14	-0.7750429865740575	1.4137420577943864	1.4118024159408666
Si	7.229358323404905	12.133658421848352	12.760737234737787	14	-0.3480860084418635	-0.051421592181897555	-1.31184941106745
Si	8.16114743494775	13.704733689400593	10.881655033090652	14	1.4800755466120787	-1.596948224265794	1.2783286254560193
Si	9.672393665230242	14.875741030157815	12.329041191677428	14	-1.5157018103701787	-0.31860957149902586	0.19057084055043963
Si	9.531829699598953	9.825507693507587	12.180317237329586	14	0.024114653908200848	-0.756405044108304	0.044093427798411494
Si	9.07317305381911	11.905521457311048	14.846479310620266	14	0.7201668572840089	-0.5769604047202732	-1.447435107462267
Si	5.469281397199937	13.636385623910767	13.62391716115188	14	0.41505507449469653	-0.5041371889639951	0.877303301361775
Si	6.9229833870533195	15.010462443868056	15.026227542068431	14	-0.372680687713336	-0.4787069004634744	-1.2253306886023392
Si	10.853698911747752	-0.1327303764634023	0.042350341438894504	14	-0.817468538351289	0.6126594307589333	-0.16925406345162394
Si	12.02155649686039	1.336916231342119	1.3692134666822238	14	-0.20096401958607424	1.10387115905748	-0.02884600191833734
Si	13.435600941551339	2.6745831816461605	-0.0062179114020111	14	1.1272016258430355	-0.08515449398224034	0.7316733249232676
Si	14.801387212972612	4.147248985276805	1.3698662657795477	14	0.09373324399344643	0.14648641162064868	-0.1005304751283219
Si	13.472908409963406	0.0716283809538759	2.5802700320602754	14	1.8049020507752227	0.6307530702284113	0.36258678533696664
Si	14.942081738423367	1.3841788859883766	4.048333602054786	14	-0.0414040516335366	-0.8862949708873968	-0.5182540998348001
Si	10.633917775656196	2.6431345851325765	2.8631442009081978	14	-0.05038235141149369	0.528148484438326	-1.1565968158577564
Si	12.29041180509328	3.931825283159885	3.894126135289424	14	-0.5383819978335793	0.5598880082839579	2.1704265810509904
Si	10.846501801699755	0.0240230067815232	5.177382280831511	14	1.439099841124879	0.3079780510002135	1.4978197728685487
Si	12.334818463688745	1.4696629277829543	6.692431065855915	14	0.5729669639370192	-1.8198622841910361	-0.4288541967479312
Si	13.840532221621416	2.774053444100905	5.4702279558910565	14	-1.3899801595361099	1.310197475899255	-0.06628052404809733
Si	15.052829105284383	4.354349498902844	6.814308657326307	14	0.6630494954863874	-1.0855602611884494	-0.8080150983101684
Si	13.825991121728524	-0.0035087951481165	8.142314180989953	14	-1.6441832856548946	1.3911741808467866	0.30123866973504143
Si	15.074844754841635	1.2755694361710959	9.727016629698829	14	0.38611599856376977	0.2617403213647985	-1.8386899742294165
Si	11.080073318722283	2.6727879841285196	8.135084430987089	14	-0.44779450119933406	0.6398938638626017	1.3795792671845146
Si	12.410510519023463	4.298306696397578	9.483995845742536	14	-0.2904942777126746	-0.6910791714655776	-0.43642610191576736
Si	10.638242569675969	-0.009873586347025499	10.895298534224725	14	-0.42606968968621084	2.9359647054775246	0.31301921720142784
Si	12.130802425797562	1.5494512974533803	12.121695878389891	14	-0.7498461544366063	0.408396683047109	0.7249036046153178
Si	13.707149046060689	2.789198383158822	10.794898033056294	14	-0.6226851988443186	0.2668969301948875	0.7387621194014479
Si	15.109883746390501	4.142891551302168	12.157240789239182	14	-0.35551804548028354	-0.8897569642009762	-0.20788055000780456
Si	13.31204239240534	0.2982149476350363	13.688740111516152	14	1.798122817377588	-0.5892240628763155	-0.18021957053152346
Si	15.19352363073514	1.057175498161352	15.342019105398917	14	-0.937310071318179	3.512661057681419	-0.5969288941892033
Si	10.796073071431477	2.8347311201971706	13.968219725057992	14	0.2878187855165285	-1.0138724455415487	-2.351184026815489
Si	12.14163889081314	4.230513510140481	15.138280507124096	14	1.9227610044297465	-0.3482904113148153	-1.3985517104524194
Si	10.790263159465294	5.63576148699499	-0.0962062669681245	14	-0.7972393388028959	1.089448800874641	1.180371569642634
Si	12.00433892066847	6.943644478483623	1.4880065824177586	14	0.20934993669826918	0.26424097839917454	-0.509399470222742
Si	13.391585962414268	8.365685712116791	-0.0658021490102592	14	-0.5367460035183691	-0.6840155738195349	0.6514093303704809
Si	14.90893586425674	9.361840814655784	1.3770144158952458	14	0.9479670457596607	1.3336621543825222	-0.5621279552388708
Si	13.470019773957748	5.5740393323430055	2.785542708213807	14	-0.12011818389933804	-0.39054781280410905	-1.3061312728354408
Si	14.754826317355977	6.951347507832048	4.108603278715225	14	1.0744155480677353	-0.7557825795102961	0.026737952666347934
Si	10.566140909376532	8.197247225029768	2.9739078877466474	14	1.1218560407719156	0.5570628777581792	-0.8039105857770841
Si	12.293300441098937	9.695551713207813	3.96785979333217	14	-2.1777891982457662	-0.9300816658211147	0.613159767854234
Si	10.879353916272587	5.480656421470807	5.506393025882806	14	0.43597204471622913	-0.10263543905392714	-1.5037502844000024
Si	12.378425443389988	6.798151879667537	6.841693579459048	14	-2.3074695799412672	1.7999354466282926	-2.3009991362925826
Si	13.560399808982254	8.377876735259319	5.389264547845447	14	-0.6792410312400199	0.14515457906481197	1.4109894324386358
Si	14.810967039725842	9.853675974557119	6.767078642634916	14	1.7005732817574462	-1.1529371045450578	-0.2679215156649665
Si	13.788357253767796	5.786362238747637	8.07765443040001	14	-0.012478088339742658	-2.5352093474418957	1.5198831989523354
Si	14.82811933600803	7.110646807556535	9.533298497567932	14	1.7855879076102703	-0.6389353557992504	0.8283065186073091
Si	10.941271910653768	8.095998085034815	8.228173582265493	14	0.8022457950822882	0.7885114646831213	-0.08985935960757932
Si	12.396328458634098	9.625718529771577	9.434383114345913	14	-0.6713420814754609	-0.5115486571598539	-2.072889900957449
Si	10.973112186625746	5.461937407355041	11.02615211328332	14	-0.4069239539197282	-1.2923398638981665	-0.572998588532457
Si	12.385867353099481	6.725952299503503	12.23782883780383	14	0.03251188388380447	1.2471825127182774	0.27737624125874705
Si	13.515666750838127	8.40857461281098	10.900863646529412	14	-0.029722748832507837	-1.756304560676976	1.0639403507723881
Si	14.97625577116828	9.510091489658064	12.23345508385176	14	0.8314720634774755	0.7660032373789489	-0.3471467836684134
Si	13.754525940548978	5.337399659563055	13.55184814080731	14	-1.4059971172385042	0.6438623649242503	1.1425616661361322
Si	14.709930059437518	6.969935962128348	14.935096788082001	14	2.222662956508843	-0.8278799722346964	-0.13492595076966687
Si	10.868386891437543	8.185219401661573	13.397689633974247	14	0.6005652084434886	1.2038789284742157	0.40977428127764437
Si	12.301656269544685	9.809791555239514	14.751725521643689	14	-1.3576834771676018	-1.7078309978551598	0.30129934782059686
Si	10.801442344006968	10.847350440526277	-0.1061124932700162	14	0.16048916541523914	0.633733752626059	0.07130986316483898
Si	12.243410270085953	12.363868023519663	1.269514724543416	14	-1.5445156734720142	-1.4556569880550363	0.7753006113271363
Si	13.601836231684896	13.643403214207002	0.0516037686434622	14	-0.029137051040578104	1.5406155638118815	-1.3434814627107
Si	14.942130698355665	15.022310747484488	1.3741910597993192	14	-0.38108151723638783	0.746298800426398	0.15737092888296353
Si	13.591358806172845	10.9321653632461	2.6297032437051353	14	0.5538425683446937	0.10224308838207254	-1.211469345600357
Si	14.871693675754406	12.24845314311278	4.044628967177473	14	1.7687859914536348	-0.7964487239169504	-0.9303966262228328
Si	10.963842439443745	13.638882580458034	2.8387947945780123	14	-1.3682322080751053	-0.5878711472568536	-1.7184344933059825
Si	12.317731447316289	15.017741153803218	3.8924614975912477	14	0.6234652721984516	-0.5387802620476703	2.493132694656608
Si	10.794653233394797	10.979836017328182	5.304547544990225	14	0.5462128133071543	-0.1685189844405936	0.9533200870362091
Si	12.039198392465572	12.454851897709196	6.800436676508172	14	1.2273122394725773	-0.5998735811123689	-0.06552153375758961
Si	13.717969191098835	13.51857170682122	5.423618100342123	14	-1.6810349382085767	2.2868881389640143	0.9387547753975701
Si	15.10139735812529	15.021054109222138	6.766621683266788	14	0.46323964507852766	-1.6450708312114095	0.23768660265268524
Si	13.642326095696417	11.170045354310965	8.214481121199121	14	-1.79169145452977	-0.05903977724549631	-1.1646520888257805
Si	14.696368158190614	12.416826350290071	9.739550372367448	14	1.8580349706582107	0.7573424691080299	0.5791435302476109
Si	10.933226161779249	13.943723438930908	8.253959146609791	14	0.773663074348734	-0.14825173253346235	-0.7552873846256357
Si	12.132189623879375	15.41922891863491	9.590761138109878	14	2.330382756333363	-1.6411720071039366	-1.1180343498240477
Si	11.218287207603208	10.912826189987875	10.805652898184707	14	-2.248946337754589	1.1836823819633886	-0.08421089832974601
Si	12.343712851389784	12.331358628472927	12.257168011062054	14	0.38754399045858	0.7103498629506195	0.8694552594825551
Si	13.457779790882922	14.094617950277351	11.113447672572974	14	-0.2396072183268358	-1.2492645938065334	-1.1044496577545133
Si	14.944023815737905	15.134428992449884	12.472379553472345	14	0.5638631942194389	0.6973423840254583	-0.2718254819830794
Si	13.846880692842893	11.008216458084345	13.615659252570731	14	0.12233987600647798	1.3046580294869958	-0.12010789947805743
Si	15.105917991874259	12.429229533139228	15.129973638610647	14	0.7118773566213195	-1.7864445999029437	-0.41434904897378383
Si	10.753380010466488	13.378986939835915	13.82349416518126	14	0.36661776425789483	-0.4282165626285345	-0.47269822733028827
Si	12.101818145876376	15.02069506971861	14.870257517740294	14	0.9334500709010408	-1.0188714456155124	0.6193463614755743
H	161.95598805087985	162.45336873911296	161.94699574331423	1	-43.38534976412176	6.804431515324552	-35.36128924335283
H	164.13114891511606	162.03799267348572	162.4599979139463	1	-22.981145875228552	-4.043392988745429	50.38206190503465
H	139.86040487615838	139.91809599638438	139.95506237726812	1	-0.20711256084867638	0.2915106356457291	0.07707633817686711
H	70.94448087555764	69.19824981820692	69.01933227361009	1	-4.714711673162476	0.10291826063914343	-1.4672555012647563
H	109.8713414803649	108.01887879390891	109.87995842844958	1	-0.0001172424025987524	-0.6181502832806414	0.7113513084728172
H	117.89337742767293	117.8928943563409	116.05092704737213	1	-75.38255749825495	-94.41917812605585	87.67778677074442
H	20.036860453477242	20.072873747678866	21.842171461133532	1	1.8368827442998845	1.8287439104089558	-2.923560150749938
H	-0.9260363194976767	-0.8051101827116357	-0.9953129917034429	1	43.274950872553646	-9.006670382501733	35.12243792999011
H	33.140100158610274	35.01709993113694	33.14997864095053	1	-5.850280704159402	13.906114173143125	-6.655999291197614
H	192.09122622054613	192.10163510215295	193.92948073464885	1	-0.32352295376582885	0.0441299374939576	-0.28639207917437837
