68
config_type=vacancy dft_energy=-6371.6025059824615 dft_virial="-302.6150421814049 206.29682029916987 -94.59503874041668 206.29682029916987 -110.98982868672647 67.55368917908669 -94.59503874041667 67.55368917908669 15.1006490114435" pbc="T T T" Lattice="10.840815016574142 0.014255686002481 -0.0067104712057306 0.0142340043507662 10.828911789782719 0.0012033316701714001 -0.0067104712057306 0.001192490844314 10.845964408856409" Properties=species:S:1:pos:R:3:Z:I:1:dft_force:R:3
Si	6.996583365841687	9.535932994266133	9.67143681298812	14	-0.6274959940088477	-0.3938231438714456	0.171685557752888
Si	1.2728051026785479	1.193123948544072	1.2754047327191524	14	-1.0461362177619586	0.2690443173582752	-0.24091282560840704
Si	2.791456285986042	2.656140013551389	0.16559578313695647	14	-0.1767087262168613	-0.2706589714993282	0.1810346109180104
Si	4.185249341563517	4.007009903229075	1.4872995149278927	14	-0.07338705915298661	0.41117707634031714	-0.05426523466598132
Si	2.7589717513043426	-0.00944994789989558	2.762871196365249	14	18.487326344767556	-65.1720266992373	18.45393771396958
Si	4.141041537799625	1.3203497126413473	4.152475356831425	14	0.9686564731603603	-0.2770743934941617	0.7994918841738775
Si	0.21159774358024766	2.772622519223981	2.88256800690456	14	-0.5994130961495303	-1.2605126653611174	-0.5516100775952092
Si	1.5252586666675791	4.053526802900592	4.2787167739408485	14	0.00256364911471965	0.3690407739116024	0.008335780558452088
Si	0.07124915978259001	-0.023969065970711398	5.548409475515736	14	0.6376464607022603	0.3496806079614193	0.30215141212369395
Si	1.473552263658124	1.3251673756523756	6.955703695616017	14	-0.060265680262142914	-0.8974522824241794	0.40483775906296005
Si	2.8133265680707606	2.622237498847542	5.586378383998694	14	0.21728128238986202	0.44445334983580165	-0.25570799406266714
Si	4.162763300570098	4.0290330409583825	6.897735631591328	14	-0.34158548286093315	0.4390630275321111	0.04458630868828388
Si	2.878350925646031	-0.13881785918659276	8.320100767798566	14	-0.4098095054205304	0.4588908775400291	-0.6034345619807739
Si	4.1264226841309215	1.3154117164633015	9.685755375780573	14	0.24645201491013408	0.40474237105558253	-1.1846226351789666
Si	0.08602845767398344	2.6410062206544587	8.349059865911439	14	0.1233539199447444	-0.18026533620622212	0.018080783942877335
Si	1.4259718789699953	4.03164459590743	9.672514391078344	14	0.07170889871052596	0.7476499162721358	0.1869931474974536
Si	0.10998993506659466	5.510376606160221	0.21386672843220147	14	0.4342905418368523	-0.5937106416599739	-0.8004519349004209
Si	1.528243146026121	6.81391219789674	1.5353753253577047	14	-0.0037638410781647737	-0.16617105106223437	0.0469375845035593
Si	2.864840004379954	8.086315105935979	0.11645106727760507	14	-0.5696700355849933	0.44216223788501763	-0.6363606509316543
Si	4.239974914574257	9.444587111509096	1.4217884042716247	14	-1.023933180659288	0.19713950042235395	0.49137267949158786
Si	2.847102245112076	5.386411762480851	2.863333129585775	14	0.30244554657231887	-0.03785746895492434	0.4186103989313972
Si	4.237666902749217	6.745916369953955	4.253184460881499	14	-0.3263133743697855	-0.04975525882390958	-0.9799230566732491
Si	0.16914073319232628	8.182636927761562	2.85492390096819	14	-0.11674309394557965	0.5710705166528779	-0.4817965977266964
Si	1.526051131037755	9.48359023477885	4.266015662366319	14	-0.07126024083216012	-0.09050136460602029	-0.11594090908569346
Si	0.09937459838702858	5.408529215395118	5.589455010377025	14	-0.3547230597152938	-0.3588411991065749	-0.43298107789730095
Si	1.3980133890837607	6.720361291160306	6.975616124550889	14	0.5053818610494788	0.11808135426471673	-0.08763586772671526
Si	2.8455628478403248	8.007045903184084	5.591613418805233	14	-0.5271038443467498	0.5121032445774097	0.07593193919886919
Si	4.253272271570944	9.338774146645358	6.878533276750115	14	-0.39732293243323125	0.7405845188523689	0.23745237495801969
Si	2.840138098581282	5.4246538597754155	8.347351351756313	14	-0.4271644663315299	-0.7993209056700876	-0.47179448381025635
Si	4.234269387925508	6.63315009938528	9.714482480220099	14	0.18128452235512882	0.8794411754354781	0.14131437615863882
Si	0.09613969595118044	8.130149985290375	8.311685034685466	14	69.7824520266198	-19.71074721633809	-7.889051266186891
Si	1.3809737790010996	9.556043810314197	9.667975337291852	14	0.25367424975443	-0.471668499649569	0.9605292092433723
Si	5.486314309087135	0.00108733483349722	0.1326320839523603	14	1.124363639790656	0.31691572731411227	0.04624390028818335
Si	6.885408528508878	1.3309000043657688	1.532713902609713	14	0.23042940077603524	-0.18243997708600337	-0.5906811082612434
Si	8.337299738021331	2.649160689864395	0.1887875618936923	14	-0.4635492061590734	0.0815906848979831	-0.09720140795979416
Si	9.643689719206105	4.098661497275291	1.4839616246463994	14	-0.09015375116673627	-0.06868913551201204	0.6078069836882178
Si	8.237024267005554	-0.0653539186813359	2.811044574227778	14	0.39288289065586746	-0.3577063132182615	0.10383820212269242
Si	9.580046482845066	1.3120803306773223	4.1592356958361	14	0.30701440072622205	0.6505780920204771	-0.43925945997857047
Si	5.58238137150507	2.7121599811695036	2.832012899601161	14	2732.9857435621984	-1650.3211097791902	861.7773083044577
Si	6.937066147801975	4.14524669414971	4.162805579790941	14	0.25290111838466145	-0.29895681376341	0.41370087332257444
Si	5.53552406990163	0.005442094580414799	5.601427618453937	14	0.4144853175557517	0.28249454061956586	-0.09318636989185093
Si	6.990474560471042	1.3763751006723903	6.957769957024438	14	-0.47238326692857024	-0.650176742480002	0.35257695810456613
Si	8.264123079401296	2.6922919996206467	5.536969151988422	14	-0.513893248101297	-0.37143781540157644	-0.8565416259015792
Si	9.590924167510382	3.9460161647075847	6.8750913145403905	14	1.0727646413416683	0.3916572447497529	-0.023999211279326197
Si	8.40549070082955	-0.015370122900621721	8.397883693325412	14	-0.08625055618021947	0.769338989421309	-0.4560688323406346
Si	9.814704831189175	1.222615331206543	9.892785879427098	14	0.20260155656447654	-0.24512763855972572	-0.18971157715244616
Si	5.497975785461939	2.708392794184057	8.233590977456513	14	0.21242729265595445	-0.8107062742487674	0.7515022033733136
Si	6.86752333400934	3.9526984497660864	9.672129541760407	14	0.834016172191762	0.30070130872313044	-0.4416230770993826
Si	5.660864614382303	5.361046398139706	0.2316164126085225	14	-0.07996831744096966	-0.1798380185020135	-0.042615813570922395
Si	7.037402327442555	6.76745167051968	1.509105836140053	14	-1.3288899257977953	0.6293716153398957	0.07205985458672619
Si	8.312387520201026	8.07011674393985	0.0893988704330491	14	0.1497496584929806	0.7853742019714764	0.2499134940026494
Si	9.722957837875413	9.551292276340899	1.3279610564758277	14	0.17633540172437578	-0.054899526348461854	0.19669392787037232
Si	8.3546808341185	5.531181235063157	2.8726172128500522	14	-0.40476936766144417	-1.6185241687808805	-0.5817272339838278
Si	9.640873272648353	6.838911142323903	4.130151928225867	14	0.7173093308311963	0.13063323332714763	1.6306829258398605
Si	5.5186134656466725	8.147651414554563	2.8371395261491252	14	0.8670286502813992	-0.5376844569602232	0.30240723710304873
Si	6.898271168388684	9.447932590368689	4.2596586020835385	14	-0.16136951187685783	0.22747982875276135	-0.33196954896357933
Si	5.549776503656354	5.415261368252564	5.587382244473089	14	-0.2429139168790783	-0.6417404317035321	0.04659948415395983
Si	6.844382507134133	6.749081891104317	6.968786404260727	14	0.7621602062569235	-0.18365379590764527	-1.241898377064309
Si	8.225070088332599	8.050027609543504	5.590531504384664	14	0.3211809339297059	0.25348758750818723	-0.09331929603690259
Si	9.592757351162868	9.464488699618112	6.874698876644352	14	-0.3694696342790031	0.4968668744502124	-0.47202074107842934
Si	8.310808011873602	5.298601073035911	8.193092904301025	14	-0.9839882312949355	-0.23476839811431713	0.7623658946825353
Si	9.547550023254924	6.694599152592781	9.560690188276679	14	0.4257218191363948	-0.503146799194674	0.6324481999659849
Si	5.559745727114819	8.144489145651958	8.395819600082161	14	-0.33496385821942376	0.08949066310467009	0.40357020414012706
H	0.02007937765307628	0.14119525229712057	0.10635066982626548	1	-0.4611917596910297	0.30575455911934946	-0.2748087354860472
H	45.947440845971705	44.12431856396362	45.912008690739384	1	-17.785054637622306	64.84912261052203	-18.404461162962374
H	50.11364394058636	50.06008700860305	51.90967283061163	1	0.02972429149569993	-0.14626555367364794	1.0756003133992595
H	31.868763848090335	30.054310974520412	30.07944000885787	1	-69.25842528112018	19.788076037057394	8.219769458191154
H	59.71488640614781	56.9998915490166	56.9998915490166	1	-2733.5033248037707	1650.4340003289244	-861.1707884160928
