229
config_type=divacancy dft_energy=-22593.289754047637 dft_virial="51.25196990769066 -197.0459048631374 -48.350538501142516 -197.0459048631374 -147.47812209927525 -75.03013816107959 -48.35053850114253 -75.03013816107959 -85.72991477862506" pbc="T T T" Lattice="16.3199774331 0.0 0.0 0.0 16.3199774331 0.0 0.0 0.0 16.3199774331" Properties=species:S:1:pos:R:3:Z:I:1:dft_force:R:3
Si	0.30927989233467806	0.065769509055393	0.16865064679365538	14	-1.7557430312750553	-3.0606630563941746	-9.0003722029095
Si	2.335715170225272	2.4875888802177006	0.1100945677636926	14	71.3115400397288	102.12397781434817	-11.220099985584861
Si	3.9082102758141892	4.020361160734453	1.4433714441382304	14	53.43625040401162	112.64999094946396	-106.29465928550975
Si	2.6027263210082214	0.012468462758888401	2.7300711049187	14	2.2636278633536984	0.3702065130637575	-1.136654808773624
Si	4.136314600396628	1.2881847787268823	4.158346569931313	14	-1.0304159656135092	-0.17074736142156596	-1.0480483487885528
Si	0.0313017167166858	2.7702019294266935	2.6656398340128216	14	0.057626183540478895	0.1948671575404071	-0.9791977478624354
Si	1.315569700859624	4.176983984159913	3.953514533168475	14	-0.12464821436290692	-0.7664547234731669	1.0565126846130122
Si	0.0874913990188491	0.3199041976436262	5.342524132477049	14	-1.3837663121983759	-0.7298714943149079	0.05557546993712879
Si	1.220897511770211	1.5520298538878101	6.934586891008253	14	0.7115125167763905	-1.211695859979062	-0.8912672314660313
Si	2.553766388708921	2.5231337910669924	5.351924439478514	14	0.7570264802641838	1.9595118696548794	-0.25887353893283344
Si	3.990870961512841	3.8700052086433026	6.7488165878872755	14	-0.563950868910856	-1.2093605250167714	0.4562652647870939
Si	2.5175523587848723	-0.0028233560959263003	8.075206433785045	14	1.4527662943435942	-0.39572550469782325	1.1263565035243028
Si	3.962784280350476	1.3697683459149492	9.518545237968409	14	-0.3790750266445443	-0.05180674375885574	-0.8992186317791212
Si	-0.27557913893532665	2.752054114521086	8.029787936588729	14	1.627802259439167	0.3308498325966548	2.0689383691909136
Si	1.2649124909072818	3.9793980173773718	9.463089954650735	14	-0.1565263207852949	-0.2789510432673378	0.8800443567435849
Si	-0.0357733905333552	0.059600557585681196	10.743457464187163	14	1.0341314699116553	0.3598968949510277	1.128966946755849
Si	1.4369413730295888	1.5292634853686355	12.196441375033489	14	-1.5982929123482315	-0.9511783563045256	0.13633388804297997
Si	2.852781015238179	2.7898348622787124	10.997836952436893	14	-1.3712262602204177	0.013747443036299765	-2.3388689465530437
Si	3.882489991379624	4.310252919878607	12.216563907208503	14	1.6408544755968986	0.17320071011805122	1.271253457836036
Si	2.6893527612231156	0.2197484961366915	13.603680389134835	14	0.29132808716799863	-2.2291477983473205	0.7310045804294971
Si	4.1441808295193825	1.3785484937739572	15.073343316917791	14	-0.927603891624088	0.3053169569938603	-0.02232824993176196
Si	0.0291148397406504	2.871304189624748	13.569392116547892	14	0.0027395127186177785	-0.7753222086118255	-0.7395419356450488
Si	1.2226763893104189	4.210195138236272	14.921730726564292	14	0.7341025052297436	-0.27637916661559364	1.9014753377053046
Si	-0.0582786394136001	5.644884354380093	0.0584091992330649	14	-0.2756070636879532	-1.3284836911572122	-0.5762515509835083
Si	1.544995943614144	6.9388790450731594	1.1253277239219774	14	-1.9310029396440131	0.22839848468365026	1.0221413773616768
Si	2.8307816856583603	8.301172841323748	-0.08548404179457779	14	2.0600181763931915	-0.874992649010558	1.4978195157580168
Si	4.217065848735607	9.431347598543356	1.4876312229367974	14	0.44341205218114166	-0.06606018032216064	-1.757718411492525
Si	2.587777221679502	5.656536818267327	2.692453556935405	14	0.6159193351943489	-0.6199091764301548	-0.03731599417450116
Si	4.010308054635663	6.747592589579793	4.140476194642068	14	0.5870357951383375	0.2921999489820608	-0.9616039312671942
Si	0.1201966337947815	8.453927830097564	2.396882445644531	14	0.3517616606075472	-2.3595815139016243	1.877832738733883
Si	1.4434204040705294	9.52097691460594	3.9830210523675196	14	0.6350635282976396	0.5530727794118414	0.8472704772276572
Si	-0.0275481219070728	5.54200321664183	5.320802242513593	14	0.44559157816103123	-0.18895155841981037	1.210396166239727
Si	1.5475745000485737	6.608774861533845	6.856740598652367	14	-0.8078706021911761	-0.5108973961822603	-0.08300530704512857
Si	2.6948362736406373	8.04326823794847	5.474879149459491	14	-0.019003296531746466	1.1916456093609513	-0.06691558706217392
Si	4.071328450258024	9.306565051089873	7.013542941829591	14	-1.3711465559554932	1.4014832847384524	-1.2032886026927097
Si	2.8386968747134143	5.17532596367494	8.27817799312051	14	-0.5776219501191473	0.6461943574496246	-0.7189103581140525
Si	4.0789009197869825	6.696951699604885	9.513273885257519	14	1.9511231243268319	-0.8527109360850905	-0.9742776807218
Si	0.22626016713249839	8.018396592340425	8.191061953582622	14	-2.3033812653717	-0.7066449001842862	-1.798380185020135
Si	1.3893033589023698	9.214797817983554	9.556750305139298	14	1.172453850809238	1.9069029410361371	2.0331030745702856
Si	-0.07782997237845389	5.5010727132396156	10.790948598517485	14	1.0455638897176938	-1.6405613695904018	0.4122703103224441
Si	1.2934398114603407	6.726295019029598	12.125628992951269	14	-0.4266533305938845	0.9951915656169485	1.79815238508877
Si	2.8741928256304066	7.813091276232027	10.929847926450599	14	-1.586547074803667	2.567460778356769	0.2697809390324976
Si	3.9616255619527254	9.443146942227486	12.216531267253634	14	0.29043257118499105	0.3955799801367028	-0.8150375582710889
Si	2.6008332036259816	5.570089897804196	13.657471034754334	14	0.12355600882290804	-0.08955648340086589	0.0892217254881826
Si	4.111883594179278	6.846377412982348	14.980809044872112	14	-0.3467184375220767	-0.09967481127777664	-0.5430452115527319
Si	0.1316695779302508	8.309300190085432	13.708976883533197	14	-1.0662386618180684	-0.7505897180951931	-1.7051053691052709
Si	1.5694106298540615	9.558627102544104	15.034061131236317	14	-2.345098734743763	1.5500309514942638	-0.8430006426224874
Si	-0.0041126343131412	10.94859958052123	-0.0756594153798516	14	0.874092247927442	0.13412119480446053	-0.4254675368202322
Si	1.3191927358497724	12.21555206860765	1.4190709977403444	14	1.792890103830023	-1.1233663080369707	-0.45628583362965514
Si	2.8075909977259252	13.31204239240534	-0.0934971507142299	14	0.9023978035074843	0.5612182981766026	0.9679928708772301
Si	4.236535581813295	14.74098697649271	1.4310335411988067	14	-1.7723127766212818	0.9287423770598496	-0.9148959464687241
Si	3.0331657258062337	10.868713290986205	2.740874929979413	14	-1.9449198185209107	1.1192970196467722	0.7539462960906465
Si	4.265340341982717	12.299077713110256	4.201006990941437	14	-1.9504361249852886	-1.6489951092615516	2.529454185293276
Si	0.0240230067815232	13.529016492378403	2.7214867967888896	14	-0.6453073261141735	1.461504967105713	0.8905393515498973
Si	1.3033949976945316	15.137138108703777	4.082018035476705	14	-0.1894187282564813	-1.6447540710359672	0.4091343331634595
Si	0.18069479013928322	10.843580525739233	5.60290937242216	14	0.44977630918010414	1.153986115515678	-2.409823225852106
Si	1.5065623967591932	12.291831643129958	6.882542482974098	14	-0.49152231782122047	0.25386785398503714	-0.14798408046963493
Si	2.7587453052686572	13.791980288757944	5.554585919242751	14	0.6997093435831867	-0.4157400169519839	-1.0101003769263592
Si	4.300819972922277	15.079659148184401	6.848188930477422	14	-0.9538931864120702	-0.2861563088165207	0.08885097210101724
Si	2.5632319756201194	10.772817103589311	8.281425668629698	14	1.269097843135624	-0.6599610837758255	-0.23844327894840478
Si	4.101830488080488	12.007358116493593	9.530981060772433	14	-0.6842893965361306	2.277197385901844	-0.4918203089278257
Si	0.0272217223584108	13.660555510489191	8.142738500403214	14	-1.0897393357758178	-1.0151412860170415	-1.2307274386693299
Si	1.2730071997140993	14.800995533514218	9.527504905579182	14	0.6964088156837126	1.9997807782895702	0.250115068659749
Si	0.0429868205587854	10.869545609835294	10.777794696706406	14	1.1543427278235825	0.1929887079935069	0.141474298909552
Si	1.4508786337574562	12.198644571986957	12.334312544388318	14	-2.339581656947789	-0.07022588516186455	0.257233687959643
Si	2.5382950501023425	13.579412582691816	10.975853942834508	14	1.1336419875594743	-1.3809506947622818	-2.0934996240932238
Si	3.8954970133938045	14.940188621041127	11.999051247980145	14	1.6797681546173397	1.3076068301786736	2.756262955557479
Si	2.784922549071349	10.875959360966503	13.645655371092769	14	-0.39598801455101035	-0.7937788881525085	-1.2247593890002022
Si	4.2638225840814385	12.002233643579599	14.804177929113672	14	1.363677752110995	2.049932244443315	1.1242528251513575
Si	-0.1434036417046497	13.684970196729108	13.718279270670065	14	2.357017607676373	-0.20588151562138945	-1.2304381893208132
Si	1.3791196929841154	14.821085425734363	15.190863474413543	14	0.9486422180167314	0.6462468079981557	-1.578496429825219
Si	5.523643242029593	-0.0386620265390139	0.0508693696589727	14	0.0876628643325768	-0.45894975585186054	-0.011589771451631497
Si	6.795573323233107	1.4307071416501445	1.4492303160367133	14	-0.9083396279023465	0.7904382510100402	-1.6281989809900657
Si	8.219279194564452	2.6188014987798245	-0.0821547663982254	14	-0.2788448566176157	0.38947489055401124	1.8950336904362057
Si	9.382159186559992	3.9795612171517027	1.6546172320322767	14	0.09229471056682358	0.43073676006334366	-0.77866618819121
Si	8.168605664634676	0.1088868894336432	2.535602253825881	14	1.3703487419746512	-1.7910610195052694	1.4205405744819217
Si	9.375973915112848	1.340376066557936	4.29073422686862	14	0.08225094474419713	-0.35736769864759804	-1.365587054921737
Si	5.396657497622642	2.781642233607297	2.8294597674862794	14	0.23619973244604361	-0.3877458222262116	0.6325700703581599
Si	6.778013027515092	3.910756192293753	4.253818437914949	14	0.41535897914353803	1.520953035876049	-0.8517400867162026
Si	5.630539094216398	-0.0482744932471098	5.295555237424588	14	-0.031130686105820923	0.39453276893980654	1.0256655914240036
Si	7.039736505609716	1.3424323837145067	6.66302246652147	14	-1.9163345266820364	-0.43987266859742585	1.3001632231663127
Si	8.215019680454414	2.908203658600987	5.596185541719723	14	1.3977047883599627	-0.16866708010703413	0.21818348324670198
Si	9.612270868366702	4.325920098214384	6.831722073247424	14	-0.5958708843499623	-0.7408328876262952	1.6789978514634236
Si	8.198210103698319	0.1701520847175006	8.290630135901965	14	0.5035946857414437	-1.8560318225032832	-0.9490260840410297
Si	9.659696722787292	1.4829473894134977	9.456757803406692	14	-0.7797835905633465	0.9738048544534248	0.33049681983619844
Si	5.385151913532306	2.5492131150050863	8.069347561886563	14	1.4980236615204363	0.7352060236331511	0.3769219830494523
Si	6.828327517941339	4.295515980256519	9.642544426505104	14	-1.4925248385722358	-1.771549672562262	-0.8764975169544406
Si	5.294853478394964	0.121910231425257	10.890304621130197	14	0.8862556329759985	-0.8228920279136093	-0.04969869450686632
Si	6.7232431832496085	1.522637574530797	12.18002347773579	14	-1.175619138568872	0.02263395435432757	0.2632529026246417
Si	8.10218335648196	2.770463049065623	10.823996552819512	14	1.1696667726421972	-0.015349755871816046	-0.43784149539450884
Si	9.522347792710322	4.035555059724668	12.217673665673953	14	1.7719011426595261	-0.6507755529090644	-1.0830272082270394
Si	8.224126227862083	0.1953338098967739	13.334123321872323	14	-0.9461945257519507	-0.5152081113620206	1.2900281831048213
Si	9.508883811328014	1.2266421438266624	14.946194372736509	14	0.42359808614195255	2.157151964283066	-1.758877979991912
Si	5.2216583796075104	2.8376034362253963	13.55842509171285	14	0.6797979326523639	-0.4870614500907636	0.004130737807349904
Si	6.797858120073742	3.858499624552967	14.963085549379768	14	-0.994677858773983	0.5584440755361627	-0.22628555033155254
Si	5.3822469575492145	5.333597104821143	-0.105590253992157	14	0.2722389157185592	-0.6648793511427368	0.3885575201757824
Si	6.938634245411662	6.533817205183617	1.1766377329716438	14	-1.3158757619988017	1.093213413284402	1.0321617461258898
Si	8.156169841830655	8.261792735777677	0.1910253358544355	14	0.07781347407215355	-1.4449290511067185	-1.5320620106328127
Si	9.453787567513869	9.62531053033575	1.465876693018475	14	0.810923018427256	0.2162029608185919	0.2451739184554884
Si	7.961864190512166	5.555548797911303	2.971117171605587	14	1.1775433537904707	-0.8336549318942811	0.1386494254943053
Si	9.398560763880258	7.114269842546684	4.229338471765298	14	-0.5358841690150554	-0.1815583450717246	-1.3812283741368578
Si	5.53526306596196	7.974234733406456	2.6789242956433648	14	0.7317471156459558	-0.6448211300981335	0.5738894765258884
Si	6.736299165196089	9.532613058515743	4.131908206489691	14	-2.0579317244258917	-0.8028523188273111	0.6705285837521662
Si	5.371002493097809	5.320704322648994	5.645879873003512	14	-29.637244411091523	72.83869638141076	501.50909252332053
Si	6.718673589568341	6.764549046132784	6.809820663532204	14	-474.9774502329614	-894.2887972664851	-449.3070600905609
Si	8.027601059612692	8.454760148946653	5.640967559796149	14	0.6627394201847775	-1.803345760724937	-0.26015574915599127
Si	9.686135086228914	9.531503300050291	6.790318290499649	14	-1.0770938684797335	0.873394192833022	0.9167358294358219
Si	8.016307635228989	5.660828972332231	8.275305677092286	14	1.597381712622771	-1.324905483883162	-0.8680979729840488
Si	9.233647391918781	7.068361746027374	9.684666288259933	14	2.5780102805958687	0.42082900571215304	-0.7106098016984866
Si	5.499865034909567	8.117752614953137	8.229022221092013	14	0.33651809138545324	-0.5390566558695862	1.407554178620386
Si	7.063857432255839	9.460984677561864	9.672050945704148	14	-0.5334704153405004	-1.623270943422938	0.4471455542165287
Si	5.464744443473535	5.560314231321769	11.042031451325727	14	0.05203840034820107	0.015592211103506011	-0.5240378012524732
Si	6.9406742425908	6.720191347469619	12.437144722194281	14	-1.195117372874747	0.7675042486648513	0.6052541332158428
Si	8.461402379761923	8.265889050113385	11.580802866324658	14	-0.574144015952583	1.137593262215478	-0.9843001063702694
Si	8.176586133599464	5.0696704297730495	13.57880874352679	14	-0.9113051407786052	2.7401668078112236	1.7224194494416802
Si	9.35971921758948	6.74525883280686	14.979128087196504	14	0.7396974875169178	0.5083139495565756	-0.2745475111855202
Si	5.301871068691197	8.300438442339258	13.625940838353584	14	2.8382588466539174	-1.0142200589808326	0.7557951779263649
Si	7.0034408757985025	9.595281771858845	15.009466925244638	14	0.9676971937654131	-1.7313018469911956	-2.7211691677111816
Si	5.6863207770827335	10.73870835075413	-0.0726075795998619	14	-2.068255997838946	1.456828383638896	2.177530030829496
Si	6.867772903397142	12.122071237870852	1.5167623826548808	14	-1.0516710361846415	-0.3570727928673771	-0.3992898280031445
Si	7.988645273479883	13.125602970209606	-0.1975696468051086	14	0.6392251193688312	2.6964050525991117	-0.4669821459825352
Si	9.431820877888915	14.739028579200738	1.152353606551191	14	-0.16684056688760093	0.8371758035196919	0.09349181720388453
Si	8.094415047223803	10.79971242639906	2.9611946253262627	14	2.0411377786957483	1.5136228146083068	-0.8512898861746448
Si	9.650329055740691	12.352182919677562	4.033482422590665	14	-1.2079690428175072	-0.889577243939098	1.2376804787866063
Si	5.5108810196769085	13.470868412784268	2.894331677782852	14	0.958547658373134	0.6685879134565184	-2.136626573401792
Si	6.86255051061855	14.967753062925635	3.8636567374218265	14	0.6839584952814276	0.6682451851173425	0.48875812249152933
Si	5.489224409623184	10.739916029084181	5.809928286161034	14	-0.9969831118040278	0.37406497081770373	-2.1145816592763103
Si	6.9779327510705675	12.137232496906202	6.799098438358657	14	0.2875228512941794	0.44775464906687173	0.4562120429069668
Si	8.077458590670814	13.674427491307323	5.368554496482844	14	1.6227436097217756	-0.5177121108333128	0.41134342685453074
Si	9.595804011136705	14.847425869311387	6.887193676542531	14	-0.8981431384237032	0.7552454756089172	0.07517397735048953
Si	8.273298319868013	10.772327504266318	8.262771934423665	14	1.1226363712365806	1.3012040065999089	-0.4251916572193803
Si	9.72644543048867	12.21072135528745	9.635624756073469	14	-1.6835281390375245	0.766717233326354	-0.9940191415909609
Si	5.586001875801467	13.479061041455685	8.112334382445349	14	-0.5988685360427229	0.7502251353607962	1.4568900901665796
Si	6.820657128547782	15.076427792652646	9.656498007210402	14	-0.14459562076821178	-0.8327558163638253	-0.8548752925435913
Si	5.417351229007813	10.684444425789072	10.773812622212729	14	0.9712242360435924	0.3395918477956903	1.5678955054797168
Si	7.067562067133152	12.12742419046891	12.119998600736848	14	-0.7811059100294986	-0.6025524157454311	0.1575434500499455
Si	8.345106220573653	13.699739776306062	10.939933672504255	14	-1.2870351594016367	-0.6404463943959016	-1.230898931394184
Si	9.542829364388862	15.146456815818077	12.13158578471435	14	1.5798745422768186	-0.08896538628776382	0.2033278938174184
Si	8.887468030607865	10.368212223067895	13.005308416550225	14	-0.6152919854962329	0.09769763128658275	0.27377283715255957
Si	9.51244156640843	12.053967972042527	14.70039919261659	14	-0.7139470964040388	-1.073126910081277	0.6308407449198283
Si	5.553769920371096	13.612509496926142	13.394980517720352	14	-0.5915154319376313	-0.32064357291779494	0.051444217908714854
Si	6.893281028125077	15.074045075947414	14.748608405953968	14	-0.22698591942076093	-1.0163782447865648	0.7790719086107295
Si	10.7503281746865	0.1416900440741742	0.06501879009347039	14	1.5623390897723448	-2.821303435509669	0.7393835555573276
Si	12.268820474949287	1.2729908797366662	1.4822129904290082	14	-1.3697270487082394	-1.403733516114646	1.7779296133036773
Si	13.557152133473068	2.3056537717935015	0.0879157184321097	14	2.52347353720808	2.451205680200953	-2.1085791567958925
Si	14.91903793028783	4.013229330596188	1.241933962681477	14	-0.2730536989945141	0.2700316218012121	0.671379105392071
Si	13.68098812223543	-0.1192174351487955	2.9036993448294512	14	-0.5585983418553716	-0.03749751421010361	-1.9275172921614885
Si	14.864414965819245	1.5095652726068838	3.9249545726605497	14	1.0098239831044433	0.21380206267063762	1.1116055580815491
Si	10.830067584424624	2.527654424815961	2.8842948916614954	14	-0.4058412614694138	0.43326364237198517	-0.5922278852218444
Si	11.988639102377826	4.123650297908542	4.059659666393357	14	1.5932818280792629	-0.19118559183248704	0.03741523883985887
Si	10.828223426974684	-0.08979251583691619	5.365339460928523	14	-0.6335368059585357	0.1979144315658466	1.4709383525253366
Si	12.186094509340903	1.2746065575025431	6.713679676473812	14	0.937571295618706	0.5681057751082152	0.22498508526062166
Si	13.533994085495499	2.798566050205421	5.40054165225172	14	-0.5815094613632111	0.11247788732998598	0.023989441079109636
Si	14.966953384031411	4.131761326692794	6.7564706573033995	14	-2.2335433600026455	2.0896882175666365	-1.3322827563782629
Si	13.691857227205876	0.0082089486488493	8.10797694847071	14	-0.021961610313108847	0.9434390721803481	-0.3020735076324935
Si	14.929776475438809	1.4865377844487797	9.532351938876813	14	-0.9650096173742623	-0.6027557901762548	-0.45123746833354433
Si	11.098074253830994	2.810120594228056	8.172408219376589	14	-1.306448290121415	0.284163959303938	-0.8762046680584756
Si	12.176204603016444	4.23903253836056	9.636440754945124	14	0.36907368405970026	0.20183948094758464	-1.5353429981318536
Si	10.985156329971375	0.1336442951996559	10.73438355673436	14	0.08016449277689695	-0.2832149643302713	1.2885917065624546
Si	12.376826085601543	1.382122568831806	12.21266343260199	14	0.13887028344130603	0.6613160562795436	0.8745051674418578
Si	13.60953926103332	2.9442381687732717	10.773404622776901	14	0.7983580267276923	-0.8964657493128386	2.157207243047449
Si	15.02991585696831	4.227592234179957	12.294850838955082	14	-1.7343133826526853	0.019386134113916514	-0.4319086698682672
Si	13.71266519843308	-0.037862347644792	13.912242202462457	14	-2.693248249487034	-0.24605092248019092	-2.1782921064463876
Si	15.327526965438324	1.1536755247232722	14.749277525028724	14	0.058267417207323834	1.5229880657369461	2.5815681761378895
Si	11.01688236610132	2.8445720665893304	13.649816965338209	14	-0.07967983942404903	-0.7317327174561631	0.5607763251720691
Si	12.307841540991829	4.1036583255529955	15.405960776981802	14	-0.2944116137784522	-0.15294528529539264	-1.9230242856145299
Si	10.70869591225466	5.490317848111203	0.22162529354149801	14	0.41646866819971395	-0.0400843032727046	0.04366379609941476
Si	12.29251708218215	6.937655046765676	1.3768675360983476	14	-1.4278445704753986	-0.6143671589125755	0.2971277294386566
Si	13.564904122753791	8.241490683850902	-0.0030028758476904	14	-0.4123315026290636	0.09782618655259015	-0.16752293823956824
Si	14.985541838327713	9.585897784834813	1.1689673435780867	14	-1.320582170287333	1.1484518113140594	0.302273796736933
Si	13.440284775074637	5.431990248765303	2.7013153046815783	14	1.6006539583637234	0.17440424451841258	0.49271531068976915
Si	15.032624973222205	7.084436923798977	4.13079844802424	14	-0.5530262424055467	-0.44255921654644853	-1.8930544535607559
Si	10.93012536606696	8.333649596415617	2.7491981184702934	14	-0.2071081899696321	-0.3614696400753623	0.6087747477307215
Si	12.331081188856563	9.713976967729781	4.0882196269012825	14	-0.7362164680239692	0.05938790490584436	-0.29718197976091176
Si	10.674440279622583	5.5500979254486476	5.262442003212827	14	1.1419240320167354	1.1824698486944067	1.1379185070384767
Si	12.177477561256227	6.978536590235592	6.702337292157807	14	-0.26719749240681284	-0.3146084173998114	-0.9269839981314003
Si	13.633284828198478	8.439354090249806	5.4859277741816985	14	0.15840039945315085	-1.2463181071096439	-0.36050958934881905
Si	15.147125934892836	9.55918198177683	6.78189718214417	14	-0.465244593007179	-1.1341160993805097	2.2242758108761715
Si	13.335543159909003	5.578886365640636	8.066671085587535	14	2.5498417649293903	-0.7127751865991153	0.7658798243235817
Si	15.00217189533204	6.815614255520955	9.539418489105346	14	-1.5928943625075163	0.2821060466056915	-2.38763227294444
Si	11.07142373068274	8.39362551348226	8.15608824194349	14	-1.4020566412248454	-1.680519174481355	0.610364719260701
Si	12.185849709679408	9.668509510601165	9.650329055740691	14	0.2932929258536558	0.088117692863711	0.7201138925144139
Si	10.825954950111482	5.575965089680111	10.832825660610817	14	-1.833539021831032	-0.06575627567331913	0.6248958351985819
Si	11.99939396750624	6.998610162478305	12.190990502570834	14	1.9206403567616883	-0.022305624204944658	0.572529618922062
Si	13.657993274032192	8.209046568713898	10.76666447209703	14	-1.241389555321452	-0.7875143900399677	0.7506935907501271
Si	15.004929971518235	9.528957383570727	12.007733475974554	14	0.1985844616122772	0.23259247168187583	2.451833544120134
Si	13.603957828751199	5.560869110554494	13.743085636368377	14	-1.1368581832044478	-0.3806955943278336	-0.36514015003040573
Si	14.90652050759664	6.981017226805423	15.03216801385408	14	1.2087113209234341	-0.18026070821664583	-1.0290278258511614
Si	10.755681127284555	8.540864349883687	13.478114482764564	14	-2.423518218339875	-1.9786105541940031	-0.368357117006975
Si	12.21791846533545	9.410898666819682	14.839347480482003	14	0.6312765472715934	2.3078886701084516	1.637128943988004
Si	10.793722994681112	10.959713485153172	0.0115382240452017	14	0.5084571601229079	-1.059057307548363	-0.9683258290161891
Si	12.236033640286191	12.298131154419135	1.2309342978915676	14	-0.7603228943951457	0.018170258408018492	0.9587258359718204
Si	13.654761918500439	13.495935898121509	-0.0370137088182708	14	-0.395930936012903	0.36547079417457673	-0.4415166333391285
Si	14.945949573075012	14.94041710072519	1.2522971483514953	14	-6.00286680604157	-6.583982888290798	-0.11539840586314219
Si	13.556499334375744	10.951096537068494	2.5306409806862185	14	1.0776127175333394	-0.24932188266848332	1.089726480249217
Si	14.978769047692976	12.13990897320523	4.118672704791447	14	0.04395715921644365	0.16590956965117531	0.19954579789148053
Si	10.924674493604305	13.675814689389137	2.6806052533189746	14	0.1707936413173286	0.08808529693667713	-0.8845023962581895
Si	12.225670454616171	14.952820283574347	4.149582742049739	14	1.217220908201528	-1.672011386976985	0.5826294348406676
Si	10.937240876227792	10.967873473869721	5.547829448585447	14	0.3670967611790384	1.0554544176632392	-1.1985294867451155
Si	12.268167675851965	12.241076513313018	7.047929134281133	14	1.064044480537854	-1.144051107448094	-1.2062176058734224
Si	13.766455844052576	13.478848881749053	5.755631721241109	14	-0.7079703049768226	0.7831864484545625	-1.998416292696168
Si	15.131116037030964	15.138362107011261	6.719440628507696	14	0.12822179364738073	-0.37961187343539116	0.05282027347605811
Si	13.672224294353855	10.784959166799537	8.244722039382655	14	0.3131290033985982	0.45115802117915177	-0.31166064515026165
Si	14.993865026818593	12.262472003727812	9.475297297770695	14	-0.34581058023353245	0.5134728723814527	0.5467820560250352
Si	11.057257990270811	13.593774162832945	8.295787248770825	14	-1.506714768834133	0.7737276090922697	0.014802367549156523
Si	12.324226798334662	15.097709043225409	9.447945015592818	14	0.5303665769980177	-0.7556766499711061	0.9778098652106195
Si	10.727725005941654	10.904454041564696	11.190804365605867	14	-0.715653024783957	-2.0319041681595005	-0.03265072357109247
Si	12.088827443839628	12.247065945030966	12.26919583443025	14	0.8987902856327845	1.90274829194931	0.7905765764762641
Si	13.54274159339964	13.62080004546216	10.965458117209621	14	0.14990135370686936	-0.3355665253064664	-0.7914044723893519
Si	14.853578500803666	15.162760473273746	12.200521369391764	14	-0.3845861908982817	-0.562161893829097	-1.2754428168446852
Si	13.525752496891783	10.847529960278042	13.405702742893899	14	0.7745531910105693	-0.28979390862346627	0.8610042934057602
Si	14.928862556702557	12.242528991304564	14.83796028240019	14	-1.1322525622444664	-1.43449961948607	0.14274031116919292
Si	10.648344635707057	13.662105908345334	13.636059224362105	14	1.7867600745257257	1.0684762947781934	-0.7031661946861258
Si	12.187367467580685	14.846348750800802	15.094004408348095	14	-0.5865123180951554	1.0078581159766582	-0.1989079066615518
H	85.843691665262	85.9871801708493	85.89967245185302	1	-0.1565695153546734	0.24118870520925895	0.07535832560194415
H	86.96715075176789	86.84220010854685	86.92253030146806	1	-4.374736730674084	-125.58034262856287	-518.7623286807706
H	108.84434978046608	108.99103047363928	107.10498780161694	1	0.4877044835313326	-0.16034364085411876	-0.059241866123659954
H	117.95210649846368	117.85032859119988	116.06911566222131	1	-52.97368593119017	-112.66025942989154	105.56044699408285
H	4.078752407992341	5.947784767536172	5.865670801081529	1	-2.208315931711885	1.7247187889294886	0.9565450244392708
H	170.01660442483973	170.14857918634797	170.10239201821454	1	477.84104603699274	897.4073238194408	451.7017767871045
H	169.0450157843308	169.18661770052682	169.03870321705963	1	34.22599840595154	49.36154006691413	12.605155707101291
H	114.0549905433085	114.13989848989969	115.9294362393669	1	8.89341833535985	12.043796512353145	14.565494444227129
H	179.06645296691144	179.0593178727777	180.8605260381073	1	-4.148057544118017	-6.561730485965982	-7.7000176895073675
H	1.9540398579973624	1.9393992062421281	0.16111734521053644	1	-70.28467219945708	-100.47088873408534	10.008942000838775
H	187.19621382125987	187.02765946233305	188.95147309012657	1	-0.6274402010234006	0.49901580427679204	0.2780182462571881
H	0.8599502028800816	0.9266287346784983	0.9477549454656462	1	2.2591543972071726	3.845282638954187	3.8200251287311806
H	2.2153422806742133	3.9306796207440815	1.9927508444686757	1	-0.9293165048778385	-0.029599592887672745	-0.10064643197826059
H	113.51426725900858	113.23568687622331	111.52466943417997	1	0.47977982271357217	0.12140656477526424	0.9288758174259651
H	138.91202161156158	138.91202161156158	138.91202161156158	1	0.04736207399191575	-0.10461364748724908	0.19410739591830334
