67
config_type=vacancy dft_energy=-6734.9471172785115 dft_virial="10.09868944197838 18.92165474044971 -34.60044726909278 18.921654740449707 44.92762461737093 34.45645228647679 -34.60044726909279 34.45645228647679 7.148577360118328" pbc="T T T" Lattice="10.890176291103858 0.019253870190412 -0.010269456781424501 0.0191558584077685 10.915343538847093 0.019297430982698 -0.010323907771782 0.019340991774984002 10.903669246514445" Properties=species:S:1:pos:R:3:Z:I:1:dft_force:R:3
Si	6.9420351701037895	9.504473728872176	9.921893931932964	14	-0.20493226353719077	-0.07985750280167128	-1.0332230984020467
Si	1.1909117673663756	1.2021558968751993	1.341644087893814	14	-0.7650411297681494	0.5189629535715649	-0.9074068308921969
Si	2.827641018284782	2.6489992981397035	0.27064538051253234	14	0.29345773370467726	-0.9937687159327786	-0.08481305119572469
Si	4.19319998114361	3.999776995156085	1.621949074095767	14	-0.29574421766588493	0.08460196344894053	1.0459536692842282
Si	2.6321380044655998	-0.025620279983010898	2.816367485241165	14	50.39125283522258	-51.820864783495054	85.3458865480511
Si	4.121338831129203	1.3353974702800018	4.328291799200761	14	-0.7232982064534172	-0.07189736073049281	0.03512566955226701
Si	0.0752904733871224	2.604381067620961	2.930404194346878	14	0.027308480936888795	0.5287159273824826	0.3084056258149541
Si	1.3373479047546075	4.030420923509478	4.410166486341912	14	0.33878040695665157	0.023096239090890196	-0.5113188003442326
Si	0.2052867677666179	0.045830309564100606	5.788707654321775	14	-1.2926422258838157	-1.7422694109553514	-0.91541479552233
Si	1.3578846402778422	1.347349462663473	7.144574340896969	14	1.7216671440250049	1.3646663421065919	0.9757570947230132
Si	2.793501336350437	2.779499808689909	5.775535959754296	14	-0.37305761175326974	-1.0451738530406274	-0.3410422083067859
Si	4.22018480294498	4.030085505408876	7.115113088054139	14	-0.30528044729831416	0.1912940924769973	0.550497046102117
Si	2.761836996437743	-0.10455788070427866	8.419148965927835	14	-0.16457670865321056	0.6371679780021807	0.18848207458835134
Si	4.210627565117432	1.1667627531428244	9.79530191347062	14	-0.8703186366490607	1.2258513374296691	-0.10752156760433655
Si	0.1076147593029487	2.7244509464582842	8.654399024668379	14	-0.5197260576305849	-0.3350942132591553	-1.1823353798861629
Si	1.4795532001920617	4.081328243414513	9.881549015137479	14	0.5832498425544195	-0.05914930633213461	-0.07129366520132206
Si	0.1900012857534605	5.437994270528153	0.28736510161170625	14	-0.3280092754389552	-0.07549973639455229	0.1433476062458119
Si	1.3578105869309558	6.764987774956379	1.7499992900798855	14	0.10049653653809595	1.200896960523908	-0.1920194012878111
Si	2.594771556842669	8.173706770812176	0.25563977658981246	14	0.4752827023981012	-0.1914542723384425	0.31321744942161134
Si	4.135444904691218	9.360964876725562	1.611995433058416	14	-0.11074984744431447	1.2140923872479719	-0.07157108746536603
Si	2.711819405715151	5.400932748451225	3.016510812458614	14	0.7875318735561447	-0.7985801702273531	0.06981039454212863
Si	4.0778553592495115	6.800534470481562	4.367357117722846	14	-0.1577504240282174	-0.5356759094841235	0.4118244806599304
Si	-0.0409340765111542	8.271738155812205	3.0064439133613194	14	-0.21499788375503845	-0.9094444318584141	-0.24853898109849823
Si	1.3917956280526858	9.428150864707876	4.397630779341808	14	0.5450414177232948	1.105439019081706	0.019805481391632667
Si	-0.06039377144511755	5.442622604708541	5.695817531831302	14	0.6905924612284736	-0.02810500936507067	-0.5014069322245297
Si	1.406307906002767	6.581227661717695	7.106032840902123	14	-0.7845522196006252	1.1405315213753433	-0.09373555798823456
Si	2.7299875231578343	8.041535703877802	5.834126314398773	14	0.10129897850851416	0.6285383201056357	-0.5337738057682779
Si	4.112884770366298	9.458747965209563	7.1338170032419415	14	0.39247537046262404	-0.2768262818307674	-0.6336332224080411
Si	2.8003251344620383	5.417538122470648	8.470023615238654	14	0.7866381573468613	-0.635436595679593	0.3101184961792368
Si	4.067591347567122	6.864944546975448	9.849265022954516	14	0.21586331780580034	-0.36873764059435693	-0.18840828386566308
Si	0.1255443814078663	8.035769343998941	8.613002114739185	14	41.83697409023261	-4.646894399464527	12.459492306293622
Si	1.3185666691604985	9.654820536387884	9.82188924304238	14	-0.5375235057671819	0.0049182673669112605	0.7784862108187998
Si	5.564686478812757	-0.06086640604142065	0.28615737864557694	14	0.0406607450854818	-0.5211995580895616	1.1281051122525356
Si	7.005467306810855	1.3428964606720366	1.6381504217667375	14	-0.49424537546578934	-0.08316934356455401	0.46024585004374713
Si	8.39442821630553	2.656649662284932	0.24866569374482386	14	-0.4884632167113083	0.9048264695928961	0.8191783233891874
Si	9.665442835586825	4.219262403168324	1.5970105205120317	14	-0.11473943156958827	-1.9631839222731147	0.0131889989607636
Si	8.376184956496154	-0.08364761138719151	2.992713551632772	14	-0.7539270128007453	0.29011992477806103	0.1916396490320252
Si	9.639327051591561	1.3465392319269534	4.415390514356811	14	0.22684733684400493	-0.7218511883792379	-0.7351790270272895
Si	5.594381870914122	2.6825574434970307	3.092517860878841	14	-0.2552423668891883	-0.012830843989666973	-1.0198500083003608
Si	6.87278875664635	4.162822862642968	4.370468447311873	14	-0.07675495001184858	-0.7204139405052751	1.0938145377082527
Si	5.443439369563904	-0.0633569943403727	5.737304830404488	14	0.20631371842570634	0.3961993594083265	0.2470665090816494
Si	6.953571156920931	1.328537734514764	7.122248345830586	14	-0.2028321847116938	-0.6880905186414376	-0.18317557031809772
Si	8.291177159369832	2.653040650644037	5.703402554788101	14	-0.534713030541728	1.376751565553416	0.5622763080158435
Si	9.698590420476856	4.091379896234507	7.086356431026537	14	-1.050083892870514	-1.0803267763092876	0.6426426325603721
Si	8.36229668689557	-0.0338118869723932	8.593492324894093	14	0.012083680783631942	-0.6416887524865971	-0.7749992777836149
Si	9.745736265967993	1.2763627955542074	9.983721942464097	14	0.6634449314846261	-0.6470695617006029	-0.1910480376978591
Si	5.547391755255408	2.6421907463054017	8.487471890588811	14	0.2858413484148026	0.08916670383433142	0.08195603896397614
Si	6.950976022720492	4.042463304536943	9.840714039428773	14	-0.3405264445795641	-0.21130629073636986	-0.21523493966555615
Si	5.4726545039303165	5.366956419487952	0.22246823326402346	14	-0.09643136191640982	0.18823036337750887	-0.2796393281615414
Si	6.790320553710302	6.770739977577745	1.542618337224118	14	-0.4122263444214695	-0.8583899935162337	1.2637792546703654
Si	8.180455426557083	8.099553234103718	0.3903787522294462	14	1.559286930646797	0.6681719086157184	-0.5792461173498848
Si	9.670273727451342	9.637415821830013	1.4871992082580616	14	0.21735507311255023	-0.35580163839709583	-0.15705185471273317
Si	8.165735145823838	5.37494329075359	2.904242671519713	14	0.1565492036226442	1.1294197184027273	0.2355577274476026
Si	9.486866456630175	6.801565772238933	4.321800152130339	14	0.0818737635937314	-0.14882945989889962	-0.6959884399638684
Si	5.497075773105656	8.06119251139686	3.056429922509504	14	0.1312073611451367	0.5293898140868935	-0.4419822605126073
Si	6.8237066339381	9.542630804875097	4.3572575480313365	14	0.3306582852503038	0.011947669312196109	-0.17343313803899263
Si	5.443893490823485	5.520119432224949	5.816204315432506	14	0.6561625327758388	-0.5201590317664978	-0.7814653505532553
Si	6.9118355618317135	6.7753519764610255	7.179858582648629	14	1.522601114386264	2.499340628452106	-7.05588895807195
Si	8.192676406832922	8.135168537876751	5.683713076674829	14	0.4478225262473237	0.6647189141707596	0.6814609235734358
Si	9.73193620697179	9.394255123210332	7.112466769922765	14	-1.1096440618328083	2.020231092895496	-0.9288969004895904
Si	8.28204572828688	5.463764835244551	8.466172841200573	14	0.9086227065980947	-1.6146279157787282	0.06907248731524614
Si	9.579127125672116	6.712196450784975	9.913923395964433	14	-0.40065842736505936	0.5529380534930657	0.7046638635351121
Si	5.546406192329937	8.136072424316685	8.461703503912029	14	-0.6316136191790648	1.1844969081288115	1.0442081458823798
H	50.10915986405675	50.13350816890501	51.97578881940318	1	-2.214894104673484	-2.322552712191384	6.157077075154476
H	31.936965131215334	30.050037935683445	30.15372568956181	1	-41.18254396822149	4.096133300846031	-12.78586224498045
H	0.0819400283295803	0.14928828026315777	0.03571004849625565	1	-0.20914939048329767	0.40333211978748135	-0.4177804461340534
H	45.91701841016569	44.112684654847676	45.93163414499745	1	-48.51835327626647	50.85203296095185	-83.31796450781145
