221
config_type=divacancy dft_energy=-22408.497420687218 dft_virial="86.89128553420345 5.475603699840491 174.3133693862486 5.475603699840491 36.44549051526484 -7.626733724777826 174.31336938624864 -7.626733724777826 -210.59523034488555" pbc="T T T" Lattice="16.3199774331 0.0 0.0 0.0 16.3199774331 0.0 0.0 0.0 16.3199774331" Properties=species:S:1:pos:R:3:Z:I:1:dft_force:R:3
Si	1.2899636562670902	1.0041355715037767	1.3023015592065137	14	-0.758418476684512	0.34520199960425335	0.07464124432815486
Si	2.6488302572567286	2.396735565847633	0.032933714459995794	14	0.8438401085095157	0.06487052989052813	-1.2777418992219618
Si	3.9588511657890986	3.991670640407063	1.5215767759976453	14	89.41507466514199	127.01321036750225	-123.08278763275563
Si	2.7989903696186818	0.10053106098789599	2.7914179000897232	14	0.2916399622433326	-0.7066857807588764	-0.28590331205301817
Si	4.070789891002732	1.3115223464562153	4.275034408577978	14	-0.3951745168277155	2.000658810756401	-0.5044099832384628
Si	0.25612572583507137	2.687263804111679	2.677292297900055	14	-0.9834405858617438	0.1631821411275622	0.707092272509992
Si	1.2649288108847148	4.300232453734684	4.282084638829077	14	0.27085797505110765	-1.0689254668776234	-0.8173412686379414
Si	0.07213430025430201	0.0009465586911198	5.625577821076735	14	-1.7604810641590245	0.2890169205957175	-0.6344683174160253
Si	1.2165400777955733	1.494126573955171	6.867071144367519	14	1.2261665549419192	0.1655269891795373	0.15543668635061617
Si	2.595676090757122	2.9037809447166167	5.559171832901452	14	1.242517499225401	-0.5496308407197591	-0.27861654246518647
Si	4.075245244841968	4.221586482484576	6.9168633955159065	14	-1.2302366146637136	0.31983007519450013	-0.07214341550963099
Si	2.6400174694428546	0.13108205874265919	8.153183285960397	14	-0.8647419092096597	0.12905123222366052	0.8856902469160981
Si	4.104833363928178	1.3336359158780657	9.496203188862495	14	-0.6495668762980629	0.9653862843036641	-0.2554398277777757
Si	-0.039788104981897804	2.75528547005284	8.257729061396835	14	-0.4530752944163863	-0.8855390659232732	1.3236255876547922
Si	1.2164258379535418	4.1356781212767375	9.648142178764656	14	0.9005754040565633	-0.36614056711047527	0.09529570469650041
Si	0.009465586911198	-0.0657858290328261	10.877183359273983	14	3.2581185456603743	-0.7246662915942681	1.540380821896152
Si	1.5365748352586643	1.290893894980777	12.263549122238397	14	-0.9549090301240607	-1.0559059037574574	0.817403489386689
Si	2.763641298498587	2.7028167426054237	10.92196537735041	14	-0.6779266822003601	0.1250243670712446	-1.0195520171937555
Si	3.928577607650698	3.9878191257328512	12.387531990797656	14	1.0890204547283044	1.1432288679667106	-0.006271440096905195
Si	2.9787222810894116	-0.2390387094626157	13.601428232249068	14	-2.2463094121382445	0.6159216491891372	0.12166778907579127
Si	4.269485616250724	1.2134392820832844	14.767082620408235	14	-0.3952051129810253	0.09636219918329783	2.4772787450315112
Si	-0.0702738228269286	2.3491628316301463	13.782335182094982	14	0.7180870901905412	0.7046396951451026	-0.7848476396019102
Si	1.2560344231836753	3.873873043294947	15.11745621591946	14	-0.029067631196934104	0.10757196126861145	-0.3813787370113969
Si	-0.1420327636002693	5.334935342970658	0.0534805660482687	14	1.2856328785600282	-0.05374304317545925	0.2353890629386009
Si	1.3965983888149656	6.761007611029801	1.3126973848313985	14	0.3488966779493062	-0.1946329298457416	-0.050982961614280294
Si	2.7826377522307153	8.258414500449026	0.071481501156978	14	-1.513746484774206	-0.5470407092202421	-0.9886637863196247
Si	4.008643416937487	9.631854841286424	1.3643011534748608	14	1.5801763900414039	-0.5434396191088425	1.2228778541269179
Si	2.7750000027920247	5.506229826108475	2.9285383504826292	14	-2.0203581054983117	-0.7068876125265081	-1.8582542859420195
Si	3.9826783328414246	7.031494917006001	3.8663821736531543	14	1.5150171250234232	1.8149923536041437	1.98313775644172
Si	0.12974382059314502	8.204264815325999	2.6351214762129245	14	-1.0109218450761464	0.16305204319836275	-0.7531749644946021
Si	1.2075640902073683	9.734311659611425	3.966521555182656	14	1.1480864572480662	-0.017343390937058868	0.9562249218269123
Si	-0.1409882850445509	5.4686938780123455	5.72672904120709	14	0.5580553244117563	0.8046130117505486	-0.32409913846807403
Si	1.3910169565328454	6.867430183871047	7.015729818805626	14	-1.082085155237737	-0.615051330038267	-0.36547722193787713
Si	2.448176134716764	8.064973807934491	5.377236724477253	14	0.107043342014789	1.1505192371019906	-0.8430433229708019
Si	3.946594862736841	9.287095318012184	6.619937726098085	14	0.733069178001576	1.3294383425625829	1.1593283581498819
Si	2.6489608170761936	5.557082875790014	8.415771722858977	14	1.335101973361805	-0.6876796560112779	-0.36059983514555627
Si	4.098974492029695	6.776446309681514	9.886054809784389	14	-0.6830611795246959	-1.9514046603593884	1.54819415385355
Si	0.18317542670911438	8.26649288927841	8.441785766887339	14	-2.6669946930630015	-1.1860429137578163	-1.3852233575833037
Si	1.4961176112020096	9.56861492873316	9.596032490820768	14	0.4772002327458676	1.3265386499825198	0.9684307301132514
Si	-0.19659044815912258	5.560265271389469	10.829741184875962	14	0.6078450360469559	-1.8949015356227499	1.6157903124939668
Si	1.2596084982415243	6.666155902188625	12.294867158932515	14	0.4206438861291023	1.2912725980797728	0.20891284879384403
Si	2.6912295586279225	8.250009712070979	11.02329611723253	14	0.0027901634934246952	-1.5265742434374887	0.517852493183793
Si	4.220215604380195	9.341310283044944	12.330183590097743	14	-0.12710721949109655	1.3990751874956018	-0.010711738984800927
Si	2.609760231281887	5.350814681013064	13.759829933214737	14	-0.8807498680434334	-0.4901786581809111	-0.41092407957681454
Si	3.953155493664947	6.6351642650431675	15.10645655112955	14	0.6207401576696266	1.6463080470914646	-0.7125985516636212
Si	-0.0406041038535528	8.191959552341444	13.649066246376288	14	1.3316698048699396	-1.8103651353594736	1.9186276955170765
Si	1.1557318418798428	9.720798718296818	15.153735525753241	14	1.3644634818968322	-1.6740327899796854	-1.0038353645927545
Si	-0.1801888708388571	11.081199397165168	0.1028484977833962	14	-0.5308615147721462	-0.012522311351249205	0.32121435829886785
Si	1.2388821269014871	12.321191282532105	1.5675664724041212	14	-1.3480456888750265	1.5753748508560272	-1.1636182473765488
Si	2.5748681195299192	13.594524881794868	0.0327868346630979	14	0.15138076770808256	-0.5277461064557227	-0.38060791963641655
Si	3.9954895151264083	14.893333965830697	1.3875734412944614	14	1.09286477140299	0.5961102542552682	0.10010110053985719
Si	2.720736077826967	11.096817615568645	2.6433793847940734	14	0.7459383314605132	-1.0181605349944913	1.4098010675596635
Si	4.149909141598401	12.571458136468694	3.855888428163671	14	-1.340847108199676	-1.006901921908095	1.230400136962075
Si	-0.10614513322488241	14.056461843038761	2.7634944187016894	14	0.704888321029561	-1.0548417232654481	0.34583012063396557
Si	1.4812501117604553	15.22001095410906	4.272227372459485	14	-0.4554900765330692	-1.2716314103180977	-0.9205768036735912
Si	-0.0351858713457636	11.032435304595065	5.554014720032592	14	-1.166591987789832	-1.7553589081402254	-0.7077103662289556
Si	1.3628160355284487	12.206951440500406	6.811077301794553	14	0.7848090730221079	0.9526030057624197	0.0494899207548703
Si	2.6697851082808293	13.6154960527964	5.443234713216709	14	1.169330472066322	0.6712032417881729	0.19519265947393782
Si	4.018125323826118	15.142180981730606	6.964909409078953	14	-0.0502851636303921	-0.4555499832870287	-2.4015062143624912
Si	2.676623178825298	10.77655437842149	8.03037545577632	14	1.3424933869361668	0.08984804674417067	0.5235261512937638
Si	4.058011348672615	12.229734128997015	9.500168943378739	14	0.6196718634091051	-2.1980993876117445	-0.21864988175177683
Si	0.0632235925758294	13.622595242979799	8.103603194518639	14	0.9567728243706358	-0.9180576346809102	1.8961366946185492
Si	1.5032820812951404	14.895814602400527	9.630810362730704	14	-1.2595901527722482	0.9654582752526282	-1.6628145432468153
Si	0.13235501698244098	10.988093925909332	10.855706268972025	14	-0.3119465520618621	-0.6852597316839545	0.7307518407765267
Si	1.2894740569440972	12.406789564168715	12.29946939256865	14	0.8303744586163043	-1.337562778263719	0.21106563527840402
Si	2.7377251743348245	13.449913561760168	10.81709320236531	14	0.4577053408769089	0.8303646884160877	2.0011486063198896
Si	4.250750282157525	14.736972262044166	12.27440190723141	14	0.46996000016433065	-0.640592176067554	-1.5671624833529423
Si	2.636508674294738	10.720625815758256	13.547931346223367	14	0.04062449250046771	1.023190645442829	0.31750913842200246
Si	3.976950020762407	12.09932118932911	14.983844560674669	14	0.2909429355910404	0.4923941796352827	-0.02419924327323372
Si	-0.2039181180265845	13.710494641434476	13.495560538640548	14	1.6058812725901164	1.336122445063372	0.24804275777170962
Si	1.1700281421112384	15.065689247501666	15.081846025160436	14	0.30763095178199357	-0.4205901500279113	-0.6806209434653433
Si	5.592301387090645	-0.094982268660642	0.0739131777945099	14	-0.9365256270850019	-0.3958535457427666	-1.5723059795458987
Si	6.7881640534784795	1.5766566998343579	1.1311376358881609	14	1.116291140416987	-1.8831664967205302	1.1462843695291745
Si	8.280413830028845	2.8736216264202477	9.79198645986e-05	14	0.3438963923226822	-0.753487353791	-0.22026659277708593
Si	9.553992228953103	4.057325909620424	1.4582715835346505	14	1.1666909753446577	-0.26306521193627086	0.05468612460688956
Si	8.2788634321727	-0.0716120609764428	2.554582387580576	14	-0.7879964722874955	0.8766188731255514	-1.1754882693080764
Si	9.407487791536163	1.3905110372324194	3.9400015918538682	14	0.17588982917239412	-0.34955205269541195	0.7035832279690537
Si	5.488326810864365	2.704285540574402	2.5962636099447134	14	1233.5366219143605	-363.2413347582646	-2858.749812234728
Si	6.77252951509757	4.0883828266756135	3.98581176850858	14	1.2336204463755607	-0.22665116150807763	-0.9768310454152392
Si	5.548041608292077	0.15402794701359782	5.562582708184969	14	-0.24782678492481722	-1.2392547665741331	0.015877089572978415
Si	6.950254069344029	1.4195932370182036	6.8928893486666825	14	-1.9176331919792433	-0.24202637132256316	1.3053599412393964
Si	8.04090184122067	2.6085199129969716	5.418281467721499	14	1.613616700056314	2.2599169870451288	-0.7764339545522576
Si	9.483685766171307	4.178518062038625	6.784785818149829	14	0.05803756039170258	-1.1244914237250674	-0.5619598049509332
Si	8.1483525726402	-0.0346146721356051	8.234619973351567	14	-0.21380129133904155	-0.11311346456512661	0.4598979794939312
Si	9.543057844072926	1.1401299434537993	9.59205041632709	14	1.390104601033605	1.6378028306924148	1.1319615131222256
Si	5.379227761724091	2.7875663854155115	8.145839296115502	14	1.5324978129845779	0.012122504473966178	0.5469129252858306
Si	6.877646489744167	4.208563140492962	9.465978590656395	14	-0.1364408460242981	-0.9057512961765533	0.891190869638023
Si	5.442173914683558	-0.0366220293598764	10.713689825349189	14	0.5772997906225328	-0.8816916639222038	1.5913460428837232
Si	6.690652188315708	1.4133590056387593	12.130247546564837	14	-0.9895194501701698	0.4145205416986377	0.2706877678789139
Si	8.229936139828267	2.6495156963089186	11.03372458281228	14	0.16940678710764073	1.115802630406159	-2.0295904304818992
Si	9.39183693317782	4.227837033841452	12.39913549475259	14	0.6683207756137549	-2.0605311119045613	-0.27188821695289106
Si	8.185627401097399	0.2318415994146186	13.382936374374726	14	-0.010781673049508955	-0.7953866003091971	1.2809737786093875
Si	9.517925078825952	1.4058681359969665	14.958107956262673	14	-0.24691249987297254	-0.04370004868442884	-0.29541280219011784
Si	5.432381928223698	2.8119484317005634	13.657373114889735	14	1.3775789472454396	-0.11499011433830268	0.23876415289235928
Si	6.849478208694637	4.2144383323688785	15.231614458063994	14	-1.0600821501289739	-0.8767263453279338	-2.181489533022524
Si	5.2527968965498655	5.2876726883244	0.10529649439836121	14	-0.24504073519990474	0.418189251879957	0.12844907935768185
Si	6.666547581647019	6.669011898239416	1.2720280010681133	14	-0.44433122233309463	1.465895900771462	0.7813712480985379
Si	8.03458600995406	8.171102621181943	0.10702641200626979	14	-0.2858146089194731	1.5090207931957738	0.20797850912050223
Si	9.576872837314308	9.560324380197146	1.4207193154610875	14	-0.41233535928704385	-1.450595767232325	-0.20864725361427272
Si	8.147797693407474	5.515940212681169	2.5266752261699748	14	0.31340539722051414	-0.18335246236412392	2.2305487936362693
Si	9.39009069559248	6.863056429918976	4.196584277057066	14	0.3054784224079656	-0.42296790822798425	-0.6157157036529932
Si	5.702265395034872	8.285668862762302	2.79655869298115	14	-1.8985715313567293	-0.425011936957502	-1.4166080688947553
Si	6.708832643176181	9.951546879223418	3.9329024016704697	14	0.7451927109176703	0.525353950065857	1.7775107802470251
Si	5.457286213786608	5.4904647279081	5.3296313503049	14	-53.418589224457	223.02594285880133	-26.736706451599257
Si	6.627526515604477	6.903595253862796	6.662418627356445	14	0.5628301241018034	0.8701589710086796	0.0903190732388218
Si	8.049535109282779	8.44553936169695	5.375865846372872	14	-0.44567333931021186	-0.1373330195703895	0.05025276770335823
Si	9.664804875723853	9.521776593500164	6.764402166335887	14	-1.184023053418308	2.3096295655207237	-1.745043376485259
Si	8.06996772102902	5.640608520292621	7.945609492988798	14	-0.4190256324406012	-1.4155366893078498	0.25679737138681386
Si	9.455240045505416	6.7611055308944	9.318168555044808	14	1.1718193020162253	0.13151049446238217	1.0090804194458567
Si	5.151286636915984	7.901006994664136	8.36531035263583	14	-3.2107176479781248	0.19212764482178932	-3.163914018061745
Si	6.667787899931934	9.572221643745875	9.259253436511317	14	1.0193946655481625	0.9141973771532399	0.9695856706230618
Si	5.627046619045715	5.3172608074106105	11.26005002985451	14	-0.6915589397183173	0.8594523742345189	-1.0730222660947473
Si	6.90919300612235	7.07097294241667	12.350501962001953	14	0.9375468701181646	-2.271472562796002	-0.9514061562358909
Si	8.096406084470642	8.234309893780337	10.545202378329863	14	0.47137282253775203	0.2751437505092625	1.1503641994511855
Si	8.12935611890807	5.476609067067399	13.784685258845348	14	0.0036856794764322707	2.3755745603245417	0.5367683721346543
Si	9.50612573514182	6.911151403414322	15.335327914651344	14	0.7369343206293546	-0.856867899166706	-2.8623961262889352
Si	5.587176914176651	8.11634909689389	13.78901005286512	14	-2.417254748669462	-0.8272721629370136	0.286143710400452
Si	6.712994237421621	9.588835380772771	14.965272426355803	14	2.058853208572632	0.09988744168775286	0.1915877127045582
Si	5.504646788297465	10.826183429795547	0.031171156897221	14	-1.67369391829849	0.7136637605977584	-0.1737432133406025
Si	6.900233338511578	12.303418827107459	1.0233931448748348	14	0.8521578913307268	0.9119373755768296	1.501593641257462
Si	8.446828639914166	13.488967267757577	-0.3859511463153819	14	-2.223105186623908	0.5259429902947029	0.037441207003592374
Si	9.530262981765375	14.728159474230292	1.1852873210111867	14	0.9448524087748333	1.8791324324732177	0.15262184024611802
Si	8.3440943819728	11.050925839026768	2.537413771320955	14	-1.8296731078716575	0.9739922880312637	0.8080464657950743
Si	9.350286270633148	12.589736511193765	4.022172678229527	14	0.7650259602467605	-0.9311635869398329	0.20759027221715987
Si	5.688948293449463	13.730976213113015	2.67368558288734	14	-0.45864173743450676	-0.5648571835362082	-1.9406607825580857
Si	6.801285315334693	15.200231141460142	3.961674521885025	14	0.02934685323470219	0.4000153939244903	1.095944441355463
Si	5.067336673000117	11.25520299655688	5.563333427146892	14	0.8997138266637816	-2.171420056146696	-1.334519875117324
Si	6.564710922464475	12.542147456998846	6.709403842386339	14	0.532907343275388	-0.6963640784511421	1.762370826569333
Si	7.992251988492598	13.847305012256154	5.449093585115192	14	0.04617062378655913	0.08647784189052056	-0.4539834088154625
Si	9.414897061290791	15.093302649318472	6.802133954161214	14	1.4520355862116079	-0.2067040122133048	-1.6605213744117753
Si	8.214122081695592	10.898072930388352	8.059767735133333	14	-1.286166382913959	0.267964453123813	-0.8348479247628299
Si	9.39772844503117	12.283149415135549	9.471135703525254	14	0.06874955648703553	0.0831102081421906	1.6069199991394563
Si	5.202515046078484	13.817847452989406	8.337762230728758	14	2.2220821438170213	-0.8332016460263391	-0.30816394191486024
Si	6.951788147222741	14.81406783543813	9.614947344665731	14	-1.262382373149929	0.3095181430869822	0.09209622123610814
Si	5.651085945804671	10.774155341738824	10.862544339516495	14	-1.402136859710834	0.9684556698348568	1.2981204799894555
Si	7.513130091011648	11.6339243928694	12.497153279215791	14	-1.0185824533775278	-0.2963473989739917	0.0885668649631409
Si	8.175394775246845	13.528592172965142	11.155161534891977	14	1.0364256671888235	-0.006610054667568697	-0.27737187037970285
Si	9.667856711503841	15.09103417245527	12.355756994735412	14	-1.4738218471418827	-2.0168847993213235	0.5057842390320819
Si	9.36856464535822	9.631952761151021	12.134017461351883	14	-0.5452571334596553	0.9491762365917265	-0.8726585996009274
Si	9.69564963307241	12.009920352950589	14.788935070191158	14	-1.1146942269026432	-0.48016523140106243	-0.534454120235989
Si	5.62970677536731	13.301010087660563	13.637315862624455	14	-0.06823970630205016	-0.3836832187098456	-0.31065765696487185
Si	6.926492182201436	14.976059931439082	14.669929794748992	14	0.3417886001812248	-0.1087675252424803	1.4305030933764316
Si	10.914409227798886	0.043084740423384	-0.0698005434813687	14	-0.1262762382516247	-1.6939845672640346	-0.4158490318175582
Si	12.383876315852643	1.1525657662578215	1.286993420374266	14	-0.5286493357546908	1.109172264006561	0.8025121615934555
Si	13.736084366049576	2.585247625177371	0.0213302105050617	14	0.574612471341914	-0.11456202530249802	0.21498091445992548
Si	14.946928771720998	4.053963994269205	1.5312708425929067	14	0.21299524982117515	-1.192588176571317	-0.7305834333780569
Si	13.905387811940555	-0.36413133648732715	2.2518631261740043	14	-0.0481061518715666	0.24256398944500612	1.441064165589472
Si	15.084669381256361	1.1791020495640419	3.9336857605872586	14	-0.10865259683466968	0.21373649948497386	0.16559923723903344
Si	10.934352240222134	2.5989237662663087	2.8027113244734285	14	0.8338477647932923	0.6833522286469366	-1.60862027108767
Si	12.315054971017261	4.151280019702781	3.8890506223077304	14	0.1115715727046338	-0.8694092366973244	1.6076391372975016
Si	10.95028053819684	0.1451825192448576	5.181299075415454	14	-1.6522408726177065	-0.4613681375159918	1.903060167024644
Si	12.173642366559449	1.2673441675448136	6.787870293884684	14	0.999699998795828	0.5529043720133716	0.6039210151073459
Si	13.579135143075455	2.5022278999751912	5.333009585633552	14	0.4797579683183509	1.1722345355254293	-0.17975728579496086
Si	14.907989305565621	3.950674857095116	6.923929945744439	14	-1.6531489870167826	0.1119726651345769	-1.073191959045877
Si	13.730715093474085	-0.0828238854729825	8.26796168724739	14	-2.091620917435792	-0.7808092044755535	-2.298975419295094
Si	15.023697945566301	1.012817799498186	9.603719200191758	14	0.13981722153071657	3.9398010985124072	-1.5537233158445283
Si	10.882471031962309	2.7591859446593507	8.177092052899889	14	-1.8807486292774631	-1.8437020869405132	-0.921387473181034
Si	12.079068097334634	3.9839839310360725	9.55998166067105	14	1.789974213286443	1.3169137172165457	0.030978733781400175
Si	11.109204478440367	-0.2235347309011707	11.062398783162237	14	-0.5997116014771995	1.856859461305839	-1.528725487258857
Si	12.364520822616987	1.223851427685602	12.314353211987637	14	-0.006067037223953422	1.6004492983802394	-0.38039991721601657
Si	13.628796834404378	2.53707105179486	10.625121307819756	14	-0.9732924331631194	-0.2813951359846705	1.3486447564146213
Si	14.878156386817915	3.7903310788149085	12.093217517769132	14	0.7153833158358734	1.0018093336004779	1.165325975530191
Si	13.718981029699687	-0.1098824080570623	13.61960868710954	14	0.5772051739467513	0.34802661590896805	0.8457527537571738
Si	15.245731238543625	0.8058641656690448	15.326923126273298	14	-1.0992218293070561	0.8596423789176777	-0.5384087373289089
Si	10.866167374506642	2.6461864209125667	13.529538731656263	14	0.7771340665309339	1.3175009576716674	0.7341369580410335
Si	12.32494487734172	4.043633448554053	15.131426116602194	14	-0.07106406549623281	-0.3592579752789709	-1.7809262365543095
Si	10.951830936052984	5.436690402266036	0.13473773368767358	14	-1.2155648592648207	-1.3214388625800064	-0.815648195784624
Si	11.913599846140434	6.891795910178665	1.4336936975204018	14	3.2549694558642575	0.5242224066144598	0.43646261161131344
Si	13.355127132828724	8.046369033660758	-0.1701357647400675	14	0.19901023665329368	-0.12120216190231246	0.04259704450208531
Si	14.764455104041506	9.349045952348233	1.2279640619987433	14	0.658670131794579	0.9634019052175737	0.5255946055238229
Si	13.649637445586446	5.588449872416433	2.6378795523991183	14	-0.5345505366854947	0.48367453305253255	0.12451811643370744
Si	15.192332272382522	6.8015464349736225	3.9970235930051197	14	-1.078384563350448	-0.057553421259918705	0.57437078744182
Si	10.86420897721467	8.263245213769224	2.8922916806037144	14	-1.0914329228501995	0.026772919698701946	0.41952134154632575
Si	12.180480437103917	9.709293134206483	4.1377344384333075	14	0.5540873375711719	0.2348167348943359	0.09316605815982176
Si	10.968036673644052	5.394372700782008	5.41170451681596	14	-0.3194032717113556	1.1982546355863917	-0.0990492613533846
Si	12.294410199564387	7.118578316589023	6.637824421364763	14	0.02083649462501205	-2.4386687135493794	-0.14333860737719137
Si	13.729817494715265	8.242257722790256	5.189997623387296	14	0.11269437439794247	0.295571439388371	0.7704671904357899
Si	14.95747147714278	9.390890374486702	6.903432054088466	14	0.3293318520156394	1.1124100569362236	-0.3824352041874458
Si	13.445800927447026	5.475026029256388	8.049584069215078	14	0.19144244525396986	0.5880827492247017	1.1212510596900849
Si	14.841273237819108	6.961792293389231	9.683017970539192	14	-1.197776409996844	0.3263493698442676	-1.3741586058380466
Si	10.853568351928288	8.218675355399428	8.065561327122083	14	0.20396321394202696	-1.3881569887535927	0.8979932429835387
Si	12.122103877825719	9.380869908342778	9.531911299486119	14	1.144867690497773	1.0041855491373586	1.3208696198621257
Si	10.743294264412832	5.336763180443165	10.922471296650837	14	-0.33829961026178385	0.904962995285396	-0.9214905745043718
Si	12.013592347873036	6.720256627379351	12.299012433200522	14	0.3995140283870614	0.4291722424760335	0.7389364403421539
Si	13.445441887943499	8.201082419726546	11.24240813424933	14	1.0808232567466085	0.9365688216543803	-1.2796167492214137
Si	15.238240368901833	9.704462420886284	12.502130872332886	14	-2.3719811835291025	0.5038170863516367	-2.3455512492801085
Si	13.634933145919222	5.373940089035767	13.492753502522056	14	-1.3637769967763527	-1.5570791225083858	-0.29259281387497943
Si	14.937185745193437	6.560304528557538	14.881812061762929	14	-0.25464818444970205	2.3569366178587883	0.4037872054291475
Si	10.703734639114998	8.32418400950442	13.606944384621455	14	0.07948057876173756	-0.5306350003934412	1.3056880142782472
Si	12.168827973216684	9.783320551843024	14.93214287216661	14	-0.07717686839488488	-2.219521837139218	0.2991326773673081
Si	10.840545009936676	10.930680245299685	0.1171447980147918	14	1.0768362437266548	0.4595066572642046	-0.11410693966083182
Si	12.22487077572195	12.357715392027384	1.5236494131316491	14	0.9834223310139707	-1.4393944897945676	-1.1758860193011034
Si	13.686846994133912	13.802816753773522	0.3494923167298365	14	0.5553641484731574	0.3008694590110681	-0.024614991003501663
Si	15.83875025853018	15.37767825609024	0.687723849030834	14	0.25505416197975345	0.7808282306549227	0.07827318770339603
Si	13.618058289253398	10.91705306414305	2.7444653250146946	14	0.1255293321561217	-0.6703835734121097	-0.6456945345753878
Si	14.902130433667137	12.291129884100336	4.1430384310990656	14	0.5766981519776181	0.6619241226877585	-0.9772807317357329
Si	10.960692683799158	13.700816894816647	2.719430479632319	14	-1.6725952849951906	0.4779571661521193	0.5296327835396474
Si	12.239819875050669	15.053889903817536	4.001789026415585	14	1.4814991676278448	0.27994734657889514	-1.1003739416010145
Si	10.909725394275586	11.312143397820964	5.3395702165616585	14	-1.116389870861281	-1.936675312201324	0.3743735034561215
Si	12.195201056748575	12.312460094605397	6.941114881981494	14	1.2080004103024131	0.29790497457693743	-1.3803698820704604
Si	13.52288018086356	13.686895954066214	5.313441932691265	14	0.08364422671718537	-0.2985217827432409	2.2012500200710536
Si	15.009026285853944	14.840783638496116	6.895141505552451	14	-1.217411427105751	1.078384049129384	-1.8719572488562808
Si	13.488559268321747	10.824681991871703	8.197769464307626	14	0.7726168915939657	-0.6271748629543612	0.07259798693023317
Si	15.068741083281656	12.124192834937157	9.435068553398104	14	-1.2378599419379526	0.799759536237705	0.20117510733285837
Si	10.633444496310636	13.509677319120179	8.01041612337564	14	0.8764376102004812	2.221795979794889	1.0919006069079344
Si	12.199150491287384	14.991988229413787	9.474416018989306	14	0.38167389990214995	-2.798634771233519	-0.3724063507756762
Si	10.930614965389953	10.9995668700448	10.794734833281963	14	-1.092813606407119	-0.9491703230494901	-0.12365499637773372
Si	12.183630192748504	12.154613272872455	12.3168501685349	14	0.519016689672756	0.46762235120725204	0.4672778230943522
Si	13.583427297140359	13.375445504732934	10.972638907280187	14	0.18594722185321738	0.9710311460340492	-2.07352804929791
Si	14.871269356341147	15.010282924116293	12.02566913117353	14	-0.45607808831978713	-1.008342769329506	0.8019724865867565
Si	13.679780443905383	10.94564566460584	13.726635099115812	14	0.3308855709606049	1.252934075319449	-0.20935765001422962
Si	14.910404662225721	12.627337739199628	15.004717811811604	14	-0.9128976834139051	-2.1171388806277296	1.20194237194708
Si	10.904078682083734	13.586560732807515	13.738059083318982	14	0.9537736300146832	0.40925286111871834	-0.5818725014344162
Si	12.509246382493718	14.82932701433808	15.016615075360335	14	-2.0026272489895063	0.8664738057533112	0.026833083563193413
H	135.2369226294063	136.15232485160857	133.9453530873598	1	0.3204664237612368	-0.9977860679955102	-0.3575685019731016
H	136.13209950357572	135.55966976711875	135.94895998081697	1	52.004767205287145	-223.05066969288623	27.000013861656686
H	137.01654599258288	138.93450727646888	138.809701881047	1	3.4351301480839496	0.30155054481037535	-1.0572066259389201
H	117.9519416666916	117.8813071723634	116.09822560596874	1	-91.04138002706377	-127.78313248361017	122.6640661620744
H	139.1294232949434	140.98754574957317	140.87341851538577	1	0.5182749257878932	-0.3650331920490876	-0.4822869075112486
H	139.81788643895194	139.95361642726755	139.9576131897409	1	-0.19909174069194238	0.3587761501419752	0.2003803786784006
H	70.714902857013	67.99990651524925	67.99990651524925	1	-1233.3729443212376	362.76235249242137	2860.8400416699646
