72
config_type=liquid dft_energy=-6842.755836612644 dft_virial="-75.36019686403627 -29.94938010458521 -24.053080174705507 -29.949380104585213 56.92168215157117 -11.689464920712874 -24.053080174705507 -11.689464920712874 46.08999806536725" pbc="T T T" Lattice="11.105996452100001 0.0 0.0 0.0 11.105996452100001 0.0 0.0 0.0 11.105996452100001" Properties=species:S:1:pos:R:3:Z:I:1:dft_force:R:3
Si	-0.5510817651524925	-2.8777313812855367	-4.585629285283798	14	0.572844065102716	1.0002923814615903	-0.9877875536265183
Si	-0.13989890550816808	4.41534548408233	1.3852587116679496	14	0.4468285369305544	0.40246591440512347	-0.0481200358402954
Si	-0.8688254342467188	-4.98598268778768	-3.849199545342209	14	1.5204552698860685	-1.1437821698316064	-1.4082077535927677
Si	4.803928751546277	4.428723767408529	0.0026987571378603004	14	1.2443445266658981	0.04091065652260019	1.4417354811885625
Si	1.1180595430268758	2.5462995715640973	0.26097203643038147	14	0.24960316159050752	1.5592491353985907	1.4136613250873336
Si	3.6049975635544986	-3.3078066514945283	0.6824890257733849	14	0.8307781221515675	-0.15800496345491205	-0.10455091251743745
Si	1.7983229271112597	0.4978229591664469	3.422542700841174	14	-1.701633091370411	-0.740515870340321	1.4376397104135668
Si	5.05256313651802	2.5058359840905164	4.5599855394759	14	-1.2097413057146853	0.2817373501027822	0.10591154145285982
Si	-1.542909441905154	2.649007826753118	-3.183046329750218	14	2.3764189113116783	0.15381380467253866	-1.54715542730421
Si	2.155307413469691	-0.23283832621792175	-3.8934758213977965	14	-0.1656627435404411	0.04289246450337033	-0.24336257475744408
Si	4.191435268412252	-5.304553753617588	1.8994696791991152	14	1.281670548151148	2.015483804032375	-0.4813073163842722
Si	1.7122325744135163	-2.560883966104995	-3.9753869876306145	14	0.5275327047141505	-0.8344535172067191	-1.223628102659337
Si	-1.3889981006733716	-1.2664201072318988	-1.205850223781436	14	-1.1973652902561527	0.3384955284871791	0.47983818680433954
Si	4.501933385421128	-0.5256379272807314	-4.129830306092453	14	0.8774650238864122	0.6501993682068192	0.42649392206403525
Si	5.467803016666297	-2.0967999135603828	-2.3459407319703423	14	-0.11514283799431949	-0.14069679666073923	-1.8317988977503559
Si	-1.9178334443326626	-1.2758857480080237	-3.4770886918160175	14	238.4368043909876	4.596724935573542	15.646885401028426
Si	0.642878378827325	5.349026605810377	-2.2869801074057885	14	0.24624221271600996	0.036568316747402095	1.1600012164121645
Si	0.8525673660404895	3.0174403742543743	-2.6126701169614925	14	-0.43555372588064106	-0.7191268451820091	0.7034706135560314
Si	-3.555863524650763	-4.967831047186368	-0.7307023775712415	14	-0.8198249563772045	-0.8031706216659453	-0.23426060481358787
Si	-1.3799766997553309	0.682881067448144	-4.670020420524371	14	1.6629893784085856	0.4290701695948237	2.2505566210165977
Si	-0.5193263894970029	-2.779695418803915	4.058102228006565	14	-0.1865591449194126	-1.4433483355558916	0.6925878960674406
Si	-0.6719116747524049	4.575817137418368	5.437038295894334	14	0.3719510080234779	0.04307706986535696	-0.8119044093279564
Si	-2.7693979388935275	-2.512648402314235	3.5338325594887325	14	0.7752281061571081	1.3944212297556018	0.2513710536086413
Si	-5.096807205183896	1.492111724732894	-4.68931819995954	14	-0.7657124453672401	-0.9169988535100732	1.3597025661755142
Si	5.29895855260502	-0.786362299990231	2.9969698015938637	14	0.9635690270633833	2.4071199657185027	-0.8666352711674167
Si	2.739518366038798	-5.287869215147598	3.9889340821028867	14	-0.547995874846677	0.823651275314649	0.2850293933546998
Si	-3.6779761768408927	-2.796678708578466	-3.6563539123482993	14	-1.1176679673159264	-1.661522562823441	0.2537282429661531
Si	3.8340865053701916	1.2944660800723868	2.9316298926672233	14	1.883079850471241	-0.17007758848566734	-1.1159209012508857
Si	1.863050895633389	0.7937477876308775	-1.7427507420642419	14	0.5209133940674292	0.28410405254997856	-1.1010025768517908
Si	-2.7924584299266684	-4.993772433699183	-2.913450487074781	14	-3.8509326428952124	0.26166035998934195	0.16633740157644794
Si	-4.252159525213399	-3.1526136782721736	5.15994812681302	14	-1.3289626880783556	0.17555070038066659	-0.27254719124644494
Si	4.305287280441309	4.891239653254106	-3.744775413701339	14	-2.549417018330502	0.6912473217535153	1.2907015555881678
Si	-4.512214206336837	2.944023074108122	-2.7864856250347283	14	-0.9582036444812984	0.13132126111081927	-1.9254524374788777
Si	-2.809256249560469	2.3692233429325245	-1.429864835818164	14	-0.7511203942332716	0.7838796184488744	1.7133611882882664
Si	0.7443316564172586	1.094009507709853	-5.492346158225792	14	1.6599565025729388	-0.8009882674702038	-0.40967760771760675
Si	-2.189512771942514	3.448659562097932	2.104188732999965	14	-0.5627486200631547	-0.9132432399689329	-0.723763319405832
Si	4.21744329090378	-4.026040326848998	-1.5109952505003998	14	0.8341789231585273	0.445606233461356	1.0189056413162705
Si	-3.510507745740032	-3.3462111872258906	1.5347809631018625	14	0.6637316097278226	-1.1724553934724298	-0.3822395430725825
Si	1.2677905871940878	-2.915501764619484	0.923214830671588	14	0.8827581584090011	1.4776206552524014	0.04080909786245434
Si	3.5318878995099694	2.554067105482696	0.8170337303919957	14	0.018809692301139318	-1.0709597254069243	-0.26895869955111423
Si	4.8451475467786	-1.6481631914809967	4.983653760331675	14	-0.04668330218739666	-2.211277587930163	0.6595491927035377
Si	-2.0764759400530397	0.9653931839973734	1.5760019795334765	14	0.00020697397827192034	0.8875288443305359	0.6303221529767544
Si	-3.159290603339176	0.9366697453733072	5.325391934760663	14	-1.4824211659956499	1.668624984159818	-2.8344932058020285
Si	-4.821776087844801	-4.8649439854544685	3.0260664016987198	14	-0.27961104600301984	0.9053422333201179	-0.22894664433790585
Si	-5.340558283515651	-2.0225396682834162	1.124206712063113	14	-2.307883527897811	-0.04783670003401509	-0.39251419415295824
Si	1.287040610844513	3.328612625247893	-4.8897803253203	14	-2.1643317758895795	-0.7363306251001838	0.5529473094722183
Si	1.3390555452279231	-1.812840685673445	3.1615206874267576	14	0.9526968511066051	-0.9929570179832078	0.12383445952908007
Si	0.11212947197933724	-4.751990448538385	-0.11979705192986707	14	-0.04733147783860598	-0.7317933955417186	0.41440715595401917
Si	3.325914978709678	3.932821035028651	5.503258910339626	14	24.593205771013515	5.587836928379011	20.46479892774686
Si	2.79963401423437	-3.0308930677568027	4.768290719531133	14	-0.32547185159850106	1.0979496463946465	0.39656574191644767
Si	0.38292587287124635	0.636812283565188	1.6145986490034598	14	-1.9336306092812046	2.0639457968802497	1.3171615717694078
Si	-2.723404675786446	3.5056921856784014	4.4489933215332576	14	2.6213344336824917	-1.9830364548921062	0.22777859119096255
Si	-3.175318777418847	0.3828525732946625	-0.4684942437357413	14	1.2129569871385946	-1.5909038127686579	0.336513206285345
Si	4.174123241142718	1.135688091195294	-1.1609642285206283	14	-1.4352629806556219	0.05575673286219923	1.030133658249357
Si	-1.80474996725809	-3.477927194548151	-0.33444819835782985	14	-0.7029813322136071	0.6239992907734463	0.6329572788193742
Si	-5.339527647044896	-0.5096819421779993	-0.7084337440851357	14	0.5129133998637885	-0.18187741924195497	0.6530926330235819
Si	-3.754739713718163	3.8930648995290684	0.2449849545375835	14	0.07096764904672728	0.6734475596221303	0.089680153566765
Si	0.4966923687276232	-5.359036440412655	3.352988066260962	14	-1.250815998756711	0.08374578537733122	0.9292116037807766
Si	-4.720265059073316	4.394924888405854	4.37195102414504	14	-0.52932939311187	0.5126287785048481	0.7846815461982286
Si	-4.680706610310581	4.903917148204178	-4.332018303301869	14	2.572542053800978	0.7481800781891503	-0.1356525451331407
Si	0.6890548908758665	-0.6719061217541789	-0.16329368703451674	14	-8.384482692536864	-12.062722932835818	-7.04001803915174
Si	-3.2844629575518596	-0.18255925907997458	3.2526887017024015	14	-0.9663118822189174	-0.3228935471834566	0.32919069833356324
Si	2.5555597514058586	-4.714220065204438	-2.953046696225453	14	0.8539342679964171	1.1583220275275758	-0.689295338594459
Si	4.458314584355505	3.296028742257077	-1.9024905102340866	14	-0.37039703196798046	0.0865688590188538	-1.6709582622378525
H	0.22256527949972926	1.476742136242833	-0.5158379960113983	1	-0.4249242622660849	-0.07444609743435561	-0.3146091887314075
H	30.900933597247928	32.03217817926274	29.80785477204076	1	-237.1301966923363	-4.42941205663863	-15.679443564807993
H	15.859802731058304	17.558610376960523	16.21769568792652	1	19.82270522617234	54.685150929304825	2.938571034940559
H	12.511756833218527	11.211620031357699	11.40759311295252	1	9.555305948352062	9.046622530960983	5.5672721995863395
H	58.89349436899897	60.23774752056648	58.02378045503609	1	-0.8303562037685313	-1.2327151601923363	0.2418183689021632
H	35.936356849441424	37.082073655432964	38.16546138813603	1	-23.96567506708285	-6.167202602126283	-22.93184981581482
H	49.039694574474666	50.49291865263054	49.5154721306837	1	-19.347428437316474	-54.36094663262915	-2.758675937900438
H	38.59683717052956	39.89019931455461	40.24144866434517	1	0.5728471504291003	-0.5371177853476625	0.20552233220816477
