72
config_type=liquid dft_energy=-6890.971121827061 dft_virial="42.199798474258486 -11.081974974865625 -6.7930708023208775 -11.081974974865627 71.03859136935483 -15.128134717703295 -6.793070802320876 -15.128134717703295 9.651921002964341" pbc="T T T" Lattice="11.105996452100001 0.0 0.0 0.0 11.105996452100001 0.0 0.0 0.0 11.105996452100001" Properties=species:S:1:pos:R:3:Z:I:1:dft_force:R:3
Si	-0.8171148041660959	-3.0384806845328773	-4.744033002080456	14	1.817199647521491	-0.9260504297896545	0.2375655035921062
Si	-0.2408968372435655	4.631517041424585	1.7526472955027081	14	0.3670746496732851	0.1702483098789252	-0.017910062549619504
Si	-1.1440886669116623	-5.233809666817356	-3.4919418514710565	14	-0.5171516098735205	-0.07678374639143425	-1.0382493521924043
Si	4.730285999672047	4.162278695926553	0.5491504323694723	14	0.589129960421598	0.6534189062887088	0.551919638675755
Si	1.2172527503388069	3.092074891611777	0.6631479329520528	14	-0.9624770786339165	-0.8923671503219907	-0.6004862755101601
Si	3.8125719690431836	-3.476789940511456	0.5516048575853864	14	1.626954823125646	0.23791440258405033	-0.20330835341698525
Si	1.71912717701098	0.1442080321315829	3.304203866245467	14	-0.9564869174590355	-0.5892436032767486	0.20618516315969893
Si	4.960613260092148	2.6484625223273204	4.51920876290237	14	5.367436638125278	0.4451406062878772	63.16273488814744
Si	-1.1470017697810484	2.5132592321191	-2.6222557024993	14	-1.5967304516451775	-0.7301221770836223	-0.9650378995327838
Si	2.0355014767426622	-0.14010214524324152	-4.06580090474716	14	-1.2685581681289246	-0.24588457196597735	-1.667633051727305
Si	4.140807472985709	-5.215468113676713	2.1067719877747235	14	1.8178084852613021	0.20644535901809793	-2.2163313525474466
Si	1.703579892577685	-2.488186334528839	-4.397002820342042	14	-0.5312212124064349	-1.6517721601178432	-0.3640502584851949
Si	-1.3095258112614345	-1.5158663405442907	-1.1018403458082289	14	-0.3346396418385531	-1.5080244898842163	-6.53321204286543
Si	4.194228426519954	-0.572001020069668	-4.481878177027926	14	2.3060932672633916	-0.4728532649810932	0.34375652419326613
Si	5.445958632244661	-1.5824001440895317	-2.6192015534749724	14	-0.16396864224499552	-0.5525475025949351	0.71039331463053
Si	-1.7733277714961635	-1.3839337662912141	-3.473340418013434	14	0.5902352785987298	0.933785857255852	0.3840693987289319
Si	0.7337987293820869	-5.511953794961975	-2.111773017977104	14	-1.119466198376838	-1.4737840518936765	0.7775634411193987
Si	0.8977954259920216	3.1092625317210465	-1.9893194116958948	14	1.9912794185485008	-0.03045371407502594	0.5900239337414136
Si	-3.9933942502780493	-4.8680958672475745	-1.263973456213501	14	-1.5752311260686311	0.020532847086702558	-0.24239789604132456
Si	-1.2119252038407344	0.778429286724496	-4.397943498241535	14	0.9341609815220615	0.48642278752923884	0.49272019578987747
Si	-0.5596611474117397	-3.381015158907482	3.95994854196255	14	0.17557975387078426	-0.01653066454536006	-0.5389754089414694
Si	-0.4359181349424415	4.40368529840727	-5.326365930649512	14	0.8809848670696951	0.0028374718313154195	0.12452402997594375
Si	-2.9104951814188773	-2.690133331615245	3.5208129998479354	14	0.5772982479593407	0.32583386322757796	-0.9963195095208977
Si	-5.254974364256124	1.1911214512866608	-4.779134614466963	14	-1.159816611050178	0.2505259312899087	-0.5534715578469964
Si	5.540322952299219	-0.6183630022589595	3.21211627546359	14	0.12909391257197494	1.3271505730487154	-1.8717253351564034
Si	2.9151141653433057	-5.445327811646181	3.8821654746109777	14	-0.846344622201872	0.7335294058538826	2.429076948042035
Si	-3.841937334262181	-1.970566936686524	-4.074373623408537	14	-0.9350742381317784	0.5958333462122882	0.8081577946554366
Si	3.74771961336079	1.2052527211723127	2.906239363578433	14	0.8721844877798922	-1.500569827118979	0.5616767262551849
Si	1.9469977910158773	0.655708025928791	-1.966542123572283	14	-0.44481947523339077	1.0650441262863277	0.9612367774274769
Si	-3.4887055641049147	4.722417401185734	-2.8893849033627257	14	1.3558407659846516	0.15270025895838255	-1.9139236012233336
Si	-4.515407180316815	-3.2980278216184544	5.303587531926255	14	2.26247189440176	0.4025145082956742	-1.1358449105977775
Si	4.6117883493270755	5.533901465150615	-3.7224934530194904	14	-1.4021954809121333	-0.2509918155739195	0.6952772722323154
Si	-5.103893941519981	2.737118360205499	-3.027607914006272	14	1.8630835930648537	-0.11651709378793863	0.9448125566423711
Si	-3.1857262066941097	2.6376341757865225	-1.4027839740693633	14	-0.22703322775865165	-0.8414482092301819	0.08072139418924104
Si	0.8428140799562553	1.2794119018815653	5.29536465215312	14	-0.03460424939334098	-1.0105896582687832	1.4096776545042964
Si	-2.377248535968812	3.760125011397786	2.2803065141377217	14	0.005022397132377258	-1.346143585159181	-0.28692481219671306
Si	4.722345212208794	-4.0653033561061065	-1.6617236131490107	14	-0.09950691810037095	1.499441626104498	-0.02309341087503803
Si	-3.576688378598096	-3.5049680747097245	1.1400971717867776	14	-1.543591361109421	1.8993919710643883	3.1063022327110588
Si	1.5911472268952056	-3.0035545468903133	0.5243696224859016	14	-1.4690910133528101	1.1174957032594768	-0.08142690548908967
Si	3.487141839804459	2.2460567316790905	0.8592409593085564	14	7.3177187539018895	4.894745609889886	-2.11846737074665
Si	4.78811048079955	-2.0344397434818413	4.777394304822918	14	-0.8936917837829309	0.8361381054124801	0.800436765379032
Si	-2.035045020288481	0.8972556745644495	1.898139180824154	14	0.9000215879706034	2.515113331149086	0.2100490202348175
Si	-3.1244844104582947	1.1800232290320771	5.504750445663142	14	0.7225968089220809	0.0778664388417486	-0.6112553501436003
Si	-4.515552668870337	-5.364628309626287	2.2014439439310047	14	-0.8769963113865493	-0.2028321847116938	1.3161830090845594
Si	-5.470355174650989	-1.8827973573252228	1.1375849953893127	14	-0.4696401546625042	-0.04329792781235768	-0.2065407470254754
Si	1.6886656499421597	3.1334047468086217	-4.5097353479287285	14	-2.58491164149621	-0.2569961178280613	0.2981075776761651
Si	1.3014239868496276	-2.182675920526601	2.7218198500927313	14	-0.3355184456369797	-0.31517020391226375	1.7384389782493948
Si	0.00063415239741491	-4.8256609654037455	0.03882878479583202	14	0.4731378863400337	0.4057659280835335	0.23330055408704461
Si	3.4256712600417307	4.262739097433669	-5.352461690513012	14	1.688295739632675	-0.19202248661419527	-1.3536010761402706
Si	2.7602254964237383	-3.0222170633284224	4.4228020501002705	14	-1.0049825917866047	-0.9174516251569512	0.5088952764694611
Si	0.39948047118274665	0.8152878677497254	1.4971893863107941	14	10.138707486120373	9.115164085027619	11.526643359816433
Si	-2.3533539846021188	3.3491920366736343	4.781011527867368	14	0.321337771354235	-0.0626478093412601	-0.7395931006409198
Si	-2.933936608130325	0.23290607279627953	-0.015001980007496682	14	-4.5721865635085805	3.5529235385528097	-1.450822024500498
Si	4.077796491515074	1.3604834547826048	-1.2338839800258266	14	0.11976542824941372	0.33246602940089987	-0.11367910773555917
Si	-2.1203601744338676	-3.922201481221153	-0.4383037029803526	14	1.8270523802188305	0.3121486409400257	-1.3906278209662553
Si	-5.277190799558904	-0.12424389290928793	-0.5229202899489025	14	0.21967858099036808	-1.473515885608785	-0.9414518648784056
Si	-3.9729847605980253	4.440851515534223	0.2775477361351407	14	0.7517773116425694	-1.4976873609445611	0.19390402148747962
Si	0.646527809261485	5.405477275176756	3.7804967406898737	14	-1.9610421915414313	0.7081078591114505	0.48557509410518596
Si	-4.38133670174671	4.373676895993696	4.26258361348334	14	-0.2071642400656113	0.06838291686838241	-0.6258309462035198
Si	-4.43792841726803	-5.442103740876137	-4.974695663593411	14	0.17778499090387526	-0.3684026255711416	1.2300468670910867
Si	0.782438551443704	-0.7208646859139712	-0.4291234863130467	14	3.3536672471203772	0.735812290267642	2.610518050711161
Si	-3.2156035583495495	-0.02439876360561849	3.4947239035823072	14	-1.3197715007798902	-2.298905485230386	1.5596656544604548
Si	2.484590212877649	-4.42335623932323	-2.884484937728059	14	2.0530980464240134	1.9885895281625616	-1.3119460846274877
Si	4.515372751727814	3.8864701588358117	-1.7532103695228294	14	-1.2146220349439223	0.36578164080778264	-1.0087142940482674
H	55.234185150994776	55.89217323799518	56.28264674605527	1	-10.709519863799107	-6.769898485548579	-11.236101516655335
H	38.199872207543216	35.97205152203847	37.00153630096127	1	-5.082123651853766	0.7016829240269323	-61.918933121814625
H	32.313510838988755	30.290601341023486	30.482478531126766	1	0.1318149133322877	-0.1989472445729501	0.18610843015679066
H	58.03927665188571	57.102493625348586	56.7001133784922	1	-7.495216809452035	-5.721807199301179	1.9100070364891517
H	38.74163159927381	40.88205031389982	39.63260572224495	1	-1.3024841599388106	-0.5727250229263933	1.0167227728994648
H	20.311543676113814	20.36284005252677	22.27139776862264	1	-1.2788040228297148	-2.554863647840704	4.422903560631206
H	44.57584031908886	42.90397804177872	43.06084024626783	1	1.0929611878524956	-3.0406626852192744	-4.017260274271444
H	42.64046384276046	43.86157814806566	44.27459127592529	1	1.6783345062908253	1.58361370074391	1.469245536782551
