72
config_type=liquid dft_energy=-6911.9377390481495 dft_virial="70.94551837558113 -10.905890932591062 -7.320065185985465 -10.90589093259106 62.17779081346692 0.18363050122918867 -7.320065185985466 0.18363050122918867 58.718997125930834" pbc="T T T" Lattice="11.105996452100001 0.0 0.0 0.0 11.105996452100001 0.0 0.0 0.0 11.105996452100001" Properties=species:S:1:pos:R:3:Z:I:1:dft_force:R:3
Si	-0.21068297389562743	-2.951781723229559	-4.681209711949862	14	1.25024418493351	-1.202656367894485	-0.2109051983064268
Si	0.04102221909512177	4.805930052106945	1.523304026368262	14	-0.00640539468408491	-0.8268386745800366	-0.1261235145956079
Si	-0.9909825104226571	-5.018168976105511	-3.707264910684371	14	-1.1194877956615272	-0.4200754147428176	-1.0633040022056515
Si	5.0960631034216055	4.121012144909486	0.30885998253219143	14	-0.40066434090729564	0.547908457265792	1.0364382656048923
Si	1.3531268427327339	2.7581375690907435	0.3230490035993944	14	0.3428700070788791	0.8253242935464693	2.5184537111810226
Si	3.8173975245016205	-3.5255508179344015	0.4899310380875847	14	-0.9260378313735858	0.5086134833263729	0.9796091247136592
Si	1.5174189588482943	0.053233262194205724	3.3494174884016115	14	-0.761874042234791	0.800001991469395	0.8430062990541918
Si	4.502535330428832	2.8704891609991225	4.489681250135171	14	-0.5977459914599463	-2.192560712531081	0.3030494992120217
Si	-1.4107569689223258	2.3477798849828098	-2.995660404612161	14	0.4375558455934404	-0.02762961199137529	1.2073617477408882
Si	2.3004161419135394	-0.49651689398368	-4.13299107268272	14	0.226015327162405	-0.24648158262131573	1.4295600119450014
Si	4.158689237873235	-5.386781440749291	1.9580404832882004	14	0.28722897395608654	-0.11709842070082412	0.5385933426908955
Si	2.292286552510602	-2.8939594633013455	-4.471555153325699	14	-1.5572156482008856	0.17418210101875176	-0.24850967049784858
Si	-1.4576442647438017	-1.5551049366092053	-1.0907165797618055	14	1.922763832645599	0.1436659090844462	1.6534536629972203
Si	4.606835074909438	-0.656665362822962	-4.138027642073748	14	1.0213685031024402	0.8374359993780908	-2.606019130621966
Si	-5.345175046240788	-1.6626976090378598	-2.388957588028261	14	-0.6587920021867542	-2.108792558537465	-1.2080562032878601
Si	-1.4830547846262065	-1.6272272775691428	-3.3423240884676555	14	0.16655157464961629	0.0364364190444785	-1.0390988453901815
Si	0.5481575562866545	5.392293346788469	-2.0953661294184167	14	0.42874646743501704	-0.6495419365764574	-0.6240584261958098
Si	0.7896063615538894	2.9016692460383937	-1.8823842142572045	14	-0.5361405082154743	-0.2333872003363336	-2.09534953437107
Si	-3.57372418814503	-4.544145056736269	-0.9075698134695147	14	-1.3005182928110255	-0.738866763387978	2.23312529827759
Si	-1.2724173453160328	0.3771096625292816	-4.38977614845066	14	0.02280416152652137	2.3315394966168976	-1.1033651655304746
Si	-0.5052617555900635	-3.0051604739772877	4.069700220101493	14	0.9734029906918857	0.34084269053394234	-0.5173449569935957
Si	-0.5977524940431523	4.507445291460305	5.544866415447773	14	-0.14343990892680522	0.5552463918494946	0.0014099941575692063
Si	-2.5323215644294845	-2.3352023440008067	3.205370493218584	14	-0.3197997361517224	1.1620185056463528	0.6878979428529585
Si	-5.242935464102047	1.489932728228992	-5.150626863990772	14	0.528688673666089	-0.9051568566265352	0.32991395026012094
Si	5.5432993593483815	-0.3761212288450447	3.176964686093048	14	-0.23581663775334152	0.6959007652724514	-0.43044725360429503
Si	2.7416385007615034	5.550768141962419	4.079142538285068	14	-1.0577236752188022	1.7051642474171023	-1.7793365221348623
Si	-3.5459836302069747	-2.49998534515955	-3.860666486679002	14	-1.2409007882000918	-0.9912492898295656	-0.7924123456748499
Si	3.579821380197233	1.0633636210999284	3.025473341488178	14	1.7660014843919143	1.0652035348161768	-0.3335770040097359
Si	2.1689322499171273	0.5603963643768688	-1.8939200127720008	14	-1.9789417125592383	-0.46256987214262907	-0.7200208185018245
Si	-3.5061608587286797	-4.7599378995995085	-3.0642454857021044	14	1.7621512541749924	0.10712458894290569	-2.2530703906881064
Si	-3.9754014254260026	-3.1840758556213276	4.8799604032573525	14	-0.9448755487227147	0.2600205090161515	-0.2592676893784121
Si	3.7756678534325006	4.829513635572979	-3.5421553932299363	14	0.10790389096544256	0.7472524233896409	-0.03636211410072623
Si	-4.743890845325868	2.8061054783670083	-3.287019557935133	14	0.10106500792438068	-0.5495058850011999	1.0296927136869518
Si	-3.339629773728376	2.3335775367198646	-1.4049218783863928	14	0.6255350119811708	0.6315354575773324	-0.924615753021012
Si	0.8914872200072288	0.8176478919957967	-5.414841851385167	14	-0.48978322218267234	-0.7969863420393933	-0.8148881770519883
Si	-2.1126437280989485	3.6838257051722145	1.8179427804435397	14	-0.07521562925667594	-0.1652840197267833	-0.20638005294296616
Si	4.807934684466549	-3.9143084495426455	-1.5275498488119	14	0.49788837459390717	0.4435678611635427	-0.7836718731390064
Si	-3.899694068811327	-3.485741373651849	1.7611011800020466	14	-0.24605143670125496	0.9766886061805029	-1.355672872807246
Si	1.5048280906705487	-2.8375343377268063	0.23470857602045536	14	0.998495435953339	1.139688198830335	1.6279716952797645
Si	3.725229970545288	2.352708726208252	1.0097116628394784	14	-0.8545217655620709	-0.974293364464253	-0.7630981454777135
Si	4.971026242365637	-1.996623825562441	4.662619384488692	14	0.902547956058181	0.1879534553345289	2.11749883537255
Si	-2.1610014578506824	1.1104852534465435	1.461374768952062	14	0.2971907215190003	1.470013783052211	0.8305768046049999
Si	-2.7974527965311777	1.4889554005412076	5.00782374041038	14	-0.9027132781302664	-1.0736017932339084	1.2712796831103015
Si	-4.908093002870167	-4.8828190867441235	3.271992034135797	14	-0.613629251685693	0.5893423337210423	-0.3254865068988259
Si	5.111880263568686	-1.8208980860994435	1.4155369897953096	14	1.158179074071776	-0.42679602693915264	-0.5386792176085884
Si	1.0116263366278204	2.9620503275491705	-4.542149309173827	14	-1.5088863243875301	-0.02639959520621644	0.280413487973438
Si	1.4701818241385776	-2.191881680985747	2.7895697602494764	14	-0.7901024646552288	-0.9164717769194428	-0.1257517327663145
Si	0.14393482461886123	-4.612110423224186	-0.15930663430821285	14	-1.6519459668374856	-0.06386059972077396	1.277175484719933
Si	2.814148440997619	3.9555228023763886	-5.389825594376812	14	1.3579873818164432	-0.17680257156104667	-0.778993232787933
Si	3.00477953829898	-3.1623147661730826	4.280335438212377	14	-0.14409374100971886	-0.7140134309212985	0.9967473414461702
Si	0.25418738319779355	0.9615094170380741	1.549243191681787	14	0.3690189195163811	0.1975986998325324	-0.7054552497526537
Si	-2.482824359441765	3.731522628135048	4.233053879516851	14	-0.06827107378695597	-0.5633811119719111	-0.0012680691438970327
Si	-3.3004567030425287	0.18470715879381078	-0.24872878594158643	14	-0.2024331491660068	0.9718857814424662	-0.8478749440884241
Si	4.189570571607944	1.1708507865622877	-1.1232016193841978	14	-0.7455945746792094	1.658622098911782	0.9060492872831586
Si	-1.9331686042337224	-3.255495187005847	0.17303919892123448	14	-0.05003396664061363	-2.3977565143635875	1.0193902946691185
Si	5.523838321765367	-0.49918344373182916	-0.5380100073283708	14	1.1036914387956016	-0.398725470385372	1.6735113698207593
Si	-3.6778295776877252	4.32403309185281	0.059121661513109144	14	0.46905625664429856	-0.5781672815575507	0.12243732089811162
Si	0.20742003213800045	-5.1931073004200545	3.660022222976428	14	1.205189420855895	-1.5690429897840987	0.4448732113345818
Si	-4.733473420653799	4.484762404306536	4.735429186629014	14	9.8249297928495	-0.8519835703900206	2.6200735636334915
Si	-4.997206407802173	4.900321026552988	-4.147491061650582	14	-1.9299945521374513	-0.10511321325095384	2.425160126197322
Si	0.656337735927625	-0.5628829969824939	-0.3055748287816603	14	0.7979389365605082	-0.37650417843492817	-0.5885018393918858
Si	-3.143557848765131	0.00746767201439204	3.219590611075853	14	-0.4841658712792128	-0.627867518727609	0.46411999154014627
Si	2.539364987379406	-4.515532678076724	-2.6735331987182906	14	1.1435024335727744	0.7657371279783134	-0.27666918729570633
Si	4.468269999575168	3.426143264890945	-1.8656397034063734	14	0.29326104414768595	-0.6200657567441519	-0.12778033486391133
H	60.7669960072938	60.00293232698009	59.7965051709249	1	-9.062313472508782	0.04115516863854627	-3.813533087797807
H	41.79871815966289	41.64892714311484	42.198753930668246	1	0.18235513061043848	-0.04724046071027274	0.22652774845271054
H	42.77327823313183	44.974996495175205	43.79754541492143	1	0.3527577068085726	0.8212812304305366	-0.4855966913898753
H	9.00529167018706	10.564452516700573	9.220919033703161	1	-1.7757392886814432	1.5281549589883157	-1.5558336790913059
H	40.497581818121375	38.74397163272627	39.43347076346022	1	2.145276285919834	1.528766624943979	-1.3683954732629346
H	29.471252010371224	30.953559361436206	31.396579781109764	1	0.244593619984731	0.020356212151208385	0.37318822390353323
H	31.781022733096368	32.990975511967214	34.005199541165176	1	-0.058205710679640275	-0.9162743160308555	0.46882845671293344
H	46.036593152239604	44.0044856680127	45.65629606872857	1	0.12531798729880553	0.24281287243999644	-0.10261307043764184
