72
config_type=liquid dft_energy=-6888.0341358556525 dft_virial="13.98484618607773 -6.390592991407587 -20.589255514533004 -6.390592991407587 26.055407283999124 14.983494254406335 -20.589255514533 14.983494254406335 61.44829978118657" pbc="T T T" Lattice="11.105996452100001 0.0 0.0 0.0 11.105996452100001 0.0 0.0 0.0 11.105996452100001" Properties=species:S:1:pos:R:3:Z:I:1:dft_force:R:3
Si	-0.44182208265637785	-3.111342684856525	-4.580981425768595	14	-0.9464935453006839	1.635128109827865	-0.1890819134595419
Si	-0.15563943427972943	4.7087892329393615	1.6985910789714018	14	-0.5771696926933332	1.1913033952428393	0.4778291251071758
Si	-1.0085866253988807	-5.166240784402779	-3.7916016265423282	14	0.7918289618777082	-2.0801229344440895	-0.6933551138949727
Si	4.580589384093836	4.039601859116656	0.27586184587371193	14	0.08366479555974655	-0.4161333960659666	-0.519622956307247
Si	1.1143956747973278	3.0972269633659057	0.6973643974213277	14	9.719930222453698	17.411117193628485	-4.265462697683535
Si	3.6841500002686156	-3.329307860625794	0.6493487323603185	14	-0.02258304646898864	-0.3500197367531469	-0.8790033161994568
Si	1.4245606119126413	0.32727483524941847	3.5490788714181756	14	0.06710687729799292	-0.1793520795965055	-0.1162941789566818
Si	5.013943144455487	2.7168910088672895	4.347935417417019	14	-0.9698641213292339	0.28216903868603505	-0.3373727267938705
Si	-1.1250818645835385	2.1474899025670577	-2.611715001266612	14	-0.2258134953947734	0.30186396254890147	0.7047242845101356
Si	2.470917620645469	-0.6083487252581009	-3.703642134641696	14	-0.4806434569906099	1.0753306044511761	-0.44219823335949976
Si	4.137083632375319	-5.286308822646078	1.8120232843345703	14	0.2657083082053831	-0.31873889809662925	0.5672161726674441
Si	1.7792828067937794	-2.757470098703972	-4.4233373591292615	14	2.4434648534135834	-0.8662766019752558	-0.0865269500021354
Si	-1.4918218582254943	-1.3622904004053615	-1.1086383262365593	14	80.18023256944585	4.528710715208068	14.705469274513971
Si	4.961911551077399	-0.4128787453025601	-4.045971148081936	14	-1.5687825368151678	1.0897557908498667	-1.1394488289250289
Si	-5.403323822464694	-1.666899007495689	-2.3293528156694854	14	0.620747356764523	-1.554617803385408	0.16805104327232664
Si	-1.648986145818097	-1.302854439192658	-3.3932361974033727	14	-0.018841059786045125	-1.4862716533231035	-1.3622744428272584
Si	0.7071809876853388	5.254657843357238	-2.2420141489705263	14	0.4748111616823861	0.46447120452687857	0.973148194154659
Si	1.1648113456916358	2.8380740891543783	-1.8982846693776763	14	-1.186626040444426	0.9925466695741123	-0.21275999368438162
Si	-3.8289932953972587	-4.900407653325314	-1.2625307872743734	14	-0.19493734871564714	-0.6341255890768496	-1.1026984779209603
Si	-1.3048635139508429	0.6402584742642746	-4.533485521341544	14	1.111601701423569	0.4484514186086319	1.6583575321743387
Si	-0.6682755715139873	-3.0490802475467618	4.129521559391084	14	-0.23386773992066928	1.413299827679321	0.8746324371552052
Si	-0.6736375466010612	4.391374301340118	5.212647190577879	14	1.2432595202207957	0.7324883653097546	2.4181273818151205
Si	-2.672835742141099	-2.342695559807039	3.3283716251248823	14	-0.9022846748733978	-1.4534468659218371	0.5697389412075733
Si	-4.994780858177034	1.6300337628725885	-5.066755489384159	14	-0.9937265498055283	-0.8005097847701241	1.817566287140144
Si	5.5240082435110835	-0.696985682942311	3.1055497971071095	14	0.09204737023502532	0.83137821813329	0.13674706466792774
Si	2.622314564280496	-5.332838505381797	3.880806100645241	14	-2.7131092667535817	3.3078756042580078	-5.845829863739694
Si	-3.554515256681478	-2.696027283932374	-3.4553387083642253	14	0.0852213427205642	0.9757928330869634	0.0738765976059428
Si	3.824777459144041	1.1215179503220598	3.0983020238224688	14	-0.05354558228687188	-0.8733422565055549	-0.49025939088796383
Si	1.8002131677074074	0.5695887976402719	-1.5950920768349917	14	0.8772027711437571	-0.6900173049683566	-1.4295574408396812
Si	-3.258444939663525	5.158957471929493	-3.4667678893130813	14	-1.0553430888028767	-3.8570097074299152	3.7891456396151377
Si	-4.120908859142481	-3.0757723994197392	5.279754063540048	14	0.9044297480419973	-1.1645973242824612	0.6597821348455432
Si	4.253713254117047	5.064837483796881	-3.800739640423116	14	-1.5060002586656638	0.8373429253655016	0.07101958537419427
Si	-4.6310961241590505	3.2915030487028463	-3.4266285969359016	14	0.3272518278116396	-1.5664546580583059	1.0322856734023211
Si	-3.304652548502132	2.6079856076579966	-1.4640790790881484	14	0.8874779364451969	-1.1493750952345245	-0.5679054860037756
Si	0.9290910133943941	0.76848164570235	-5.122798568680746	14	1.260156824384809	0.6824124896524225	-0.7765206008015465
Si	-2.3102927045583916	3.700484699850364	1.9330308898777164	14	0.1927508807513932	-0.6570112546420196	-0.41068702366629684
Si	5.073952175085119	-3.9806279073563604	-1.6294218224680777	14	-2.1431849488524257	1.1915489358009135	0.5735251509020233
Si	-3.716497325535002	-3.4785824483388255	1.5113250985950273	14	0.3148680990371463	0.5369928296291033	0.18418138671933965
Si	1.3659331672416504	-2.6327453161483083	0.9868510797424759	14	0.2082854990957279	-1.8559348918327137	-3.003722072421515
Si	3.461039416343088	2.0273207997560454	0.9610840573739586	14	-0.8612557475060707	0.6386977856676689	-0.11372101675227758
Si	5.18850830728924	-1.7787263963715292	5.167352494647635	14	-2.1233000203064005	-0.10517774799448955	-1.1868497266072788
Si	-2.3437428552724717	1.2588891310377297	1.7039030770744412	14	-0.17403786201029145	0.23687978980322275	0.46614910785880714
Si	-2.9010706328296254	1.3339867684471847	5.239321572856533	14	-0.23355663617693137	0.8946721462415033	-1.2626700798352537
Si	-4.402664657333323	5.406283570519179	2.046057726370383	14	-1.4172163924135024	1.3942494799202156	1.621812869595882
Si	5.502784684291121	-2.007575448663857	1.1047101352914515	14	0.10798205256717507	-0.49261143803483526	1.8232186050759576
Si	1.1169800401717316	3.2872128022734	-4.615115705864124	14	0.44751630760369404	-0.9555446073592012	-0.921179213650102
Si	1.1761394620727779	-2.1610025684503276	3.0873093085341807	14	1.2007038705143647	1.7351721318296147	2.679811395973408
Si	-0.06511556779830752	-4.790596002805531	-0.06830632057899585	14	1.2717861908583707	0.32185893440262897	0.16558792437562478
Si	3.3698514112738303	4.081635834488565	5.358744352705965	14	0.8412780020579882	-13.599887816197532	6.5682963176220435
Si	3.0325567460253278	-3.07934741967767	4.3691234374483345	14	0.014549113675121935	1.034075419815676	1.9229471524549253
Si	-0.0281092770202651	0.963709514935235	1.5415256347472228	14	-0.04385174389831758	-2.134805973724595	2.0155406254599497
Si	-2.526475367897099	3.548867857485585	4.285294265628239	14	-0.9796677459149585	-1.1023531784764644	0.006762006991989448
Si	-3.136558849801018	0.4733864351728913	-0.2933737810793832	14	-0.29890384899381495	1.05828109085221	-0.7823482681201942
Si	4.0568583564039296	1.0658535855044893	-1.1232682553629105	14	0.056433447782462204	0.8869290054593454	-0.10330752598461385
Si	-2.101310058719581	-3.738831484400175	-0.24337014265344817	14	-0.26065685758288815	0.7723878061099406	0.056374312360098794
Si	-5.3590975233931415	-0.3810178626807756	-0.3935865188656172	14	1.076734685066509	0.7263094850043748	-0.8311933556607713
Si	-4.113015827463974	4.252980258351209	0.09301272028633752	14	0.13850081560680075	-0.8812298934067051	-0.5389828651468979
Si	0.09487408529170946	-5.069693025445739	3.8205571804922434	14	1.7237281420496355	-3.0097307455547013	-1.3479916956633036
Si	-4.649590940050733	4.5828327953771595	4.303806851114245	14	0.534903806556483	-0.4363014033077402	-1.1242885635153077
Si	-4.918046196890539	-5.315067800458791	-4.879385112641134	14	-0.19312934745451898	1.8064884227577542	-1.0173251828759753
Si	0.5377456846128108	-0.7299449486132082	-0.09521726058207935	14	0.6984232767020486	1.5124953849254221	2.4357507661215436
Si	-3.1566173899931558	-0.15464433699762126	3.517272408179006	14	-1.0466149575725703	1.1364362648214112	-1.3566498928289021
Si	2.6892115339097202	-4.483387481945766	-2.7623334145503464	14	0.5262430382855642	0.1375479639751539	-0.8415137724158457
Si	4.498874793998219	3.443307582407665	-2.1603073330724265	14	-0.6515371143048924	-0.6877264501281045	1.287003277695667
H	33.53101791664631	31.919245743739914	31.976994704091542	1	0.8397723627825093	-1.0958824777172478	-2.296966871818994
H	19.441081217990053	17.398307534770556	18.23997214409402	1	1.7018668048440126	5.302494631506849	-2.3128383049602683
H	21.394376108994273	19.50859679162166	20.557263847616525	1	-0.020576041656081047	-1.0632744344944696	-0.22970409196522149
H	18.731350293519313	19.389135140784646	20.716821477444554	1	0.2379719953432217	-0.3487683797938308	-0.645298327245553
H	42.17620764727084	43.02676371735385	43.18777067971888	1	-82.74981502391279	-4.5582730270686	-13.80142802048585
H	36.501274464973946	38.450253565756874	38.21812935511082	1	0.3920282552474503	9.835107770369838	-1.0386553297224559
H	57.56930308942255	56.13873080163038	55.88096395577608	1	0.5081931076065286	0.17877255245734414	0.3428607510997266
H	45.115164165797516	46.54465584013489	45.31129162074302	1	-7.623727595337401	-17.1139097599249	2.775954794093961
