72
config_type=liquid dft_energy=-6891.871894138114 dft_virial="59.559169556212325 -23.187752881241934 -6.507563105204262 -23.187752881241934 28.440088313660375 15.001102658633789 -6.5075631052042615 15.001102658633789 15.030030751293182" pbc="T T T" Lattice="11.105996452100001 0.0 0.0 0.0 11.105996452100001 0.0 0.0 0.0 11.105996452100001" Properties=species:S:1:pos:R:3:Z:I:1:dft_force:R:3
Si	-0.3187643101681742	-3.1571549202214375	-4.759474779547455	14	0.05155348988482115	0.24870301761792366	1.2145896390168884
Si	-0.39720263131042094	4.5998283017478085	1.5225266066166152	14	1.255574600483241	0.8109669843282304	-0.6612638628415445
Si	-0.8571097185893984	-5.198471496706419	-3.5881242231448227	14	-1.8672279577304	0.7712578053217355	-2.1778678740685633
Si	4.9061694442846635	4.075629711607269	0.44598349952697974	14	0.5848020188361928	0.6276199212852788	1.0595298767062062
Si	1.0491057428547226	2.975845085742324	0.49582832220364975	14	-1.2961355866823012	-0.5046668366599456	-0.34108463154456825
Si	3.6397970928375085	-3.433602052108175	0.5815799420096043	14	0.6270239390720685	1.000928215807263	-1.0446452337868048
Si	1.616358949441118	0.4443375908527785	3.3328229085028838	14	0.21298496539989453	-0.5364030180686613	0.6814778928685488
Si	4.912349931310257	2.5936355496422383	4.780240771713593	14	1.364561183898998	0.39283506809691277	0.2841675588513862
Si	-0.8712831912615684	2.0998385141896776	-2.501079285810082	14	-1.6611530949889357	-0.39195806407221023	1.8639842512585012
Si	2.2894667400114135	-0.45118110586656257	-3.896800956735555	14	0.8253052673671003	-0.6257165320167732	-0.2923174484951916
Si	4.227666360637937	-5.192651954565519	1.9466179659372154	14	0.3469092135368317	-0.8274125452874936	0.6333501437122929
Si	1.959444281239746	-2.8542210973960866	-4.205005685477072	14	-0.380476279044025	1.319749389274137	-0.9171760026666314
Si	-1.6681062293100324	-1.4456753323673737	-1.1668726186331457	14	0.8634051915537145	8.118980072757093	-1.512392797823148
Si	4.559519087624912	-0.9540506298208437	-4.726790942588571	14	-0.7582683241338154	1.7751286511679079	1.0487859989049033
Si	5.432848003432957	-1.9022828281004323	-2.8055701693380173	14	0.825734384845033	0.7972521943294966	-0.16858223363146924
Si	-1.3748357339976538	-1.370557704164305	-3.416894191045636	14	-1.1515492218932417	-3.0164505864194395	-1.5386980334641152
Si	0.671562946463809	-5.500065936359647	-2.055706616087968	14	1.47915946178651	-0.7457372710244776	2.173283336172207
Si	1.2140020251772772	2.930020633781314	-2.1969948817522935	14	0.614895263945334	0.8135416891958268	0.7400289029926849
Si	-3.896185684532109	-4.9549669714959	-1.130462719864581	14	-2.19323562767762	-0.8782170721925556	-0.9675354712407758
Si	-1.0725604967619125	0.6210550957989485	-4.335916508056556	14	0.6114163013366416	1.1753918528585712	-1.2064973421322545
Si	-0.5320794052229494	-3.025902032951229	4.004814546429744	14	-1.7689451428729517	-1.3787320879815261	0.5070741625712002
Si	-0.5787323645192859	4.35111395360161	-5.380253336034746	14	1.1669100335179345	0.45861962592875355	-0.622811954336602
Si	-2.7470349044375793	-2.0307792070512294	3.640642259167514	14	0.49985706993754453	-2.1705332819217764	-0.2904207441005183
Si	-5.230054729416901	1.117623077366308	-4.791117984638778	14	0.9617291440962854	-0.6068700729095559	-0.19800416314151975
Si	5.323211827657116	-0.419684499928407	2.752636769048018	14	0.9737459761415935	-1.068209928267026	0.3035290103542293
Si	2.8007024110930616	-5.461008368036902	3.9768218823722257	14	-0.7753895715712135	1.9525994530016613	-1.544789239078078
Si	-3.6683250659240185	-2.4335514955823783	-3.9441236076179536	14	0.8490260279402544	0.533687930850585	0.23621464485690047
Si	3.951278090532396	1.4052284038884706	3.11009881325389	14	-0.347626294810621	-1.693992537690527	3.5386564751313077
Si	1.8951072437927303	0.4019882051816308	-1.680209544243531	14	-0.7080960320269778	0.31222011766792584	-1.694233450259025
Si	-3.182494361726549	-4.598906504042285	-3.285560230001327	14	1.1745526440820746	-1.1290955020218567	-0.1658656037502008
Si	-4.367980630413414	-3.1738694448818476	4.981251533299086	14	-0.1232443908581061	0.17636959742513375	-0.7217079778129056
Si	4.4732499283842895	5.137412949412064	-3.6923739906413955	14	-2.2773989605589438	-1.5724741298338363	2.39155372277873
Si	-4.782474187600109	2.8941593712374836	-3.2717443704149147	14	0.4766582437443804	-0.11421389764214998	1.469611405069608
Si	-3.089691544773156	2.634625561347649	-1.4601164595540392	14	0.18606317870315603	-0.0439615300954879	-0.9061004522790296
Si	1.1638040318134304	0.8995124130435161	-5.479961861582056	14	-0.9379142810684138	-0.2647796249637456	0.594755538862082
Si	-2.244498560376861	3.421052276117302	2.1165541494497333	14	-0.6990940780800753	0.36919349756761916	0.7242690558223052
Si	5.023901891474085	-3.8031440886549954	-1.6790223132228015	14	-1.9199662129467456	-1.524064073313428	1.6927162410096057
Si	-3.7713753858037635	-3.2476165931227277	1.8796221529395674	14	0.6412933164883583	2.0507580834721466	-1.1866694921243364
Si	1.3568573469409944	-2.619089382910806	0.9212690600931801	14	0.6067402320908882	-1.948465629867927	0.16038477853924113
Si	3.164129485993356	2.6244002704142004	1.1616328095070447	14	-0.5218942707470657	6.405421166469707	-5.3870297462174666
Si	4.623976069833609	-2.131935954535892	4.414760198069304	14	4.196668146853397	2.1137864164007887	-0.8185103502270129
Si	-2.423967020644216	1.2693254359037682	1.3708186950809291	14	1.2169799956330303	-1.5891618889142574	0.11540020563686632
Si	-2.8918637617708343	0.9236435221346391	5.247587766015831	14	-0.8158919365689741	1.707062494474968	1.2727943212544006
Si	-4.619920159929302	-5.1165714364700525	2.7784981923863783	14	-0.9609007339621336	-1.0693635832241764	1.2044864806613667
Si	5.486575482469281	-1.8458454859297957	0.8031656726222582	14	-0.5193221369847896	-0.8659613844630056	1.7471077169468063
Si	1.3843502411581678	3.096736078322723	-4.651241291123515	14	-0.9208866218646692	-0.11628595141965734	0.6063640793825507
Si	1.236557193371847	-1.976983981436547	3.222197188443161	14	1.9492426178956759	0.7662886300694853	-0.3371688381419828
Si	-0.2347341198122952	-4.4520208161661	0.11834994059215845	14	0.3482749846828944	-0.4798950082319148	-0.34473611532024256
Si	3.3155364250251904	4.098358133346492	-5.4810902308215885	14	6.163528492623792	13.940230426746703	49.0232255442415
Si	2.794288698141974	-3.109798951349683	4.70018541748792	14	-2.9819180708645314	-2.101263076607411	-0.28114419610542407
Si	0.20904928181752352	0.8678603231550313	1.4865809384997484	14	-0.9911803842069856	0.5129324260431576	-1.339460253989988
Si	-2.3658648896054095	3.2734924542564756	4.695725249312757	14	0.019401560745837404	-1.157890081833791	-1.1867039449356263
Si	-3.2362729283465526	0.3271260148969603	-0.7280347172234469	14	0.15446300876587607	1.0038826729306451	0.47770699760446883
Si	3.83304809470192	1.2459051105855796	-0.9998617545861109	14	1.5546828523500076	0.9280708043502268	1.1078597147406255
Si	-2.5426679107242607	-3.4579475069308234	-0.268474137033775	14	-16.87211453097062	-21.840731596255807	24.692040602183205
Si	-5.457157919066958	-0.4251253275902907	-0.9601100614851095	14	-0.13713735845552621	0.854296022514962	-0.5020692489549998
Si	-3.6851661989439823	4.405923156692369	0.4171612175344898	14	-0.9295286210667508	-1.5020309862724193	0.04356712253937719
Si	0.33698480794748953	5.447396858785208	3.5767616781746794	14	0.011873621478975844	0.8919200351068168	1.5156629866798443
Si	-4.418993803916845	4.281303881103	4.561083922525013	14	-0.8086015674336943	0.16042334511904335	-2.2759737968799856
Si	-4.450232750737312	4.935529256505435	-4.461346521386928	14	0.7190491978013406	-0.694904204850362	1.4345142747863948
Si	0.5906946332978428	-0.8778812637537611	-0.28069850732860147	14	-0.9258151736528608	1.5818188121199144	0.4024548586522468
Si	-3.350403700886558	0.0634030231453937	3.1913136335091616	14	-0.9225568118806372	0.6559162208861685	-0.8448407827001174
Si	2.699226921510224	-4.559831166125216	-2.9117223940268344	14	0.9928989110029726	-0.25472428916717843	0.7735918547313658
Si	4.434991991806095	3.5348221037726146	-1.7456049831524316	14	-0.21952585733435126	-0.6582600404960154	-1.555906184261334
H	55.06544286210086	56.63874386329719	54.89762237091247	1	-0.5758481445587771	0.30835137549269903	-1.2419958219559428
H	3.517956537560455	1.608613627515423	1.8024898969800875	1	1.305768489874768	-6.4320771008763415	0.20335026243370366
H	27.48199701345475	29.391339923499782	29.19746365403512	1	-0.1545038893404664	0.8448893765906681	-0.25018500272445704
H	31.779938787842642	30.648135574206297	32.7877191178991	1	11.52589002595763	1.5990647581653397	5.525438259143273
H	27.74116210426238	28.5598472963268	29.454586352095202	1	0.5966920953892176	2.086664083489078	-0.5089176450857463
H	26.621024629299313	27.39947279621778	27.515859196637205	1	0.6155143861064256	0.9797520781694594	-0.859457002224095
H	53.41710308527627	52.658922251283244	54.59862007083115	1	6.821074794282933	14.212458029601853	-26.21828934368716
H	47.61945752698083	48.26214488266918	49.2152759359838	1	-7.268555106412147	-15.45452841361208	-49.35247563510795
