72
config_type=liquid dft_energy=-6873.17917858396 dft_virial="13.740844013211548 -5.639720325422479 15.017453319702142 -5.639720325422479 -25.280637497991044 3.9945922733144057 15.017453319702142 3.9945922733144057 63.85939341718901" pbc="T T T" Lattice="11.105996452100001 0.0 0.0 0.0 11.105996452100001 0.0 0.0 0.0 11.105996452100001" Properties=species:S:1:pos:R:3:Z:I:1:dft_force:R:3
Si	-0.1583703988073008	-3.191472449258426	-4.656668791589656	14	0.4708053795935953	-1.7297355296301617	0.19269791598179814
Si	-0.22782063702086297	4.76679585240868	1.2591901035415818	14	-0.9386203065893265	-0.23465398392757056	1.779766925165455
Si	-1.051240315372816	-5.438092254957638	-3.8981547777030663	14	2.380804188545723	0.2684827879563549	-0.09101841388590207
Si	4.473057794645668	4.327749158265681	0.682367970412057	14	1.5369743644574876	-0.0896870955511294	-1.0292707953039153
Si	1.1339033575654416	2.94885085076585	0.9203117231990091	14	17.3331011164571	53.9271209466342	0.8631709638590491
Si	3.856882673687772	-3.113182948468638	0.29444662033665603	14	-0.7686998126387201	-0.47508035640940555	1.6352679779572807
Si	1.5668584126544627	-0.098065948672043	3.3146790420990886	14	-0.7613307676806437	-0.27658562637280154	0.5534898126947695
Si	4.841241567826397	2.780452847761948	4.679611559060405	14	1.5341191519994632	-2.980877544541467	-1.0925390123589271
Si	-0.9732473446882987	1.9104779428824368	-2.8012243929263105	14	-1.1512656289764294	0.28784038280121776	0.45341108077119757
Si	2.3157768456064387	-0.31788804704810353	-3.9730258527848985	14	0.2778385259953097	-0.978912612282431	0.11144764542820267
Si	4.34177714238433	-4.883948566583301	2.099444251315628	14	-1.1480237222782548	0.034947491953580746	-0.7938228540534831
Si	2.1764387929191016	-2.748083310502657	-4.400000328784463	14	-0.6716321021555736	0.5110943428497837	-0.6256160017987554
Si	-1.5481636888266428	-1.4044465417382428	-1.3786328741846268	14	-0.15748071508013387	0.08381289122618708	1.2479744131568833
Si	4.64518852305712	-0.6494897785152601	-4.517020881601305	14	-0.04047048329179084	1.6179482411891672	1.5262893649680165
Si	-5.436089843797324	-1.8478223532982694	-2.5691634864600355	14	0.22354860871825497	2.5022328648267407	-0.8584324167540162
Si	-1.4663469235636675	-1.6007850106163377	-3.70112329464636	14	0.749374099499827	1.0012118087240753	0.516916610847259
Si	0.8416135217397833	5.4564360292975715	-2.033866674064913	14	-1.2088776714376475	0.04052216250872581	-0.6438106857073153
Si	1.0355208879945137	2.994178864685451	-2.187503697184329	14	1.010580402289631	-0.6868167930658363	-0.5048807526225819
Si	-3.888154938497595	-4.376968713342098	-0.8330574620730854	14	-1.9657357443033616	-2.4146548469697287	-0.18230293717243948
Si	-1.3579590617890425	0.364006807915094	-4.883506547924508	14	-0.8032924920581205	0.9838673893448884	1.3359596940966068
Si	-0.3998847294536031	-3.61888561211785	4.184157508937191	14	-0.04358203495023404	2.009802946827507	-0.6897056870035546
Si	-0.8622462419484946	4.070671994791052	5.325389713561372	14	2.2328777008352594	1.029003657461152	1.2751396835274398
Si	-2.593201305180961	-3.015012603429945	3.522609950073885	14	-1.3792213693239503	1.576128184714831	-0.09886954109150625
Si	-5.346174585921478	1.6406366576854083	-4.691837039954876	14	-0.8378918563513531	-1.8042394769342205	1.2755706007790966
Si	-5.388903796671287	-0.7292374966392094	2.9187213929909475	14	-2.005018376937244	0.8956303971943226	-1.330235385211829
Si	2.624894487256319	5.469792100630867	3.6638238055619823	14	-0.8445425344829802	1.956526045046591	-1.8186415233850302
Si	-3.61518509410001	-2.6139617443488716	-3.8578477847794597	14	-16.054751665047988	-4.636645973658417	10.28000155054698
Si	3.9781046249624437	1.2027494295720094	3.026693890498264	14	11.64611182540137	-0.8480775471876517	6.0504271122536695
Si	2.059299405940222	0.5640035920245109	-1.7084787476127063	14	-0.21800093476897142	0.7696320954278058	-1.2346285767715905
Si	-3.0250901846105807	-4.867325111093799	-3.004730671914591	14	-1.3355403468188904	1.0420766995719768	0.23493397729693466
Si	-4.501328108614488	-3.289245199624134	5.127328704633556	14	1.139710310336088	-1.0355440351745446	-0.7887618903413035
Si	4.0872632428908435	5.364135203383814	-3.706312016188781	14	-0.2197055775962296	-2.1657199156519273	-0.6259263342108973
Si	-4.998139311504149	3.059919700084011	-2.8708489952841707	14	0.5197206583094126	0.8038190544276868	0.24500962482553099
Si	-3.0178313053294885	2.911504716496373	-1.5068982484092202	14	-0.33382511567313017	0.570045159851203	-0.7105108141436609
Si	0.7987699192265171	0.6380383855734998	-5.548820150184721	14	1.7496775367142943	0.8035902260541935	-0.5966005640398203
Si	-2.3090932569415648	3.566266511527445	1.9410860691044243	14	-0.20329061279027624	0.17565611569879264	-0.19169621334906847
Si	4.599858287938229	-3.6718390032014625	-1.7790584656654471	14	1.1413049098556438	-0.9594323757137971	0.8975134747307989
Si	-4.076622587690086	-3.3526371167730753	1.466853357001883	14	0.9736300192916549	0.266419733047468	0.24082746491177812
Si	1.5542542172809746	-2.606143122846593	0.8028191655329528	14	-0.19955479676010104	-0.175453769710097	-0.6549584841544133
Si	3.3324975028068375	2.386793029319747	1.2878957725713245	14	-4.953965621618324	75.20187410032366	-9.344805442023029
Si	4.864922884061209	-1.8757783675674955	4.702127856267392	14	-0.24021219940866667	-0.46062483096793705	-0.6427922708900047
Si	-1.990558840899949	1.2479708259256703	1.7447120610376825	14	-1.5236146441034664	-1.0172585912481835	-0.6591681548950918
Si	-3.392711994370833	1.1966089241336435	5.314505837038315	14	0.9811792987326735	-1.8334747441980284	-0.6772173142425314
Si	-4.735716831937123	-4.985046452286769	3.215991157625728	14	0.247041826470576	0.3298540435061615	0.48136979424355175
Si	5.431752952182779	-1.5093970976109428	0.7101618371330825	14	0.8140646520179449	-0.0924201805064468	1.3454481011700812
Si	1.1764237755819518	2.9499636716103503	-4.820760999769079	14	-0.5160198093115914	-0.05067314342320244	-0.1715909410771065
Si	1.6180703834943864	-2.596644164081112	3.2166597386121443	14	-2.4957307965826176	2.10009785167632	-1.759341550281135
Si	0.059716942922941704	-4.443549162072438	-0.06548872927909809	14	0.6647037446493705	0.1423546453711707	-0.27758732900553124
Si	3.1327461612190124	4.191429715414026	5.318066419500858	14	-19.978392338181138	6.670571030599554	18.60240799045525
Si	3.138185878281251	-3.4556008098804947	4.503048427464919	14	0.7608803100285538	-0.14275085270100552	2.0618002094905865
Si	0.29200885411542016	0.9770755816653374	1.4518902479819686	14	-1.5299819864288131	-4.630777425765179	2.5205658742015244
Si	-2.6126379095717813	3.0545766051909062	4.334752599628376	14	-0.024586708844980033	1.0502124481365214	-1.2983451945944364
Si	-2.8833465730917185	0.7293041326179222	-0.7568725476109699	14	0.45120172996959423	0.01248143077665885	1.5101567075262154
Si	4.020404033649557	1.1567828208564128	-0.5958222718597773	14	1.0769095202282788	0.48242034787736426	-1.73120157388371
Si	-2.0331014709093633	-3.397518669635302	-0.1331253582720323	14	1.1787103784952861	1.5330511148494739	0.630471534195855
Si	-4.952275988555557	0.03756159060064741	-0.8995623900275507	14	-2.8038124631272336	-1.7879219570199005	-0.7555784337478765
Si	-4.09834702735004	4.360201990498362	0.44914426611724745	14	0.3113333434430068	0.27580092502909237	-0.8137934004066691
Si	0.19694374568473455	5.424853907186735	3.577625724698653	14	0.374087082323457	-1.4976426237119906	-0.32659979550245005
Si	-4.511544514750775	4.282290093587946	4.803847677772176	14	0.20955999600292527	1.108733376328412	-0.7799219160295705
Si	-4.7787203607993	5.352696027038151	-4.229149011164292	14	0.09223428959180009	-0.8294612020065876	0.015661373836617996
Si	0.5342028717445909	-0.5428666595768741	-0.32364317440958174	14	-0.3314812960632832	-1.7934038106729884	0.48057532269962594
Si	-3.2262830845378887	-0.3961653312417948	3.4257612186129927	14	1.958085934644325	0.5819102966826223	0.12139756590664373
Si	2.6601926757800283	-4.304977423140295	-2.7711948891194775	14	-1.1150143295150017	0.053945646274686926	-0.2622506857708479
Si	4.103352499951002	3.5850478621275914	-1.673562605366949	14	-0.04832726692909933	-0.021329889735948463	-0.24288280650470448
H	43.51378054197241	42.958251935840494	45.083881905590886	1	0.024839448497950594	0.0512297877250145	-0.033488132573864696
H	43.01155627641199	45.140265938978544	43.53180224241523	1	2.7923479045046933	0.5037386676393721	-0.6824292018370035
H	36.148566897849214	34.4902772588032	35.95770701702094	1	-10.411585321510987	-1.0576252018850403	-1.5655349736852886
H	3.911435328260487	3.891448977045288	4.712648566706466	1	18.04724335975494	-6.035591063224818	-15.003637273165161
H	57.80306765574457	58.3952382759709	58.164253540560836	1	-0.3033523754187351	0.30128417829920806	0.20739563954442464
H	41.734951970433514	41.977876762629236	40.0000453936634	1	14.99733446558335	2.915965105634221	-10.352404647693948
H	3.391922358023089	1.5975020780650973	1.3699690863523437	1	5.255480428064749	-73.49019827157275	6.3743822688238145
H	0.8778568305615665	2.125362315235894	0.8947912539517284	1	-15.59098340071564	-50.23966560775729	-3.1246493831651034
