72
config_type=liquid dft_energy=-6851.097140390005 dft_virial="36.450654493993945 29.19096097964548 30.700252770570316 29.190960979645478 -34.21061392762967 35.20800425279917 30.70025277057032 35.20800425279917 -12.683082016405058" pbc="T T T" Lattice="11.105996452100001 0.0 0.0 0.0 11.105996452100001 0.0 0.0 0.0 11.105996452100001" Properties=species:S:1:pos:R:3:Z:I:1:dft_force:R:3
Si	-0.6752290358926472	-3.396063784100077	-4.649512087475923	14	1.7543965434188937	-0.13995169033896032	-0.05020623069706355
Si	-0.03553252504884874	4.760279964290233	1.6099941028744191	14	0.5697011459593672	0.18953982731706026	0.004524374031864575
Si	-0.8946046732113332	5.430117038905386	-3.691335579973124	14	-0.36024965060095204	1.6933021959120673	0.6368787286536641
Si	5.112494425172486	4.0850964629830395	0.2638851392997673	14	-0.6395261958018206	-0.9709666112905135	-0.07648344129004095
Si	1.4040578318624193	3.083467744361399	0.7340275129090001	14	0.08627446745969684	-0.8028597750327395	-0.8209891528661676
Si	3.912839126212033	-3.565556838354156	0.7752229855487747	14	-1.6136095009614173	1.1445334468061537	-0.8653180939119048
Si	1.4804892994457715	0.3119430071472944	3.6562239721898098	14	0.6310310067135193	-1.0741404397984795	-1.3932423779663137
Si	4.452261816289111	2.9938590119876305	4.862300758298868	14	1.05640135575265	-2.2790508957271385	-1.7466814276847256
Si	-1.2732391890534882	2.187805780287826	-3.178936000463296	14	0.4994346373334442	1.2884338406957976	1.5706329613140784
Si	2.3817098147436204	-0.7668945988093449	-4.031731039431054	14	0.6655861479952454	0.8582807215401275	-2.2311771717765136
Si	4.0437066354053535	5.5272989502598415	1.9634257809678235	14	0.8314250122501167	1.1875701503179843	-0.4005692100104502
Si	1.8610240512808809	-2.9084949914578537	-4.288740456327326	14	-1.317146402248019	-0.7221517505911632	-2.038408036177347
Si	-1.6043722474703663	-0.8745527966170666	-1.303308674447549	14	0.35633565697209063	-0.7222772205307865	2.1980731623374785
Si	4.79202423394927	-0.6278142052396966	-4.738005777805901	14	-0.8821218098422645	0.9291696947640581	2.1900965651922513
Si	-5.223307836572251	-1.5746115087776738	-2.8187085631408513	14	-3.6835464874586767	-0.7814722925376197	0.6340222306429796
Si	-1.6981390649158015	-1.5927809189733093	-3.4649776026850025	14	2.7388144064128257	0.3120177716792302	0.32810132100941647
Si	0.7456321686017995	-5.470767207119361	-2.0471516670209153	14	-0.11036958096746458	-0.9784156176240466	1.2320111915556797
Si	1.2066065421398238	2.843506032019101	-2.2125910325699776	14	-0.3099459750122549	-0.013600890033051325	0.2675034539399105
Si	-3.4955890607059263	-4.4986126924819505	-0.7661827044367653	14	-2.2030798757274033	-1.3746286038905697	0.0038653997383106217
Si	-1.5873656351032654	0.38161203349096295	-4.596234401295908	14	0.8205484654142943	0.43875835155167364	-0.21022591228084364
Si	-0.35262427215133674	-3.5322288536010493	4.100122876182731	14	-0.6968150503242961	2.043769047880388	-0.8398759783269114
Si	-0.6165560566362028	4.168372556179821	-5.5160208108627335	14	-0.2167904583842457	-1.3657876011367085	-1.60778569030075
Si	-2.595935601507468	-2.1647197454628455	3.3144769129636598	14	0.7898134724172441	-2.487664982082782	0.8186520181301531
Si	-5.33936438889705	1.4789655567325433	-4.965659824879983	14	-1.549395374259123	0.5308854260516235	0.9979382774304629
Si	-5.406878851929011	-0.39359651426242404	2.7528233497884136	14	-0.7689731211342519	-0.842161176735459	-0.04863682800964517
Si	2.875493523000439	-5.218407870937583	4.177407284293604	14	-11.294881612263495	24.202593937686938	-15.852277121086331
Si	-3.3780942818405792	-2.92560711079125	-3.8845466002503075	14	7.915126902122768	-61.22267831533959	4.325483865829732
Si	3.7800758234243386	1.0009201560479961	3.138335809233354	14	0.4740385445336815	0.5594087542522822	1.8233926689061315
Si	1.806807908400664	0.34124617878616026	-2.270348877718769	14	-1.542152827682798	1.3460443404938236	2.551379028800307
Si	-3.0798627379130474	-5.09338877947594	-3.0956821192594184	14	71.075526969529	-24.10219844558792	-42.66852714352767
Si	-4.218939268625877	-3.317986407842523	4.751916038362157	14	0.8174777943304414	0.4059268792765748	0.3409738169052699
Si	4.216192755703273	5.194863158459132	-3.2208766854650066	14	-2.761039812131782	1.1649338819688686	0.08262555478934269
Si	-5.210752507583151	3.034790161911845	-3.1579067961812446	14	1.6021398001282368	-0.879370212928642	0.5683338321501124
Si	-3.168527460588388	2.546085225832572	-1.6555342413262553	14	-0.4317279211642607	2.0351375902101188	-1.313204383571168
Si	0.6944246401604568	0.6585611564173355	-5.3255141007216364	14	0.4285356367987649	-1.0668246167205304	0.34614610947781177
Si	-2.1107912478907385	3.7226189507793994	2.0061527705183426	14	-0.5145293395575016	-1.0227913527866102	-1.2745308457876288
Si	4.764328099997023	-3.580485518785069	-1.4967240450594512	14	0.20659628290039062	-0.5239339285975392	-0.4123343308449158
Si	-3.740264157942496	-3.3484257229184395	1.5729178443187286	14	1.6147808965452768	-0.7994232356618296	0.4918102816170771
Si	1.5065739533128188	-2.53303901180029	0.7378868466761049	14	1.7600768864026968	-0.5398642400506447	-0.49217640701466614
Si	3.5144148352918805	2.063671836743414	1.0372123312541686	14	6.0198011341221935	63.35408657338362	-78.43875403048696
Si	5.111915802757332	-1.8826096659851823	4.591648735360836	14	-0.3741295055612394	-0.3812890054357238	-1.4610133717685008
Si	-1.9821471591871287	1.2454608707274957	1.5980129539018937	14	-0.10088220233611815	0.4650602447557244	-0.8579446780747841
Si	-3.30006688256706	1.2913952720533812	5.270231782182018	14	1.2922565600857936	-0.029718892174527615	-1.6443316384318667
Si	-5.090022551951308	-4.7322606458412295	3.0335762764996304	14	0.2753746357670118	-1.0182206988589828	0.5669094398027503
Si	-5.448549661216936	-2.0685007240007867	0.9780617941502838	14	-1.2428733402017094	1.5886900910880102	0.712979589472067
Si	1.2099960922570048	2.7900117789082706	-4.705005419948131	14	-1.0479714727394804	1.0297040265503603	0.5612175268450065
Si	1.4800828199756246	-2.164809704034108	3.0015587993278716	14	-1.4584409808956926	0.476130138711622	1.5918175835994386
Si	0.2881306401543468	-4.418141973988969	0.16304491271398971	14	-1.6299504179341506	-0.7837415500931825	-0.68455602015783
Si	2.9020468499177645	4.246462149033472	-5.268273795007513	14	-0.677837464845751	-1.2794779095341255	3.878161419567177
Si	2.9536319822384787	-2.927008687543505	4.553336379400028	14	0.7715856212500543	-0.3230694107873547	1.3868773496357552
Si	0.4933005974111518	0.9663105393043169	1.3472584342074443	14	-2.2961788280383693	4.900008662480229	-0.32684687872371626
Si	-2.664585097376834	3.355563546838204	4.225740580853143	14	-0.5129008014477198	1.2175340688295222	2.0202917709810517
Si	-3.416911960639959	0.6548795185934643	-0.5324336865097714	14	1.15166003653254	-1.2004004800865873	1.4901763909728125
Si	3.76678305627082	0.8181532148343673	-1.290711142671932	14	0.9273629790555901	1.7359614611629	1.9705766214001363
Si	-1.9083744671544092	-3.2046641518442307	-0.04013262877930856	14	1.9112177699844095	1.3696051783160645	-0.28604497995615835
Si	-5.461801336183582	-0.5354334161514837	-0.7604653374632243	14	0.08093762414666548	0.5406587115945705	-0.04212730356009426
Si	-3.5339647208465124	4.329180721208357	0.11142979420285494	14	-0.3504023172247849	-0.5113645660189313	-0.44006293039111677
Si	0.5088167850543807	5.393772665515888	3.784197258707713	14	0.23374921196541043	0.17201697322865506	0.7467312603412469
Si	-4.950957706776692	4.589011061203463	4.794811839058747	14	1.8135347939981519	-0.38152271890932526	-3.516338509620826
Si	-4.942642647233005	5.153658801022195	-4.212493348285078	14	1.723454576443572	0.21071467940220379	0.4729563663044312
Si	0.6913249565506757	-0.5403444877826022	-0.28489213158891447	14	-0.4963547102704388	-1.2165153969016793	-2.5749432090594637
Si	-3.128764661490934	0.03361896186015191	3.270007392569806	14	-0.2742304938995459	0.9561601299728446	-0.015648261199485237
Si	2.541480679703531	-4.159634358171309	-2.564199106045947	14	1.892108286802941	-0.36242969080190557	0.14401223697107016
Si	3.965881365267262	3.3626325135799657	-1.8456433567943675	14	-0.04712296119714198	-0.9096768597793554	1.0336306185952904
H	63.12034554949733	64.53912549025665	62.66421339041242	1	-9.167752959024863	58.53416038542056	-9.677069382545763
H	3.476340147655146	1.6064712807998132	1.5975787094406166	1	-5.247649612591175	-62.31551094792607	76.08705629682851
H	14.323104872968809	16.19323362014112	15.783798844338358	1	11.065246683031386	-21.660082394025288	12.258336225140132
H	51.82262739124437	50.64999631345081	52.80158210750941	1	-71.42351167642123	23.72797843711941	43.23742481907449
H	33.29369387846139	31.780116483785875	31.12000937266241	1	-0.43983487334921967	0.08693626996910297	-0.3506920807943656
H	3.9385161900092878	4.187139468984579	2.5458353409124	1	-0.30411522236722305	-1.835292515659373	0.8010245200552178
H	51.75066275543406	53.90061818921348	52.64708770146389	1	1.3863158202338348	1.418512486605389	2.6617210989408457
H	0.7897118685201844	-0.25235822558213267	1.9400909718223163	1	0.749374099499827	-3.193696673648212	1.6246768238119946
