72
config_type=liquid dft_energy=-6866.464816553871 dft_virial="48.71239255209915 -9.731158821987895 22.436880215256828 -9.731158821987895 40.91815819513147 23.670726254337882 22.436880215256828 23.670726254337882 -72.81578245316882" pbc="T T T" Lattice="11.105996452100001 0.0 0.0 0.0 11.105996452100001 0.0 0.0 0.0 11.105996452100001" Properties=species:S:1:pos:R:3:Z:I:1:dft_force:R:3
Si	-0.37263061416014964	-3.3246688859077524	-4.570329664571386	14	-1.4561583535924654	-0.7690456263042801	-0.6494892289173944
Si	0.033923266162939454	4.85662670471149	1.5408503901629351	14	-0.6452181087595644	-1.1789410066425035	1.0292234869660246
Si	-0.9790169098451644	-5.504861505627663	-3.6570147191371993	14	1.6947828954659405	-0.2701732897043522	-0.814658063125835
Si	5.053161749726788	3.912300485384106	0.48143272960243777	14	0.3919583211827422	0.498215676301162	-1.4537119468803446
Si	1.3111450655441508	2.8978598892553227	0.6909573480681112	14	0.35049873367429046	1.7285242819138398	0.17352569783051797
Si	3.858484158376165	-3.339851893657418	0.49254872145134465	14	0.7493751279419552	-0.6129895606820402	0.0716469350723104
Si	1.4984277049152035	0.2838070757355443	3.294734893670407	14	1.2600681212512639	0.31425514752882305	1.7724487880927176
Si	4.599181932754297	2.721974223443415	4.727286270030334	14	1.4689017800012472	1.2962772545854413	2.3086826274313133
Si	-0.998238057904814	2.5387885861635424	-3.093835192049435	14	0.9863726743688407	0.12197246505622883	0.44823158910375926
Si	2.299818639304416	-0.7008539015065776	-4.140776376195642	14	-0.5939345849333587	-0.6241823534722408	0.6745063407929671
Si	4.073532899477113	-5.48313262356913	1.7460980893949047	14	0.3419780906433197	1.2791287534316496	0.966895523126591
Si	1.7870725527052822	-3.1261325403317866	-4.683554187800899	14	1.9257576276803792	2.187254208260828	-0.8766510119420534
Si	-1.7069183551111864	-1.337435180345562	-1.2414460530100615	14	-5.2602174325065905	0.889544076680468	-0.17305724244118698
Si	4.57495420149404	-0.5044321376550917	-4.302659601680743	14	-0.30941118510566407	-2.7095128046317587	-1.2518187298315686
Si	-5.201635595095623	-1.8156449497776002	-2.865460365805612	14	-0.9710342313604333	1.4186207301393672	0.8033642258965525
Si	-1.5918469046716877	-1.7378940898157385	-3.458972590403352	14	-1.0102358741767312	0.4377466216081954	-2.1797830904215414
Si	0.9362110677198355	5.400304102029368	-2.0294153906869115	14	-0.7254255389953078	1.5674591889068874	-0.3693433930077838
Si	1.1469917743842415	3.0175436600213787	-1.7734732600496859	14	-0.5136042558633123	-0.41916472923842113	-0.3889480710739129
Si	-3.791116294497371	-4.660872411246776	-0.5404366675531547	14	-0.48548330564525677	0.8473288413184246	-1.2945294171888047
Si	-1.3486644533582801	0.5104604725292915	-4.387574939953854	14	0.0696535571175996	-0.3587946621002802	0.10792291714481166
Si	-0.5576254182620698	-3.1792936135490533	4.066982582769664	14	0.026289294787982094	-0.52030095678017	0.9432434110654847
Si	-0.5213743352427702	4.092607448383594	5.3645983234358665	14	-0.33458976239534216	1.4848675727077707	1.0881478215826461
Si	-2.636754580867516	-2.4358571004458343	3.5049269825228517	14	-1.1062144644462628	1.1159707806940968	0.14475142975061275
Si	-5.438545379612884	1.3142114311645754	-4.678837471107693	14	2.0408984087904423	2.7741365084115523	-1.4192982163912264
Si	5.4380767065626054	-0.18799675494292278	2.8200079647257477	14	0.9128521748497384	-0.37439535785134276	0.22422043853840962
Si	2.742313745345791	-5.293710969281403	3.877922983966275	14	-0.21365499544632516	-1.103852904209707	-0.5423224738472383
Si	-3.5746082254626175	-2.8789430454984615	-4.063303166145084	14	5.535949194802571	14.534285082298513	13.967295938230837
Si	3.794249296096509	1.3158573398387767	3.310214431525344	14	-1.7324845554384638	-1.1788520463984262	-1.8628709626548772
Si	1.7205431915586227	0.6483125428913376	-1.9597119357542414	14	0.7051973678890429	-0.02549662301778044	-2.3963038398577035
Si	-3.0537225540637394	-4.936252256874467	-2.8808699358829006	14	-1.028273977771294	0.34927617309456005	0.2190126647124497
Si	-4.3672065424607025	-3.425832296990286	4.768746065385669	14	-1.208401759842888	1.3007412076422822	-1.5940701289704202
Si	4.1880557136918775	5.318912696430508	-3.3702179091567497	14	-0.6084271342914375	-1.1253923390292473	-0.07694366914234746
Si	-4.9955205175407436	3.03476350752036	-3.090581135088969	14	-0.3596107309288953	-1.2717849053057104	-0.2649616592204121
Si	-3.0394224730320154	2.7050198092596394	-1.9472110261477575	14	0.1831092358008379	-0.5714932063675102	1.4952167858424308
Si	0.7661105154598268	0.42693338381269264	-5.4479132876202305	14	0.3396656385183785	1.8818688598654514	-0.557372181728193
Si	-2.1841052622699864	3.508477569588588	1.8488374413739914	14	0.14011752663210986	0.8896942292311647	0.2826140970169528
Si	4.898848371423439	-3.496377586454025	-1.7293802329355585	14	-1.2594934792122108	-1.4439409753321857	1.1143900651432697
Si	-3.732159001731753	-3.4468248514840454	1.7097115132188894	14	-1.4694813071404087	0.6232372151565544	0.29038963372614457
Si	1.660927313203395	-2.7107882638168603	0.7270262927455964	14	-1.1375590665147202	-0.37494634572145047	0.025428488726796518
Si	3.63596885586047	2.3316195495453593	1.2302556509849254	14	-1.1312534307170568	-0.02883880282344093	1.1744978795387555
Si	4.899591362586085	-1.7708933370738633	4.393679906203573	14	-0.17053036013254544	-0.7202223931589241	2.570362270710556
Si	-2.1360607216182017	1.171512703950833	1.5177421433450504	14	0.0284459379305223	-0.12396275768455545	0.3429399411435871
Si	-3.0936874822966214	1.1299784984192693	5.213454596519947	14	-0.6940750233846142	0.9799580237056031	1.6572658408554037
Si	-4.992841751196497	-5.019617198042865	3.152151668819766	14	-0.6142961964057395	-0.21030947320374843	-0.8093165918232273
Si	5.440432288410095	-1.7438291343197405	1.1513364401963029	14	0.9973044999690464	-0.6766771250147682	-1.0571706304644382
Si	1.1048711722400069	2.8661878085732244	-4.708188398531303	14	0.8299967632447743	-0.6869767158167495	-0.10000751230620379
Si	1.1370197001699007	-1.9693963646604724	3.076438759206865	14	0.6596137274470735	-0.8613621912663249	-1.395557401196575
Si	-0.00263989535666417	-4.481337315000708	0.009263511640696612	14	0.9631787332757848	0.13341105551503563	-0.27968509383624
Si	3.152253843987126	4.3310953949967	-5.353170253086656	14	-0.3138602257516483	-0.6897879623737992	-0.00981133790168507
Si	2.818710784340142	-3.06226417593505	4.289045871229758	14	0.9843034488071856	1.2298406644444106	0.3461026577979013
Si	0.27864167678567253	1.0563579585379437	1.4809402029017267	14	6.255646311144589	31.04067016589935	-77.8316075637555
Si	-2.5263776351283207	3.393147349431756	4.510155154594617	14	1.4687660256403434	-1.8837838191078977	-1.4058814174990977
Si	-2.828396323846018	0.3874793314166074	-0.5645555600481802	14	-2.8973335909317677	2.4596959841891466	-0.37678622868854844
Si	3.7323267022781796	1.0345935372907633	-0.5795908580450332	14	1.0009564979657846	-0.9404992703572906	-2.1596803892548997
Si	-1.9928122475800802	-3.127816209393925	0.14806958709797804	14	-16.39606769607137	-15.542124429206332	24.20872113877538
Si	-5.339726444381389	-0.3049739943736017	-0.7999671456440536	14	0.8119987688932059	-0.7111196518834718	-0.07926460591484513
Si	-3.6894631089713004	4.173956651195937	-0.06167937249602778	14	0.4796060159939302	-1.0770923258165415	1.0880148954375948
Si	0.3154091886399948	-5.428574415998188	3.8725132530944575	14	0.27246363032354015	0.11464918577285105	-1.5122297897458508
Si	-4.466286468608822	4.318903232091584	4.586305640467732	14	2.3398017435631933	0.9535322032251214	-11.802223941119587
Si	-4.748927414716896	5.085677886139246	-4.196275261666077	14	0.7008691691931055	1.6685007997728547	2.620154553451076
Si	0.6247267382260128	-0.7308878477119914	-0.5586393957381465	14	14.197006972180423	7.004651971252039	-68.2925247757525
Si	-3.3173222692546878	0.03779259532685109	3.2718654257762427	14	0.45024733567475533	-1.5489294899751123	-0.9501794818876482
Si	2.7052419291886816	-4.047572632770328	-2.9367764114231267	14	0.6699135753595867	-1.3923437766569222	2.3646987848203156
Si	4.140213302175521	3.207511729334549	-1.8015225646891095	14	-0.0009147992729086866	1.1004485036552987	0.6203226101656345
H	46.243814387041105	45.19357250074934	44.045125840829876	1	0.2909125965482627	0.09233816224673408	1.7100506330780438
H	28.37063110297344	26.46878029813499	27.879596128838514	1	-5.2971989258789405	-1.636748420400622	9.098679186156959
H	32.29367886112424	33.14068323354187	33.05297140536212	1	0.33691378449422404	1.1767056876771664	0.3370726788030092
H	31.83366293508003	30.616917728779086	32.745576303761965	1	17.29692720726581	12.576815698709959	-24.196753157731155
H	44.00156590154544	42.922463972873246	42.84431885003733	1	5.2844953516026205	-1.540919468460723	-1.580421673488946
H	33.53308141078711	34.09119549289308	35.506634749919606	1	-7.18223872993573	-30.935152517781532	77.81554741148372
H	33.791794487539136	32.50112776885302	33.54541795164611	1	-13.986978006567103	-7.683602724701414	70.13086379410571
H	29.492835403876235	29.650045226054292	28.54503856065757	1	-4.329133806942214	-14.247909201087651	-12.231217748886403
