72
config_type=liquid dft_energy=-6853.3821809058345 dft_virial="3.159450815669328 -16.258845817737818 19.30006877645137 -16.258845817737818 -8.757665616841376 37.328559219048564 19.30006877645137 37.328559219048564 58.85106015763676" pbc="T T T" Lattice="11.105996452100001 0.0 0.0 0.0 11.105996452100001 0.0 0.0 0.0 11.105996452100001" Properties=species:S:1:pos:R:3:Z:I:1:dft_force:R:3
Si	-0.14572400064729454	-2.864107655437746	-4.724156600230133	14	-1.851769444103542	-0.38568816663849714	-0.147343103913322
Si	-0.33006132975925034	4.669347397139374	1.585665307046449	14	2.2687921854997475	1.3799173675341145	-0.467831639180312
Si	-0.8760099033515821	-5.006489910236483	-4.009138110848546	14	0.07566788668248997	-0.5269572913435013	-0.04215867104500007
Si	4.542252594940831	4.136577198937103	0.6162073283476068	14	1.9302508913378695	2.723493446920596	-0.6300853541767688
Si	1.223684232884218	3.0496688653587234	0.7833070403662583	14	-0.30803512953832085	-0.8910697705774437	-0.6943799564755837
Si	3.8394829090462665	-3.2699074386017375	0.6604602818106445	14	0.943733463739505	-0.207557876290126	0.6644168092956421
Si	1.3086017923566198	0.21197904368158751	3.225435697008593	14	1.554934049339786	0.8974592244085439	0.7035649731212807
Si	4.956259709482925	2.6354052022985863	4.775476299235641	14	0.6458565142105572	-1.0999751631658594	0.4004995330562741
Si	-1.1622336439151033	1.6592969529242267	-2.4395831622555137	14	0.1891220227025362	1.8465506145247055	0.7691726389070953
Si	2.393093461107023	-0.557029026252592	-3.7885885697048733	14	-3.074447523347084	2.2165218714516692	0.3256027208592966
Si	4.381571038271849	-5.146989650152709	2.2689028769807056	14	-0.2307243065562562	1.2906303359708	-4.634577005207293
Si	2.045436901168711	-2.739477273851925	-4.2036862930985635	14	0.5532327021627547	-0.20021171416939887	-1.9428243676849901
Si	-1.210531401285996	-1.5455504478614637	-1.349462974503186	14	-0.6407287017600538	0.7191553844510626	0.19044099973177214
Si	4.450069492589466	-0.6880820055866624	-4.355298693064761	14	3.231881444310391	0.3085254393228731	-1.5245091316443458
Si	-5.477518542362594	-2.0534909697957735	-2.841766832974702	14	-2.406500586446879	0.8034943238257521	2.398136266619373
Si	-1.8195353803347707	-1.473965637129808	-3.670086476961321	14	0.9324859064059852	-0.8257809218513277	-0.4428425523527289
Si	0.4456825270231279	-5.284003217782622	-2.0791191672086398	14	1.490253524132417	-1.5823775133059825	-1.3087473724986913
Si	0.7837535014236328	3.1026344730384334	-1.961586627955356	14	0.6391672694991278	-0.6980440386673268	-0.035117442015242535
Si	-4.036293382773576	-4.778196157766761	-0.8470765613945713	14	-0.5491161054346655	0.45095130431141195	-0.8315818496746458
Si	-1.113741531606299	0.5890687154172554	-4.536751794898106	14	-1.1869836811944585	-0.030307418182309514	0.04932434157225276
Si	-0.6796403376834212	-3.169212700569483	4.084209093866517	14	1.4163848969529667	-0.5623788951181173	-0.14319025460021884
Si	-0.49394030280679274	4.356633633838303	5.409115599614464	14	1.907036638512785	0.8542736538986766	1.0902219322444096
Si	-2.8095494478668046	-2.3810045839689122	3.643727504981907	14	0.13681725584316778	0.35713758472144486	-1.2385178877893788
Si	-5.326199340702731	1.434946939794645	-4.372290867636474	14	0.47152606041483286	-0.6665132885736909	-1.4315829576108938
Si	-5.5379740340496	-0.43957533957411804	2.977542082000205	14	0.19447043598950822	1.2720764686490154	0.03076096116078363
Si	2.931186763408785	5.550516035842956	3.8489007940376476	14	-2.0601549591962236	0.7861838430367911	1.4741113536009312
Si	-3.7596196885592157	-2.7695978468296656	-3.8978193766102125	14	2.0712636768424555	-0.5349421160257531	-1.629595348289438
Si	3.885639430301194	1.2485894299280522	3.1109706339753793	14	-7.981628284117866	-155.42647572005825	66.1698623895655
Si	2.047865782592785	0.7030384510087055	-1.6878371426068335	14	0.2938318295287588	0.1522032642999979	-0.88430210715375
Si	-3.1744469566973574	-4.9454435795382246	-3.272994905615421	14	4.674894507732536	-0.8179333941931717	-0.6670611911174144
Si	-4.32012600230096	-3.4865787657843375	4.953419906190123	14	-1.3447896410975912	1.8550283200968296	0.7628443773826149
Si	4.081526995723334	5.090463460010456	-4.014895459409315	14	-1.4921548565166662	-0.18071759363203616	1.6420700941922644
Si	-4.717193140454666	3.22906735784843	-3.0343181570626307	14	-0.9656976451579338	0.08978196933744285	0.7543147354830236
Si	-3.059414377245441	3.0226979529747986	-1.374156047014785	14	0.03830149884371392	-0.5989934917612821	-0.28317562641887306
Si	0.925356066787553	0.6687187007724261	5.537370978442251	14	1.2194307732241954	-0.14394564534327833	0.9321280085454205
Si	-2.282524381629206	3.6883602835236062	1.8601055853742923	14	-1.5335645645819072	-1.7713552970000588	1.0611350177575742
Si	4.623042055531988	-3.8644469678712974	-1.4256701009582058	14	0.7860558019918478	0.15458230805273093	-0.6888348536316204
Si	-3.550749213284571	-3.526986823275658	1.5136351458570638	14	-0.05792443175761607	2.096599862888259	-0.1465458041535441
Si	1.5988314658404135	-2.9548947340350824	0.6874833923778942	14	-2.0575429733014854	1.641852321571648	0.685734357726054
Si	3.5567098015804133	2.2672269821160835	0.9151740892402676	14	-1.8877852303176443	-0.7628801157465649	1.585700409821742
Si	4.789338804007152	-1.8612983693932474	4.570038687464341	14	0.7361272506693602	-0.9761070221570853	1.7026471353086774
Si	-2.5691623758603908	1.2584282321849676	1.5758942513678913	14	-0.35639170706806983	0.1697693129577816	-0.029748974106773345
Si	-3.1122655931616947	1.1946231719680078	5.534136912275399	14	0.07574090607358218	1.6187771655443832	0.4221299850041479
Si	-4.532790285963642	-4.898843929024858	3.1109628597778634	14	-0.1958608897466443	-1.0997283370551252	0.15215878417795936
Si	5.462836415052917	-1.6260056179594118	1.0575129821689622	14	1.0422669613656679	-1.4263559004950328	-0.4019483509041777
Si	1.141891900813437	2.8313749520944715	-4.530999999335564	14	-0.24130954715930586	0.7484243331945644	-0.5289023325181933
Si	1.1099754882093922	-2.0457378736725627	3.0584714781466578	14	1.2271201779051621	-2.152161963077723	-0.4296360698757883
Si	-0.1132012006369649	-4.600170366438533	-0.02340699812244596	14	0.20715369853379872	0.18112742782006777	1.4854712682369415
Si	3.117408780118662	3.779750417728292	5.419630757055312	14	-0.7089447538931587	0.7013826189255391	0.9247486791660636
Si	2.877419302785233	-3.2187809839344954	4.475970897515054	14	-0.996708260645304	0.8428137232657125	0.4766379320123512
Si	0.12385629363310963	1.0163175095291876	1.4049285419842639	14	93.73737216014847	9.587551208614169	-18.24637958056892
Si	-2.185574585600599	3.3501271615749006	4.3799351249944545	14	-2.1325577992326576	-1.3838892110326793	-0.9774298558443015
Si	-2.8749037945888323	0.5802205680438672	-0.7678297237106118	14	-0.03444612641615188	-0.2260981167537138	0.5967064935790104
Si	4.287454381938173	1.2956877396821178	-0.9068634720951613	14	0.45530264295523043	-1.9492331048059912	-2.2378872424410354
Si	-2.0883249276677853	-3.436039818329411	-0.473088794467975	14	-0.8338806749413902	-0.8576430874207307	1.1596127223982902
Si	-4.984522249254229	-0.6282406755034572	-0.9520970850449194	14	-0.6315961356628879	1.1536824679773685	-0.2375295081176242
Si	-4.130418923904414	4.414217114842796	0.4893435308752686	14	0.14281204500762507	-0.9700222443064228	-0.3125816150759387
Si	0.5737113435232915	-5.493159117166086	3.588761707341174	14	-1.8071849351889822	0.4571818638337267	0.4590770255652079
Si	-4.4162650605885645	4.176098997911547	4.381888669770379	14	0.6212235254698144	-0.09110531724572309	-0.7294973984908263
Si	-4.741011060445839	5.095100213529208	-4.632511028107048	14	2.918707960789755	-2.4387023950290736	1.442560034664734
Si	0.7534474583051423	-0.7299793772022097	-0.37917093547079134	14	0.17030898796448068	-0.38135739683723974	1.2474051704390026
Si	-3.2399212481810675	0.007943008662541922	3.6490095168945262	14	-0.20930931323421087	-0.8234579281945739	-2.083517050577217
Si	2.672604737414895	-4.335075784125132	-2.7798009257702097	14	0.5733068640603428	-2.0922680646448732	0.7681778782587301
Si	3.9771839378565645	3.319987708403192	-2.206788149423755	14	0.834537078129624	0.4339784096509864	0.8661416189459481
H	46.60525904157471	47.48283711162533	48.45162873053704	1	-0.9170896135278744	-0.7884597854661862	-1.734481532940623
H	48.335642145989894	46.212665398791906	47.30403501114509	1	7.288091393076759	154.35186553931777	-66.23057672770601
H	4.7259046840716925	5.342049818839167	3.589710159438183	1	1.0081134267349487	-1.054894945145575	2.223357154945283
H	21.617063554454973	23.150080885320243	23.74925938930785	1	-93.08487525222756	-10.072085005064695	17.239691574623464
H	49.796640421662225	50.28398154137718	50.26785341332943	1	-2.4033522679823576	2.5159926491685773	-1.5792793313952043
H	51.06012965643041	50.78988189176324	52.564740069570504	1	-4.755046144982832	0.5052661613100721	1.5190774145450012
H	42.923183641443345	44.33773997175193	42.16280937315103	1	-0.019754830616825748	0.6979185687277035	0.11049556512815183
H	24.07351894652052	24.82960963198126	25.34260005050234	1	0.25427948794679284	0.8355236112409646	1.0880606611122934
