72
config_type=liquid dft_energy=-6897.280745362641 dft_virial="37.57885010771027 -14.104331786192613 -8.15772212994875 -14.104331786192612 43.987051503345306 7.9099467276052575 -8.15772212994875 7.9099467276052575 31.414650884941405" pbc="T T T" Lattice="11.105996452100001 0.0 0.0 0.0 11.105996452100001 0.0 0.0 0.0 11.105996452100001" Properties=species:S:1:pos:R:3:Z:I:1:dft_force:R:3
Si	-0.2932316243247963	-3.1792614061593425	-4.837429989844035	14	-0.9159984364300036	0.003841745569365259	1.1182261542809306
Si	-0.022900564684230202	4.546235205268554	1.7805688811829326	14	-0.3329694518225849	0.5225460459457233	-1.272309153680489
Si	-0.9663005439075101	-5.27148342798217	-3.7905654370733473	14	-0.06374592842349536	0.008903223502608769	-0.211031182467114
Si	4.963316459628589	4.189598336599074	0.43615580326651643	14	0.3649162067570208	-0.2939303028625205	1.094983362186792
Si	1.3840192824638953	2.976034998281655	0.5418382443054097	14	18.950927230143563	19.715717677142997	2.5976668949894646
Si	3.840494665323053	-3.4926826214344113	0.7700920151879046	14	0.7636180229734474	1.1782100413999852	-0.44935567634972795
Si	1.68382676728798	0.19212263262487791	3.2525021209620064	14	0.009929865856943897	0.8159521004334656	0.934496767876873
Si	4.526676434916761	2.8755834815717005	4.4160140650687465	14	2.2765037016864675	-3.9976602241948918	-1.9422949770995717
Si	-1.4650297523844482	2.1231411159454736	-2.8142661645600113	14	1.8368284939776294	-1.2996695709448447	-1.6250532336308647
Si	2.2717882148589608	-0.4242301842762514	-4.098736847825508	14	0.3616760998325702	-0.3752535928072082	0.7083495430115444
Si	4.3177171116704995	-5.344801884759998	2.0186214727351155	14	-0.8667555988963995	0.1067170687496622	0.9101185756733569
Si	1.8934668881167551	-2.7829017199796358	-4.256899564499155	14	0.2573635287783105	0.1722033783643658	1.3505743709573923
Si	-1.5807275810238455	-0.9600567527021394	-1.1185304372764446	14	5.780008024880711	-9.884499989122544	22.524148102535747
Si	4.679889208971707	-0.5845507960605411	-4.467151625732441	14	-0.5886136824733124	0.5751380052693522	-1.341207320055029
Si	5.409045631836816	-1.9758967043838866	-2.6709255107513377	14	0.252197921079601	0.2986012298976335	-0.2833422340436187
Si	-1.6375269786788202	-1.4693066716181522	-3.513676286527816	14	-0.5816038209284606	-1.882554830764867	-1.8591320612983182
Si	0.5470191916503143	5.264664346160581	-1.931527137958102	14	0.4199586865612829	0.5399534574052538	-0.516724549279844
Si	0.7023720912215795	2.7096898807677476	-2.256774018255367	14	0.8100413864129771	0.31870135995895515	0.5657138758288816
Si	-3.6635072846630967	-4.673015707767502	-0.8652137642004959	14	-0.48088591222229987	1.006829159627535	-0.09289274966429004
Si	-1.5357971617772295	0.41416148789277757	-4.901647082529369	14	0.6889564669132634	1.1250318700633626	1.102070099780716
Si	-0.34283100447987497	-3.2197938508109263	3.923894035080453	14	1.987911013468575	-1.1828375167551877	0.4669374087499646
Si	-0.8449331040793159	4.206955898454061	5.512703449722491	14	0.46813940048713376	1.1433180853213198	0.2367954575487219
Si	-2.3059402645488136	-2.4065028412232885	3.410910280157244	14	-1.696629977527935	1.864118462956213	-1.4516149533812317
Si	5.518999439111187	1.7959706770627049	-4.959870268929502	14	1.0458096873863	-3.347602009670149	0.6087204974084663
Si	-5.537856310487207	-0.4875732350408038	2.81510577789179	14	0.7226466883652918	-0.2528029021614318	0.29891207653083945
Si	2.8506216439459613	-5.4642246646094295	4.099389880416893	14	-0.5821823196254939	1.2309758074432562	-0.07388456803243527
Si	-3.8268465062830677	-2.8372544666162134	-3.844746040764917	14	-1.2390164251109554	3.44318619238357	4.255637218702589
Si	3.89561261511518	1.1149998410043223	3.0459761215384002	14	-0.9838365360810466	0.16637802504050628	-1.5303360276313975
Si	1.9463780764138503	0.487013492819618	-1.837734776720827	14	-1.382153457831047	-0.2762135874329761	-1.0958997041228926
Si	-3.279272014810148	-5.08051137658973	-3.1206084176965123	14	0.2251277816058899	0.27310126444293686	-0.05525228199838618
Si	-3.772874695324797	-3.2253046462504584	4.877511531039665	14	-2.848461763895861	-0.19489518258839672	-1.0736251902923217
Si	3.7025759589822944	4.970690841272784	-3.08963490419125	14	1.4013912391679912	-0.3427327100547832	-0.7920030257078823
Si	-4.906374905219027	2.8247746584029882	-3.0626073512254197	14	-0.19144733035407813	0.5215667119292788	-0.13968018161715268
Si	-3.1140714281848063	2.950210224731587	-1.726489342059077	14	-1.0724167707918522	0.09808329708460496	2.387696807687976
Si	0.8571885711642083	0.6970456553231523	5.4992074428338995	14	-0.5309543316742035	0.8387524053020067	0.37959207592442606
Si	-2.280509753872795	3.6099141881838435	1.7749225925866852	14	0.7848841492974562	-0.4730342707956317	1.7856277597427326
Si	4.751319646352679	-3.861865934295829	-1.3575725731125095	14	0.1527876765392676	-0.48757875648117743	-0.05985584607411131
Si	-3.354866090261012	-3.221098805394049	1.3377861298334481	14	-1.0209951786099547	0.09810669414301831	1.4382621750115747
Si	1.6323449207342704	-2.8530327557757116	0.7196219249109813	14	-0.29561771928413366	0.11916816048354331	0.6596083281259011
Si	3.74681780644888	2.188197821962585	0.7443472048122916	14	-0.8077212209720754	-0.18961901736092082	2.1270607760581814
Si	4.959991324290831	-1.9810665457323393	4.522719368380878	14	1.437331434885681	0.20947926329587266	1.7524648719918665
Si	-1.9580049440995535	1.1906749902292864	1.5433025941795588	14	-0.06576964542098392	0.9434897229551549	1.3747820988781825
Si	-3.3320799173402382	1.540257329952393	5.144439713367308	14	-0.18709239216281132	-0.8141901219575681	-0.7685200923768418
Si	-4.784974147401477	-4.785572760610245	3.042031271598614	14	0.7896826031564486	1.9017926121018112	-1.512134658849005
Si	-5.423590044790486	-1.930680861028452	1.0262018463715565	14	-0.23092690965548388	0.027490515193555273	-0.6645600198619743
Si	0.9715770028219027	3.035824130181535	-4.632191175409227	14	-0.23507127432103056	-1.7166822850303018	-0.9358321999801579
Si	1.6034115787772594	-2.148036317592501	3.179914438750726	14	0.28922440879505346	-1.160429048337437	-0.2221494132030304
Si	0.03873105202705354	-4.616103028948716	0.09357357310716857	14	0.4676166947755477	-0.8059134768214795	0.5431565404130944
Si	3.011397601584787	4.098795709606704	-5.101137433200569	14	-2.8988086340539367	0.526327113429533	2.334421962791316
Si	3.0588679622199972	-3.2223415663970387	4.978637181734261	14	-0.05520651632368754	-0.515595834044299	-2.4440711200480747
Si	0.41746107943869654	0.9656797187058377	1.465964877285715	14	-0.45374789556813694	-2.4734159163985203	0.44226662476101564
Si	-2.872510452353405	3.742199933124097	4.3127260768649265	14	1.7512356265383038	-1.479175145528963	-1.0523639490684213
Si	-3.099353761686483	0.663085739371921	-0.3233455337046655	14	-0.9905566340563176	0.5484180503402453	-1.8289598832558482
Si	4.039205375043317	1.0693808499776762	-1.24204688741812	14	0.6697364262030285	-0.38557580933600666	0.3397016339928606
Si	-1.6403312427829755	-3.0102936655374477	-0.2163303730915203	14	-1.7842360204329364	-2.3940047574804275	-0.023028361910438284
Si	-5.244141575316744	-0.4564808873735047	-0.9247041447958146	14	0.4076482342884139	-0.184604076433972	0.8044356054834584
Si	-3.8155195005015705	4.416106244839299	0.2611075295870971	14	0.33618847568341026	-0.7644155798437574	-0.6811958426149284
Si	0.4736518684880965	5.437293733812733	3.866792554321981	14	-0.5767513738577451	0.8210184634668173	0.22361674300923887
Si	-4.907235619944065	4.663986532651945	4.488081986646069	14	-0.31080112464173615	-0.8239335826788012	-1.1284925778242818
Si	-5.164396078392087	4.933139246068944	-4.208188664060245	14	0.5555603238090846	1.2844694534026613	2.0728065971450764
Si	0.4962270274762801	-0.9910569205988862	-0.38635651517530006	14	17.078921644507265	13.168632464191113	-2.1854649760685363
Si	-3.180553033546722	-0.07314409263353061	3.188383871645097	14	0.16297953802833456	0.3151948865233372	0.8433390000826189
Si	2.584832936854304	-4.2857573856802915	-2.4411102367676776	14	-1.098162276804623	0.16378712220939307	-0.1819267844641018
Si	4.519023292761619	3.344210997264867	-1.584263730294194	14	-1.0125195299220866	0.4075132512591061	-1.6143124411559457
H	9.249666905519422	10.556636116397584	9.104369375135889	1	-8.355432030635042	11.725379002421535	-25.01413684960688
H	49.9013644152073	48.33455597953688	50.11396650528986	1	-0.2439433874492656	-0.3733813139130764	0.8895857285866544
H	10.75030359312895	9.443334382250788	10.895601123512483	1	-13.02382626989718	-11.944653919876638	4.7342309905319775
H	45.098494065122914	46.665302500793345	44.885891975040366	1	-18.64605661703328	-18.407410477875114	-3.8042336569653634
H	45.98207048385731	46.43513516672215	47.51870392716738	1	-0.11533027157215828	0.17132765989232335	-0.17859154664280572
H	3.8016803183226093	3.9837842315480474	4.833371858740438	1	-0.12428620273383008	2.260692432409685	-2.119887392214968
H	40.17343776327181	39.134929362231674	38.68919796882416	1	0.3537190430877759	1.2329753560507355	1.2400456385706105
H	41.29702142893396	40.84682653555234	39.6888809168674	1	3.029063914899022	-3.1688227723389715	-2.920695425202229
