72
config_type=liquid dft_energy=-6825.07841783583 dft_virial="44.890111091582 -44.72660448089849 7.725058483216965 -44.72660448089849 -32.84344711368359 -8.406755275451351 7.725058483216965 -8.406755275451351 -13.735813040575133" pbc="T T T" Lattice="11.105996452100001 0.0 0.0 0.0 11.105996452100001 0.0 0.0 0.0 11.105996452100001" Properties=species:S:1:pos:R:3:Z:I:1:dft_force:R:3
Si	-0.4096513427335798	-3.199031190443726	-4.663345716656659	14	-0.6657280730089177	-1.1433296552952603	0.6760567173010165
Si	0.21589946042917882	4.768331811718006	1.6348893045214465	14	-1.511540990630583	-0.7583341444300111	-0.38548119266022524
Si	-1.1401260473775532	-5.543914631551829	-3.5892814679751317	14	0.3775894419905627	0.9444271479548809	-0.8500351867784126
Si	4.895632074850911	4.290261977841263	0.9406323649074165	14	1.3807033544304834	-1.3241107552287041	-1.6139414306582485
Si	1.047935170828671	2.766241614701841	0.4940080493851506	14	1.1558969609896121	1.697866164965862	0.37187798863238575
Si	3.826061312333904	-3.07950512482729	0.6000825320988029	14	1.2643304996510052	-0.4673415865062918	-0.126906673276125
Si	1.4308143985148185	0.37447532017084345	3.3411335256479906	14	-0.7782170160917803	-0.1351522080378399	-0.06104575361627584
Si	4.460396958690274	2.6064563119465425	4.717074306292628	14	2.0398815366363237	-1.7128963324463837	-0.5326427765379448
Si	-0.552031327849147	2.4266935427732066	-2.994750823502734	14	-1.4894623950254076	-0.07589440106119502	-0.016477956886297024
Si	2.3217696412919917	-0.492677551010189	-3.9581615871334077	14	-0.15961987470649708	0.9190220562864976	0.05943264213841493
Si	4.20263899763313	-5.024393887116913	2.056755022153046	14	-0.5541796402521652	1.2517850483518747	0.5871579226410445
Si	1.777767948877713	-2.678591980102222	-4.354013729275253	14	0.9245013388342652	-0.8885801692959444	-0.8056324550099873
Si	-1.4580463018153678	-1.395038652143669	-1.0705247676122425	14	0.3570589088986483	0.6483237468757712	0.675857713749237
Si	4.631095013559405	-0.7812635370190718	-4.271300710098593	14	0.48856811780837034	0.31299273481663037	-0.6897447678044208
Si	-5.392578770897287	-1.7601860458943936	-2.4096391746213617	14	0.02747431723003834	-0.9395384482991512	-1.119570071031772
Si	-1.4495579887270278	-1.5671171823717966	-3.321774663232335	14	1.350201817796503	1.3494705954434527	-0.6786123959892437
Si	0.6769082625562046	5.296056555732086	-2.139669059865489	14	1.8002601772302271	0.6703668612275288	0.4413137731293688
Si	1.3858539930777822	2.8937651083634335	-1.8055984653870303	14	0.1445907356681035	0.45796450829317975	-0.37536877832555077
Si	-4.092797360922925	-4.796475517327272	-0.6090417394367119	14	-1.8622423274041011	-1.1518454132261227	-0.5155917202757868
Si	-1.264776419756988	0.5715123562257757	-4.448502436490075	14	1.3298247796922014	-0.14858494778295353	0.5651443760004686
Si	-0.6281362791368075	-3.1152653228034066	4.069831270859628	14	-0.5381531694600862	2.205173012568536	0.22514757911685504
Si	-0.8214205989905751	4.426136070235191	5.412150868444823	14	-0.14631286201153867	-0.6256735945579267	-0.3941293625150753
Si	-2.8140684778231644	-2.410393271780459	3.4843831102857568	14	0.5771534947298163	-0.15121801674131716	-1.2479605291881544
Si	-5.283606733709282	1.171799238659297	-5.071846478157801	14	0.7721548639679351	0.33679834186534946	1.1167670520117465
Si	5.409175571995306	-0.5086313149136307	3.1610886641647715	14	1.7360799891181589	0.6648924637798695	-1.4406581880594205
Si	2.3227203145882913	-5.383618452959733	3.6342229932181995	14	0.7172257699082916	0.5661697328021437	0.34797905046054534
Si	-3.4224838390599777	-2.5098174838185945	-3.82966298698332	14	-17.990727122381166	-19.17274188543391	104.72400344135833
Si	3.6604986702242233	1.0584836462588756	2.9463742135570317	14	0.3420248847601464	-0.006811629324668306	-0.2461409111663961
Si	1.7523996317818262	0.3816708952721591	-1.8009983616565706	14	1.1850589517517958	0.8734507571500653	-0.712007968771583
Si	-3.096530617388359	-4.472729057150685	-2.7457566042459423	14	0.5752976709097334	-2.0110350204969225	0.28724620036173154
Si	-4.38424647281716	-3.248041952786843	4.998762357905112	14	1.2688962684785243	-1.5681513304590715	0.19991372306279373
Si	4.020309632679714	4.875393617516249	-3.753559146295305	14	-1.3279067351233709	-0.11387014086084618	0.9674943335556535
Si	-4.371624507849348	3.1986957893508725	-3.179746738204299	14	-0.9857481528865766	-1.9693964840581883	0.14569605384523515
Si	-2.7650221762914002	2.3971893525985575	-1.5971222529864353	14	0.33367599156456157	1.4330757413597717	-1.080278439529269
Si	1.0061621863733874	0.8546952749607118	-5.45885935772342	14	-0.7625350734126011	-1.25732655164839	-0.32682965231807126
Si	-2.235087338983351	3.8949362599312476	1.8621946233069322	14	0.22189513088686771	0.22168532869274363	-0.014342139696850014
Si	4.718725767965055	-3.848160024074293	-1.5442599310737295	14	-0.20894318783662177	0.6562867171628018	0.571469552198565
Si	-3.6172608048369073	-3.349424151999483	1.2860977117457295	14	-0.06816977223734214	0.2811215703786068	1.0846516325683089
Si	1.5626159220097606	-2.609242806456374	0.8733733397938537	14	-0.7120179960823316	-0.6360186939240745	0.0807920995855451
Si	3.543943458658724	2.4601370298894154	0.9249795735078268	14	-0.8703988551350493	-0.8842422003997906	-0.17306238465182727
Si	4.91109939610975	-2.0345408080495555	4.716787771584164	14	-2.372387161059154	0.42629209029640364	1.4430344035963014
Si	-2.3415205453824064	1.5848901084940923	1.559857192491059	14	0.570081926657281	-1.48846737726651	-0.9810929095939165
Si	-2.9974773456317245	0.8873269137362721	5.164366092201665	14	-0.594459861750265	1.09001650092933	-0.4564089895744901
Si	-4.709093537242149	-4.897746656575391	3.1975274385241113	14	0.48585405903242196	-1.4214561450864267	-2.2752839693225897
Si	-5.32444903566188	-1.7026036754895455	1.0952222825224225	14	-1.3479186762722113	-0.49152026093696444	0.8329129108988864
Si	1.0557604559288207	3.0522221339430606	-5.005177181455845	14	-0.7335700293179409	1.0163926429763577	0.39981998992015905
Si	1.343074805343938	-1.9949856910857562	3.2580118058018934	14	-0.5413850488475123	-0.0023882997318855504	-1.1068510701235315
Si	0.20991554954078734	-4.708473822640122	-0.024517597767655965	14	-0.5183507733948377	1.3089839141881447	-0.3721276429589721
Si	3.0255011064793087	4.187884681346516	5.394244670365103	14	-21.596037188942525	3.019242806797121	20.366308367579542
Si	2.757417900520647	-3.2233288894816305	4.576988820044065	14	1.0150006465560295	0.21708253594861454	0.859454688229307
Si	0.00219565549858017	1.0606060021808719	1.4150627637468052	14	0.012689947418122858	-1.6947160467276168	1.0588040536743282
Si	-2.551007403460143	3.129968551506342	4.15342943795352	14	-0.7895473630166089	0.8412265799515852	1.2639556324953276
Si	-2.942051759737874	0.3852125975407338	-0.5276425596403355	14	-0.2906506009161396	0.20206342422096954	0.5282816676939096
Si	3.9461038067853624	0.9815612936323406	-0.9860570009961508	14	-0.15775479490726166	0.2713829947574819	-0.0674015259676819
Si	-2.055177970656848	-3.5608678866520793	-0.5148873227150985	14	1.8518357786208015	-0.29658676887929747	0.4169648915265025
Si	-5.213344647155071	-0.28028647486022856	-0.685361036455898	14	0.5317236063859918	0.5738807347677998	0.20013612367298655
Si	-3.888301537650763	3.9198581159697596	0.05552776106120959	14	-0.1826402661904429	0.7356796212331224	0.3048919532844398
Si	-0.04810229183333553	-5.19003649240105	3.6792233802424636	14	0.6953371789862749	-2.425986736557749	-0.010774731065144556
Si	-4.767699880519881	4.245788015048829	4.701866865350768	14	-97.95687686445541	-218.9680403514027	-57.5940074429499
Si	-4.87888534280079	5.213683380046861	-4.227453125506057	14	1.3583043991024175	0.45729036447823695	0.23224408691099577
Si	0.6191026616226694	-0.681686062229898	-0.14547078392818666	14	-0.8229367651461799	-0.44728799345126496	0.6858559710076968
Si	-2.954752577280496	-0.10356785931441334	3.0371946101437244	14	-1.6562541109119255	-0.28073359058579644	0.921906836455704
Si	2.714047873775552	-4.277626685677709	-2.9221042795102576	14	0.22670978270937703	-1.9484697436364393	0.7110587166873844
Si	4.453162512601376	2.8831000199704824	-2.2784962367160295	14	0.47899203604347884	1.0345703575898044	-0.4279566238806675
H	38.92515930124441	39.89924959106342	37.70300547467129	1	-1.5181685288143287	0.5496254413985868	1.6037868501963237
H	38.74053543742399	39.953671194878005	40.23262272896469	1	0.1986891055988072	0.33077398498971045	-0.20308620991732443
H	6.536257626539867	4.680812117276877	4.814502770768321	1	99.11318931606475	218.72636570728793	56.538283316338585
H	3.7349421644426495	4.10924200986955	4.679674863240181	1	19.819672607447227	-1.2824277386679315	-20.56684918322992
H	6.680865474543725	7.682052174506572	7.190529647127402	1	-4.0652792656726575	-2.9230904098079473	-0.4515460009719621
H	63.34017986446949	64.27597889972095	62.132584888645425	1	19.264693096329964	23.699193627507697	-104.39483331186733
H	47.31698016060966	47.52794522681518	46.65560474469137	1	-0.9507548952582974	0.5661784745602322	0.39411110766730223
H	26.57443830598169	24.871403717829804	24.970078275107422	1	0.7337556631220555	0.2561499670672006	0.42486769794904167
