72
config_type=liquid dft_energy=-6873.872746454803 dft_virial="40.34211182826182 -21.341385923677212 -8.258341582677074 -21.341385923677212 32.653527896658886 32.92016944638894 -8.258341582677074 32.92016944638894 -0.11068139800115483" pbc="T T T" Lattice="11.105996452100001 0.0 0.0 0.0 11.105996452100001 0.0 0.0 0.0 11.105996452100001" Properties=species:S:1:pos:R:3:Z:I:1:dft_force:R:3
Si	-0.6083587206549078	-3.1432157840744064	-4.78340153830386	14	1.5188059058231933	-1.6194716210913551	0.538307178668763
Si	-0.1351477602259597	4.531895142649603	1.5519141838285169	14	1.4236364423979122	-0.1305267895668935	0.5769015264084418
Si	-1.1046312827166416	-5.23322215960504	-3.623546798828796	14	3.3725471305967574	-1.0111864118135898	-1.0675699801528413
Si	4.882078316780769	4.141717054095135	0.5503843085753006	14	0.6618685868128433	0.6143486469542705	-0.9315366543217866
Si	1.2347446947508645	2.5842820794302797	0.6205675425547014	14	-0.47848424274274964	3.750181824040954	-1.7572363292449973
Si	3.720099000184418	-3.172196881816162	0.5901126790837526	14	1.2818826643400603	-0.7889007300285916	-0.163334093451983
Si	1.3878775056313548	0.6130054695704664	3.5168037351287276	14	1.058384963507144	-1.6989683978166095	0.7591725818749114
Si	4.855337298523402	2.55321305435553	4.757602308545632	14	10.306502704413344	-0.5064838367896942	2.6282476216673065
Si	-1.2342937912949092	2.450574766944157	-2.819768075202382	14	-0.6447573666861939	0.009461924688676945	0.5340162609999678
Si	2.4021059772279023	-0.5248927149187955	-3.700737916569472	14	-0.5452095680112325	-0.7066443859632221	-1.171154928401499
Si	4.404627086906408	-5.226711824484819	2.0835504597930274	14	-2.784821507901024	0.5797755079353033	-0.26777779087757025
Si	1.796895806567165	-2.8807677607155413	-4.047363840037029	14	-0.29013303741519375	1.3618448111282615	-2.258002542023746
Si	-1.4237254409794433	-1.1078786760792356	-1.1154873942485695	14	-0.28232201945258395	0.6613214556007159	-1.365622536175155
Si	4.649889691355295	-0.6773536130139338	-4.373373702290554	14	0.12067585664327816	-0.7002726727588312	1.326331418893716
Si	-5.3202731809958905	-2.0316799033634947	-2.6375808670035528	14	-0.8876653700230357	0.7170499063043934	0.3989967219966476
Si	-1.4672054170894149	-1.4572844304587538	-3.6404123650409557	14	1.114914313518048	0.2660266110440174	2.6532698757535194
Si	0.9655197923569273	5.474338895578358	-1.722661105082038	14	-0.6814804639738689	-0.10147638477560439	-1.066713287860168
Si	1.0009134924501248	2.5786935420155825	-1.9824914450771438	14	-0.1758461203819516	1.3918465248880054	0.28751282398343087
Si	-3.794330369870609	-4.574904224510005	-1.0526007999381983	14	-1.935913236584432	-2.35911382984389	0.44889493427635746
Si	-1.197050942792437	0.616149577166056	-4.3863255153529925	14	-0.6118081377874321	1.4382066391366595	0.3170447968011837
Si	-0.8315292769612764	-3.0040110033444947	4.012813085074547	14	4.011286825281144	-0.8700430141587409	-0.2852186267062628
Si	-0.7466006114924225	4.2913181581038575	5.446098567799957	14	0.8811923552690311	1.2298375791180267	0.8364975459362369
Si	-2.755386613769558	-2.739395089478179	3.06670879571518	14	-2.0877087235806546	2.238400435062937	-1.230834396650648
Si	-5.011671968181033	1.0484205028736278	-4.81196171878008	14	-0.41658951014976087	1.0483522534373944	-0.33099767115256334
Si	5.545230692131402	-0.3557428359550864	3.20032170723146	14	0.11672252510301848	-0.5327703033618242	-1.2459800067600446
Si	2.6510035743155607	-5.231316370613859	4.036110133832117	14	-0.014466066973281152	-1.5204043620007295	-1.0488248225952375
Si	-3.4892830759204236	-2.809031908432137	-3.92742129955364	14	-5.605094187287845	-10.522625703856479	-1.5898810270723027
Si	3.838674392504554	1.2285042353444293	3.025202355174747	14	-1.1036094205358888	-0.3233964553840775	-0.7892506574626637
Si	2.169300968999337	0.5367494767310574	-1.673322715843584	14	-0.5210332075753481	-0.6264624096701482	0.6937366659244827
Si	-3.244515798913301	-5.02529680462847	-3.342327420266591	14	0.7264215851963332	0.7058342306768435	5.32687205237877
Si	-4.111385467184805	-3.3776067285963323	4.849876480067905	14	-0.9413677897344367	0.12554578723017062	-0.28750151112002226
Si	3.998591856617632	4.912328829916999	-3.7462158614411765	14	-0.06059503885365388	1.164197260294646	0.5702732168931002
Si	-5.125752763737004	2.7245008376362683	-3.148945367644045	14	1.1184806937076255	0.5756511978912539	0.9253359196211853
Si	-3.3410913228614727	2.5471247471004883	-1.4294361443551131	14	0.402909944293913	0.6891284738591813	-2.206844231026632
Si	0.9109415939923723	0.709899735616813	-5.164914728426399	14	1.641489795721507	0.8035128357840571	-0.8344614876332116
Si	-2.086043755996524	3.404556539586998	1.7550373059392	14	-1.937711981866408	1.1061411879446386	0.8617082620424167
Si	4.878644342677779	-4.062371373042752	-1.526110511671708	14	0.009923438093643525	1.5965471318358508	1.087590405949238
Si	-3.9371823598353903	-3.0898081577359027	0.914467747865914	14	0.18801696163593656	0.36995557318451106	0.7963623347781934
Si	1.4347859028460896	-2.6691085697317742	0.963635104759006	14	-0.36356431957968693	-1.2803158327579618	-0.6056182017291757
Si	3.4368727680633184	2.3904091417645508	0.9740214326410099	14	1.4095565554437175	-0.4600023663699292	1.4207596326551986
Si	5.068212596118674	-1.8920675325637906	4.873594446091009	14	-0.9110493157992505	-1.5229723819944934	-1.1139010409113774
Si	-2.202607852359185	1.1685862738857047	1.538772458226747	14	0.3863440556056669	-0.9073883189338916	-0.2864936378345242
Si	-2.862104133677787	0.9193477227069669	5.1982627039731195	14	-0.7407215587659328	1.4084666638985066	-0.90996456646468
Si	-4.601439781833008	-4.701578109443013	2.555128838743517	14	1.5451417376174703	-0.24631523210710213	1.2265967008619802
Si	5.347475098106019	-1.4383287157143094	1.0113053733303548	14	-0.3589520137458733	-1.1725242990950098	1.477860025157707
Si	1.1175808745797902	3.091194186093125	-4.524579622786605	14	-0.9236402756625478	-0.9587988553629126	-0.303436964783768
Si	1.4486939422030543	-1.9669730362346243	3.1991155960167617	14	-2.885863890098587	1.9347595816272813	-0.7312514065402312
Si	-0.14267207282225744	-4.708933610893239	0.20943577049405662	14	0.9055582061670103	1.623913719752975	-0.6340731385283185
Si	3.01506480161327	3.9489980294607796	-5.541286952791261	14	-0.33262158127276886	0.8042371161527428	-0.5779698206689634
Si	2.822128099448453	-3.0443024478730685	4.433859180167981	14	2.5660795805787857	0.4166108503239181	3.6540276272780563
Si	0.1728404015847419	1.0057823612947256	1.5563854580001324	14	-1.4877145576287707	-3.0260107273313466	0.6103109831595099
Si	-2.5428356112706876	3.333805789188895	4.213364058406922	14	-0.5801205502692672	-0.8438254532091908	0.1350545060356743
Si	-3.0937985422611423	0.47339198817111733	-0.5296582979963916	14	1.3155140074802572	0.008448394971474572	0.31310097835060857
Si	4.237138665011933	1.5034176291211319	-0.985868199056465	14	-0.04631563412661548	-2.1050341167804727	-0.4405424415333244
Si	-1.9589467325986916	-3.3089172511397384	-0.658442322255298	14	-13.857740626318265	-63.41171584225047	131.09505937852114
Si	-5.1910782348682565	-0.26306551676160234	-0.804850452284042	14	-1.0793196743553857	-0.1655586137749751	-1.623739398812269
Si	-3.7063009101923288	4.247405048132255	0.11693281544487048	14	-0.6740011185975581	0.6641761538376763	0.6113918758361002
Si	0.25362541977731734	-5.303206596247948	3.6181615011491726	14	-0.31893790164840874	-0.5658969385276761	0.595744385968211
Si	-4.6918725791435225	4.54216485756886	4.452485046817798	14	8.179923496381626	0.4591533873932162	-0.09731967880452098
Si	-4.815637803605726	4.919649902778223	-4.353879346718182	14	-2.135955000692169	-2.141437368566321	1.3599396220860318
Si	0.6101068044964684	-0.7593236410279484	-0.10560469906372849	14	1.236826357599253	1.2313313913090327	-0.08832723794730307
Si	-3.1857661882813377	-0.17284817578225836	3.1416376219785636	14	-0.06757301869253578	-1.036541109817698	0.7537719751499403
Si	2.847596370512409	-4.335746586310838	-2.6588410760118077	14	-0.36889627779261003	-1.7021424273343324	-0.07337677473170603
Si	3.9977022663018196	3.6134192406641263	-1.8114846435066434	14	0.5073628976986528	0.649829643261782	0.24706548063952136
H	30.287340620465148	30.776379847037628	31.345677667570857	1	-1.4553659389327955	0.23240529521456904	-0.5808070353897467
H	50.01484881875379	48.2038172999024	49.91236046229452	1	-0.5280649235154211	-0.682960135085614	1.33004666608133
H	53.63396876739679	52.49498885885309	54.31241854226054	1	16.187615589350898	61.94599991885141	-130.13124763911554
H	37.990565266608	37.52649898365772	36.49257624855266	1	-0.6289705229099526	-0.5551718297952103	-0.8399744516606732
H	18.47744722383069	17.084660867767507	17.55341499182023	1	0.05264003899311573	1.0205457493999928	-4.2297063359962355
H	19.19224137208395	20.475642547891105	18.469103288696232	1	3.5842025774356023	11.246045266481007	1.2472377914826607
H	16.30445573221032	15.872013774157388	15.185132326787198	1	-5.496204534542659	2.222159019866094	-1.5502723782838257
H	14.807708364558323	13.524307188751163	15.530846447946038	1	-10.584216788911158	-1.5078907924075686	-2.9282745294649617
