72
config_type=liquid dft_energy=-6782.333948412398 dft_virial="-23.72984018281577 -1.7419742753590841 29.24755942180516 -1.7419742753590843 -61.88473665739568 40.626361782219334 29.247559421805157 40.626361782219334 -29.59343879055877" pbc="T T T" Lattice="11.105996452100001 0.0 0.0 0.0 11.105996452100001 0.0 0.0 0.0 11.105996452100001" Properties=species:S:1:pos:R:3:Z:I:1:dft_force:R:3
Si	-0.13700246163346042	-2.655532599668727	-4.736005587844878	14	-3.2965791959234054	-1.2824616772581576	-0.04976528613465816
Si	-0.20283103440399275	4.422458874809901	1.573057779874025	14	-0.24984998770124173	-1.024268195682503	0.07264555237865593
Si	-0.8629314819295891	-4.9077065141936345	-3.995939744664871	14	0.43290625873248456	-0.7070897014046718	0.21585920403728806
Si	4.930161728420135	4.514500931006324	0.45118110586656257	14	-1.4053612828928317	-0.7385250634909303	0.01593776765853391
Si	1.0444945331278106	2.5155048646017146	0.3337696219746065	14	152.0331147205633	91.18426971945205	-68.03053120051366
Si	3.6932424795639496	-3.068654566293588	0.5119297958599044	14	-0.8601440015656386	0.09043297320450436	1.4436344995780241
Si	1.4581829055717286	0.3834200897133648	3.484568580426507	14	0.6231999341294123	-0.30881108912394156	-1.9584062943672154
Si	5.009529621465423	2.551448311519291	4.740931097271384	14	0.7330655784541278	0.03067971423266696	0.04480639530368856
Si	-1.1897665197195044	2.6745704987869168	-3.267635151727638	14	1.113802310467084	1.18277272490112	1.5201981593540534
Si	2.2648269762827846	-0.2061139669552335	-3.808169552049571	14	-1.378904609148508	0.17314440291154	-0.18442255639836955
Si	4.000047852752503	-4.858351465960502	2.1142596505827296	14	1.6809791452231293	0.5631407136244772	-1.7948598276157883
Si	2.006090576938211	-2.5077662062738915	-4.519971744858628	14	1.765696808411477	0.0786061458423552	1.1791338395415145
Si	-1.4816198898845954	-1.3707209623121506	-1.3433091418690775	14	0.6320213964828404	-0.9183707953089042	3.634733024513537
Si	4.475199030761633	-0.44144114697807085	-3.79065983804319	14	0.9047138551798737	-1.1888785858154076	-1.9797860635463749
Si	5.433894188298744	-2.161485679295994	-2.663132433040899	14	-0.37044048364789095	0.5198895799289464	2.346393543382989
Si	-1.9031080036368233	-1.427161636281723	-3.4519424946491726	14	-6.494596097841062	15.548957655815693	-16.474059861963276
Si	0.6502971844573279	5.336278032483011	-2.1897648780619763	14	0.5953821172286021	0.9089965453116443	-0.7028584333793041
Si	1.109948833817907	2.923927884127692	-2.2095368835456504	14	-0.9109166467647309	-0.03637496962732696	-0.2830126183415757
Si	-3.7998955846927567	-5.136402303734923	-0.8869970656416448	14	-0.38093984933324765	1.2396987964629227	0.6066877815423573
Si	-1.2951268868612869	0.7921240909495805	-4.485342137321336	14	-0.3019017577971076	-1.1995507297782784	-0.862856774788927
Si	-0.5760924691626217	-3.136086844951804	4.07410152649546	14	-0.07411211085326838	2.5947003536710778	-0.06985076089565495
Si	-0.598136761520395	4.7418284617847135	5.0983076253045745	14	-0.19672400980261803	0.6024878810018954	1.1279297628697014
Si	-2.7545880926246524	-2.341702683724221	3.5587888441162465	14	-0.6048278439537621	-2.8212571556139063	0.14063971812263193
Si	-5.154358478798678	1.110334211894795	-4.507543024229084	14	0.37246522908750757	0.38504076231888384	-2.2691140878858302
Si	5.451624911634522	-0.4908239602023335	3.0623052681219223	14	0.26827041465691065	-1.9514607104553674	-0.6949129466084505
Si	2.546838212392024	-5.48984953022336	3.8120644250053224	14	-37.89746121262659	19.261993435743804	17.949379892175212
Si	-3.730628595420654	-2.9354636826424882	-3.4780793466995448	14	-0.1504009194705741	0.6426709147188937	-2.09894805337715
Si	4.100468272672391	1.332200924217687	2.8992770144026108	14	-1.6566048096775936	0.11717298275510842	1.9223583693366113
Si	2.0747967133894822	0.6487701099451642	-1.5184562589169206	14	-0.037913004829839544	-0.04033498604141903	-0.1943861037350074
Si	-3.051697930910522	-5.0235331723918755	-3.002452832042265	14	0.5645661344139673	-0.8108551412468039	-0.985231360717227
Si	-4.636419228258542	-3.560423646793995	5.16232925245235	14	1.9143048961423113	0.7574034043041176	-0.3589607555039618
Si	4.117330507085614	4.936595432164837	-3.7083044319522878	14	0.22155420232141607	0.4606274020732572	0.04156063194753362
Si	-4.777910733657941	2.7753263197996585	-3.1259348535949387	14	2.1529111831680137	0.304426840332025	1.6640926397014608
Si	-2.8115674074221513	2.613298716360681	-1.4891597508759262	14	-1.1360068902329468	-0.6594244940955105	-0.5080460403822161
Si	0.9184792337844127	1.039869996205156	-5.4775585239498215	14	-0.24774990887574477	0.20768591733506936	1.4206670728636732
Si	-2.3365928147566097	3.264979707975941	1.9881277382765845	14	0.19412179410809619	1.6379321572900183	0.9457949759851997
Si	4.404464939358208	-3.9335906805827814	-1.378368551469067	14	0.35885971106487996	-0.7531201999512828	-2.4681166112231634
Si	-3.6055972873629116	-3.5371121602410374	1.2778004217963657	14	-1.1310706251287943	0.8890769068437971	2.2851953232212283
Si	1.3418575881327879	-2.85942314613425	0.777705175755819	14	0.6670848452863597	-1.8241812269078213	-0.5572888779158202
Si	3.338840137380632	2.5647621800660687	1.1469862213860154	14	-36.945074951042656	186.06497359178005	-77.01138202916941
Si	4.872875888120558	-1.9686855808875383	4.9772256095852	14	-0.981637726811256	1.7225595746816282	-0.09147812751714454
Si	-2.2504724758684453	1.038314046102217	1.688908871264461	14	-1.9052870013424246	0.45353500804762864	-0.3048891250685876
Si	-3.1738239102963948	1.2757313746573395	5.109707930662655	14	-0.05168693025093683	-2.3336776278011326	1.1423258957782747
Si	-4.884771520920403	-4.799903938432036	2.992508522819055	14	0.24904291774124726	-0.3813836221115052	0.9251441151643024
Si	-5.477030989118346	-1.9496321333743154	1.0810810172399636	14	0.3183671162673359	0.7788860176960828	0.8553177797691888
Si	1.0067918963722213	3.4316729405244453	-5.082169501860028	14	1.4260195999191574	-1.378469063907275	0.5823185882074617
Si	1.3481324761282245	-1.9967126735340577	2.9349017192220126	14	-1.3047264208885119	0.8823241558309602	0.6295197110063362
Si	0.11969376616286255	-5.012961374369121	0.05655950813160968	14	-0.07438490512773609	1.4958942720942898	-0.8959818672915868
Si	3.354422961002573	4.064926862826381	5.293203425243542	14	-1.4023970555692329	-1.1774505368884136	1.2465698183204865
Si	2.757626693253947	-2.9695268843607248	4.434112396887088	14	1.4524814158741215	-0.9922558775624035	-0.017846556248211846
Si	-0.02123355461676999	0.7922951232949428	1.4848306334588972	14	12.640227640552368	7.270680639180313	8.27042254699286
Si	-2.255339123513756	3.2255811855621164	4.6089640944293055	14	-1.115110745964507	1.9879534367063574	-2.026854774421262
Si	-2.740281347995057	0.3206656567607738	-0.535811020030855	14	-2.2689793619670544	1.4031215930484509	0.0013387745402011048
Si	4.284256965559613	1.413606767611935	-0.6568164043747106	14	-0.42933422211120287	-1.0838859574039688	-0.9781682772922483
Si	-1.904892737266676	-3.691820912018081	-0.18312788609832212	14	0.7310626874097325	0.33191838396770834	-1.1454119934940483
Si	-5.122543130762347	-0.44883885121481465	-0.6961171940197568	14	0.3257675287103181	0.08434819535384191	-0.643943868962899
Si	-3.8896631328157905	4.013212900946822	0.27687249155085303	14	1.0688588752498314	-1.1557416662282751	0.41878086321412306
Si	0.17906309139685356	-5.073491276232358	3.292154970694584	14	0.8903457473192901	-2.3682109146876376	-0.21740546677682515
Si	-4.445562679229203	4.502393173674244	4.687915512607639	14	0.46203636778869833	-1.2044612838292292	-2.6195071491314628
Si	-4.557853188157096	4.75574094354026	-4.2300063940903945	14	-0.8850772954077748	1.367373201787644	1.1063450765965264
Si	0.6160129734096952	-1.0177146438828617	-0.33422718902843307	14	0.4633566303705943	-14.616763055642478	-81.9841840825842
Si	-3.3312203132148457	-0.24799912197468346	3.227347038998	14	-0.28115910851628095	1.8193483202375387	1.085436333912018
Si	2.5785136248730587	-4.398704258998504	-3.1271787251975742	14	0.5784009950311522	-0.6768727861296315	1.4269580533610116
Si	4.614339396712122	3.4647532615566705	-1.825301613692701	14	-1.099431117280116	0.5735616605975694	0.4579367403557222
H	33.942430670417195	32.44214048989698	33.74242722270991	1	-0.7018035088664473	15.029225427532337	79.9760330709249
H	42.8436769234424	42.220078554455924	41.634725905451546	1	7.022188709309172	-16.31249083231357	12.512998036448032
H	46.1174525806084	44.08766513904035	45.644377113336176	1	0.8558402283702429	0.4861276246384859	0.5178062132880303
H	43.53898560092045	44.60585427450066	45.4546056201602	1	-9.170158999383458	-8.26576858925286	-6.230509642871629
H	25.52247943263842	27.468468799176446	25.66546025216205	1	36.57531992407311	-18.026140755729294	-17.489336131009622
H	24.78146291616212	24.99430267456874	25.98253422967021	1	0.08131891906564344	0.4632435017365078	0.19262181126432176
H	3.437054906405133	2.076043916791053	1.3477126694623351	1	37.005710356249836	-185.73862370771468	76.4299697555873
H	45.02150840831659	46.67522570862329	44.9592304226118	1	-151.9766118529372	-89.61972127887812	67.82682329732992
