72
config_type=amorph dft_energy=-6959.604683204004 dft_virial="4.135441031358091 1.0275715701397692 6.063552680102604 1.027571570139769 3.9065327990870538 18.408246634719294 6.063552680102603 18.408246634719294 0.6125181819560191" pbc="T T T" Lattice="11.105996452100001 0.0 0.0 0.0 11.105996452100001 0.0 0.0 0.0 11.105996452100001" Properties=species:S:1:pos:R:3:Z:I:1:dft_force:R:3
Si	10.870127299450301	8.07257121715212	6.535645686135356	14	0.8861990686589554	-1.0028642581133345	-0.20502765154456828
Si	0.24219512822881598	4.746447445709142	1.5690773907455922	14	-0.1825762456679712	2.6984213133911714	1.2858653064809695
Si	10.264517312917288	5.8977838859054454	7.662782160062534	14	1.8083041373348425	0.49656039869605073	-0.002789392161828651
Si	4.871756403678186	4.243434654400629	0.4235516078930282	14	0.11015180834684804	-1.0477254179603424	-0.8379183387361506
Si	1.2133856423741858	2.7668368961116734	0.8150013330412613	14	0.5768313352332017	-0.6998546110337751	1.4465388201476634
Si	3.77577224979915	7.93941031969144	0.24954729788010618	14	0.5385900002539792	-1.196783192011671	0.14145038763007464
Si	1.831367708954838	0.497606392235631	3.332998383246827	14	-0.9008050037616525	-1.2533505943813128	-0.9392227165658372
Si	4.416099581241427	2.308370256572533	4.435757194961645	14	0.9595179935209581	1.5716997129114076	2.1657715948688625
Si	9.804606893839376	2.5026363465126664	8.409804799420137	14	1.4137024627724561	-0.2640144640204695	1.489994613826678
Si	2.43263525087508	10.41419282710224	6.9883261015229525	14	-0.045867747579845686	0.6807474418470947	-0.0621197043085017
Si	3.6696544536993345	5.783791938321091	1.5178787471014112	14	-0.16552956028485744	1.6456984380200577	0.13049233675560354
Si	2.118935275089063	8.104589804923524	6.996688916851384	14	-0.7324585404880408	0.1597589715043171	-1.6180073766115306
Si	9.95900245651647	10.147293520365372	9.61402799472134	14	-0.38040994452676513	0.1906482308205761	1.6967263939774404
Si	4.6895070018992255	10.617588046125999	6.473085608120677	14	0.6651775993598739	0.7414360689344018	0.33599821388971934
Si	5.78426949616853	9.441951685692501	8.149757892494215	14	-0.6181646814704344	-0.9359152466819987	1.2553735400472052
Si	9.720001412867276	9.813158511107492	7.418572404077307	14	-1.394879400723652	0.6354782475857794	-0.8777545303454609
Si	0.8967436881280076	5.680073037454928	9.483521430412711	14	-1.38171996947407	-0.2713050902662814	-0.46151366207711214
Si	0.480334346553325	3.3961248670805637	9.99417514728027	14	-0.47935301923042767	0.8320508192850407	-3.8252514145154453
Si	6.275187857340707	5.6637805406596975	9.14065710794348	14	2.0632598259808343	0.8410741134061004	1.7649632720636386
Si	10.065453432509848	1.0721318052988613	6.561833625769408	14	0.10887268345007436	-1.9778865309358495	0.23144370182483365
Si	10.6379453376227	8.171347949597097	4.1497666803236175	14	0.3715931101629134	0.6968371618300493	-0.07954871305272149
Si	10.461093450119458	4.6727369472565545	5.689157742552747	14	0.8769304910903536	0.9986579298095722	-0.29234753042743733
Si	8.317502862906734	8.777613189920784	3.536915584103835	14	1.7631020489223832	-0.22683011043835996	-0.05715824237221194
Si	5.969117701117283	1.5309838229148893	6.151022817006229	14	-0.715912963531824	-1.1812274906037112	-0.9015061441824569
Si	5.570701184394648	10.503007480729684	2.8483771220629914	14	0.9500396137582322	0.593799087682987	-0.11885294297129316
Si	2.692970913708756	5.828338090090464	3.6633573537109934	14	1.2982485210343986	0.8078631459857476	1.7304546677882071
Si	7.624155504402131	8.327564895692335	7.417761666336303	14	0.7306145437524307	1.4195846375238907	-1.673012061167587
Si	3.9950046197636038	1.05644458531027	2.724800699540475	14	-0.7847111139094103	-0.3431096340947169	-1.8972466407852573
Si	2.501947774732636	0.46144637838723856	8.991192607691119	14	-0.8613773607877137	-1.1517554245399175	0.40137448019672056
Si	8.528750021422127	6.7702820731788735	8.751403038293828	14	-2.268452542486956	-1.0750228431443543	0.3736433095451994
Si	6.924188972012075	7.785847706748254	5.142342901237151	14	0.13332723748159878	0.09987690015594025	0.8106206564416066
Si	3.73870043364204	4.023635878617118	7.519348215883662	14	0.2506202908551581	1.9541045780560757	0.2426174684356652
Si	6.055766685436568	2.189391716581186	8.283607361734923	14	-0.45761278108538356	-0.9503807994342158	1.7971331989398631
Si	7.87013111382324	2.3766388167635917	9.73266224882267	14	-0.49571939014583016	0.3335996297365532	-0.5989832073400015
Si	1.1173076670670685	0.7379623674519792	5.449068311251249	14	-0.2764251894008243	-0.7593700427634987	1.0785732824809469
Si	9.14525499047465	4.114649519542078	1.361917238924571	14	-0.5124829968331958	-1.391424092283905	0.04511955593168259
Si	4.636176006936241	7.33752084196988	9.142944943212614	14	-0.17807681135771208	1.127992240728981	0.46670266683423506
Si	7.809148087304759	7.900617074084255	1.4387374163837467	14	-0.8890805063912453	0.015802527518694123	-0.7347951610029915
Si	1.6809369870111435	8.631780350508258	0.9023844237260293	14	-0.526431500305531	0.30316339917770424	0.1982756718633274
Si	3.484262054924429	2.2460767224727043	0.6575205245497737	14	1.3288634434129978	0.44365862118134386	0.4461253396254939
Si	5.068954476681674	9.308768576238919	4.694149308416203	14	0.3213969067765984	-1.7855015184715133	0.3845370827866669
Si	9.032629080453905	1.5062285568231584	1.7197080206254247	14	-0.21779447501176355	-0.37532635508776835	0.0036216589539605844
Si	8.183164729822131	1.3940802046498526	5.356333240876213	14	-1.057203540612536	-0.9829446196454874	-1.027738930754171
Si	5.070153924298501	4.420930689698091	3.713323231748992	14	-0.1286190294193436	0.20620110401268385	-0.10358880490663804
Si	5.576720634471687	9.11500225613913	1.0595020661335333	14	1.4352812355033948	-0.470607661594476	-1.0262384336893327
Si	0.8153356235344694	2.916201442395966	5.937521141211058	14	2.106400402147599	0.6447977330397201	1.0970718710383482
Si	1.6991619271890397	9.236024299477663	3.4216908709132974	14	-0.8511597882454452	-0.8115439403620717	-0.5716320460547983
Si	0.04936282243064888	7.085014906634935	0.015011975404303572	14	1.526248741503958	-1.2888323620204203	1.301236402526943
Si	3.043009709886044	4.008009741609014	5.35165761636988	14	-0.6535644308498291	-0.37950003035396473	-1.1879409037051498
Si	3.2022585930127057	7.948117420909886	4.839138092098369	14	-0.9623865757266473	-0.40685247719182804	-0.7638059707723502
Si	0.18378758228757688	0.9199552207128966	1.6834136242199618	14	0.7068400470780853	-0.9075086466628746	-0.9253593166795987
Si	8.754090689435236	3.518446312003993	4.9119378988418845	14	-1.0006217400531014	0.31168275665601486	-0.8024378566497032
Si	8.351065184184979	0.42882362440884003	10.793606983895332	14	-0.25863339769593163	-0.7905884035607368	-0.29259178543285136
Si	4.457158450124841	1.068819997156845	9.953216232364927	14	1.2017757643223346	0.0038779981543793475	-0.20525673702859343
Si	9.234813745864384	8.042918206625012	10.473432212177741	14	-0.8363885310706626	0.5482779251002973	1.5116037256003947
Si	6.190571270372158	10.472621474436737	10.266372014324789	14	-0.3421231009833761	0.38002299317608285	0.8009257896109242
Si	7.206792157732211	4.176687615723508	0.06367400945882494	14	-0.4769071267393708	0.5043881288432415	-1.274082187909263
Si	0.3962686170087993	5.997082600183671	3.8564017840413958	14	-0.950005675168006	-1.2935871070889704	-0.6593658728942112
Si	6.67078345096451	5.296338648041969	5.240531015870167	14	-0.40639739155016186	-0.10737218638523595	0.6277217370559567
Si	6.116949619891186	4.235804834838037	7.4505021438770935	14	-0.5508927392108879	1.40098911829592	-1.3953008048856244
Si	0.9701576564753244	10.404930426061188	10.544843769364745	14	0.12279187632176002	1.1465808179725876	1.2151334277920998
Si	7.9497166843989895	11.105052442401572	3.314617959118602	14	-0.4990248031454126	0.9551723113088437	0.37304552755826503
Si	2.687162477564308	6.331817333249965	8.298522714970094	14	1.7221834219732906	-1.0386854116547017	-0.28834406233343474
Si	2.1329510426116136	2.535143598127963	8.11921640225094	14	-2.0027720022190305	0.9004185666320342	0.1952065434426666
H	10.399555123778372	1.1907071976189973	9.280714829200914	1	-0.22552116071987258	0.6865157166328468	-0.5367506315079453
H	7.659139393226245	4.251497607824854	4.104376472823885	1	0.09191778652688987	0.30206425165334094	-0.7365512259366527
H	2.3689756792116428	5.1744725489730765	1.0884287444926728	1	-0.6156907639313878	-0.25095067788879716	-0.5690668542768865
H	4.603957511228699	4.876443134180972	9.919465109146994	1	-0.012299910741056396	-0.7048379273652862	1.137870684479522
H	5.030405562996435	7.247884344604982	2.5963931685612947	1	0.8084555286515098	-0.5394150679512147	1.3831613311165452
H	7.637504912137554	6.435369644169346	1.9512569406552576	1	-0.0004196043882481665	0.4549964243116008	-0.5044400651707085
H	9.89190002595288	3.9765464536602138	10.94950185609346	1	-0.0986656524396185	-0.41397829558661847	-0.010594496582202174
H	5.354578493436782	6.9675578881575255	3.340006267008102	1	-0.4820981883807497	0.542352812890016	-1.502252615551016
72
config_type=amorph dft_energy=-6954.513297948677 dft_virial="17.105230543330308 -0.11822732875537123 5.446003547986781 -0.11822732875537124 31.72391397017796 -6.313842450552804 5.446003547986782 -6.313842450552804 -4.0662654666608" pbc="T T T" Lattice="11.105996452100001 0.0 0.0 0.0 11.105996452100001 0.0 0.0 0.0 11.105996452100001" Properties=species:S:1:pos:R:3:Z:I:1:dft_force:R:3
Si	10.828191056847173	7.994385002129335	6.256940705169907	14	-1.0501139748027597	-1.6132184358422228	-0.6086806452760041
Si	0.06909040392851411	5.049430134918882	0.9114824560195895	14	-0.2278762931931282	1.3019228876474223	0.9248024152672546
Si	10.354198234267995	6.020738372626645	7.477334231305369	14	0.8075281309625324	1.4878192016153007	0.5420687057521397
Si	5.280468179111919	4.356371532322034	1.4415472334861281	14	0.37760178329609945	1.127866770789358	-0.6644378923592673
Si	1.3092192857593565	3.1482390262696915	0.7977281767593102	14	1.6042126252373403	-0.7341701252996634	-1.3001393118868356
Si	3.9104546687737667	8.14238351085002	0.6611510747899652	14	-0.02416016247236747	-0.4427340517082186	-0.739805473940364
Si	1.7133442846583713	0.2120023662741369	3.317971970047136	14	0.37976896797045223	2.3486484027487586	-0.17557949676025225
Si	4.570661733865303	2.496905652343383	4.747957861226627	14	-0.3579407980234591	-0.22989923885902072	-0.67820101913802
Si	8.507171070315696	3.0417991562727655	7.3449951775821445	14	-0.38627669264627906	-0.27881940267494615	-0.8770557039194447
Si	2.6212594946175467	10.404819366096667	7.257957483387036	14	-1.1544995652481118	0.08624824218543135	-0.7326310616550228
Si	3.8246608461812945	6.0704488127462435	1.716664977597549	14	-1.7744197974311429	-1.3874887584808864	-0.27451125860050607
Si	1.8362543473937623	8.270058046063362	6.57733759681654	14	3.3086801031126822	-0.1371892947829932	0.1736221142800235
Si	10.036611159723744	10.26833777569681	9.703020344292016	14	-1.3076065730681417	0.14913850675838142	-0.2680025054825512
Si	4.805320332901724	10.448021692295336	6.658378052927514	14	-0.22160048221717876	-1.7012222287402512	0.35619373195841847
Si	5.847573675945501	9.257236752701175	8.456116804625394	14	-0.21984313173085754	-0.3727951019000826	0.604547336363334
Si	9.585452265850085	9.431012279187183	7.379401554590751	14	0.32014092182770604	2.2963634334003555	0.8117758540619491
Si	1.10753216898993	5.992995593489299	8.897991085465096	14	0.15233259089760137	0.08861083086411542	-0.48933636407803055
Si	9.909813998230119	1.8999583430430078	8.699660200823494	14	1.2855092083941289	-1.1756785311017677	-0.3857809835405545
Si	6.277464586613387	5.591536033738787	10.479162906347025	14	-1.112085069223757	0.015417118831203926	-2.8296194185571557
Si	10.01056759804357	0.13633832304562482	5.623654575478261	14	0.356133825204459	-0.5184921841874458	1.127297528071477
Si	10.597930432405782	8.082710991912887	3.9317781819617985	14	0.4633144642433439	-0.12351615669044573	-0.22089959890690639
Si	9.443595373167414	4.724824070616903	4.219467914056997	14	-0.13495680403350863	0.1422137487996266	0.27075770194362186
Si	8.563956030175284	9.095411278397625	3.5053967661727756	14	-0.34589928336707754	-0.755832973174571	-0.8696663472293391
Si	5.784491616097573	1.2835977519443618	6.360182048188628	14	0.2971943210664485	2.080769567432107	0.1725869872781319
Si	5.533540520265921	10.778813796621135	2.8980986681790433	14	0.39350869769079155	-1.291446661909947	1.6616819713532902
Si	2.515352712450321	5.8684751612683534	3.707936823469723	14	-0.3230341866444687	-0.9774080014490805	0.341687555742143
Si	7.622100895058492	8.399487328716136	7.126429167404816	14	-1.4584330104692003	-0.09229908144586783	0.2715660574562765
Si	3.804203600716526	1.0484293876707895	2.853896802299685	14	-0.18118399213711103	1.173205127783785	0.6864907769112415
Si	2.2408902221295737	0.38568238119065756	9.259035924126415	14	1.0983430255086295	1.7399957825207444	-0.5619664898247657
Si	8.575917188354195	6.91871371576119	8.635611919284234	14	-0.7112129830065933	-0.609201294103334	0.19508313038729952
Si	6.9378604536446105	8.150568630235218	4.865392667711133	14	1.0779299919298457	-1.6490992390270172	0.7721443224361225
Si	2.7671811820016883	3.887576316082441	7.84765257700419	14	-0.32552584481022423	0.9333788512836726	-0.7556733075341898
Si	4.713484848239309	2.8067407413640684	8.187062934576819	14	1.9420440372203251	-1.7493996002291863	0.19888116716622228
Si	8.887917946683041	2.7222130023671354	10.49124623048691	14	-0.10554361628154663	3.7127879253752525	1.1010871662168236
Si	1.3266557001891537	0.5429688347442334	5.550255044926332	14	-0.7197706499541742	-0.09943081338289457	0.8638420223476078
Si	8.993025097105717	4.358181809743726	1.1627200865597054	14	-0.14039854844360206	-0.7167627138401329	-0.2907902119350236
Si	4.607178250199809	7.3340446650803734	9.619958596826761	14	0.6692062642860139	-0.13776753636949451	-0.6258458586143767
Si	7.87742775349227	8.112619440358392	1.2807546168526243	14	0.2587113021871321	0.8000770677447433	0.8493738984900704
Si	1.656092872947796	8.732878236211725	0.6635544124221996	14	1.1841747486321967	-0.727946250651181	2.7361813374544623
Si	4.088261671971888	2.402293668567943	1.0135709966065831	14	-1.9002864586052683	0.3279650524274486	-0.7936274500491517
Si	4.968878342651801	9.149652965069683	4.714517705909355	14	-0.5918933844196933	1.137036103692602	-0.68202168164376
Si	9.06586932783504	0.9928149998372536	1.8816334488970425	14	1.6762385412338405	0.11552207602904133	-1.5407916845263117
Si	8.179433115014225	1.6036392517045275	5.391772475554865	14	-0.6540742810348145	-0.16071619401500822	0.5071739214576219
Si	6.228320552312846	3.2195062055028174	3.1730942463294918	14	0.10776119462017433	0.1949802861744936	0.6420659336370629
Si	5.823062741775717	9.357090766802006	1.2018131940710974	14	0.17881754680044673	-1.0389101262596825	-0.34068842421473344
Si	0.9393007559328097	2.6395954947599636	6.51282286342629	14	0.5837429805548238	1.0038528481089315	-0.3309007404819937
Si	1.4519424461652934	9.207359722634793	3.243828337732916	14	-0.730515813308137	-2.8112941224983325	-1.7412386548325043
Si	0.44853787871096273	7.108515195127579	10.821827320880118	14	-0.7790130302988981	-1.2495880388558083	0.08719080939579764
Si	2.7526656446387934	3.974869448195947	5.348625679338457	14	0.19908068493906575	-0.13582789451597482	-0.08642744822624567
Si	2.9594148745910873	7.972173009225135	4.43165908227082	14	0.004295545658371396	0.6294536335996084	1.2652072465651756
Si	0.5434897059778369	1.1006997599725983	1.5260860784795134	14	-1.6226615914620628	-0.552404549139135	-0.33411822167962707
Si	8.503683787429738	2.787460731523223	3.2875415397683816	14	0.4754889050447771	1.304260279493969	-0.23681731194394318
Si	8.192638144795772	0.7465450815101621	10.668742265784372	14	-0.7796930876560773	-4.039412403488775	0.670542467720895
Si	4.329361748950527	1.2577540982003252	10.084478004432295	14	0.3855765806676027	-0.20857526266530857	-0.4731643687248312
Si	9.421116836348363	8.05612323640656	10.509493382657709	14	-0.4298484431752325	0.3277539646806645	0.1502829057363793
Si	6.038863358836472	10.620942057054533	10.47818557865924	14	0.24189190251431938	1.5149939850755416	-1.9743273498411686
Si	7.255380892210149	5.891786647821311	1.286596370986429	14	1.0295744428422249	-0.032383585728329084	1.1656653614324508
Si	0.11738038710189012	5.813133980947539	3.2202503072651076	14	0.33076781433694213	0.44561060434040023	-0.38291985754029373
Si	10.196792946552383	4.149899952281043	6.350186651381738	14	0.37813760164481824	-0.9139032427046149	-1.2865811022020988
Si	6.79348249976731	3.9377309960601243	8.553893997389682	14	-1.3748905995226928	1.6350360642574036	0.3704129728209654
Si	0.997889329616218	10.537924733575085	10.771372778998229	14	-1.5512542834055902	1.6352512657726999	0.8127256203672117
Si	7.7279077232576485	0.19661945058833322	3.509306076923915	14	-0.486147679259983	-1.1451710809255504	0.4985416924557568
Si	3.250658525550958	6.473263304063911	7.659650269063041	14	-0.683965437265792	-0.2455899232962884	1.2249679056416662
Si	1.0270192477104312	2.5671510799029154	9.225351436887195	14	1.0353815413183112	-0.390286588503582	0.3534786447403421
H	10.019674515134293	0.5670532986502576	7.23280240142303	1	0.19836077544942426	0.2270586817013211	-0.0008950017619435463
H	6.018228417428469	2.135094499926869	2.1468002201873824	1	0.06773962631728137	-0.8200486425400575	-0.2725011684612143
H	2.892745577889131	4.940302613780548	0.8398199033127691	1	0.3661747628112333	1.3727473261278174	0.42835488809475847
H	7.3458170213196	3.256244841766364	9.777275036570757	1	0.3164297884086043	-0.8009854392543516	1.031642125740688
H	6.026613444749805	4.903763885453139	5.21579796177134	1	-2.283206316145562	-3.6345268218668614	-0.828878846651574
H	6.593441291672084	5.385730813484923	5.390906207831601	1	4.812042407719875	0.39882034417168544	0.608002387692549
H	0.7961633418592092	4.471629563501928	9.271530170135026	1	0.028872998524198897	0.4705336137612557	0.2627957600987193
H	5.942518839614504	5.793198717316019	5.365417945974031	1	-2.2428787863095714	3.476102254023701	-0.08619939118434852
72
config_type=amorph dft_energy=-6955.421499242952 dft_virial="-7.408074110309964 -1.652667127495296 3.299045567290838 -1.6526671274952958 10.640459587983411 6.533946520044188 3.2990455672908383 6.533946520044188 -2.983353444763198" pbc="T T T" Lattice="11.105996452100001 0.0 0.0 0.0 11.105996452100001 0.0 0.0 0.0 11.105996452100001" Properties=species:S:1:pos:R:3:Z:I:1:dft_force:R:3
Si	0.12307998448110784	8.150968446107495	6.384326484475494	14	-0.2405808959115759	-0.5547378272171694	-0.5482331878677267
Si	11.100798845760417	4.748013391208889	1.2973580815485137	14	-0.5133787699267354	0.5951481466444687	0.25910339574845465
Si	10.04129789022653	6.238171571165858	7.262288822003356	14	1.840537827623007	2.7705122783522715	1.4149499630737918
Si	5.077506093949791	4.39945169255973	1.0694008407712898	14	0.3532973818152716	-0.03276873730528727	2.016408116394968
Si	1.431096490824702	2.986269174012265	0.7718656428213049	14	-1.678571562201343	-0.4278928604687279	-1.042638743194961
Si	3.7769383794266207	7.661860362357009	0.5444925774574615	14	2.0794773298982	1.1461609564738073	-0.4786068844665206
Si	1.4185800328231855	11.058429469295657	3.461450338211816	14	1.2664336638028864	-0.3123574146920218	-1.0320172500068976
Si	4.932228554359871	2.256727373070268	4.847367635469375	14	-0.408639138278799	-0.18211833181045284	-1.2426540249179008
Si	6.8931143939391	4.217735378610469	7.242697844261851	14	-0.2525730453458106	-0.34027679025297775	0.06712410370363792
Si	2.476492830864423	10.788709239459957	6.9904251348524	14	0.5976446899103325	0.9626825099489964	-0.5648720959470651
Si	3.36284019571362	5.768332391259768	1.8986478354616598	14	1.6204149596333175	0.41070656406673006	-1.0159779236882178
Si	2.5175405937513844	8.513523700286298	6.752379206898088	14	-1.8005419703733156	0.5602633896606996	-1.0661802977273012
Si	9.96260079936695	10.067719055786077	9.824064599623455	14	0.41793522667432637	-0.9095431623027078	0.49875149464988083
Si	4.873377879160193	10.864529877238443	6.275876429120737	14	-1.3185656523847409	-0.19586500351515657	0.03113402854273712
Si	5.6747310531614685	9.848486685821623	8.263738734082118	14	0.42332606319908084	-1.2967040580685858	-0.18681676967249145
Si	9.794544861053772	9.548824689551061	7.584984654915573	14	0.2327552226486412	0.7106370554148802	-0.5728317237971794
Si	0.8776124986396202	5.827371868399131	8.733211416105288	14	0.49520388352914047	0.30325055964805725	0.3226768030049681
Si	10.169783163180876	2.536909451563847	8.412425814582832	14	-1.4062012630009242	-0.5566509866858915	-1.3889997970775374
Si	6.3577498349656185	5.678196124054524	9.434932695934775	14	0.31554018596783306	-0.6892282327456032	0.4484786723250255
Si	9.881704721209854	0.5522978717639975	6.629191494251395	14	2.2699509826675386	0.3539998077887361	2.1285214209905567
Si	10.77804748286594	7.944530184055859	3.967561702530465	14	-0.9500239300157791	-0.05110791733283949	0.8948775775565831
Si	10.440458508711457	3.7619008602304773	4.649991866522654	14	-0.4485288088787683	1.5314182058606476	0.10174352261836778
Si	8.46842224869432	8.293114094697922	3.5140927613947697	14	-0.2775089102932667	0.6074256887692397	-0.08919550021391708
Si	6.742439340073459	1.9420167516071103	6.3336053986787535	14	0.4787544659118971	-0.2503197286432328	-0.3134969285699114
Si	5.450478772800666	10.695852003123948	2.7912367703169374	14	2.118921942167252	-2.3839131690988458	0.24732721916111244
Si	2.5660960102399657	5.863266448932318	3.9933831442815975	14	-0.23781772902401274	-1.7391576021863762	0.9004422208009796
Si	7.680362952446208	8.699404762905095	7.667568844533388	14	-0.9089687773741867	0.27166761611642226	-0.7468775562339633
Si	3.7243292742330225	0.8669363042502165	3.1947731514039903	14	-1.469698565539961	1.7997726956615272	0.07460447752207675
Si	2.3502731811863065	0.6557035835302102	9.118456221035732	14	-0.07657111598145801	0.013586491843258493	0.8567694258329444
Si	8.291914647081095	6.777778620784041	8.760421107412933	14	0.10239941158553753	-0.17751708172951583	-0.6528005554592131
Si	7.003396938708453	8.17009297199801	5.478199339945107	14	1.5692713039365278	-1.17374428856942	-0.43472582996755343
Si	4.348786136745249	5.034692477626946	7.425069412001786	14	0.16598978813716392	-0.9277589292748929	-0.16793148687493978
Si	3.1594560826863125	3.3222255666882905	8.787097710890878	14	1.4223172082581441	-0.4234245365328425	0.05821162422187661
Si	8.675982216387617	2.4515931868188146	10.261763025797167	14	0.1850275374802004	1.7107209202350064	-0.36835454590165484
Si	0.8567576585018668	0.7271229149147296	5.4593635699623455	14	0.5743977840476816	0.514728343109281	2.2659583132158807
Si	8.786409139110846	4.094425500002803	0.9783494394583934	14	1.8480302856364508	-1.6431658992797118	0.25109157446034125
Si	5.0693098685681415	7.718856336149186	9.460043353912972	14	-1.3509402392444494	-0.43970606097268017	0.12507707473030763
Si	7.8091147693154035	7.703785498963687	1.1799676990498167	14	-0.5718048243323123	1.4364832272405639	0.47752136380035415
Si	1.6544269734799808	8.405206916888966	0.6310926953923566	14	-0.7333486571498762	0.8448407827001174	0.08650432427531808
Si	3.579284960568597	2.445073966901432	1.2361085111151822	14	1.3650142126564082	-0.9563429355611072	0.19444241094151862
Si	5.172184713703944	9.093712060940453	4.645827117853116	14	-0.5274727979601911	1.4040394776477436	-0.9204050538382054
Si	8.922057779776797	0.7790556649243944	1.6860013213933012	14	0.9130956585235565	-0.15977234125198184	0.9779523044453559
Si	8.753379905662301	1.2980133353391876	4.987336508755191	14	-3.061517691802592	-0.15930877096275917	-0.954984363509941
Si	6.434225726534779	2.75137734905035	2.5906069444097506	14	-1.169795842129269	0.5757694687359806	0.8479091397891821
Si	5.6521747743672535	9.341375781822284	0.8372288743404942	14	-0.14527413546219883	-1.8613570958423742	1.5919988465245087
Si	1.3445252484805825	3.1002833335895237	5.606740142881713	14	-0.34231696232451525	-1.7485791605215268	-0.6769103242673057
Si	1.5613142992255746	8.763397514462095	3.0173104340958847	14	0.7500618701729667	0.4406787101152923	-0.0025795899677045673
Si	0.3472667394628437	6.559323670571234	10.968926243888184	14	-0.6817810261857941	0.835336177663126	-0.637659573339393
Si	3.4149717430597772	4.02613472781884	5.51058442559943	14	0.648352543255357	0.5641048781195327	-1.0221043534450667
Si	3.2342882867805622	7.88435789527838	4.6660955613781985	14	-0.7720394213390604	1.0000303858294675	-0.685754926568615
Si	0.4239492025660133	0.9006496670802112	1.6328591283700025	14	-1.3423517190330267	0.9059785818868544	-0.6880462956299311
Si	8.752646909896464	2.8583947308627855	3.2865753180770496	14	-0.06266529285743712	-0.021718640860354854	-1.7027350671106265
Si	8.229454523034484	0.29501857915393925	10.519122281581682	14	-0.40062963098547366	-0.6305221849706619	1.119516592041113
Si	4.449639690526769	1.6237966352650892	10.11194313365834	14	-0.4455792368554945	0.27321413596649136	0.33981579106907517
Si	9.397527699884101	7.793644116257628	10.439381227055602	14	0.6723036748651963	0.3332923826507955	1.738733626919084
Si	5.963098251040245	10.813309021601357	10.294270277412465	14	0.03681231464228415	1.2039838295712777	-0.4919699472574583
Si	7.17319651846461	5.561238875417459	0.6598561156036503	14	-1.5620012465332773	0.6512913166362861	-0.6513198559053398
Si	0.1521299394008658	5.721087482352535	3.461305960257939	14	0.4025741579391016	-0.6539069020784727	0.6571997166619864
Si	9.367041739623087	4.2939780442541355	6.823901824049613	14	-0.9207835205413311	-3.3896128421592397	-1.1190383664515653
Si	6.579158980234684	3.0129902014760175	9.355336019362573	14	-0.49753021962281047	0.8591736664178149	-0.2586243988273111
Si	0.8432272230242734	10.593499139821395	10.977666663095986	14	0.8921753458651075	-0.4401894287728681	-1.2199197974560876
Si	7.8069824179966005	10.684368402792476	3.6027963550576922	14	0.2706967667475344	-0.014679982935917473	-0.713134627122872
Si	3.2267584211860387	6.962626825732793	8.1004916922327	14	-0.15335177704650807	-1.6866905985813065	1.7220067870377964
Si	0.9519582600892681	3.448700654284805	9.238989600530374	14	0.832506419147771	0.1769681507436642	1.7072542989318507
H	6.5966065006609345	0.7309278292992191	7.378246530959732	1	0.11323199252038542	0.7280902325491092	-0.25883368680037117
H	6.166526788053361	1.6567481267384698	1.549819592897651	1	0.2410323820057939	-0.14330826833441362	0.02667624613866438
H	2.1330398905832304	5.56425970645243	1.093194327570269	1	-0.23542171597616676	-0.4289081899596543	-0.4627614194889801
H	4.887915628515992	3.9162853169111194	10.793917951795992	1	-0.08333672252089565	0.2421839800786882	-0.9746636036303543
H	6.179087670040686	5.397858561610615	4.233394833607931	1	-2.7110719228978963	-0.056437304440442426	-0.8967879088094532
H	6.822247030578249	5.635315871752965	4.766915797170363	1	0.30414684696266087	3.7535635988685447	4.345859361270842
H	0.9919876031015721	3.3164837665225546	7.008872194959338	1	-0.38183279421093513	0.16293582923789207	0.9219546590146587
H	6.924622105873707	5.152649265944699	4.199832512329684	1	2.321385944597101	-3.595347547666849	-3.4671519792937335
72
config_type=amorph dft_energy=-6954.932953594417 dft_virial="0.6100027068761176 -0.16350588019359852 -8.314902876614461 -0.16350588019359855 6.593060184421874 -7.48353836270701 -8.31490287661446 -7.48353836270701 11.112111165464947" pbc="T T T" Lattice="11.105996452100001 0.0 0.0 0.0 11.105996452100001 0.0 0.0 0.0 11.105996452100001" Properties=species:S:1:pos:R:3:Z:I:1:dft_force:R:3
Si	10.955943334035677	7.9898537555768785	6.324231937673181	14	-0.7914129570369082	0.20607717673625273	1.4766703747260745
Si	10.713954777340872	5.27529278476524	1.3031554116965098	14	0.4060976006698326	-2.1137807599690843	0.3041540460575573
Si	10.7217845048396	6.066139686122829	7.605997200202946	14	-1.3170618128829863	1.2179917255765085	1.0170505888277834
Si	4.886227517055273	4.525204890386858	1.150692292402081	14	0.8966392989219486	0.5957055622778769	1.5973140925528508
Si	1.0370524049052583	3.3152065769305628	0.7226993965278582	14	-0.5464928066765185	-0.3568303376356871	1.7809709737868802
Si	4.1689023122105855	8.040919127263635	0.42946888280270706	14	-1.038280205456246	-0.8853218075237208	-1.1053554581588014
Si	1.5557613009995246	0.20070090428447998	3.357853603306627	14	-1.6700321501015352	-0.8979533908510763	-0.586939378688832
Si	4.833573987875867	2.383313520631304	4.714151208026435	14	-0.5135201807193435	-0.338840056600079	-1.783223519157862
Si	6.907574401319733	3.698119122606067	7.692157520678339	14	0.3202897888257426	0.09099424549589268	0.1026346677223311
Si	2.5860312738714852	10.902901094980448	7.338187201757007	14	0.3912371261404407	1.0002075349860255	0.4929937613959412
Si	3.2529463608200904	6.335360146118185	1.7209963162138682	14	1.3848320353535775	-1.3483506219659964	0.029662842078548385
Si	1.8034139158849023	8.823281047331818	6.88947162710281	14	1.293858358700246	-0.298158742672036	-0.4668425349636511
Si	9.91066915995693	9.9245183375327	9.881837993167279	14	0.9001280317308575	0.1627177995067435	-0.7802142507044714
Si	4.8111620870355285	10.393024797864538	6.765895204580294	14	-0.6498394134619985	0.1856235196934107	-0.3492777157577521
Si	5.807525452739228	9.131583508842114	8.413736322164178	14	0.06477025678304234	0.5875433313285346	0.9158588254111195
Si	10.051959646820547	9.835059536111034	7.424714020115318	14	-1.4898557741393899	-0.10690887320654524	1.0216490106928684
Si	1.1866090849281725	5.767721561454902	9.317375723489295	14	0.5764947775467943	0.7191713253040476	-0.6692052358438859
Si	10.400088211608074	2.8578838550259893	8.165806057367499	14	0.7453297508312342	-0.9437072384652394	-1.3697463319981404
Si	6.492843175808963	5.673520499548189	9.222830375692569	14	1.249219599463431	-1.0244857111925876	0.949654719291806
Si	10.146771538532125	0.9389498064449234	6.624216007840855	14	0.42335485957866653	-0.5140084336196394	-0.271332086872143
Si	10.67767148693186	7.589915717340306	4.182984715711848	14	0.9924656797565277	-0.3215082356369608	-2.1055020579487396