72
config_type=amorph dft_energy=-6953.962888415848 dft_virial="-4.024778109132902 -0.3647455161401693 -11.151150848616346 -0.3647455161401693 1.9042231428835044 -5.90510413199343 -11.151150848616348 -5.90510413199343 20.152818638323904" pbc="T T T" Lattice="11.105996452100001 0.0 0.0 0.0 11.105996452100001 0.0 0.0 0.0 11.105996452100001" Properties=species:S:1:pos:R:3:Z:I:1:dft_force:R:3
Si	-0.4416566033092416	-3.2505008204013377	-4.411381753948575	14	0.8382631239595826	-1.1643492126190669	-0.7673188719712686
Si	-0.2804264104155251	4.842087844756047	1.5897267699489819	14	1.5067073126287045	-0.21169632741343636	-0.5736318517728095
Si	-0.9678820378022891	5.480099575938061	-3.605210798686379	14	0.055785529241784884	1.4461927493715714	-1.5242723328443601
Si	4.861800988458524	4.29354824219144	0.2718392539587613	14	-0.033992840548209766	0.34594530615230823	1.4004589563789054
Si	1.1663117658123145	3.0743797074646455	0.6466610812189103	14	0.6589940910649178	-0.6222640517928784	0.2073771275861196
Si	3.984781550029446	-3.2098328825930382	0.19542333477044202	14	0.056358114396581865	0.994572186345325	1.4057052967846675
Si	1.5867270403072697	0.23400556644503745	3.416478826778327	14	0.15463681548551808	-0.3605882651716156	-2.16875356281917
Si	4.3838644265392075	2.456146645364176	4.715408406824813	14	1.6919472234083492	1.07869489576259	1.0429254214381578
Si	-1.2146184079803688	2.2849443782561187	-2.653624589478256	14	-0.09968046770948095	-2.2385035363862755	0.4876024106501228
Si	2.2135494800637936	-0.5024630444841343	-3.982370438199695	14	-0.14392996160082544	-0.24341862485342333	0.17620401824251622
Si	4.2110084765594324	-4.900214408987048	1.7943147729916968	14	-0.5457741827395372	-0.9953350332938128	0.06668418758336057
Si	1.896887535024002	-2.8077647142369524	-4.352634364515902	14	-0.4605086170074663	-0.3747589121436117	0.6010614317702772
Si	-1.5873711881014916	-1.3000979308732468	-1.0156333801477382	14	0.9169680002462314	1.4125439227151975	-0.08131274841287509
Si	4.465818906158189	-0.5246861433847864	-4.041053412852946	14	1.918165925001578	-1.4176426816755832	-0.9257735217466745
Si	-5.467731938289003	-2.1502808394754704	-2.6058021687555137	14	0.26814751582260754	2.9985266399010917	-0.49345836012729205
Si	-1.539786435702824	-1.5369010978245683	-3.3281606111922923	14	-0.059207927533434	-0.4606883372693446	-0.1338954517573515
Si	0.9055485221152325	5.2954890393133836	-2.0935336400038205	14	-1.3368205001577922	0.7472074290465383	0.6554518792653496
Si	0.8263483296163718	2.9702587695269176	-1.7861685245940815	14	0.27439144509258717	0.25683825196140425	4.502654876783156
Si	-3.7946768769599144	-4.567448769091711	-1.0160576292122083	14	-0.3089396443899489	-1.0041860633584228	-0.3318736467351378
Si	-1.3610132108133701	0.43763290079464573	-4.422654340347457	14	0.802920710228827	1.54923545150821	-0.441472924548686
Si	-0.44099912831927723	-3.272898283446288	4.216063926144429	14	-0.8555959733648287	1.8330944777211784	-0.09348847476696834
Si	-0.7196108189145292	4.33574880751013	5.287955841919924	14	0.15941110095450106	-0.10473114700037983	0.8820253933927589
Si	-2.695138804216206	-2.3548366351284744	3.4453677447495297	14	0.8820606175356449	-0.6081255436373841	1.128147278379786
Si	-5.362780271816658	1.3685053160199567	-4.528160196042761	14	-4.617460642870004	0.5359399620005026	3.2132221616704806
Si	-5.432338238195805	-0.5801095080793462	3.098178747261851	14	-0.8047197126213347	0.03259955857522153	-0.728607796050055
Si	2.7344884602456414	-5.3202987247877305	3.7972723483307704	14	-0.6679343384841367	0.7136179949230598	-0.8655605491435947
Si	-3.4969562088691797	-2.588537897270724	-3.8186202947109966	14	-1.1820080781789082	-0.38973560063347423	-0.7868225055983159
Si	3.9035189739894305	1.0659402122768156	3.0198581496819963	14	-0.40208204838082534	-1.049351384964804	4.242323778244331e-05
Si	2.0518272915272493	0.4970855210020275	-1.9221336861589158	14	0.749094106130463	-1.8660804734260181	1.596172264680173
Si	-3.2504241890258188	-4.835481998066338	-3.375162298777225	14	0.8211830142073069	-0.35143435890029234	0.929029312413578
Si	-4.393953113716295	-3.369838084078088	4.878171227228919	14	0.19731459269465604	1.0308473970862302	0.08650766671223428
Si	3.861238445496286	5.062423040168194	-3.8998051287758484	14	1.8733232771128754	1.9108508732552245	-2.4244461302499163
Si	-5.0281788107077885	2.962957687459307	-2.9339710367193264	14	1.7190875540573003	0.7509594430402304	-1.0904152793644848
Si	-3.0917594813125366	2.9812137244272696	-1.583524070930484	14	-0.6787121548756654	-0.10548165264333105	-0.571712778761851
Si	1.0787865183729597	0.7096509612962858	-5.533355050125171	14	-1.7188605254575313	0.3603995460411167	0.8975767239216746
Si	-2.221635756080568	3.756051331899156	1.7688176263369655	14	-1.6016680023019896	-2.1961049812149054	0.9892188879582446
Si	4.8146693607151025	-4.026891046177228	-1.773610974405692	14	0.022305881315476672	-1.0291203856426867	1.0383498824104223
Si	-3.6152050848936237	-3.5815850124338264	1.7183997342433674	14	-0.12597850425555157	0.9049591386274157	-0.48440575540558267
Si	1.6750652466869183	-2.803907601669138	0.6739329661066871	14	0.47799984650043364	-1.237866626811785	1.2683833329671548
Si	3.584630276660992	2.498581547208005	1.2620909898148702	14	-0.642345412785363	0.4179072016263367	-1.118894384553637
Si	4.873199072617314	-1.803147371970052	4.94938620827872	14	0.7298249573086132	-0.14571713690886037	0.4047536839189912
Si	-1.9854289811387242	1.1639439673687269	1.3977052018918181	14	-0.06749280020654715	1.03674936934863	0.5492757710750468
Si	-3.0589890175813257	1.2086211698962348	5.105172241711617	14	3.3481172591763064	0.31372884226978875	-0.8169098371652208
Si	-4.973040870122048	-5.079612901476755	3.0214885099611646	14	0.5901090373275105	0.9877021929298894	0.42965483894462536
Si	-5.275861411783588	-1.7836263620061958	1.0486659453952194	14	-0.5971618363312087	-0.33775967814455277	-0.24958619229539458
Si	1.047337668219548	2.929188794647052	-4.815703328984793	14	-0.7617454869687836	0.765832773096223	-2.089314893074151
Si	1.541277971026341	-2.185717852954831	3.2102571316575084	14	-0.7313149128416391	0.15737787086732793	-0.3348479013694851
Si	0.15303285691242155	-4.6733499982607105	-0.041782979852090625	14	-0.38404600167051856	0.9919046645756714	-0.26961227452349595
Si	2.8528550598324784	4.102732785348974	5.347864918581488	14	0.42166924293077745	-1.0794130054785072	0.6120048273444235
Si	3.016074336690766	-3.1739505186559485	4.764900058814306	14	-0.13221317754637862	-0.04165036352320679	-0.7521012709129082
Si	0.39670397206972163	0.9245131216568385	1.205613666057006	14	0.00730065355656047	-0.8339549798851423	1.334908112020666
Si	-2.7554199317589143	3.450408756539138	4.251205520118163	14	0.5972677658703988	0.024929437184155776	-0.318646595415636
Si	-2.864175402016104	0.8702836515808795	-0.7680474012410728	14	-0.9638634186225403	-2.3405465927744404	0.9551748824141639
Si	4.145355378532844	1.2792497543333647	-0.6924799801816941	14	-1.3436154172978796	-0.6298303005290101	-0.26263146646876184
Si	-1.9601883830020363	-3.3060841114448083	0.021460116944392833	14	-0.26414070529168876	-1.42231026627378	-0.32762489519359306
Si	-5.1402327619112524	-0.17552138912827886	-0.8691874897310572	14	1.1417545961761375	-1.4894780787678603	0.2244261269640215
Si	-3.848083392698773	4.253402286216389	0.12066776205171173	14	-0.10878886541663753	1.4881485602068119	0.4602044552480928
Si	0.2272120284152879	-5.372065995450258	3.6414740983017757	14	0.9557829488223789	-0.613471128708504	0.4926451195145292
Si	-4.936136754511365	4.2856885285022885	4.549159414134393	14	-0.08719363761164978	-1.4702878628793392	-1.2692989035716595
Si	-4.798560112861331	5.0052005040483944	-4.475221242754537	14	-1.5006227918885744	-0.30843467930507185	1.9423407427742705
Si	0.8115073865574307	-0.9886191543776502	-0.28882587553224826	14	-1.518885610088118	2.691847511308617	-0.9760969948463368
Si	-3.125606116099957	-0.05752017682471633	3.197308650394005	14	0.09987587171381221	-0.11155331785686075	-0.4932788969759456
Si	2.658279112591331	-4.447068652348109	-2.750970869580203	14	0.5315811671512557	0.3604409408367711	-0.5315300021553847
Si	4.125949870932089	3.3726267997872106	-1.7346844568410817	14	2.6658518367481956	-2.9005904100407993	6.5294471733451385
H	2.9793290368293475	-0.8349166058791669	-1.7453828632233896	1	0.023161030944957924	-0.07228842584968735	0.1021189039951094
H	-4.384138744651574	1.1441897314793765	5.785100224703148	1	4.597796315160448	-1.5440130223819253	-4.055347342931458
H	-6.571565810460384	1.757264058227846	-3.9927811992738937	1	-3.9960183163374445	1.3612845672790013	1.6684982286675345
H	2.885890956878895	3.8860159235809206	-2.41814414670438	1	-3.029955831334582	-0.6945434787739452	1.7928942175985352
H	3.7977932195643738	3.868898251249299	-2.8893704655673376	1	-0.24140159272976716	2.45635688970987	-6.599888517132831
H	-1.2607360582477138	3.3107630677500777	-3.6007717319044747	1	0.13410216862509142	1.8237863051306464	-1.7941720569426485
H	1.0280421099836694	3.0454574715040867	-3.2128803680194946	1	0.28667001565948635	0.4217420052113376	-4.247625140303944
H	2.0896054490587126	2.2166269516806705	-2.51725183784363	1	-0.16125124103213104	-0.13545868379200154	0.9214831182989434
