226
config_type=amorph dft_energy=-23257.74459231895 dft_virial="23.5336506056604 -9.478605295843844 -2.744235382044137 -9.478605295843844 33.94057291501473 -8.733508745526223 -2.744235382044137 -8.733508745526223 25.463572817958504" pbc="T T T" Lattice="16.496709481698122 -0.0366393383162048 0.0290838151514944 -0.0367548157444864 16.426598185955726 0.054934262311104 0.0292652796816512 0.0548847719846976 16.364735277947723" Properties=species:S:1:pos:R:3:Z:I:1:dft_force:R:3
Si	8.100901612676287	4.296062223066599	14.670125463723354	14	-0.0050344813273819535	0.33442598298644877	0.34271985452818243
Si	7.208061481076347	15.398454801315781	14.048522015026329	14	-0.09760738548984556	-0.020190375858058836	-0.07292965951653227
Si	12.086402139477444	3.4847112132498896	12.908687212074874	14	-0.10970546446327031	-0.058232707285501825	0.11341402677705192
Si	10.634872311785841	3.9848571525578746	3.04525196185898	14	-0.08620016251594456	0.008062472062920345	0.11492737936849108
Si	1.5306698086480766	13.553183236089954	10.486759312594314	14	0.10390505086101624	0.01898555590503745	0.012727228445265007
Si	0.8678491664422553	13.882991720294843	16.021343348821823	14	0.10256267677336695	0.07996497500405346	-0.006399995362912599
Si	6.571615883490042	15.373806969087845	5.516826907112892	14	0.024568453997206984	-0.029902211983854173	0.14969875060764168
Si	1.4115581407307	5.9392746836403765	6.334517627742262	14	-0.012054113072450238	-0.06405960327255342	-0.0763559144661616
Si	15.291370932392706	16.20101302980762	10.965791028979783	14	0.11783658503823861	0.6899100898765064	-0.1872572000138328
Si	4.946978792094135	13.026041973404823	3.103454235390453	14	-0.03913273719371779	0.039524059423444335	0.04799250901641606
Si	16.707995232869877	5.944182474342344	8.373024172421877	14	0.06210376345551677	0.08608060611855768	-0.05105906633175667
Si	16.532905056754217	9.657350932349459	13.373521803491892	14	0.04021851497041633	0.01256164926264747	-0.07844956552835819
Si	9.980413885065154	3.3689665372056954	11.798919432092855	14	0.26964184223467763	0.16273271191760033	0.048223137163633335
Si	14.23171540725226	13.006272237683014	5.183945073638165	14	-0.11744937657702431	-0.16154460414915994	-0.20084240630443123
Si	13.334092860443914	6.415937463068524	2.868800801767148	14	-0.06833637986208774	-0.00022085794700072	0.19494686180533166
Si	4.259127592469502	12.628443289765993	17.27156302546766	14	0.07362231528978017	0.11966644069458802	0.19368367776154294
Si	1.484490385078265	10.595553897133504	4.114487164514158	14	-0.050151723264276415	-0.7489663221960516	0.4031256600302735
Si	16.37660140854243	7.272392306694479	5.176382951763267	14	0.11513923844687128	0.06798079599631125	0.03236224555417185
Si	4.706947409668	1.9504715023903647	3.638636026439075	14	-0.002845956478871909	0.1435682070822806	0.00845945072435121
Si	11.173737832796647	6.506339792637548	5.90527977843182	14	-0.036810514868560046	-0.025568356856212573	0.015266966280507279
Si	13.25650192670396	9.337044590814596	5.751592518809385	14	-0.11120184775959652	-0.01833172382212379	0.014354738112918741
Si	10.711148452520932	6.821071873741501	12.952967856788227	14	-0.03523082775986107	0.03790297751909097	0.06469646606035409
Si	8.871941101957436	0.6724597081122412	13.673413385384114	14	0.14382814583014758	-0.19082589419819834	0.09115931045744617
Si	7.523775120320694	4.707773898118988	5.4320037870074165	14	-0.035666630111626164	-0.038452936947070644	-0.08349484549808477
Si	14.252676210162917	14.41230725798676	1.618759290296375	14	-0.06348316145977623	-0.041739066656751894	-0.0017583789284492711
Si	12.378696956266282	0.21145566795907839	12.305947826126422	14	0.017877409512053622	-0.4031151184984608	-0.1076668350549249
Si	10.132138028406802	16.021866296604184	12.122337065481132	14	-0.03909339928231952	-0.020815925782450864	0.013251733930575214
Si	13.576201186901569	3.457343062747151	11.09789885661148	14	-0.03725094520990141	0.18589502841521838	-0.027162956375768408
Si	15.96367557081554	8.143936750841746	8.73688200119437	14	-0.028962215878808036	-0.018122950070127763	0.015163093625573297
Si	9.985638413856124	13.758762752627044	12.56872991160158	14	-0.0073209652885896405	0.013308555358150486	-0.009168561571648049
Si	12.085413982626863	7.897719077614812	4.2406066626506815	14	0.04433948257754967	0.030858663162949256	-0.0822054361800305
Si	9.858261861428879	3.3654411762880123	15.912726929457698	14	0.0062447006015756545	0.030758647165995502	-0.0202505397225503
Si	9.720612766917212	6.802499803918726	0.1345411020133453	14	-0.0718289693289769	-0.04614439851229362	0.027105620727129104
Si	16.30652310635097	9.296998668364084	15.642635122772315	14	0.011511095628834964	0.1093334255234449	0.053141661641076615
Si	9.075651533833915	11.703059969198751	9.236196503018727	14	0.00291074833293964	0.031086720204846395	-0.029875215377992623
Si	2.4072094764072958	6.321737575786583	13.65656522859783	14	-0.04567800000721876	-0.03914096473074227	-0.01288997941203038
Si	10.392681501450841	2.168240486321353	9.79443088810745	14	-0.15309235251970513	0.09796296935562203	-0.12158551370554654
Si	12.351779167733843	15.694786379061833	2.3227393872968523	14	-0.006492812264969943	0.030946852075430336	0.008281273125664946
Si	1.8829848436250507	0.9860221678354573	14.24820063497823	14	-0.03405788951280951	-0.08582426691813892	0.0968789913526476
Si	6.26524271851613	12.498419004876006	-0.11471197789984768	14	0.0850632197433751	-0.1018206557779722	-0.19189753089563605
Si	9.783769022121966	0.5474801371606124	4.485794937088361	14	0.03854703940178806	0.0603626109327125	-0.05644347509321077
Si	12.061432620127869	10.700277077486993	11.538334717110143	14	0.029135508377386016	0.10213793017447849	0.049846018841710804
Si	9.101275975169601	11.093627841442608	15.266728049197411	14	-0.07365625388000613	-0.02742957999746777	-0.012344647973626971
Si	1.082642132078672	-0.033932217461774716	6.096711660326869	14	0.0036638250812110126	-0.03392187804137368	-0.05903360659272795
Si	5.533696509707287	2.045410445213309	13.681770651836608	14	-0.08482847782764558	-0.19466455444117942	0.12619087755499578
Si	13.17600096177131	1.3969832396040154	2.9242431647626907	14	-0.01414673569251876	-0.002606072352502093	-0.0020455713927098117
Si	1.1490630991487014	6.859629787044727	11.764173923600467	14	0.007336134809978513	0.08461173364915708	-0.013744357709915587
Si	4.1542938837203724	16.079530775255375	9.045322212134524	14	0.365804523645132	-0.9625269580771273	0.11714752881243894
Si	0.8826055320990969	9.800391173084328	9.685456488715653	14	-0.02630472141990298	-0.05804527370766303	0.028505587573949737
Si	6.724743902424085	4.660546929306907	9.202267584912049	14	0.07977265632610639	0.07825698973987909	-0.01321830956141329
Si	10.55556736307468	1.2382529157207685	15.300386420186404	14	0.0021358171894470092	-0.027691575629590858	-0.005236827316077607
Si	0.35179208719461313	5.8102534026988915	0.619165225282736	14	-0.03945489669033234	0.00441818738214246	-0.0184204269556689
Si	1.3754631960049657	3.7976500948603853	5.266141907089008	14	0.0723187648924651	0.059248808108024346	0.0019468409484161252
Si	14.596983710327336	2.368148411452271	15.161361494600639	14	0.05250479885327594	-0.011844053767794141	0.025047450918350568
Si	10.592091223962603	7.551628276022216	7.921236880723133	14	0.06547165431437874	0.03119804906520881	-0.050792185599525294
Si	3.6087983086486566	9.552619503608234	4.591240676207384	14	-0.1795706235487181	1.933336217722048	0.9098002728347225
Si	7.201807553496125	1.580130440858633	7.732233324177091	14	0.20392439025169273	0.23804989983442215	-0.06492169488639907
Si	5.995474248629937	8.077355765049669	1.0666452089065765	14	0.11008470249799215	0.20232567696362466	0.11410771099242785
Si	8.876225314546684	11.37610707682751	5.364888305690151	14	0.01790980543908749	0.05103566927334332	-0.022255744761733785
Si	16.098503716722043	3.8436002132511806	1.7940259819095468	14	0.018873198602546975	0.02428383263826659	0.02478339840197136
Si	15.54158577431573	7.731703777684543	12.322916409373631	14	-0.03843468209929759	-0.04706845376435484	-0.014463495867961005
Si	1.2015360425598605	5.060859332510354	10.314928899311294	14	-0.06072050879327711	-0.022217692402995592	0.07920084250290546
Si	7.772000451122181	6.270053178242832	10.480525181144657	14	0.5116579291359602	0.3021637534292307	0.08439756057598875
Si	13.49243715978119	14.574127427915313	12.452054817420944	14	-0.37872587054206813	-0.7788014283310498	1.5238483575770678
Si	2.8227154098175085	10.74306476402042	1.3629272963262247	14	0.09505864878598276	0.23222943161067092	-1.2503256889721588
Si	2.5447513418784156	2.739645896944366	15.773017387689977	14	0.09944289757789926	0.038825747218492114	-0.04169252965045722
Si	6.926098594763617	14.340039833690588	3.4740608950072325	14	0.027186096323649742	0.013137319743828625	-0.10502939521751702
Si	14.01826692881655	1.6249670269052843	6.737151127254169	14	0.22692344156148128	0.005041937532810383	-0.21897692634849963
Si	13.950153392583422	15.796568184349237	7.293305268956277	14	-0.048654825746886204	0.01991475336773896	-0.3216550457507412
Si	10.835466502776262	9.180130561910465	12.905889358955367	14	-0.03826884580614804	-0.014605677992165191	-0.010074361975936218
Si	3.790259539450363	11.764045248751811	12.837427740759846	14	0.024630417635422553	0.07078304368474064	0.013748985699491852
Si	9.3737895084938	15.065371707180333	8.134312532033247	14	0.0020391436294094414	-0.007658037196061053	-0.0005353041276548301
Si	2.326152570141347	0.7780060775616237	9.930547432178066	14	-0.3454079451403973	-0.6585328347704832	0.5812245828937388
Si	1.1381455331434496	2.2440052270169106	7.018787377412617	14	-0.1577483671439613	-0.22970769151266968	-0.13873864284891443
Si	15.25691576714857	7.227047619963388	16.007365630967108	14	0.05413410829465377	-0.03716687006593257	0.028356463465381152
Si	14.831147189719218	9.557334282037218	2.5533874038363327	14	-0.0036016043324634288	0.027881323202217787	0.022132588816898693
Si	3.5720863845203894	9.278966043099139	6.927518967131481	14	-0.07058506857508924	-0.38370944398411116	-0.08628629454416953
Si	16.0619650087362	0.520471616363093	14.848183409745847	14	-0.09190056012124488	-0.16077558654790364	-0.12520228755939886
Si	3.981412625839989	14.163420406488973	7.654982224011795	14	0.015539760554974988	-0.02786666790189294	-0.026346630436621395
Si	12.532432056537576	14.439104620058279	5.915215786296678	14	-0.05934651011018997	-0.009675583540781251	0.05141490730806516
Si	5.749677243177458	9.84190695822911	7.489750520916294	14	-0.0014871273171736489	0.06644816011497098	0.045894487075175225
Si	7.881423562806731	6.675210684401465	1.6544269685374675	14	-0.045280764235255885	-0.027724228667156733	-0.044432813700671044
Si	12.373046810668221	5.548890039914053	14.027468830173046	14	0.0011066037297917334	0.01788460860695004	-0.02227245694631475
Si	6.137001735054319	13.540444426072945	6.939538517738048	14	0.020087274534720898	0.029856703419687554	0.06201943120101592
Si	12.51234393304922	1.4330022991625933	10.281664801256005	14	-0.28899969419007254	1.0141647802164493	0.5369511777229169
Si	10.329342132038384	11.387547590615123	7.290180779682486	14	-0.024082515091698998	0.045797556404605644	0.018063557537232343
Si	15.515222277439038	15.355365223791274	13.221639291105745	14	0.12768648951972592	0.3163850511760337	0.08691133024749753
Si	16.03517589505241	15.568216518955012	0.48819072612574527	14	0.05579632788412951	0.012548279514982701	0.13579009926776864
Si	4.924119210327018	0.7887817712978438	1.6045737130707538	14	0.06196646643142087	-0.1588927661219592	-0.16358503333122942
Si	10.756936902512132	12.468747904517821	10.774271714174748	14	0.005643061956661004	0.00885360116992991	0.04447318005419737
Si	5.57186015007681	8.864111732319943	15.150473622791232	14	-0.14146478581986746	0.4756598835485669	-0.14344993623755378
Si	5.22349774250216	16.25443123845314	13.138352020796415	14	0.1119117299384894	0.07799242300243586	-0.08439498947066862
Si	1.4843633599071553	2.541524572596719	1.5504147992066835	14	-0.032880066165649674	-0.04195401106151628	-0.016676189106480444
Si	3.035281310765637	15.733722068523296	1.8343243050247313	14	-0.07316517276385784	-0.03087280424221007	0.024568196886674967
Si	4.493924548039386	5.426427876898962	13.115335719662344	14	-0.0809689916315713	-0.16963587259166593	0.13854915238681953
Si	11.331001593340718	5.156842521220473	16.134578865317213	14	0.04106158040489288	-0.0027914490460847693	-0.02142167819587775
Si	4.8485705773901016	1.4114591600778874	7.539343127330601	14	1.0671120662953228	-0.43466772298731804	-0.7202756150390512
Si	0.5919076031756377	15.53623422035365	9.643843372595605	14	-0.18444209679880266	-0.0961516256575777	-0.21250442581555887
Si	15.443570182867854	2.1493005384056234	10.551413475011636	14	0.08605335240216412	-0.1572346603009957	-0.21062829026344684
Si	15.567322393724604	14.15300599213552	3.6564030536189724	14	0.05340571415745582	0.046714155451238436	0.05268169089930212
Si	5.553256736380644	11.202744113103439	14.428447703105434	14	-0.0670318010226446	-0.13468838063808516	0.1444015023165406
Si	2.4044017252225065	13.705237314940977	12.728951543987204	14	0.06351092939723382	-0.024317771228492546	0.014624961282066303
Si	16.918197145893323	10.857540838031063	6.319413180123028	14	0.10254904991517017	-0.40421452313335615	0.08881266263174702
Si	12.544473052952256	13.49854426605974	9.571597394107542	14	-0.5337894895107308	-0.20561849154713832	-0.41185404837111217
Si	14.446793767104287	11.992190704452675	9.132383944671117	14	-0.10749585655113507	0.12059563815728953	0.1486985906381041
Si	9.89332740736536	5.600688265208538	11.141560872244753	14	-0.01903132157973608	0.04342442619410897	0.044071573403190234
Si	0.920147244033445	12.06318787703775	1.1102956767970213	14	-0.2561623083727373	-0.08011075667570586	0.30151789177280947
Si	1.0619007362817499	12.850468441767932	3.268763473330657	14	-0.046677131534628304	0.4739377572051317	0.09156271688217742
Si	13.354670938163695	15.764203160556997	9.582991716923843	14	0.6438086288230592	-1.3728540269986036	0.012909519812463506
Si	4.67711629058777	5.66682218838541	-0.8066296326775385	14	0.07996548922511748	-0.20934402315603287	-0.08663056554653735
Si	12.447118982200678	4.60626923865946	1.708996652110711	14	0.06790520549989891	-0.015515592164965597	-0.12929780122386272
Si	15.562868264348028	12.656535648711813	7.068751161274971	14	-0.2914471293443215	0.3503938325772284	0.546745546329489
Si	13.644215742481885	7.942516071400338	1.2047265189355263	14	0.015559300955408114	0.09173086717011511	-0.11669012917598459
Si	10.99922999285504	9.376590660968404	2.661988976102537	14	-0.020126612446119165	-0.07623815784249882	0.08581938181803064
Si	9.370953712790714	0.11107773826407104	9.944861684252345	14	0.3132405893694927	-0.2372680267065651	-0.1562800088956247
Si	3.123811256318952	14.454830996112687	16.26221441711932	14	-0.027613414027858354	-0.04903740621852424	0.03889336728841201
Si	4.046068437934856	6.639998317163312	1.362302068535957	14	-0.006921672632370643	-0.07377092517728472	-0.015747505864842956
Si	16.839345858507553	13.477888653495256	13.7928104475171	14	0.019092513886355605	-0.029322170623628768	-0.1061174869890037
Si	13.536437359311574	11.03441266589735	4.118180792541622	14	-0.03831975369148697	-0.10925732080596852	0.04161513938032076
Si	13.574125892547595	12.26453762034464	0.7004844302786386	14	-0.03960787745688116	0.0011446560885299247	0.01323810707237843
Si	8.558873545498283	9.547573139992329	12.345582978867762	14	-0.05248397290018273	-0.09111945832498389	0.02073827840178239
Si	16.41577135221555	-0.08183060503543552	4.094336353279019	14	0.04755542111199089	-0.0009055432937561534	-0.02204260013069351
Si	14.72134630187643	5.694474083426212	4.561356767445654	14	-0.01585317829350104	0.018839774233385048	-0.04939736096334497
Si	2.0694528457815378	10.709752825316272	7.9380949355747	14	0.22579858298391656	0.3599295479885936	0.014953805652513242
Si	11.84930553340721	9.581695070371994	7.689277370533883	14	0.02198012227141391	0.01826333242060785	-0.01915807707201938
Si	6.8929318276835945	15.955664736647892	1.75796403073475	14	0.00042423237782443306	-0.01681682856749254	0.01853149870549929
Si	11.172551714640441	9.99484031521262	15.114738307770716	14	0.11155846006750106	0.10783292845860647	0.09146681465373589
Si	6.284303092892781	4.18227076523791	16.18361553039822	14	-0.30014749263717055	-0.6011388220404137	0.04921995469625475
Si	4.752772152565233	0.4111062433926835	5.434082380716485	14	-0.14394281712742618	-0.057202722494250506	-0.18824116201985347
Si	8.91744250805548	9.61452200387736	3.711452793358358	14	0.028124549765503794	0.06617099496145902	-0.040910913633132207
Si	5.790470469556706	10.004419992727353	9.804045208850669	14	0.003170687080806611	0.016481813544277246	-0.032556106895311014
Si	14.033805241630612	2.8845486236296645	1.1537877756429655	14	0.009818022775517455	0.0176478098069644	0.023664710477174934
Si	6.910972701336274	9.867071139529218	2.432805873224686	14	-0.13673446625185903	-0.0819655520536607	0.0014742717905729087
Si	7.6731171292846465	13.52221548917992	8.737856960624576	14	-0.030462712943646456	-0.03123404453969088	0.002714058775948312
Si	3.001068648120893	14.18019927681829	3.660347432633563	14	0.055636148022684274	-0.01519111867356291	0.01468846758347396
Si	2.4525937553995116	8.609634123615782	10.96774919622793	14	0.0062171897746500695	-0.08037840873953328	0.028855515008021887
Si	2.435418962458944	9.813441772157695	12.93902313248445	14	-0.00844402409243032	-0.04836969016688178	0.03457596723481935
Si	1.3798876311856978	4.752582439647342	15.123869272992698	14	-0.03263632538129964	-0.02303350412107858	-0.03516243635834513
Si	7.171166442740375	8.054991086546616	13.586249372839616	14	0.12395350170540292	0.1810515802131234	-0.030542931429635073
Si	7.225737775991165	4.4072851329547955	1.8824503480998616	14	-0.0015501193975172769	0.11605223794605585	-0.0805696989753523
Si	13.17236342278044	5.168278085975446	6.226145360655074	14	-0.0038335180323407856	-0.002201894596174815	0.047111391223201314
Si	8.80804084217904	6.553268169813643	14.365505905981776	14	0.016659734032431494	0.03068151400639106	-0.061089976627782386
Si	15.465392117457982	10.871285951351668	0.7699424537124742	14	-0.07323613527069393	-0.10101435714957378	-0.065910284881996
Si	4.644764464215906	7.986288615429252	10.293540829915996	14	-0.04767292062512165	0.1400223957352644	0.08557821213900074
Si	16.977423869181408	3.3114521792112708	11.83916331584899	14	-0.01653169298748812	0.19701068804581454	0.003039817820011074
Si	5.972476093948883	6.924430770763721	11.94415209428753	14	0.02546756952766277	-0.0851413813451076	-0.00846433582445949
Si	7.633369798470119	11.33078383590453	13.463962075644496	14	0.02073827840178239	0.16191638597845334	0.0005440458857433335
Si	11.1706958274002	5.640150201807454	9.182195958199157	14	-0.039410159457761766	-0.024889327941161464	-0.046947868924839896
Si	2.789203860130188	3.3331586363731183	3.40903225578677	14	0.014609277539613398	-0.028094982054322086	-0.0019509547169283626
Si	8.442455801014964	7.3591356514645225	3.841044862731063	14	-0.015941367205982118	0.0304583420646022	0.004555484406238367
Si	7.888792672408645	2.753301927677439	12.919604778080124	14	0.1577491384755573	0.39347630176375764	0.6956799073254507
Si	3.0302992845740593	15.243724945483716	5.750450941946944	14	-0.015538989223378945	0.025288877707912473	0.09798199553499112
Si	13.39437702703955	12.159375625763682	12.886340680024839	14	-0.2591717871499706	0.08044217215147294	0.38337700006621606
Si	4.9192064705924095	6.256662745594807	8.621970412311352	14	-0.447655147290982	-0.14405028932980835	-0.33189678668301914
Si	6.632962442425869	6.911352127172056	5.2383860823627515	14	0.12045885535425765	0.07696629486916476	0.016438618974898758
Si	8.06483471246885	3.742763673198141	7.509330543720212	14	0.11150343841364987	-0.21024699534446886	-0.34427922990485227
Si	16.349614333553024	11.806298439760049	10.557680600012233	14	0.012744711961442013	0.0626339253725313	0.007103192667973098
Si	14.670811729582855	6.180239783558044	13.947736614977241	14	0.00418935900864928	0.016052953176876546	-0.01577398824964048
Si	0.43017981518971005	8.626790770103334	3.272910762683513	14	-0.11644458861791046	-0.1442156114018939	-0.12009992905156497
Si	12.149637579204448	3.0330080551060363	6.376051559340059	14	0.007900492427751017	-0.020127383777715207	-0.055748248214642734
Si	5.587606322261778	15.800822702742641	10.841654443254608	14	-0.0030411033726711477	-0.07164127864060607	0.0918054292243994
Si	7.992880726906584	11.307605866370865	0.9520602561778386	14	0.12674855029893592	0.032003833472543215	0.07569694017260765
Si	8.878305557933299	0.7481089713795175	2.274723872617363	14	0.014677411830597323	-0.02263678257017973	0.012857583484996512
Si	15.481323053528202	8.952671372069103	6.563190980258127	14	-0.2946018755721432	-0.10142084890068918	-0.08547536792619483
Si	16.181889967684185	14.971604035415673	7.510848247063342	14	0.1320702240905784	0.03916641867341174	0.17222189032267088
Si	2.3671866494424405	1.9437259709011725	12.088878305475312	14	0.014801081996496449	0.09428526030568223	-0.0455658998152603
Si	6.60162351806779	7.6983077054255045	7.400196125606366	14	0.08754999280902231	0.025339785593251403	-0.05501136942988831
Si	15.674312231027507	11.717562284513374	12.79038388615547	14	-0.07189556095676872	-0.012072882141287319	0.02558146949334533
Si	4.883212156197034	2.278795276803063	15.980629306964826	14	0.11361225899723532	0.1544010451276605	0.1211021459053587
Si	14.869523638492286	1.6368991446018675	4.510066642835607	14	-0.0398500755780391	0.053370490014569796	0.021696272244069566
Si	11.365793292804417	8.447249763966196	0.550208703823152	14	0.0007245374792177287	0.04054915911458737	-0.03133251787345255
Si	15.551434349270602	2.657998406116634	8.188342771048662	14	-0.028541840158963824	0.08931325683757986	0.02049813716488056
Si	6.527353385229705	3.0097772958908724	10.919113402790812	14	-0.24052690269985283	0.15427351830378117	-0.12487935673118823
Si	11.405830966867194	2.2283217425787227	4.309327280221061	14	0.0033519500058770504	0.014817794181077409	-0.007300910667092484
Si	1.7631176233912031	7.422405734420012	1.6109134238834137	14	-0.001280667559965758	-0.01919587232022556	0.0018087725927241737
Si	12.452493631648414	12.02712262650786	15.03902635675666	14	0.05678260388493831	-0.20966052622094308	-0.13024782463965745
Si	11.971449308655753	11.501099845199516	2.336154565108081	14	0.05166301897145945	0.044081600713938816	0.017001176818947156
Si	3.2579613847536866	15.463747388943743	14.12343882146279	14	-0.0752914768636203	0.010013683890380723	-0.02260824330112609
Si	6.032719018605847	3.901635869350419	3.8025529365297124	14	0.031673703549436195	-0.06225777266419364	0.06387936878961104
Si	10.388554008228548	13.079704334327282	14.79985940536509	14	0.09693761255394698	-0.016048325187300278	-0.10734647533203447
Si	7.300709021786674	14.606977456906334	-0.12997314488603456	14	0.013690878719256507	0.02709867874276471	0.09448529229958974
Si	9.797458046405977	12.563168848591046	1.9238193119429714	14	-0.01139796699474845	0.013805035795471082	-0.10977899807542657
Si	1.9995296132794822	9.051450764221183	-0.01895974404629184	14	-0.04242735155095553	-0.28725057124077574	0.001270383138685166
Si	14.26695581900871	7.813347969157181	10.300048807838436	14	0.008547125415768258	0.035624978205439764	-0.026186964796240202
Si	9.035655101709807	3.009241150688136	1.7034999265245068	14	-0.0003810378084459453	-0.06447560811335337	-0.027076053015947406
Si	15.866773511711807	3.7363860198019023	4.101665870619807	14	0.02510838611443808	-0.08475700109974545	0.01957228213909524
Si	2.9681179887995115	2.575171395842883	8.465896069278582	14	-5.464668385127849	10.915878062346852	-1.5930571134742817
Si	9.612108525626272	14.234095891952407	0.2572573153706547	14	-0.03696349563510885	-0.04988792785842923	0.08787549474255306
Si	12.580688424138913	1.6027673161569203	14.167303747434328	14	0.11196906558712869	0.21997708631803725	-0.11341968320875623
Si	3.44125375763243	4.486316235193176	9.814203923184355	14	0.21324747525308166	-0.01695515403371651	-0.04238287142891698
Si	6.4316044507312435	13.653066262520895	10.712748639741406	14	0.06042791700784425	-0.031313491694083456	-0.0033303527211878065
Si	6.5723978306472635	11.42876973315656	5.964917271429078	14	-0.03941967254744632	-0.010755447775243444	-0.08428237505764612
Si	11.225994668449166	13.56362239560661	7.609980670210455	14	0.09630846308210675	-0.047281084174331085	0.001192478647484679
Si	0.960262452940926	0.3185824284983718	1.9855551947798618	14	-0.004995914747579732	-0.02850584468448175	0.01779230592595672
Si	9.129866536734577	13.37951343234216	3.967857225437276	14	0.011594399441207761	-0.05410428347294005	0.07659142771348718
Si	3.2941355140016713	8.340159296332933	14.56384498776561	14	0.1229497421884171	0.20954534070260045	-0.010341499818699603
Si	3.0735637279185344	12.541883059203652	9.040579389187243	14	0.04596596380307534	0.06948746371391804	0.08443844115057911
Si	13.39825211959717	5.508804525202415	9.87691971448409	14	0.0446716693849128	0.0704122902975753	0.015537960781250885
Si	4.335415280947421	7.171900549248737	4.6616489139082224	14	0.7639543235493229	-2.283280878199846	0.7843933252918399
Si	4.766776265260697	11.94196792121546	10.645224038392513	14	-0.06135042959671339	0.037690604219646734	0.03278802059518837
Si	8.445403774791236	0.04466172022668224	6.394016547825582	14	0.05669930007256552	-0.06329341388714929	-0.007089565809776314
Si	10.573167772822343	-0.17278392690511743	0.8597508993646213	14	-0.006123858651528695	-0.038592290855422665	-0.015826953019235528
Si	14.672598330366128	4.878929593285335	8.043898654721396	14	0.0478665248557288	-0.04065611709590553	-0.04195349684045225
Si	7.194240482588586	0.9105345729677753	9.994218386777447	14	-0.1454692823559981	-0.25688607452035894	0.15108920436477774
Si	4.183646596312008	5.269103078285657	3.258134600896109	14	-0.13385842784074137	0.07314537525289269	-0.17985087402861424
Si	13.209185875304348	9.919979597812754	9.628852752727104	14	-0.075355754496624	-0.015996131749301274	-0.016893961727096982
Si	8.419965747018349	7.841997919113846	8.80489490709714	14	0.06081692524278266	-0.0678650962569046	0.08510461453902948
Si	15.889349348940861	4.084636249303364	13.920294228984893	14	0.044646729663307363	0.07486055961196347	0.10161291046810424
Si	7.698568354477912	13.51671711391617	12.670043208465666	14	0.03701208952565965	-0.007609443305510255	-0.020399149610054856
Si	3.4643014026398906	6.916688834036214	6.834551388977058	14	-0.24787897836281622	0.21369561891038347	-0.028778124737885432
Si	10.43820270367945	3.6676950964273662	7.987540720687334	14	0.09281510228362155	0.10900046738448571	0.05512166984812265
Si	8.088599967209204	9.761500024916632	10.083304273664062	14	-0.006299979365958837	0.10729711010988763	0.024915296104894957
Si	9.601157966070083	5.443815478243078	4.552908768728081	14	0.11055007256093896	-0.028084954743573514	0.045492623313636085
Si	4.366892778219438	3.352515952708208	11.933310413449433	14	-0.28584366240959075	-0.05670649916746192	0.07392647704915369
Si	10.98948039855298	15.009078110570599	4.215348449730401	14	0.029853360982771356	-0.018134520044068427	-0.04352778462797892
Si	5.418075559479109	10.92539042585669	3.963099555392074	14	0.4287266699240519	-0.01953782932780525	0.056284580784425636
H	5.741275435431198	6.721192146665652	-1.0000427773063905	1	0.34287643484217945	0.2317229238626017	-0.10048265256936714
H	13.846236904550356	14.489429683303399	11.021508888125656	1	0.45576415636019707	-0.7073501543736028	-0.34555706924896584
H	2.989906929838703	10.24845184320467	2.841871465491879	1	-0.016056038503260723	0.22900732242346133	-0.9223750347345029
H	7.741497913280369	1.681956787439801	11.703987087980098	1	-0.16258153092477565	-0.7532721522757035	-0.8147367389486315
H	4.087740942446592	8.332019787316629	3.603936708918001	1	-0.1379194886939153	0.10821525181971249	-0.5078817467522586
H	13.12780563223921	0.7546218983345997	8.877985520489204	1	-0.3505588975387819	1.0019075498237073	-0.36379777594275636
H	3.4936475165213388	1.5126107885423814	8.606364462717867	1	4.31225424340491	-8.93891018734189	1.7342293075087163
H	16.177993429318455	11.065485992170382	7.834523230148933	1	-0.399384444678926	0.534939544920433	0.09119402037926819
H	17.88827353056064	9.569909773977082	5.783073315436496	1	0.1574930563856706	0.06582800951175126	-0.6029445093067537
H	5.810278147862094	5.286832162881977	10.357510376151362	1	-0.36089551225737326	-0.07751496874448437	0.4003092712625832
