72
config_type=amorph dft_energy=-6953.762029401071 dft_virial="-5.512688266352972 15.992204268007765 5.461120796829706 15.992204268007765 8.864573785365216 2.5330947224355205 5.461120796829706 2.5330947224355205 4.700186185571767" pbc="T T T" Lattice="11.105996452100001 0.0 0.0 0.0 11.105996452100001 0.0 0.0 0.0 11.105996452100001" Properties=species:S:1:pos:R:3:Z:I:1:dft_force:R:3
Si	-0.21068297389562743	-2.951781723229559	-4.681209711949862	14	1.168480464647481	-1.1308245703496562	0.12615591052264175
Si	0.04102221909512177	4.805930052106945	1.523304026368262	14	-1.4938558997964764	1.096267115073142	0.5829256261735487
Si	-0.9909825104226571	-5.018168976105511	-3.707264910684371	14	-0.7439917476226291	-0.14185225139161378	-1.2027008480165238
Si	5.0960631034216055	4.121012144909486	0.30885998253219143	14	-0.31134645608013956	0.29670478261349226	1.1426940780601198
Si	1.3531268427327339	2.7581375690907435	0.3230490035993944	14	1.0120816706860654	-3.198394083068123	-0.8490921053469823
Si	3.8173975245016205	-3.5255508179344015	0.4899310380875847	14	-1.1625499531160273	0.3675862996319946	1.4178218877163973
Si	1.5174189588482943	0.053233262194205724	3.3494174884016115	14	-0.7281149151601828	0.83912290157864	0.6530224418483418
Si	4.502535330428832	2.8704891609991225	4.489681250135171	14	0.10834766374370011	-0.8707210146316638	0.22505013422522144
Si	-1.4107569689223258	2.3477798849828098	-2.995660404612161	14	-0.07653023540686765	0.13928757383476606	1.0227417304539315
Si	2.3004161419135394	-0.49651689398368	-4.13299107268272	14	0.18662573654720443	-0.07922501089291485	0.8986930978516829
Si	4.158689237873235	-5.386781440749291	1.9580404832882004	14	0.3261264550130108	-0.06498211586142255	0.5679047146721796
Si	2.292286552510602	-2.8939594633013455	-4.471555153325699	14	-1.365780402041812	0.3576222380742927	-0.28094879210109286
Si	-1.4576442647438017	-1.5551049366092053	-1.0907165797618055	14	0.018646941334373942	3.0767064964813664	0.35417258606625
Si	4.606835074909438	-0.656665362822962	-4.138027642073748	14	0.617882374106282	0.29887865216167747	-1.9111596630041745
Si	-5.345175046240788	-1.6626976090378598	-2.388957588028261	14	0.4144768329081952	-1.8023052344018733	-2.186169458926257
Si	-1.4830547846262065	-1.6272272775691428	-3.3423240884676555	14	-0.3830165311003313	0.024395675719693033	-0.8285805984344369
Si	0.5481575562866545	5.392293346788469	-2.0953661294184167	14	0.09959484990232001	-0.7529803318218669	-0.4957314743408349
Si	0.7896063615538894	2.9016692460383937	-1.8823842142572045	14	-0.8911659299164174	1.1248192396533863	-2.2981099852443325
Si	-3.57372418814503	-4.544145056736269	-0.9075698134695147	14	-0.7055331542438541	-0.8733633395691802	1.716614664960382
Si	-1.2724173453160328	0.3771096625292816	-4.38977614845066	14	-0.03612531530074058	2.076538042296207	-0.9067555699146032
Si	-0.5052617555900635	-3.0051604739772877	4.069700220101493	14	1.0052286465657427	0.3893409359668315	-0.5854337394133531
Si	-0.5977524940431523	4.507445291460305	5.544866415447773	14	0.005035766880042028	0.6172359982287968	-0.3259955857522152
Si	-2.5323215644294845	-2.3352023440008067	3.205370493218584	14	-0.3845933899931781	0.9932655506216257	0.7872737345820018
Si	-5.242935464102047	1.489932728228992	-5.150626863990772	14	0.3409612184892012	-0.993983660337543	0.23950206011924174
Si	5.5432993593483815	-0.3761212288450447	3.176964686093048	14	-0.29938130325176643	0.5825111639959408	-0.4534689306409009
Si	2.7416385007615034	5.550768141962419	4.079142538285068	14	-0.878049436125682	1.5743404951857318	-1.6569591079907102
Si	-3.5459836302069747	-2.49998534515955	-3.860666486679002	14	-0.9857561233130692	-0.6735581171508966	0.09384508707487287
Si	3.579821380197233	1.0633636210999284	3.025473341488178	14	1.6439611421552336	1.0315588219283152	-0.22651720692089788
Si	2.1689322499171273	0.5603963643768688	-1.8939200127720008	14	-1.1036094205358888	-1.6516551748257768	-0.7904495638734489
Si	-3.5061608587286797	-4.7599378995995085	-3.0642454857021044	14	1.315114714824038	0.3257243341409396	-2.4444454729826885
Si	-3.9754014254260026	-3.1840758556213276	4.8799604032573525	14	-0.8825213596090156	0.6012324102740672	0.23280844452876825
Si	3.7756678534325006	4.829513635572979	-3.5421553932299363	14	0.43955667975357965	0.34657779806106465	-0.45895952605207707
Si	-4.743890845325868	2.8061054783670083	-3.287019557935133	14	-0.05032064488381014	-0.6834563584124027	1.293424356122205
Si	-3.339629773728376	2.3335775367198646	-1.4049218783863928	14	0.813267866479231	0.18088831502529398	-0.8531264267048265
Si	0.8914872200072288	0.8176478919957967	-5.414841851385167	14	-0.41737215460921395	-0.8698555805809022	-0.7069927707341023
Si	-2.1126437280989485	3.6838257051722145	1.8179427804435397	14	-0.13638248193353072	-0.8322482801736282	-0.19843122373519634
Si	4.807934684466549	-3.9143084495426455	-1.5275498488119	14	10.112561916119786	8.484497918159029	3.542271449211436
Si	-3.899694068811327	-3.485741373651849	1.7611011800020466	14	-0.028691992709660472	0.9769205198803804	-0.9922497069096353
Si	1.5048280906705487	-2.8375343377268063	0.23470857602045536	14	1.0526118036212837	1.2557008417544602	1.6137511688645574
Si	3.725229970545288	2.352708726208252	1.0097116628394784	14	-0.3896322421996043	-0.5907147897409374	-0.6828079256506614
Si	4.971026242365637	-1.996623825562441	4.662619384488692	14	0.7918397605200529	0.13703168602686813	1.8261686913202952
Si	-2.1610014578506824	1.1104852534465435	1.461374768952062	14	0.879057052300648	1.4474448776624835	0.9313916439817301
Si	-2.7974527965311777	1.4889554005412076	5.00782374041038	14	-0.7353152956092575	-1.2030456332399557	1.0296423200226767
Si	-4.908093002870167	-4.8828190867441235	3.271992034135797	14	-0.6986549332913939	0.2528962332845532	-0.20084086364123913
Si	5.111880263568686	-1.8208980860994435	1.4155369897953096	14	1.0844893958226074	-0.6163255698349324	-0.7184557866934504
Si	1.0116263366278204	2.9620503275491705	-4.542149309173827	14	-1.0169312895409286	0.004032007363056218	0.01716701311209671
Si	1.4701818241385776	-2.191881680985747	2.7895697602494764	14	-0.7448029313511357	-0.8009975234493563	-0.013837431722504947
Si	0.14393482461886123	-4.612110423224186	-0.15930663430821285	14	-1.3579853249321872	0.00014963832963261822	1.277559864965295
Si	2.814148440997619	3.9555228023763886	-5.389825594376812	14	1.2888544735261738	-0.2654892500321065	-0.5449000069306867
Si	3.00477953829898	-3.1623147661730826	4.280335438212377	14	-0.11198372088745354	-0.6691093336154443	0.8982277277887362
Si	0.25418738319779355	0.9615094170380741	1.549243191681787	14	-0.3394581503190426	-0.2640969965012463	-0.753245412780374
Si	-2.482824359441765	3.731522628135048	4.233053879516851	14	0.04309995270270628	-0.2486258844583192	0.13853192598117456
Si	-3.3004567030425287	0.18470715879381078	-0.24872878594158643	14	0.39465952443208985	-0.13055018662530685	-1.9816375164874136
Si	4.189570571607944	1.1708507865622877	-1.1232016193841978	14	-0.4494821747314793	1.86833687545498	0.564267371975766
Si	-1.9331686042337224	-3.255495187005847	0.17303919892123448	14	0.17333132226831477	-2.188907686092215	0.9817559976559829
Si	5.523838321765367	-0.49918344373182916	-0.5380100073283708	14	1.5125362655000123	-0.19422283854717795	1.8503707628093813
Si	-3.6778295776877252	4.32403309185281	0.059121661513109144	14	0.20750953951010717	-0.46436887453513664	0.21635851269046086
Si	0.20742003213800045	-5.1931073004200545	3.660022222976428	14	1.0966746352663854	-1.5040693585702327	0.6611283655911727
Si	-4.733473420653799	4.484762404306536	4.735429186629014	14	0.2562564108274547	-0.6897779350630506	-1.17884741840885
Si	-4.997206407802173	4.900321026552988	-4.147491061650582	14	-0.21954539773478438	1.4082211233404325	0.7947618217164012
Si	0.656337735927625	-0.5628829969824939	-0.3055748287816603	14	-0.40747699867409204	-1.0284698959966891	-0.14785578231415955
Si	-3.143557848765131	0.00746767201439204	3.219590611075853	14	-0.3056632848804843	-0.3503064149963434	0.34997525663110834
Si	2.539364987379406	-4.515532678076724	-2.6735331987182906	14	-1.0291337553903515	0.47202176952055735	-1.4602700652204461
Si	4.468269999575168	3.426143264890945	-1.8656397034063734	14	0.12627443847790057	-0.6001265778758714	0.16056938390122774
H	1.2234854355477254	3.7270613493602394	1.3395319924757183	1	-0.04500025664482772	2.6198226237542444	2.638933392488373
H	-2.2093591876024163	-5.207687252562372	-1.2621487409964212	1	0.43781167057279513	-0.16142119109379283	-0.0005751562601171253
H	-1.6910212317896505	3.556110077772	-3.9817818203877335	1	-0.0552108872027318	-0.5297520828265023	0.6266259319685096
H	2.9412898883812604	-0.868843203841042	-1.586933611841279	1	-0.16659708321378291	0.19082435153500624	0.16147878385296413
H	3.803502812340399	-2.785326159005129	-1.4750684625775015	1	-0.8309033349806586	0.8559484719042211	-0.17072087903676844
H	1.798380678292811	1.3697514088218823	-0.39244149063140565	1	0.5931604251214623	-0.6338831338451595	-0.0359954744820731
H	3.986987200924833	-4.6692829823599515	-1.8621668583158018	1	-7.780337734156133	-8.207400641827517	-3.1512659796603404
H	-4.60047022834274	3.1606610833013655	5.850088073542256	1	0.1826855176440775	-0.35338557072775273	0.057946029042305315
