226
config_type=amorph dft_energy=-23254.051932547038 dft_virial="44.156779796237416 0.5396760755833467 3.7253758948850426 0.5396760755833467 35.171575881114684 4.615438676257578 3.725375894885043 4.615438676257578 31.192471682037468" pbc="T T T" Lattice="16.278371924851847 -0.0037928758299938 0.043707603448641 -0.004232393630036 16.516248725296908 0.060620899531746396 0.0439192231301428 0.06023021704282 16.315389090677623" Properties=species:S:1:pos:R:3:Z:I:1:dft_force:R:3
Si	33.57940572762336	0.11681243634528973	23.741594161406198	14	0.33317873979564494	-0.4365788255717841	0.2496970069346929
Si	32.097451004347	11.34205635333048	23.094063981509954	14	-0.06524076905662944	-0.23190701500352434	-0.2692764881686846
Si	36.98763836883208	-1.1727132548540788	20.32730919730653	14	0.4049313472966134	-0.24635662690275656	0.34385833996394405
Si	37.66751054743662	0.10825160630669	11.662795281833128	14	-0.15171938227874604	-0.1469990900214862	-0.035181462537714224
Si	26.49196307088657	9.365110172271777	18.822561406488717	14	0.24345282055418127	-0.18092071095232787	0.2702409097742721
Si	26.777748939379936	10.366689846382759	24.41866319315269	14	0.13336477561927296	0.09996843150533753	-0.1524110096098659
Si	32.39192630253157	12.166401288496298	12.936654605226549	14	-0.7110553742504682	-0.5446475243882483	-0.9551072623442439
Si	27.183208993449977	2.0171213636699687	14.561127044775853	14	0.21504544920346125	0.009915467667151068	-0.045847950068880546
Si	40.656848540487346	12.152847861817959	21.80082517882208	14	0.08952331614223596	0.17162050878828822	0.09086311912456514
Si	30.671541311950833	8.736199268660283	11.895689252700674	14	0.14815248786810464	0.3439138758388592	0.19217238205435988
Si	42.20342703096325	1.3249101297901733	16.587403401436333	14	-0.3748743547724863	0.3741130504871905	-0.31026402074035714
Si	42.17376934652262	5.43417691775361	24.22989029803456	14	-0.1473811562720602	0.07407791515251042	-0.050145295500976045
Si	34.78363566442788	-0.7980047961936569	19.496604276789732	14	0.032848955791275884	0.03325390487919921	-0.05563691935428033
Si	39.49875006640652	9.471395343384204	13.54490328870495	14	-0.1676838894326095	0.21029918878246787	-0.08572527936331321
Si	39.33432645741073	3.418950364154935	11.762175139953781	14	0.07174900795352027	-1.7364702829057577	0.9586034513585813
Si	30.883611906158603	9.83230619881071	24.43117154417315	14	-0.25244731829565537	0.12070825257031201	-0.09882968895904395
Si	26.337498609670998	7.3779850845328365	12.822692523206717	14	0.034017266048751174	0.15430360023602688	-0.08482050740115311
Si	41.02284966317582	4.63364896381897	12.775507845606631	14	0.4351847722671998	-0.357713512313158	0.2645811356330302
Si	30.05277513030179	-1.8341745211679588	12.367384639237075	14	-0.10373098703084223	-0.0708498924230645	0.23787455045158803
Si	36.78233960443237	2.7825367289123486	14.45699388303993	14	-0.09596059253229071	-0.09518823249411823	-0.18937116280805855
Si	38.213769314828326	6.039655011248041	14.01256325069948	14	0.13826041725936689	0.1590321200303112	-0.3947741957293684
Si	36.14350048207103	2.9739532422055417	22.04495941046478	14	-0.0472587155580458	-0.1391579901266306	0.08074273436339825
Si	34.033401569567694	-2.0258824184841435	22.80797533408767	14	0.16601318519557728	0.34854623629417003	0.24162913555060023
Si	33.95963745997098	0.40475194205886195	15.906836133570248	14	-0.22913459213680867	-0.12851155721696142	-0.08200694684931507
Si	39.968902257111665	10.868257792728693	9.985085841792785	14	-0.12632791746855968	0.12893887492117004	-0.10587914552582595
Si	37.05085567907149	-3.5283577394913657	20.72584277641664	14	0.086693557626881	-0.00037281027142147146	-0.15315920125802898
Si	34.88913133134393	12.034270842897683	20.614947551934886	14	-0.02491041100478668	-0.08703500041339665	0.014300744901195631
Si	38.59681396109622	-0.3938714347422617	18.80368167521135	14	-0.2129942213790471	-0.10524948183292168	0.1259584496340544
Si	40.11943710362611	4.723111998095709	17.062963288925694	14	0.0982385918459419	-0.1028223584107019	0.11502225315480454
Si	34.04860074623063	10.452988352499192	22.18628066161539	14	-0.22550162031943943	0.43829041038340666	0.15058681038522082
Si	37.371301595707436	4.2667118310007766	12.70561963186881	14	-0.05034095661583931	-0.09588088826736613	0.13745257596777638
Si	35.17317215138676	-0.5826573526100175	25.380635802105054	14	-0.09697026559151285	-0.30336805916118803	-0.3734255369245829
Si	34.873352642322416	2.9531445161391	10.193448208043161	14	0.41678542837515614	0.033862485508478264	0.19368419198260695
Si	42.53266981497486	4.498196089220779	20.092694595644	14	-0.28067676915822115	-0.5487147558941905	0.05936219385264288
Si	34.11750899805874	7.867492336876873	17.325008684841965	14	-0.006700557574837908	-0.16877995163058862	-0.23278967545993115
Si	28.791207654716217	2.3115445708560154	22.08566038659239	14	-0.43141038965722245	0.48817191047853553	0.27747162926612456
Si	37.32691680927799	-1.4466093529344508	17.117178623482754	14	-0.004192701445565472	-0.03293920158801308	0.011796231208839386
Si	38.19357591368194	12.560695962601562	10.139076600490533	14	-0.19801136223641616	-0.4991217338159821	0.046630337417801614
Si	27.328015457970547	-2.404058184233787	22.584607504575114	14	0.017060569351842577	-0.2954143448533099	0.09925315000527234
Si	32.09229399549317	9.071645765027306	10.013525899142923	14	-0.13215558478720732	0.07002456761529696	-0.3344982310459449
Si	33.73114680632238	-2.852551914459071	14.09430542228881	14	0.13420655550108945	0.4797186304069527	0.38129543319902415
Si	38.363615583456045	5.34997181864034	18.672622350769874	14	-0.1884707617249427	0.10338697313900641	0.23937941839547072
Si	34.66284640591406	7.102905544079759	20.62764310498129	14	-0.20112908454762776	-0.16642430493626897	0.22586491750117635
Si	26.67588336392349	-3.9924462123996283	14.523230843349992	14	-0.05223560412625643	-0.14633188819090778	-0.1967096116128252
Si	31.300776156459396	-2.6499716490448058	20.07051685302261	14	0.17990512435086936	0.07936333635913881	-0.027441149971408434
Si	38.84565428888677	-1.7560282563204557	10.742208971207702	14	0.019082743686139044	-0.041760149720377115	-0.3364247602623319
Si	28.029927012481643	7.6523109333510275	22.205140858768306	14	1.408684950740187	0.7465960202014071	0.606319599260512
Si	29.312114384264014	11.567825252306232	18.11913595733303	14	0.33361505636847405	0.05693327065669898	0.1898491312870741
Si	28.74268977312267	5.996797142212816	20.70045004248013	14	0.34433733688508755	-0.6904091414191471	-0.7040239154209272
Si	32.8961508898022	2.008039623646134	17.258206862766666	14	-0.11921366904770993	-0.26150377967534494	-0.2299252070227542
Si	36.24166922447602	-1.9661079976784042	23.77227575953655	14	-0.3957928676572111	0.07612451498734828	0.17029484688521987
Si	26.242333238899636	2.0528916012185885	8.93375763624814	14	-0.07317905673258664	-0.06731333705520082	-0.10513943852521934
Si	27.07419555628988	-0.06658531886268944	13.503539780189866	14	-0.054658870890495995	0.06559532448027787	-0.077682347700826
Si	40.08975337368623	-1.1325657455857796	23.178309776715817	14	0.0624966283484354	0.20902083521729029	0.2389551860176463
Si	36.08080733750427	4.076553640890666	16.245966440239105	14	0.08920372775094156	0.09935676554967429	-0.10637922551059474
Si	31.610673645894337	5.194188804024642	10.834175629100976	14	-0.3318589914348129	-0.1434987872386366	-0.19029676072331186
Si	32.407993119888665	-1.0342667756844894	14.911940385707315	14	-0.029671583836636897	0.16717043970017592	-0.06500988379888015
Si	28.077883287997363	5.7555034978333515	12.865739222111591	14	-0.15641267793014435	-0.2214534149928663	0.13059312408415333
Si	33.82217908192963	6.917736694921979	13.587893013080187	14	0.09951514563739543	0.040055764003650955	0.13747623013672175
Si	41.66104415943043	0.18280359225607026	10.045846735883062	14	-0.06560715156475054	0.12140270811728401	-0.21775950797940954
Si	40.296922530501675	3.427654444439474	20.333457562976008	14	-0.15773859694374473	0.01723926117159287	0.2542954287997778
Si	27.193726491620616	1.171059365650957	18.588698868617374	14	-0.003917593176309628	0.27028873233322687	-0.030853263841776942
Si	33.850653323997555	1.3784027017427167	19.388307090859335	14	-0.09646195806971959	0.20204619781532454	0.08359254750025039
Si	38.347060412987794	11.938174345527717	22.46813528756393	14	0.03498348742806282	0.011345773556749443	-0.08883940212707657
Si	28.805231528224972	6.981408173554759	9.34926799734581	14	0.018870113276162795	0.24692664095223338	-0.08860800264826324
Si	28.21389614082968	-0.8745427514617464	24.13256315082448	14	-0.2654347425993193	-0.06538397962296169	0.005166121919773535
Si	33.896792925939764	10.666738881409344	9.85278935613638	14	0.2141267932725723	-0.38966463812663815	-0.1189264765834494
Si	39.81445895786423	-1.8841997860312805	14.708555965503344	14	-0.27240758022756095	0.067264486054118	0.10922081111042242
Si	39.29184136458369	12.415546023059477	15.331001073923106	14	0.006919101527050495	0.04944955440134397	0.4585481492008534
Si	37.127667112081824	5.035881003824257	22.75017548769471	14	-0.1599281502343828	0.2229814228846303	0.029670812505040847
Si	29.91884591741041	7.842405637556687	23.719173870072936	14	0.269822333828152	0.0471805539563133	0.5763281699220488
Si	35.94752600640703	11.48410362277301	16.769546089148637	14	-0.15150006699493743	-0.006891847810656926	0.09847333376167143
Si	24.299926645549437	-3.7870709393458353	19.38599880848726	14	-0.14625012704172705	-0.15358780451489767	0.2961460814274241
Si	26.933051740102997	-1.7339042325412943	15.178043995977308	14	0.07338988736883878	0.05228111269042304	0.3896836643060072
Si	38.95036859082497	5.328959612110916	21.00497076416122	14	0.01044871491054978	-0.05519803167613105	-0.14577164434164752
Si	40.75002305840888	6.638102447785501	11.564149581222917	14	0.16136179856089738	-0.1716706453420311	0.3708945408474291
Si	28.738292967278547	5.260388323929517	15.083775567086777	14	0.2180436151172859	0.16119210560976763	-0.05310258084021036
Si	41.479324711081134	-3.0039527738239777	23.401853413348395	14	0.034819193798105365	0.044450297216848046	-0.14400863742362197
Si	29.29284885402883	10.01674740183286	16.281731794256615	14	-0.18203759910340017	-0.10688393348493982	-0.28738221183316737
Si	37.85068040452606	11.116632557219948	13.891384937540439	14	0.10189496072172448	0.11482479226621715	-0.2448003368524709
Si	30.805346808720717	6.2177248340132865	15.501826992206174	14	-0.2093098274552749	0.039507090128331354	-0.23199057592642913
Si	34.8908910303878	6.686704977251649	11.477916188854637	14	-0.049152591736866875	0.09987612882434421	-0.2236105723564705
Si	37.90568198759208	1.5927946010721903	22.740359590160438	14	0.3014433297185252	0.0005417318909552003	-0.009011209926054987
Si	31.07691020677346	8.584739806922036	15.55249037180141	14	0.03761269972844625	0.15302139001286905	0.24898095410303164
Si	37.852205694076574	-3.7615316994759755	17.0652422701111	14	0.16108540473898147	-0.003187399265387573	-0.11379146503804964
Si	35.188175986805234	7.897630235210137	15.247172006705428	14	-0.08342285454912061	0.26660922350956295	-0.5729091140673158
Si	37.914327465503284	9.703654455207245	19.65721384798737	14	0.15167953014628377	0.23667410137761088	-0.5456438276998056
Si	41.74274889061457	12.06722653868233	9.029395081693616	14	0.14746548852656105	-0.21298856494734278	-0.02547528284362321
Si	30.604050911988796	-2.9587882502603824	10.380467915492229	14	-0.5191840686290976	0.35088851324082493	0.4541862690252222
Si	35.776270337386144	8.418221163079382	18.977820255431773	14	0.43241337784261225	-0.12233704779062583	0.1954104320945544
Si	31.403144735620334	3.684518413846359	25.35641837132273	14	0.03156186046800976	-0.17471689092534257	-0.13710110587051216
Si	30.53146861692109	12.112505011305197	21.509000010187396	14	0.2552338822416318	0.15941521472301326	0.16447566421412874
Si	27.121893004656684	-1.3358492394801125	9.854420455527647	14	-0.05730736648078053	-0.03454305708672146	0.0668199419442644
Si	28.9896629641849	11.892399380575174	10.614701601728052	14	-0.3848695267045619	-0.13482644899377713	-0.045090502441564914
Si	30.533316219524966	0.7673443600314538	21.881742033653556	14	0.22314006008288342	-0.414769938914692	-0.11401489409037052
Si	38.268507187214325	1.6235852647307023	25.033727658219153	14	-0.19147175585461954	-0.16958367915366693	0.058569522082441226
Si	30.729214186534886	-2.3933876687549844	15.937371225767253	14	0.1566530762775782	-0.17908622730640222	-0.038105066397254604
Si	25.855215727684694	11.578258102604272	18.13234102545874	14	-0.096972579586301	0.407875777109247	-0.04601301503043405
Si	40.68775966457994	-1.4975852785208266	18.65974773491605	14	-0.13892607642675325	-0.06446249547622061	-0.09213067404739814
Si	41.03509267567255	10.525862031589893	12.071901705799815	14	-0.08462510339682186	0.0431194931031394	-0.006143656162493835
Si	30.57762612514404	5.191994470711839	21.927324913049038	14	0.2881553432029359	0.11537115214674863	-0.20670324088170874
Si	27.526321005818478	9.526693194004329	20.914096389393237	14	-0.20177468909351692	0.15346773389644675	-0.3588026325267727
Si	41.86727730611616	7.35487621531284	15.067075518528878	14	-0.16932245485313985	-0.09627709559720093	0.18822290717208043
Si	34.84718179909546	10.672180762911347	18.70275210988462	14	3.145978244458924	-1.4278774806234966	0.7485652297661085
Si	39.40161500475349	8.849524863791903	17.870580502190645	14	-0.362349215205385	-0.8198465536618939	-0.03478808342373157
Si	35.40096771577382	3.1218281921078885	19.8108578759762	14	-0.07238227119387274	0.1971680396914076	0.15283189955077411
Si	26.91532777785537	8.423236549530973	9.492845439869967	14	-0.03348890390546074	-0.0643753350058676	0.13374787031197502
Si	26.77391699530105	9.318068744917632	11.66048048808624	14	0.12113119939547638	-0.039129651867333616	-0.0604963084093602
Si	38.38620842622192	11.9561327172687	19.19348350069396	14	-0.17448754833078534	0.14204277029583673	0.053181770884070924
Si	32.61417743126328	0.26622732639148755	11.245793815902719	14	0.04394121836345873	0.25806004120953857	0.2770006027714734
Si	36.35426717347201	1.0992991316536964	9.967153515551065	14	-0.043354235018868925	0.274509973047846	0.008094353768890183
Si	40.53928078466347	9.177182128035955	15.676401834539233	14	-0.1162422426292148	0.25420492589250854	0.08797345385525071
Si	40.88290231211127	3.4110032311926903	7.980560732703285	14	0.11416864618851538	-0.20352175515855753	0.019976717005954527
Si	36.11851145337308	4.8216193319910925	10.771856888586104	14	-0.22087774451168513	-0.18689801660060812	0.0785385257724353
Si	32.92549602825169	-5.040718955312129	17.42918417051419	14	-8.315612036989249	0.6501186354997667	-10.230561509235322
Si	28.962948421160856	11.13157453457768	24.76225541941383	14	0.2026025850066046	-0.05425417891310468	0.022458862082025483
Si	31.124928340349918	1.3814158404385617	9.688014132900559	14	-0.047210635888559026	-0.3405102466160472	0.23644347323039364
Si	42.06642607700268	10.302233747084719	22.328953023040196	14	-0.11273396941987276	-0.049988200965915	0.0024672326652140967
Si	38.69649659814579	7.6121276115212435	12.371257279408558	14	-0.25890284953348314	0.3706816533269209	0.4073954946354433
Si	40.20035233061388	8.749920363240117	6.374277818700911	14	-0.09343910954482149	0.1134780472995236	0.07822819336029344
Si	33.88094423963898	4.968205029679982	19.881457457412605	14	0.11396604308928772	0.06501476889898843	0.0636844790063438
Si	41.89786774499909	-3.857248909262944	12.489448499371017	14	0.07216475568378823	0.04859286210867063	-0.1352717644352268
Si	39.42483945087646	1.3138391647602214	12.722140617619285	14	-0.08558463990230111	-0.46515923231055023	0.23181445521199903
Si	27.236179027573584	6.507578683922598	16.47480219675293	14	-0.13823290643244132	-0.2380894948563524	-0.10965584213059147
Si	36.78130917936783	6.3256199425488315	15.803606425089965	14	-0.12286489571285224	-0.07306130010892385	0.2188995360783632
Si	32.83857243015297	12.794268744293618	10.455132222657175	14	0.9978292625648886	-1.3897922117372072	-0.6724990788695276
Si	35.554844525412285	6.813194944416386	22.774485705568157	14	-0.1610823194125973	0.15123267204164204	-0.1867272952073503
Si	31.233857129637418	0.11001293319426651	24.049530099177986	14	0.012915690465231859	0.5080203293290148	0.42319236572243313
Si	30.359162988711212	-3.648035180755449	13.93391235430378	14	-0.21640479258622353	0.3416068230350904	0.8013381949042759
Si	33.57331270863982	3.7460671842893056	8.297614223060394	14	-0.2554989632001391	-0.24052844536304488	0.028349778591548767
Si	30.925950493052298	5.671317932844528	17.76214494954542	14	0.040236512707657365	0.6904903883472637	-1.3357285517283255
Si	39.644051395413065	-0.3376278069301949	9.01993730977419	14	0.1828071309257205	-0.0008014135282901563	-0.011794431435115283
Si	26.897053604435836	3.6584224514297796	12.620226206851722	14	-0.22712887287656117	0.24338365782106933	-0.1526421519781472
Si	32.24832281450815	9.230174951971414	17.465006499061335	14	-0.010262309774839043	0.22111222931688262	0.046946583372179815
Si	28.83653007911909	10.234718929467123	12.268833353561687	14	0.1488101766089985	0.0023471620467631817	-0.12337011790826131
Si	30.11359788245282	3.635647290169074	18.678205854674115	14	-0.399038631013366	-1.0285246605400085	-0.008329609905683731
Si	26.288034950885507	5.990967833909292	21.930452000804156	14	-4.259002281345598	-5.717803216986112	3.1364181035470176
Si	27.20071645248499	1.1014120727813068	23.317542504394375	14	0.02620830497039743	0.06503045264144135	0.2347884527358143
Si	31.761783121236252	3.9587970551971385	20.382590769489614	14	0.48487909589502187	-0.2670488825193083	0.3558093517130563
Si	28.38211262565546	-0.41834443698609297	11.58530015446717	14	-0.3255420427737411	-0.11869122044665585	0.19136119832585313
Si	38.749927312037585	1.5753994632527424	14.96712103158076	14	-0.2601611484771636	0.3366808423522186	-0.1811508248784811
Si	34.04208611572779	2.2543746999764522	22.920345384965128	14	0.03695115432957215	0.05643550466671832	-0.14322907829055306
Si	41.284615069975025	7.095716986283513	9.341696896279158	14	0.2649202644247577	0.14317379952616988	-0.0488389168878088
Si	28.077813290718094	3.001838204852664	19.875294441149794	14	-0.11401155165345432	0.4030007043117142	-0.08874221434597497
Si	42.233421679050565	-0.33093085793251487	19.98152589341999	14	0.26658582645114964	0.1461033169279466	0.04755387844879879
Si	32.46080036964189	1.9030485882782755	21.193473437224508	14	0.3124245205408776	0.4884439334214072	-0.0071229901789382375
Si	31.85954490271527	6.928626969300804	22.760237189628274	14	0.07344413769109391	-0.005537389528002918	0.2329269724840271
Si	37.107664168648796	3.4208500577573395	18.281277329456003	14	-0.07411005396901225	-0.012380129227045015	0.1019957480502743
Si	29.28799462410392	1.6837861805868528	11.091526323775316	14	0.16940910110242885	-0.001129743677673066	0.24009212879021577
Si	33.77773732097055	2.140650283137385	12.09255090318328	14	-0.23825610248109802	0.03417307503115215	-3.5995474482073106e-06
Si	33.593012873143934	-2.492422424010419	20.5570939866997	14	-0.1410518663054517	0.0031272354008961083	0.17663982059428132
Si	28.66155804292229	11.269713351287239	14.37332922803634	14	0.08743043641163542	0.13402992056559523	-0.1847303177051913
Si	38.15411861014408	9.643144249047362	22.031280639821244	14	-0.08829509913080123	-0.03921835500087872	0.0073662167422242466
Si	30.475872870903157	1.9308179740224232	17.101618065517556	14	0.30010506939938814	0.17461738914945282	-0.23039314819102114
Si	30.361049659563985	2.2158827077549783	13.165778490075954	14	-0.10467021180429233	0.006956639664724657	-0.12000222704939935
Si	34.32647529432324	-3.434393717373455	16.303152589555708	14	-0.1269796926672172	-0.19453111407506374	-0.3654538248794638
Si	41.100437577632896	7.715547777714877	19.018612390806798	14	-0.11402029341154284	0.039803024350680394	-0.025850407109832815
Si	41.991594101936236	5.683033523981208	18.123591365550496	14	0.24242489264718609	0.17244866181190793	-0.057855011913972076
Si	23.441048634049935	8.737006679137396	8.691705416702675	14	-0.03242215230813131	-0.2092787170809011	0.05400992390769062
Si	37.93177957785237	-0.6132575585551777	15.082074470416243	14	0.13758781610761614	0.001469900911528657	-0.19465632690415496
Si	29.573731657286167	10.477738088172678	20.172447542227214	14	0.017684319502510502	0.11735090324326264	0.1255105630872846
Si	33.62202918716523	6.076833333600501	7.789064455068603	14	0.3353240700747765	-0.043407714009528	0.04316551588837006
Si	35.428678499144624	-2.491829888902214	12.522589769337904	14	-0.17690618710544864	0.01484787611332314	0.20300367743654768
Si	40.33013379774783	5.570754632351168	14.86469710573389	14	-0.034936179090172104	-0.015248968543266243	-0.04619324951337643
Si	41.36206136202987	11.348486335960729	15.93868163994886	14	-0.12242292270831877	0.3793277662975148	0.10072562202212114
Si	27.686451990967186	-1.8873382686923226	20.322432177569766	14	0.0033195540788431848	-0.12654851830502836	0.06862048699996409
Si	29.812111461435723	6.588742970997059	11.433879760977815	14	-0.13916981721110327	-0.25698814740156883	-0.09606780762414088
Si	40.59738178214163	7.016600526588508	21.225123602358657	14	-0.8202761853608904	-0.04445158276950813	0.2996255582571805
Si	30.434885394283665	-2.04355103404584	24.50070488798353	14	0.15678060310145753	0.06816051625818961	-0.13767651924116128
Si	40.456739341815535	-2.022118843840819	12.466634269861421	14	-0.08115693943047411	0.11735064613273063	-0.01934088266028191
Si	37.504565020523934	5.310641486911379	8.840679161105127	14	0.22247928601560538	-0.03216607021824456	0.17426051973101628
Si	41.32358402040173	-0.931207990793113	16.386947472055603	14	0.21517683268532078	-0.47011529492566756	-0.31647658252543104
Si	31.19104972375701	-3.5882819219178597	17.92443282760174	14	-0.18965835527231908	-0.18441741418772925	0.04491206773234664
Si	36.35303164010078	-0.5673865508241068	13.405333597379697	14	-0.2051744616583487	0.17831669548408188	0.09198874903372595
Si	27.672529043768073	3.2101517357919245	10.37409653523532	14	-0.3881908805571293	-0.1428611531192399	0.18180877072990703
Si	40.147680191888085	2.3080870308290167	22.35529153416865	14	0.02365699716121449	0.01963347444571476	-0.22270168662579817
Si	37.6333876877163	7.686298682043921	9.129207946239497	14	0.23041320281251831	0.31786497939831093	-0.31912584944731154
Si	29.19366433715264	12.882157653708724	23.238673476942356	14	-0.2814041348532911	-0.0843271122902167	-0.028494788931605113
Si	31.292049286363003	-0.00426169481670548	13.156735818301012	14	0.12986344439429529	0.0326808055033382	0.024934836505328083
Si	36.574677210974656	8.746843738639821	23.625053574959452	14	0.09333652244254757	-0.23785243894583477	-0.1097782267438305
Si	32.53287314963029	13.198600702676885	8.00702133210953	14	0.12710464838577643	0.23089502794951405	0.0569371273146792
Si	36.65072844097529	8.232632330246005	11.211941178237247	14	0.23005067696237744	-0.051675103166464155	-0.07712441784635386
Si	27.979304328979005	4.889116243327943	8.724519490085086	14	0.15136071308658539	0.12052724675577357	0.3061006298954414
Si	39.127222414343436	3.706670110968486	25.743809360279922	14	-0.02621550406529384	-0.05593079669237325	-0.3996762651327628
Si	33.99910778625848	-1.674121672517036	10.809552865236391	14	0.3866844699500545	0.36979950709157805	0.06615325433475
Si	41.36239344214546	0.11538318957330065	12.338301583623911	14	0.21778367636941892	0.007983796240123815	-0.11332918030148703
Si	28.62072195576726	-1.6971458938644317	16.785453377822755	14	0.1170356857310125	-0.032671806634717686	-0.3032662433905102
Si	35.31104074604148	10.629881244266548	7.894027817093495	14	-0.286732750629298	-0.32798253594362564	-0.1330408163489343
Si	37.801771840443585	-0.729877909343412	22.471933046925034	14	0.01866545329267901	-0.11735475990124286	0.010789900586533428
Si	29.25907272501744	0.15199013878570436	18.098654427851063	14	-0.2241276216363523	-0.040927111596649135	-0.10249968469302331
Si	31.213152585568018	8.885925076853917	19.569339589165605	14	0.18985324505558632	0.17045759785198525	0.4039255308953715
Si	32.3152288185805	8.71663095949618	13.570300906172571	14	0.14355355178195575	-0.016788546408970914	-0.015741849433138628
Si	35.82651536114949	10.182510726196925	14.83427433475245	14	-0.13612768539630407	-0.06516646411287716	0.16166210366229067
Si	26.91082516217049	-3.548381844892547	10.534732151932225	14	-0.17114922518310507	0.29618284823350216	0.04694478359845571
Si	35.431107241950784	10.277366806664551	11.557563325597098	14	-0.03704602811588561	0.13457473778293463	0.1272748555579702
Si	29.66287563419695	3.9580645255304012	23.669557193979283	14	0.03988092884188088	-0.15996003194035266	-0.027577675663908292
Si	28.173245627856886	8.371497165247488	17.52096688206893	14	-0.2852962740869312	0.0011078892824518073	-0.35986732723984605
Si	38.98052276759528	1.9826713073651796	18.71810755954313	14	-0.07285535457277999	0.025114042546142405	-0.11794148613530066
Si	32.65348822886779	5.0881885055603915	14.485448590983403	14	-4.216612725042849e-05	-0.27391681905048787	5.245054853102081e-05
Si	29.678118762639894	7.236110366522919	18.93693696080933	14	0.26566434230440855	0.2836204276392587	-0.0558014700947698
Si	33.913390420344314	-6.078122585813958	13.343083226300386	14	0.5736027982826918	-0.3896512683789734	0.16809835161021736
Si	37.01156115990401	-4.1538892395736475	8.0184374000047	14	0.08521465784673181	0.08155520364456506	0.02455636980220229
Si	40.121496325911494	2.3948136598395657	16.72694541941862	14	0.05723074754224012	0.04308272629706129	0.20475768548595272
Si	27.648028368181272	-3.3004335754517036	18.324470534294225	14	0.17506244748037048	-0.27067054147326886	-0.021220360649310155
Si	32.10490652851068	3.7247342925502203	12.64453805256887	14	0.22007118877275467	-0.09039620639842623	0.042675720324881844
Si	37.56807697047374	7.335060473905752	17.75582728813074	14	0.3208299780535057	0.04119322099728446	-0.05683351177027724
Si	33.73792514750525	4.030895880684802	16.313691249694497	14	-0.07034389889605935	0.15435862188987803	0.09795242782380942
Si	41.548073434226254	0.43477589133285577	22.130356091169276	14	-0.0861865356577478	-0.17868976286603536	0.06050273617266057
Si	32.87116348894795	8.4788306677052	21.259568775132333	14	0.22645498617215035	-0.1379649972580819	-0.15745680380065646
Si	29.287205119907544	2.8856736503015106	15.184586299823122	14	-0.16807701143606016	-0.15779593259238403	-0.13971514864950668
Si	34.99519186002523	-1.3062794585994955	17.217349613643485	14	-0.04170795628237811	-0.027987252741407887	-0.112912147018559
Si	33.2627119907248	5.74970837424761	17.800750890826162	14	-0.28079221178709585	-0.4952311372455341	0.05080169868920984
Si	35.01373137196849	1.293426004713817	13.962432175995408	14	0.35639762061030617	-0.27310100733240483	-0.07703288649695658
Si	29.823343582992354	-0.8033978423845451	20.21063675551977	14	-0.22677611722663685	-0.18249499873985453	-0.2381272901045586
Si	36.81269075029084	12.134998555605135	11.995043065322067	14	-0.07683182606092101	-0.1424310071991791	0.06386394215769015
Si	33.08892502474442	6.894705962199768	9.958923137784346	14	0.31916647291136996	-0.058635856599701046	-0.05267449180440571
H	29.795946973456395	7.042522309728775	21.098448061011677	1	0.9063850736379698	0.7002269070841325	0.2522639984863288
H	32.17000725391545	14.138406963913786	10.835683012370751	1	-0.5209373053469066	1.4695633254001215	0.11960987637754476
H	33.675765935673354	11.493940682275435	18.37450556621977	1	5.671899216821252	1.5323908550032599	9.199161838726326
H	26.871670637561547	6.942048540639129	21.339552875521495	1	1.6040568162549391	5.4976649223645015	-3.562168461952466
H	30.68220206036741	5.102191217100994	19.217293970550323	1	0.13492723632232695	0.1201402954050913	1.1457891746445141
H	30.289455465624517	-1.4600113901483303	23.002520562979683	1	0.34596767476859347	-0.2771985778811249	-0.5407507571650317
H	31.47002794988083	11.132416129772576	12.09535079435392	1	0.31562400400126994	0.14602592665781014	0.38417995625769824
H	39.277141935937834	4.7489458776759665	11.15567638845703	1	0.019563540381006734	1.9057788537901683	-0.9845003954747088
H	31.709503292843085	-0.2752260463864256	21.744067152399595	1	0.49579420931064655	-0.3836230548453542	-0.060228656345532774
H	35.462677642743444	6.886832082204197	17.224258182322664	1	0.11365262535076165	-0.46857905949687917	0.16681305606067537
