226
config_type=amorph dft_energy=-23253.281765684915 dft_virial="40.48164321263744 8.980253057421264 -2.0829030195992795 8.980253057421264 37.053112323509815 -6.04323893500758 -2.082903019599279 -6.04323893500758 22.15451393573779" pbc="T T T" Lattice="16.364201948813314 0.05161424137379841 -0.11564928465080321 0.0513687709804544 16.413263298096336 0.0885493532256256 -0.1155020024147968 0.0887620942331904 16.338362098740635" Properties=species:S:1:pos:R:3:Z:I:1:dft_force:R:3
Si	33.89704098272803	0.9051966224953345	23.90731075995976	14	1.0435221749829642	-0.6541946087637974	0.09458170874909529
Si	32.43599629213667	12.012558455566705	23.171956739088426	14	0.06419561474398924	-0.027526253557505334	-0.27647506884403517
Si	37.39625416923253	-0.37831733375248383	20.250356662223115	14	0.3252175692823384	-0.027698003392891222	0.29727916754201333
Si	38.161110458445236	0.9110502731419443	11.624237385050808	14	-0.13889599449450754	-0.06232744961836966	0.09347896167728378
Si	26.91890028302498	10.172383105986254	18.868256886600477	14	0.26654108921857905	-0.07481093727928462	0.5107966088537105
Si	27.113566487293213	11.17145578924278	24.474285182751416	14	0.1748202493592125	-0.07056784216944424	-0.10265806478074443
Si	32.99390958447536	12.88142055043926	13.105859040481548	14	0.3339572704865858	0.44985164256598453	-0.06711613327714545
Si	27.54286802174325	2.8339376899943014	14.612877062807655	14	0.3144919463288087	-0.10288355071732141	-0.2338163178142663
Si	40.856264097450705	12.471007144522405	21.748909228917434	14	0.03083937987304815	0.14146967091997575	0.15061792075959463
Si	31.14464201152545	9.401584796785336	12.046140441845452	14	0.16409668328993893	0.2143260539348838	-0.029377192277479935
Si	42.61072118567543	2.1882196379564647	16.46766771960781	14	-0.46894698466819235	0.38028216059235376	-0.10553847407090633
Si	42.505440570439475	6.266180007317401	24.12561576310702	14	-0.238481845528207	0.25100467110052027	-0.03394527509978703
Si	35.16171263158276	-0.02329677679763456	19.55419771729166	14	-0.03185728046929477	-0.03674135213544807	-0.15407502897306574
Si	40.02226534431015	10.21625684762327	13.379529072612904	14	-0.06898918350287334	0.0279597419144823	0.04223837530992466
Si	39.82760732238835	4.174518603286733	11.611891860734895	14	0.06279153412865637	-0.19216184052254728	0.07264400971546382
Si	31.20912544738763	10.523404131998886	24.53894863023538	14	-0.2556755981356333	0.08611814425623183	-0.045059392067191124
Si	26.774478595335683	8.098092823457895	12.791959683819686	14	0.052653922961844526	0.11358140573339355	0.03099518885544912
Si	41.57357931734983	5.42857774880256	12.437904643745322	14	-0.018490618130908937	-0.4000560173885486	0.06459079363169601
Si	30.456781602358316	-1.0649618462379213	12.438308851659695	14	0.20868633441513898	-0.084228124735391	-0.03294408668812137
Si	37.20997487007021	3.5433225797191272	14.434330081035673	14	-0.04525993828216268	-0.014587423144392143	-0.33530041590583115
Si	38.74432520246053	6.702151790589236	13.859804988944752	14	0.08021128689372364	0.21144590175525393	0.00282410208365065
Si	36.46145709023848	3.803290454494024	22.103208102915854	14	0.08640919337847261	-0.2528476393940024	0.0460415542994877
Si	34.32473714080559	-1.1883598129719501	22.824414846784123	14	0.24923909307717457	0.3356883956986415	0.19950620286955026
Si	34.32091434854658	1.2126990207066524	15.914388908295455	14	-0.2608255220918899	-0.050383894074685784	0.09005450650137856
Si	40.461737535391066	11.662872788493864	9.910582385607722	14	-0.105115784356274	0.055632805585768094	-0.09214661490038305
Si	37.26138618925218	-2.7613340935203023	20.377024294596485	14	0.22144055946626554	-0.042616070681454406	0.06793040233203634
Si	35.152461670692276	12.46114741705642	20.24962679692024	14	0.12948240658584936	-0.10204999837252941	0.22496888729710476
Si	39.024703122207335	0.5661872810636698	18.77247270264836	14	-0.25117899204122623	-0.13044374286505273	0.32832912094078165
Si	40.81243454048449	5.601601646724301	16.737649149961854	14	-0.24768408857954902	0.0018349978669896841	0.08025011058405788
Si	34.299877535837	11.09022963608525	22.104392906681056	14	-0.1552888477947076	0.3482184203658511	0.10416087584037101
Si	37.844371827567024	4.940189854205338	12.60490633468369	14	0.2260135273886809	-0.03249620014135157	-0.04541754703828776
Si	35.560659297191876	0.18975188699348994	25.457443202172808	14	-0.15249225653798254	-0.33908148338964095	-0.2954652527386489
Si	35.320528703137754	3.663243049214116	10.186384737222594	14	0.3758179504249807	0.17059000977597286	0.2341389915319449
Si	42.96459621412801	5.480642019230823	20.072560819854765	14	-0.513131943816001	-0.6582363863270702	-0.10735007487948267
Si	34.785035040057814	8.4132015309243	17.464419889412586	14	-0.22523602513986815	-0.12210436275915242	0.3541838989296587
Si	29.023295054593046	3.008244579838587	22.077883740669197	14	0.20314714511341198	0.2702203409317109	0.0685042730394934
Si	37.75469003759344	-0.3605861890066022	17.03026295058221	14	-0.12203751402082857	0.07093988110926969	-0.084541028252853
Si	38.63906258838676	13.282900470507684	10.093403825162467	14	0.029258407211689097	-0.3892476048437101	-0.0692038707971057
Si	27.509070021518355	-2.03474500216064	22.479915150888	14	-1.219564984921907	0.06728814022306336	0.6675756692919761
Si	32.53806124521982	9.740111379776758	10.129476517699011	14	-0.20953968427089614	0.04454928477167375	-0.29389225050378226
Si	34.32946817351998	-2.121315864015913	14.283928734564517	14	-0.6121642358742728	-0.055013683424676434	-0.5750505876884672
Si	37.9371089057031	6.535606674582487	19.295111899463517	14	0.059919866596582994	0.2531926817279662	0.06417607434355613
Si	34.68463110330297	7.548214595328	20.86685555510657	14	0.06672018305784266	-0.3164056200185949	0.19055130015000654
Si	27.108535980698953	-3.2221769370457496	14.610186707296604	14	-0.16908951271113445	-0.06006616248929943	-0.24719403590552874
Si	31.664644856316087	-1.8717444786337794	20.05833662879513	14	0.39776901920627694	0.11397452773684419	0.009926009198963673
Si	39.31305064739138	-0.9495482131647284	10.685843346559633	14	-0.03283584315414313	-0.12273608333631279	-0.35570727883184644
Si	28.323437689068548	8.40526792781142	22.246156968245085	14	1.4510071440835486	0.6096766914770293	0.06083595142215176
Si	30.00533700195936	12.241199398743042	18.14347118439725	14	-0.0002936202275609106	-0.02237787226444082	0.2307327912038127
Si	29.10630495927554	6.83978049426006	20.68947046652975	14	0.7579631339323137	0.2946484125784378	-0.047701717004707316
Si	33.23520534466323	2.7706472402437736	17.31642578926549	14	-0.02322376591476954	-0.29957259348758547	-0.3637532958207178
Si	36.52537921713455	-1.1093723498017178	23.734763074601105	14	-0.3104056886434973	0.14652703508470702	0.2835072990051722
Si	26.67045969792152	2.796437996237783	8.96237444079065	14	-0.10184533838904564	-0.02477465664388286	-0.24005921864211785
Si	27.502525780831807	0.7174003163021516	13.57770713997525	14	-0.0488787690202711	0.10165661925854677	-0.10079889852374535
Si	40.365285671969055	-0.3439482057457459	23.116447700806905	14	0.09452385887939196	0.008073784926328997	-0.039028607428251795
Si	36.568383993579126	4.845772122109502	16.252581651551928	14	-0.16525753734198578	0.10838288788658615	-0.01655174760898527
Si	31.947086363836274	5.781204151187661	10.862987874150974	14	2.1429599771369126	2.562904265508403	-1.2936074188209996
Si	32.89128004948753	-0.34082091293454336	14.960921351183668	14	0.14589428606541857	0.25053827259544537	0.1542048697917332
Si	28.51110144124932	6.47997817404287	12.946939871361353	14	-0.19103903882923862	-0.24787537881536803	-0.1137400429316467
Si	34.389413680043866	7.640799481820201	13.714303231524742	14	-0.2736064866383459	-0.20697372116138835	-0.5286274813594696
Si	42.200266868026354	0.9766399622434612	9.938678926829876	14	-0.17366428040727394	-0.04885305796706962	-0.5886512206109865
Si	40.63518036945079	4.480314164029665	20.30845950432764	14	0.0038492017747936893	0.02938773380929254	0.3986799618212054
Si	27.498513158135278	1.9628892721516955	18.62833903355392	14	0.016064008929753182	0.20002530903368818	0.09051807679060125
Si	34.152051992026664	2.0994853637011865	19.46643059638616	14	-0.13842651066304848	0.0212766678558214	0.10981679332363274
Si	38.38498436658283	12.658585800300155	22.337170844219884	14	-0.03000299931240398	-0.21542751545403524	0.00044325855719352887
Si	29.242963236658014	7.675022964060221	9.412478772841943	14	-0.16522128475697168	0.30670252565088807	-0.060911799029096124
Si	28.31268935877866	-0.11918733125353473	24.011804233467718	14	-0.016121087467860472	0.042597815833681364	0.1294207000581658
Si	34.320600146443105	11.352977872182088	9.904461990467011	14	-0.1563250032387273	0.07165979059891114	-0.05376412623908446
Si	40.3476690800734	-1.0330408762874674	14.638019776963237	14	-0.43724474184970247	0.28673660728727823	0.1708558620660762
Si	39.72671408131611	13.207123760082391	15.2726163837133	14	0.14137145469674609	-0.46327306944768953	0.34331763651511693
Si	37.4372149955352	5.876859054065951	22.85881997711522	14	-0.17829201287300847	0.1696474425656066	0.2850124240595869
Si	30.167092172357325	8.57004892992467	23.814680052327468	14	0.3326992286534373	0.031059723598984835	-0.007017317750280153
Si	36.4946888720894	11.891052247330714	16.93047268981072	14	0.433832885089866	-2.162166648099483	-0.7426426886611474
Si	24.683583058932246	-2.979156338227323	19.524787091230476	14	-0.18621076014853255	-0.029667984289188685	0.014840934128958741
Si	27.385460950246053	-0.9532139043719987	15.26039032165548	14	0.11588177366333005	-0.09040649081970682	0.3305112180259913
Si	39.27927719420582	6.326848833267016	21.228142152968847	14	-0.32301361780190746	0.029559483644678433	-0.45691498310149536
Si	41.27397451992703	7.482163421886997	11.329956022225	14	0.0218739356216918	-0.2990545157655756	0.17451685893143504
Si	29.214365935833438	6.045178102781931	15.162292170128774	14	0.25130677597563766	0.22562811870119073	-0.1095332004068204
Si	41.622779766522406	-2.3417613689931365	23.22831183199234	14	-0.2843688763979538	0.26414173373381683	0.11939493197278037
Si	29.882300694938195	10.684796006214697	16.34200324290857	14	-0.3108944557648575	-0.017677120407614086	-0.04411913885161298
Si	38.36831529040548	11.809668993121443	13.840733575851212	14	0.07319988268567984	0.22467321018528774	-0.17021231440444312
Si	31.309786309820847	7.00978510634367	15.531725112111493	14	-0.03559926715223829	0.06803273232377824	0.2063445716895481
Si	35.32293267652324	7.407568242288333	11.52085343772076	14	0.057546993496618334	-0.0930331320147701	-0.06713438812491851
Si	38.25003129019945	2.404223765283451	22.64720649689051	14	0.23553587305238133	-0.059770485377482384	0.06205259845964582
Si	31.813041527908272	9.379063706430669	15.842168245635072	14	0.010061249338803462	0.1930702120321556	-0.018400629444703755
Si	37.99811975373411	-2.6794664444015	16.745026353516483	14	2.8630556148035535	3.9464317220225373	-3.261007696708625
Si	35.828087835455136	8.58514044970746	15.352767376547982	14	-0.15088377304969794	-0.17114125475661263	0.22855120833966705
Si	38.2486010160409	10.83062669396179	18.2915912926796	14	0.3812838632250835	-0.6542432026543482	0.011144198899649835
Si	42.271990044022886	12.826116070818857	8.986651462692373	14	0.22620867428248015	-0.17590551291484702	-0.150919511413648
Si	31.06432737176187	-2.2311589556294864	10.50679233224665	14	0.021939755917887587	0.0495056044973232	-0.12192027161822983
Si	36.24154180131088	8.21399085144062	19.30571131104811	14	-0.15918947167590428	-0.057372929666444306	0.005546645507155451
Si	31.587333137697755	4.272351646788628	25.392630835983546	14	0.1517201536103421	-0.39452479851331407	-0.6915242297964953
Si	30.911360041445622	12.831113848027341	21.571799067181157	14	0.27415361785047343	-0.0989798415097406	0.11540766184229474
Si	27.63062532383302	-0.5276549751858176	9.863437341862072	14	0.010740021143322556	-0.24737786993591934	0.03626646898281671
Si	29.466036911313306	12.564518272632156	10.767499891140158	14	-0.1784002564069867	0.1526128413774975	-0.006428791742498256
Si	30.773516960297943	1.4387576153450086	21.935679468866436	14	-0.0541569911320031	-0.10365128276591765	0.03829584241200959
Si	38.59203373396062	2.393837094706422	24.938680801103196	14	-0.022908291291987373	0.14554153041549425	0.020378580767493673
Si	31.245104861174706	-1.698943140535337	16.000557198705643	14	0.27419218443027565	-0.033074184617320854	-0.00101070150135021
Si	26.340840417269902	12.396778534044467	18.206593077811018	14	-0.3108540894113312	0.055233512929549096	-0.05465501423251577
Si	41.09116944506518	-0.6140490983578829	18.57919749727574	14	0.0668947611090807	-0.07101855693206621	0.1269172148079376
Si	41.58355359766604	11.289618690721422	11.953169348601058	14	-0.18643521764298146	0.1205066779132124	-0.017675577744422
Si	30.84161535681944	5.895275879443907	21.968160111313715	14	0.29599104377661917	-0.07829787031446946	-0.3282604724287337
Si	28.013197477736796	10.338766211533393	20.955342722499214	14	-0.03462841778335037	0.16543391516694791	-0.3443535348486045
Si	42.42129168313186	8.131355698225295	14.883770006555649	14	-0.07731030876100056	-0.037374615375800536	-0.08067819961986254
Si	36.80790745752705	10.343585613589383	20.037995315533355	14	0.2649266921880581	-0.25891776194434	-0.06561229377539084
Si	39.9218614075553	9.338621640892601	17.41806035092564	14	-0.2726508067908469	0.021165081884926974	0.16797468144431824
Si	35.69427374169688	3.823450119664722	19.878529565670647	14	-0.1857361341064332	0.13695223887247557	0.19669752741782048
Si	27.395150484905983	9.16795753168554	9.478780326084157	14	-0.4771336411180758	-0.07979811026877585	0.00906211781139392
Si	27.226657970445377	10.040645691755683	11.658511597838787	14	0.2834216811980112	-0.1260528091993038	0.011727582696791434
Si	38.90586272244306	12.993078486494289	18.87709545723015	14	0.8338518785618044	-0.29940958541028806	0.6177710452459195
Si	33.044978881575936	0.9450691967208449	11.238614852392407	14	-0.07505236406884654	0.18236567214225108	0.21349353003221982
Si	36.876377332577135	1.8951787188516864	9.9200428145672	14	-0.03875375626952796	0.13911890932576437	0.006187107842404338
Si	41.11339433447854	9.959917025261998	15.46830210834856	14	-0.044763714955374095	-0.09618067914769539	-0.05308535443456538
Si	41.37716045447311	4.202922800735212	7.866889169375049	14	-0.13627860927859678	-0.2417821163171491	-0.014406417329853715
Si	36.54268651633459	5.558778518370796	10.739648820311347	14	-0.12185316576937395	-0.09472466220489552	0.203998438084913
Si	34.0147407633979	-4.128823471331103	18.006588710722195	14	-2.069572917983926	-0.36646529771241004	0.0622014654576824
Si	29.303386592214284	11.812328255716004	24.957614750776465	14	-0.04709056527010811	-0.022431094144567888	-0.09478919694843126
Si	31.46298274583755	1.9091803500880282	9.658341918815294	14	-0.16850972846144108	0.15510912753282927	0.5371036442684017
Si	43.20418840978606	11.953483550704538	22.152780030617027	14	0.5756316574908206	-0.20592393885917187	-0.2202316257447319
Si	39.1983308772967	8.325604602824848	12.24293241972005	14	-0.1666119956246398	0.33860120091583723	0.6242083216359743
Si	40.344329046254636	9.989964237876592	6.142932595757958	14	0.08126621140658041	-0.14545874082418547	-0.22659048342252214
Si	34.023448416484456	5.507131547611219	19.967548585582204	14	0.1896601550460432	0.14171109770953763	-0.010515049427809599
Si	42.42939711552009	-3.013425641607434	12.401992325199094	14	0.008724274572326463	0.0351480381685523	-0.1998052224182835
Si	39.95607834391816	2.108922882090619	12.625319652594175	14	0.05388368263647135	0.24070816562492325	-0.03413373711975388
Si	27.675156926124195	7.285998211750072	16.51619230696405	14	-0.11278564863680772	-0.06566423010285784	-0.1316431634969018
Si	37.46947471462847	6.999334613464372	15.78804202390272	14	0.1176262686230505	-0.47239946489208723	-0.24130851871717784
Si	33.3571599454844	13.456132200029122	10.635156983272672	14	-0.0713031782910066	-0.0034658499715596106	0.12635157163750504
Si	35.70351161083306	7.482651089735106	22.958366403962653	14	-0.05226517183743813	0.06581206865876635	-0.1615250637487268
Si	30.582321707391593	0.6972782899250995	24.16149207932889	14	-0.4999935956300445	-0.3391444754699845	-0.15823353471787321
Si	30.83947485498948	-2.895856778480681	13.964990688961947	14	-0.2180572419754827	2.4682611073421554e-05	0.42045439566700743
Si	33.92347978056047	4.366551728469033	8.358643281299662	14	-0.04740398300863416	0.03289729257129467	0.034524288017884375
Si	31.297142948094343	6.347324337010484	17.765571150313452	14	-0.2436505385533007	-0.01814891823386126	0.07952917265228837
Si	40.16487382402728	0.4344711409338573	8.946543236889251	14	-0.06128923729009386	-0.09374018597781082	0.10101718536542592
Si	27.342518359634454	4.4077482063493125	12.609884474260706	14	-0.3450423339638722	0.21649915215147295	-0.12393421841550181
Si	33.16055616157802	10.072715580411433	17.71728057806553	14	0.043378917629942344	-0.21429211534465786	-0.15093776626142105
Si	29.288725463854494	10.887354901863588	12.389260594130985	14	0.03455282728693802	0.1172130919981027	-0.22864813901023665
Si	30.38549045425406	4.361313390275073	18.707840348080886	14	0.20914424827265735	0.06020217396073525	0.2613595406668846
Si	26.435335063422322	6.94770891680555	22.03564483185185	14	-6.34057120542174	-8.307382957301584	5.440668402516927
Si	27.33702964163928	1.8956827513926862	23.296586967197044	14	-0.21328758449607602	-0.358269899504438	0.24230482202873518
Si	31.961058538625416	4.521315902064559	20.480686441705657	14	0.032291283047335764	-0.2588609405167647	-0.08402629296775938
Si	28.823145041737504	0.3895124201582592	11.647247779722877	14	-0.26843779361325226	-0.1772044353225858	0.3162091875721356
Si	39.25857585770047	2.4656011824351847	14.847384748384913	14	-0.1945650526652897	0.09817071466549	-0.03942378631595855
Si	34.39602337950198	2.987901630107525	23.00913622718335	14	-0.20572030731781615	0.07876838258805655	-0.20876860978538372
Si	41.802724293067165	7.992758204735406	9.100600455751946	14	0.012043828651169647	-0.005556672817904028	0.16211821774608495
Si	28.321056626253107	3.8100228891488053	19.911579699430483	14	0.12682079835843205	0.3991234774889309	-0.10217572542268466
Si	42.64846307688671	0.5228683025156097	19.897087127407453	14	0.11894935942079872	0.007238689918344901	0.02549456613352432
Si	32.77996904492176	2.518285674723963	21.34305011703175	14	0.025922655169328977	0.5284999545355902	-0.27243766215980664
Si	32.07965674093492	7.5896156318694	22.919434799578298	14	0.13294517123102478	-0.0744214148232822	0.16135177125014882
Si	37.41854451741745	4.381055755777085	18.43100374787539	14	-0.14070271020297556	-0.037011318194063614	-0.09908962770691092
Si	29.76451418139601	2.4769402781383882	11.163554915515679	14	0.1661697655095743	-0.15940570163332873	0.2741222503655677
Si	34.21545044875026	2.8382743336100456	12.07182482733568	14	-0.17470326406714576	-0.051225416845970255	-0.08702111644466784
Si	33.97438052132428	-1.7691820388867892	20.58416694072375	14	-0.24622061543132073	0.19666693126451074	0.20325178909994196
Si	29.18209967086301	11.943213069447024	14.48255028510417	14	-0.05617710858204343	0.09842216876580048	-0.22473285982871516
Si	37.945801830566054	10.340193212753368	22.080544639733045	14	-0.22360388748263813	0.12436102189864638	-0.14106729293737258
Si	30.801598773296497	2.6769659193279693	17.1433053396557	14	0.2561949614103032	0.3026288663816455	0.12482793462478528
Si	30.852754803269388	2.923288913171518	13.26268843831974	14	-0.2685059279042362	-0.022775879367999744	-0.03346087885747113
Si	35.069767604582545	-2.5733348651352883	16.486411838843555	14	-1.9557963653567332	2.6199987444686745	-2.779952091535195
Si	41.574973589184026	8.622867612695144	18.926752481334354	14	-0.05521294408698791	0.2624370909065587	-0.04804804489133126
Si	42.5173687950867	6.599671174306693	18.044819906250876	14	0.04345219413156656	0.008354292516757154	0.014835020586722399
Si	23.795160246648752	9.568453933711298	8.681235562824478	14	0.12221954827749507	0.09368902098193989	0.019263749500677465
Si	38.49333336173558	0.27969551205330945	14.980958281157694	14	-0.03388099746678333	0.0778682386154727	-0.03569054139110354
Si	30.091454561821596	11.151521956833957	20.205949431597897	14	0.18960487628166	0.01629103752952226	0.014429814388267063
Si	33.9695005699046	6.698456642934764	7.940697207245722	14	0.27954471148576	-0.12232342093242903	0.031827969868645084
Si	35.905307911793294	-1.710355877356544	12.595458997478524	14	0.004799225190588404	0.13384402965094855	0.23610717265451822
Si	40.9597593246924	6.300460765982535	14.53225640328704	14	0.02711796203266582	0.13090602760161535	-0.04022108607573647
Si	41.837860925170425	12.154579442809098	15.880870744318978	14	-0.0798803856390206	0.30208379205377406	0.14897395601789193
Si	27.992697426953995	-1.1862078558569678	20.31728989261087	14	0.017339020058014618	0.05000079938198372	-0.23839828460530216
Si	30.243124171991695	7.268902017088307	11.506524512626626	14	-0.20873107164770954	-0.15764912247860358	0.4613897348006811
Si	40.88805414985804	8.157570299765146	21.16987402746614	14	-0.6868203926132844	-0.039555684018882147	0.4506571698627869
Si	30.947622564419685	-1.5285245017216205	24.578505365888123	14	0.2418427944027046	0.15001525367255192	0.019260921284825303
Si	40.95248358223368	-1.2080514479260058	12.38506795981267	14	0.031094176410274822	-0.11800576376830436	-0.14346176332202648
Si	37.98913881027629	6.087911225324544	8.88046097053176	14	0.21363468371429598	-0.1611450543824089	0.09383634531678436
Si	41.857153261617974	-0.09725209690431488	16.313315936273103	14	0.07682411274496057	-0.5700544158303555	-0.2859025407214221
Si	31.90368883476234	-2.890179866517279	17.93905489610539	14	-0.09589708623088306	-0.2445578816207809	0.21464127144713394
Si	36.844966941044845	0.23238518490947585	13.380630416444374	14	-0.0006492040933373899	0.09941770074576181	-0.06133551718585653
Si	28.1349982504448	3.9623618152580917	10.377532532519567	14	-0.09931922741200014	-0.060479596224779233	0.4549766268006357
Si	40.47660485888127	3.1745458619212803	22.236883096784545	14	-0.01272954244005314	0.004204528530038154	-0.3086187704459944
Si	38.16862021601227	8.467245929192202	9.178303290530344	14	-0.17532598577568564	0.16707196636641425	-0.5097188015035046
Si	29.574662469775895	13.529554031147603	23.362101378711266	14	0.5959822132103246	0.0011497982991702208	0.13786575259272416
Si	31.786988936828028	0.6980114281665536	13.199563271967397	14	0.045372038474121135	-0.02611960183685232	-0.06253673759142972
Si	36.667025452909776	9.433103195290707	23.837428611913296	14	0.096990063102478	9.178845992928642e-05	-0.19002010979086392
Si	33.23878593946747	13.796159425358521	8.058328256205456	14	-0.27245720256023975	-0.019292545880263128	-0.0695584262207541
Si	37.09414230085905	8.954532479957955	11.223074940024443	14	0.291386708369298	-0.04726180088442997	-0.1388021491503221
Si	28.40533315816526	5.613682063015404	8.693676002359155	14	0.003262218430203883	-0.5981830793643715	0.22138708047560646
Si	39.44193569565129	4.46870832383236	25.642521332877024	14	0.14102049882054588	0.03346524973651538	0.3033210079338293
Si	34.503963257332494	-0.9227379368036968	10.859839307239016	14	0.03366682439361499	-0.1928655520486718	-0.059850960974003026
Si	41.89086125603197	0.904884056861143	12.228683681621074	14	-0.0710478675327159	0.005675457883694869	0.5208547728661299
Si	29.133156147368798	-0.9478266474727424	16.804649475590452	14	0.022430065702439824	0.09297013993442647	-0.14548368054579092
Si	35.631912806502484	11.370010244541584	7.8758079269998795	14	-0.00476477237929842	-0.3648187618653872	-0.10563231941509173
Si	38.10898891159186	0.07527104141500415	22.422489807069102	14	-0.014070116753978349	-0.1721619835687114	-0.15374515616049073
Si	29.5665979491199	0.9275802494297293	18.158189589182157	14	-0.02067785742675891	-0.07029144834752833	-0.2509357654779403
Si	31.731664819576157	9.59309261532588	19.558691461959146	14	0.015582698013821462	0.19172038173907785	0.4402999863016344
Si	32.829864993542145	9.42319928315392	13.71940574276772	14	0.2850615321712017	-0.043688992931552206	0.09011287059214591
Si	36.343686941389194	10.873737840910152	14.859556806956196	14	-0.1623550165460706	0.2233514049401996	-0.6085688021945777
Si	27.350273587594835	-2.7237493033607576	10.595376051327344	14	-0.2550554475324135	0.13716641194564388	0.03107257912558558
Si	35.91817874275096	10.988236687650815	11.553219527317811	14	0.047733084489613116	0.10192632820663028	0.19017334766794478
Si	29.899090869842922	4.633865713882071	23.674559005929552	14	-0.05901663729761498	-0.022592045337609154	0.014729348158064315
Si	28.591961025286125	9.150342576259176	17.556661117354107	14	-0.007740312566305793	0.02766946412383758	-0.32448146182918
Si	39.3750073746714	3.025080575883407	18.712473192637933	14	-0.007417124627563177	-0.07459959242196844	-0.018779610368893584
Si	33.135491997948314	5.827187301738148	14.525838170735739	14	-0.05674249464194401	-0.14185353694427383	0.15615711006132163
Si	30.135357759905812	7.999968488422564	18.919404734226923	14	0.315626317996058	0.019421101146270527	-0.09115751068372208
Si	34.39970379893285	-5.313211573338747	13.345989634535671	14	-0.08783358572583465	-0.18092585316296816	-0.13611251587491519
Si	37.34440591275041	-3.352817916852716	7.947079437472666	14	0.07420287087106961	0.14935062294729362	0.0646409301854389
Si	40.525240726149164	3.275193632600187	16.688820179317865	14	0.05028953450943636	0.12302533268482946	0.04968352498547745
Si	28.200776133514548	-2.5556544509373644	18.31936054004396	14	0.1302979611934003	-0.35488812467684727	-0.10126529702882021
Si	32.582214823105254	4.431583381543014	12.706513076365926	14	0.5212072714055221	-0.21468318046385237	0.30933508038818774
Si	39.12592529360667	7.155979090272911	17.409424702487797	14	-0.18530470263371235	-0.1419795211049611	-0.486616391759846
Si	34.21389580292575	4.729407700379423	16.327756141278883	14	-0.20450751693830233	0.07650118191674997	0.31556898234741876
Si	41.79416719515519	1.2361398068017153	22.017653488489024	14	-0.19643450334356935	-0.006093519608750948	-0.07197937899020554
Si	33.07515864820294	9.102572401245142	21.402715787307233	14	0.34485078661752117	-0.022028716161964713	-0.11686856388520288
Si	29.68078913963424	3.6546155831227187	15.226742876605174	14	-0.0976289827745348	-0.29530815820358786	-0.1522112347264904
Si	35.45176863070448	-0.36733826129285124	17.25730669973252	14	0.06087528933355002	0.17609423204534588	-0.008416256154972723
Si	33.63994674802455	6.38166400857002	17.845727052556	14	-0.14511087027436945	-0.060178776902321915	0.21345599189454567
Si	35.439194000688104	2.0290910007672833	13.96551926854228	14	0.39468883503273955	-0.161163823451246	0.023379060676106483
Si	30.11587068361288	-0.08319482571214849	20.242989277484217	14	0.29286946480742737	0.0019442698430959774	-0.0418051440634797
Si	37.2963509920801	12.839600577759887	11.974998212446495	14	-0.11656774456274556	-0.09810309459557011	0.20511558334651736
Si	33.44759942073876	7.52594879418241	10.081239948937627	14	0.6453883159317583	0.4948488138844281	-0.25714215661024575
H	32.49855033070717	0.8999108266919936	24.566518228346492	1	0.574874981195101	0.1246942371481376	-0.3207502737885812
H	30.251750001613804	7.9346357249994135	21.179951405347555	1	0.026810200725844096	-0.057025830448224325	-0.1825168531350758
H	35.56981043345574	13.02582587343567	17.631644140174252	1	1.5746881086250157	-0.8987175233522243	2.7853215878857926
H	26.99384730352077	7.780874707078021	21.418136237417105	1	4.524141346833102	8.194914583061282	-5.967282194189657
H	37.54058421464164	12.856032365890336	17.711284554590783	1	-1.3661354716865246	-1.9260371068286792	3.033176140748067
H	29.025635205676256	-1.7930744905056053	21.89764628612172	1	0.582253539242862	-0.20508832963012374	-0.2639622705824705
H	42.448897283567334	1.0343025941092558	8.098497031372268	1	-0.049036377776396176	0.31145418539305375	0.12483410527755365
H	31.104476509297214	4.801448351418021	11.30197730679165	1	-2.810069762144878	-2.8415267215158257	1.277955558074066
H	29.793088571650543	9.02884127743105	9.884564160382546	1	0.38817545392520836	0.9497115407193811	0.29563314591605455
H	36.776654167046495	9.207774465955225	16.43306294002346	1	0.7363943885121235	0.3719648919922068	0.46316765412956346
