230
config_type=amorph dft_energy=-23308.470248136342 dft_virial="29.079168911726775 5.580932417877368 7.17664168684956 5.580932417877367 43.464852473628376 8.833101308701407 7.176641686849561 8.833101308701407 60.43850106820316" pbc="T T T" Lattice="16.423376783026235 0.06730387300719061 0.05051896373111721 0.06712321351400391 16.441524850296357 -0.028429234791470703 0.0501740683350335 -0.028921942500161703 16.3360525534559" Properties=species:S:1:pos:R:3:Z:I:1:dft_force:R:3
Si	7.530845171335547	4.711836082009308	14.76943583818394	14	-0.07645233091566715	0.05933005503614103	-0.0556433471175807
Si	6.872137666150432	15.694824675416113	14.16129985221887	14	0.07467441158678476	-0.07639139571957965	0.07599698816346895
Si	11.721798875511874	3.774164041599466	13.026467537458267	14	0.08022362819926036	0.9263443071277473	0.4446456685137487
Si	10.222998449264141	4.23183366276642	3.159704973372862	14	0.06961113387981716	0.13957039541998234	-0.24631600343869825
Si	1.257838436594341	13.720119515702773	10.386965005280391	14	0.04016040799018098	0.01095419421649089	-0.0005103644060493937
Si	0.7865109577424723	13.95848986280845	15.94759686884683	14	-0.024455582473652482	0.026425820480481955	-0.029760286970181998
Si	6.505909668639441	15.529465398943298	5.595674878167571	14	0.1607681303424752	-0.023029904573630373	0.02798648140981184
Si	1.103822933934621	6.08905431170142	6.399212171963376	14	0.007548508109422745	-0.08334006495781185	0.0631771999266786
Si	14.94836921203119	16.419740600136098	10.975292498997053	14	-0.015266194948911236	0.1792404936256111	-0.023650826508446136
Si	4.921358392771127	13.320413671745259	3.0719077444021834	14	-0.1260852051263377	0.8031138002383702	0.10090508517346748
Si	16.33774254089671	6.213165741161655	8.463545790964696	14	0.02163919370596228	0.03689793244944508	-0.029317285523520482
Si	16.32093463859423	9.814543758759303	13.542683973289943	14	0.14141182105027242	-0.019355537960606753	-0.02234933299538718
Si	9.627860092654341	3.653412878712505	11.907912643033784	14	-0.17262992473697836	0.097025030134832	0.019713435821171365
Si	14.008631083962905	13.227732067022425	5.178762038663537	14	0.5032923237557944	-0.13321359462644825	-0.023525613679354924
Si	12.75486405540138	6.841333580203071	3.0201126677055563	14	-0.04799379456907613	0.016142170531485683	0.02101904310274256
Si	4.16489439346366	12.526715750892015	16.02060793947969	14	0.005945166831778403	0.03725403053628559	0.05874718546006345
Si	0.8473439361755212	11.225459911007823	4.501821063538798	14	-0.042073053237839136	0.03324259201579056	-0.05370884747470128
Si	16.035563260797492	7.613772805785328	5.297115357368202	14	0.03482253623502155	0.011550176429701216	-0.0377368841154094
Si	4.658247549253046	2.2762472045093194	3.59590567731312	14	-0.010755447775243444	0.2650390494905486	-0.19080661090829723
Si	10.83218882972581	6.644142101030758	6.181082257530726	14	0.019039549116760555	0.01072536584299771	0.0012253887955825744
Si	12.916580579547942	9.644262332276664	5.918152073505832	14	0.018496788783677297	-0.028545439706412032	-0.01929923075409551
Si	10.347356232578722	7.177054758750945	13.06697796526684	14	-0.06218963837320972	-0.061224702546558145	0.037658979624208916
Si	8.437654000872985	0.9515549012817256	13.803840409563549	14	-0.07071388095162867	-0.04634263073247704	-0.046949668698564
Si	7.274389166602852	4.86071264326738	5.344009634722383	14	0.061684673288332645	-0.0787866374358296	-0.0032704459672283567
Si	14.055939235792385	14.76432810160384	1.5145687152848735	14	0.08381186278405903	-0.029947463437488785	-0.017923946518348305
Si	12.006329365485781	0.4476627276034399	12.45711914468038	14	-0.05261021417140201	-0.5582170469363936	-0.2858002107296802
Si	9.847415574724137	16.36894736244714	12.156350650987045	14	0.005692170068275832	-0.020795356939889677	0.1142578635431245
Si	13.243981567255052	3.6765635715848655	11.22181058924545	14	0.3540915962486654	0.5126092381044149	-0.13134825771668082
Si	15.616799482667808	8.389812082359088	8.89887768697863	14	0.001818799903472751	0.0056890847418916545	-0.04740424011916618
Si	9.763964027744114	14.114533678868948	12.608730233721689	14	-0.5050604728844602	0.19486844309306714	-0.28427811638015255
Si	11.577445371019584	8.19192917003558	4.643532012353474	14	-0.015142781893544127	-0.01586757648329387	0.010857520656453323
Si	9.130931521258889	3.6888960455334012	16.175479111193503	14	0.056788003206110625	0.011181994147856011	-0.00719472401737037
Si	9.266679064439375	7.235915263990201	0.26027777419310766	14	0.023908708372056987	0.021495468918566	-0.07149909651640189
Si	16.15129701685095	9.3828135560959	15.826924539193259	14	-0.03074913407631095	0.0007304510214540692	-0.036991520683098474
Si	8.790537831273593	11.984906434311897	9.315935054077213	14	0.013562837674313133	-0.03289317880278243	0.009991315274095434
Si	2.2715615541996677	5.631445457818539	13.643981393478754	14	0.012527453561889501	-0.023428168787721308	-0.003487704366780869
Si	10.027010819260065	2.454034211754351	9.890929877196697	14	-0.017376043974624746	0.0354866527392158	-0.25072236373636797
Si	12.287133342822957	16.224505170567287	2.14464990259504	14	0.05175943542096502	-0.049598678509912564	-0.11445301043692374
Si	1.531074423526022	1.106288114837105	14.160889262461627	14	0.022725742814256857	0.08754587904051007	-0.01861197430201993
Si	5.975069668013815	13.005473261990941	0.9557215661382225	14	0.16549896413154766	-0.24246525900071245	0.030145952768204212
Si	9.561797843073052	0.7053800640703833	4.578980733078837	14	-0.1514442740094902	-0.0920034043340508	0.16662690803549665
Si	11.714413186958597	10.99881600736899	11.654869460363289	14	-0.20782090036437714	-0.0741313941431695	0.2736442818865521
Si	8.891812258436	11.925336429972127	15.75763998119713	14	0.022113819748061612	0.04884945841962141	-0.17708642158839102
Si	0.8105353856182455	0.025806387422205614	6.046633820342154	14	-0.11697115098747678	0.177936943228296	0.22785443879790693
Si	5.172677098461204	2.567921956259246	13.776321041674128	14	1.3250037001063917	-2.9357865278788386	2.7703356434167774
Si	12.90503808029234	1.8546027286428222	2.942302623990045	14	0.5691789544688451	-0.07280804623488926	-0.5114555831472646
Si	1.048378535475623	6.8314482212077	11.975196807732626	14	-0.09918887237226863	0.1963015771985177	0.1419792639944291
Si	3.972002610229192	16.224010820499565	8.927315133565244	14	-0.420099840243359	0.16747588701220953	-0.3643155965542342
Si	0.633186888233949	9.887714138217975	9.878571125503699	14	-0.04387102718821869	-0.0285361837272595	0.05476788575607028
Si	6.482719559150385	4.868055630485906	9.233096107014996	14	0.29640833417007917	-0.15793477227967204	0.2557547881794938
Si	10.01995360251258	1.6234226293659761	15.455411430327041	14	-0.08965212851877538	-0.01493066570463191	-0.13114539750692114
Si	0.15331750007240746	5.8737574665937435	0.6052405069969955	14	-0.05645633061981152	0.05192989970369082	-0.0048017962959085525
Si	1.1381975084109635	4.004202701351178	5.2207390930849815	14	-0.0016413936363825336	-0.009873044429368623	-0.011059866645148977
Si	14.118851440756112	2.5277547814877273	15.234538776316011	14	0.1498273058736491	-0.007840071452727538	0.014769714511590641
Si	10.273317045193725	7.823431432346552	8.11542315938907	14	0.018248162899218975	-0.018076413063833088	0.03896587245844018
Si	2.997265811253555	10.548428606136488	4.977504078535496	14	-0.13111274446935525	0.1455806112163605	0.04125878418294824
Si	6.9316830351047685	1.801677708934264	7.765837185918632	14	0.06118999262473614	0.03253579516328185	-0.009695123941214375
Si	6.3182865731699085	9.446361354003837	1.038677120691497	14	-0.18703685628789612	-0.14995354714486836	-0.36177483027686386
Si	8.696639238510294	11.339191631404963	5.422371511071629	14	-0.012643667522360196	-0.026869079037675485	-0.0896071341756728
Si	15.794704739762926	4.111056222134995	1.8668645811531122	14	0.05187899181835189	-0.07844853708623012	-0.035703139807172275
Si	15.31718556737184	7.848933983348398	12.532068198967426	14	-0.6016419873515667	0.23214021425606177	-0.017777650625631875
Si	0.8900518403648571	5.186936059550721	10.347091812775057	14	-0.14388136771027463	-0.2617629470916158	-0.2151732331378726
Si	7.4647303662653295	6.471201695280218	10.57226744744199	14	0.008763869594256743	0.0980892106268413	0.09484087616536623
Si	12.845834322016028	14.80158008909894	13.282854563111744	14	0.6080111294506375	-0.09628403758156534	-0.18309869426902528
Si	2.817084244544285	11.055745098390178	0.9624141791812753	14	-0.2999523457433713	0.02849941692118138	-0.341062777149347
Si	2.198468365615358	2.696487463406047	15.80413516530727	14	0.040039308929602	-0.05803576061797848	0.022955599629878094
Si	6.771474196546803	14.601731273017755	3.527328976058478	14	0.15881666140448283	-0.03356346595974504	-0.08947112270423696
Si	13.684500033082474	1.8654455829520822	6.752146915493885	14	-0.018401914997363832	-0.014739632579344908	-0.12793691517790834
Si	13.64824659987699	16.076561469237667	7.264314936319149	14	0.4268934718307863	0.3203085578945797	0.2383391491829388
Si	10.381206894524821	9.56361921923618	13.019554848305331	14	-0.10474066009006439	-0.0548915559219694	0.08855709476292431
Si	3.443240193775214	11.856221034955981	12.601242718908614	14	-0.009526202321680648	0.03870516237897716	-0.07012484072278273
Si	9.18070978106794	15.288666002833775	8.176224933000569	14	0.0001897475726269282	-0.0217350959344038	-0.07966235590787205
Si	1.9884500624267902	0.8712189093796581	9.851615086761212	14	0.042361788365291767	0.06218526749416546	0.12264352354478748
Si	0.8186026531685462	2.3249398650002218	6.878299797227128	14	-0.011104603877719553	0.06795817026949395	-0.06053487498916241
Si	14.959029764488236	7.386522871664807	16.191258896743847	14	-0.013817634211539807	0.029521688396472255	-0.007682719807134475
Si	14.662501841807702	9.836961959504743	2.64727581746199	14	-0.007214778638867525	0.027282512773155295	-0.007481145150034865
Si	3.218048135517992	9.428922785834233	6.9845587840424574	14	0.07373184437641847	0.1533906007368423	-0.007726428597576991
Si	15.660522364737046	0.7272842064397562	14.861705210790502	14	-0.01192427225378276	-0.03032567303008256	-0.017530567404365646
Si	3.798587562719279	14.315476306063427	7.490932562213517	14	-0.20534004084096627	-0.6861459916878095	0.6604159123069596
Si	12.308661384974695	14.667791880240014	5.843933868986677	14	3.3775253047176275	3.594040140611553	3.6381433386101816
Si	5.4113184348066605	9.892595229252073	7.543384582521732	14	-0.04646501534571608	0.007184696706621792	-0.0107546764436474
Si	7.353076230039834	7.391387539108616	1.7176513362941008	14	0.009745003384425249	0.01481033797564898	0.07730979453993654
Si	11.933191833207689	5.834000881579467	14.184618065712186	14	-0.01496126185794167	0.39891804617385107	0.17186553512529834
Si	5.993930519102507	13.638233136877359	6.93549166569295	14	0.13708002280688691	-0.28512246736728925	-0.07722263406958353
Si	12.131766178682396	1.676423197589867	10.424673568585542	14	-1.3341493788406904	2.396971298798814	2.614788656647927
Si	10.053899521282363	11.686044719451196	7.379424595941599	14	0.00817817180232701	0.015696597979504023	-0.026706842291974144
Si	15.072653089189467	15.565735255739073	13.243792695966722	14	0.021713755760246572	0.009540086290409446	0.08405740334213317
Si	15.877216857378379	15.854834788531576	0.42553358204709807	14	0.015126841040559207	0.014954319873577272	0.017168298664756783
Si	4.723081314280665	1.0761639655277375	1.5821402928137862	14	-0.011531407360864136	-0.09791566101773132	0.02400281082677441
Si	10.475754219104566	12.789363449163924	10.821927370512805	14	0.0030601295520402434	0.0015719737927385356	-0.07009321612734491
Si	5.520955754144582	9.481029910746365	15.141569758763108	14	0.024290003291034947	-0.15576295961574294	0.008710133493065647
Si	4.973283215831042	16.70773646766113	13.061728985810252	14	-0.35172180847508494	0.30072599133420386	0.2980353296166689
Si	1.2354284476440454	2.650930066301448	1.6533283449244909	14	-0.0357555903557033	0.027802133158357223	-0.013599347369859236
Si	2.979960274165298	15.941523425157698	1.6151287162696775	14	0.012256716171677907	0.04682162765362063	-0.004544685763893744
Si	4.388472012795405	4.827228227384741	12.917270370340109	14	-0.7399170599112583	3.4954081696516286	0.5326422623168807
Si	10.766006687935405	5.3958802599343425	16.263719777102004	14	-0.006025642428299038	-0.03529510539286477	0.05793343062623659
Si	4.586087220597191	1.5513066444039034	7.514851879111436	14	0.021386196942459707	0.06295042843744154	0.07914864906490644
Si	0.31711489310867247	15.714851601415376	9.58361494041389	14	0.006125915535784813	-0.027139045096291035	-0.03591345622236038
Si	15.073068606023796	2.319189966039798	10.575089020253758	14	0.052194209330602044	-0.07108823388624222	-0.17896204291943904
Si	15.21642848330356	14.511406453501491	3.609052761340025	14	-0.019352966855286605	0.06978005549935089	0.030703625512144325
Si	5.152819335441927	11.580708738410149	14.188679619590827	14	-0.10997465919028983	-0.030446000759065495	0.016879306426772135
Si	2.142692210632508	13.86278960219037	12.593395527468195	14	-0.025828295604079544	0.00582843865024368	-0.012268286145618574
Si	16.43201887623668	11.177806863782257	6.701342181291726	14	-0.030549873413999475	-0.05470000857561837	0.042329392438257896
Si	12.232940421944035	13.814177417291887	9.609439393785411	14	-0.323144487062703	0.04391627864185329	-0.17513880930837886
Si	14.077913999600003	12.268711001595	9.288685033068543	14	0.3837996897808484	0.1539672996601515	-0.26581680884989334
Si	9.576096220779263	5.879986934390626	11.277038196312624	14	0.05836203388310527	0.0682821295398326	-0.09229753878267574
Si	0.8123912513209816	12.283135840946443	1.1854925213682126	14	-0.021686502043853004	0.026917930038758295	-0.023510701268498066
Si	0.8142060580479934	13.232189429427047	3.2728733646230688	14	-0.01182219937257288	-0.038415141698864466	0.0626372678094475
Si	13.065023558022366	16.05417118859572	9.563082167833707	14	1.5053533685671145	-4.843583699345323	0.862874001194572
Si	3.5091677699161274	6.383230376252469	-0.8602446663480805	14	0.12317651367765416	-0.0397562302338537	0.15816540042688929
Si	11.980651082067835	4.973363691423462	1.8026828326599937	14	0.0429076340247592	-0.049903097379818094	-0.02888071184015934
Si	15.13175666356501	12.98800184664076	7.239259106973184	14	0.15739355460978086	0.20991429431604172	-0.3966205064597668
Si	13.286088368039785	8.32089212806739	1.3564292491034102	14	0.0054458581786056455	0.0460659798000291	0.04477168538186656
Si	10.075158216553348	10.354447938865814	2.0654077218062667	14	-0.021024442423914873	0.13084997750563612	0.28533149822981724
Si	9.107388304578603	0.3470041850768975	10.020472587965735	14	0.021866736526795383	-0.10961316178227702	-0.00982856430733006
Si	3.03407600416986	14.601683644605915	15.958733705422274	14	0.026897104085665098	-0.016890619290180788	0.015465455611222709
Si	2.875153132731578	8.68017130452681	3.5507013873997497	14	-0.14618379252446723	-0.1639627287027592	-0.03539512138981853
Si	16.53581596686758	13.742312713261246	13.769474046882351	14	0.01612751523116084	-0.01743106562847592	-0.0024271234222197867
Si	13.314611217295907	11.208520619983025	4.172853265318049	14	-0.0171009357053689	-0.005004656505668235	0.09357100724774509
Si	13.388597849191978	12.570207060338168	0.7217888731288227	14	-0.034973717227846264	0.02006027792885934	0.06303578913407046
Si	8.109224896413737	9.998951115250113	12.537576671150592	14	0.011605712304616416	-0.042075624343159285	-0.009908782793318681
Si	16.052811315319733	0.2000130519840825	4.100571402094051	14	0.019232639126303675	-0.13647452750399205	-0.15791548898977092
Si	14.31435621720567	6.0895158145885615	4.605954837770642	14	0.022277342046423027	-0.014194301140941501	-0.022054941436230224
Si	1.7824588235772572	10.80290064116219	8.122605195422755	14	0.06802938988686205	0.03930037326059145	-0.10571613744852856
Si	11.522631638427711	9.862732215028311	7.8466560313752165	14	-0.10368496424561159	0.021056581240416726	-0.15552127571564903
Si	6.792417558884229	16.261949314068772	1.8308525747248872	14	-0.11494460577413605	0.0389818133114251	0.007333820815190382
Si	10.677800511566515	10.401284733653979	15.213339205970065	14	0.01745806223433747	0.11535983928333998	-0.0980750695475805
Si	5.443375640693126	4.886693120746657	15.983635153019517	14	0.045717337918617026	-0.029052718786077254	-0.11422675316875072
Si	4.6100623777020955	0.6200381618480152	5.378970531372067	14	0.1378382417657986	0.2773027076465909	-0.16507601730638333
Si	9.614033071989443	9.497469924626353	4.184367844470158	14	0.0050787043388885005	-0.048376632151246185	0.0018272845510292396
Si	5.465044925721355	10.105940951833333	9.849783856443912	14	0.030789757540369292	0.05763981039867569	0.005072533686120146
Si	13.675325815546646	3.3325139904010856	1.2047064796481326	14	-0.019396932756261136	-0.014065488764402083	0.020290134744480583
Si	4.4119988058854	9.945222981976388	2.3570939700693967	14	-0.13571502299242033	-1.272767838869603	-0.5951496893076608
Si	7.424743850986997	13.794947035421675	8.801998212577747	14	0.011311834966523488	0.09812700587504748	0.04681519989032025
Si	2.885046703522093	14.405605684855244	3.424026235495294	14	0.042196980514270274	-0.09190724499507727	-0.06580049868482568
Si	2.2130525137926114	8.621049664201948	11.100543725623393	14	0.01747580286104649	0.1858574902775442	-0.1650845019539398
Si	2.2877519295072544	9.814049408691583	13.05532214323824	14	0.019581538118247768	-0.06965227156493951	0.11885217163969711
Si	0.8641814009405216	4.507561108345048	15.077943127621781	14	-0.11703260040462832	-0.09547851028476295	0.22358640396646112
Si	6.804618644110447	8.309564777844585	13.58602582806446	14	0.019501062521727137	0.0277339988673733	0.01460079289205691
Si	5.763949341916809	5.572512688782008	1.8786386530317982	14	-0.048137005135408376	0.036102175352859256	0.017028944756404756
Si	12.872141628942071	5.405134953062588	6.330541856244083	14	-0.036479613613856994	0.04743612182513601	-0.028494788931605113
Si	8.444794977930945	6.894455682995106	14.446620316885712	14	0.051694900677429295	0.0019866930808784206	-0.002286998182271716
Si	15.29516481751141	11.153306151788083	0.8682708749226569	14	0.028779153180013492	-0.041976636788333584	0.038945303615878994
Si	4.380931942493404	8.011103798586953	10.406487727057756	14	-0.005416290467423943	0.3980335859437202	0.40264152089848954
Si	16.586653548250318	3.5116329508186115	11.839117508028288	14	0.024237552742503925	0.13257313229119935	0.08494752000396842
Si	5.654175706779483	6.870270303934493	12.099352580886643	14	0.02566528752678215	0.10032658647643415	-0.21054370089841393
Si	7.4181744148711175	11.879700199634136	13.847223323313791	14	0.1876395233749388	0.014841705460554784	0.037039857463117255
Si	10.86986618820941	5.881320529922149	9.32934984262584	14	-0.03924638004886834	0.011195878116584809	0.01232587890478989
Si	2.6590383928274735	3.585120305569874	3.379946961516768	14	-0.023948046283455253	-0.02369067864090843	-0.04250936981066826
Si	8.163288070929372	7.69403817624915	3.877471709239737	14	0.0628959210046544	0.04143619045003846	0.014054433011525444
Si	7.510502912402724	3.0595999058390824	13.022893764211227	14	-0.06989601234928956	-0.048377403482842224	0.015419175715460046
Si	2.9591778630127115	15.46616067017165	5.540987607220929	14	-0.4386007427955485	0.014605677992165191	-0.29756713133786994
Si	13.162609246805705	12.37667639944143	12.947713137301097	14	0.535110780534755	-0.0789761278979245	-0.14949717595054207
Si	4.590158628630008	6.378850204722206	8.631230647822532	14	0.010113442776802468	-0.48678737026363583	-0.5279510235497386
Si	6.393516470850908	7.057929531302664	5.271079039681941	14	-0.05818976982665535	-9.590222844152335e-05	-0.013924592192857965
Si	7.782597459809271	3.9642687415617726	7.48384906772157	14	-0.07531333125884157	-0.05720992158914693	-0.12281733026442948
Si	16.047194447440656	12.039899184037928	10.640052531644667	14	0.17808503889473654	-0.04616548157591883	-0.01416756164561196
Si	14.291946228255375	6.348121667290177	14.134458778608412	14	0.06829652772962544	-0.015291134670516671	-0.037567191164279624
Si	0.37707906361539617	9.04632046880441	3.561522891041633	14	-0.06800702127057677	0.09851549988892185	0.023170544034642474
Si	11.841341262153513	3.2818061553816364	6.446554813332465	14	0.1048157363654127	0.025433630937436807	0.05894258946439471
Si	5.366257030128811	16.04158743371575	10.795296518858056	14	-1.5833702170700918	0.3212421262363255	-1.970585106047693
Si	7.7788594506593345	11.314681065256616	1.4913687516416432	14	-0.15144787355693842	-0.04239264162913354	0.18257496011531116
Si	8.663082558830377	0.9852298308117264	2.4248971202213943	14	-0.062267028643346184	-0.097806131931093	0.01578093023400488
Si	15.096225868332274	9.213970836122641	6.7538483994478975	14	0.001593828187959794	0.03608803427359844	0.005899658267611782
Si	15.881271841820904	15.265158918052128	7.487544375536753	14	0.01685205271037857	-0.11426172020110471	0.03803693210627068
Si	2.072676802868488	2.0489266489505527	11.977387714677272	14	-0.050260223908786664	-0.11004639302872196	0.12037349465762873
Si	6.342378337765869	7.78634696547241	7.473635236920405	14	-0.020951423032822665	0.13316037274632117	-0.017152100701239847
Si	15.439281822303528	11.884050808701879	12.88448067232672	14	0.008391830654431316	-0.12876506820152805	-0.025318959640158206
Si	4.561982317128999	2.665632464328788	16.049833718400212	14	-0.22795728301071286	0.2435803473780606	-0.0859139984938121
Si	14.578125646694367	1.988527253301152	4.546703451082491	14	-0.09595390765845832	0.15728068308622634	0.10949797626393437
Si	10.991259513476699	8.85531082901714	0.5663609417041886	14	-0.028278558974180662	-0.029257378769561037	0.011774633924150141
Si	15.217085426915148	2.8591565557894096	8.210796590560387	14	0.03978939749248361	-0.011537578013632489	0.05799976514349641
Si	6.25901547817341	3.101171297580371	10.85712640922169	14	0.3373372455404524	-0.07603066964316288	-0.2076321812338783
Si	11.086151733452526	2.4872821279368194	4.387130205468736	14	-0.7665465119330961	0.27832369356922165	0.8589574364603905
Si	2.242051647167135	6.847272350451826	1.125953721849992	14	0.010691170142239742	0.03045011452757773	0.08053010395342201
Si	12.23975785427329	12.13930132190731	15.072337756255905	14	0.1849653167314528	-0.2011943906227595	0.33005407550006893
Si	11.822754685022659	11.919005135915446	2.419897779337209	14	0.1170945640428439	-0.14461156162119668	-0.02183511193135756
Si	3.021203194100793	15.681335980711184	13.885968215166223	14	-0.07289726358949841	-0.21853906711247842	0.0239002237245005
Si	6.50307331459641	3.832025992549108	3.3341957660467503	14	0.009939121836096429	-0.01905291886442532	0.0329811106047315
Si	10.973344661188696	14.048546977802992	14.668407764875878	14	-2.0920106970023262	2.84614931177092	5.601815513783592
Si	7.16149997638757	14.849338247302358	0.03428917180683566	14	-0.04719186681972195	0.046805429690103685	0.04062680649525584
Si	10.244666091933343	13.656267881374479	2.574956179980325	14	-0.06881974766227557	-0.12250108431005129	0.10240969600681812
Si	1.8988528079603608	9.021404239975908	0.198999716463208	14	-0.04626626890446864	-0.06936610754280703	-0.05415287736349085
Si	13.978408393111799	8.013813690984755	10.506484398895624	14	0.029180502720488607	-0.054045405161108666	0.1389983244862494
Si	8.419964151771948	3.2499197548341843	2.0605364849263412	14	0.04982724977287373	-2.2111505753273478e-05	0.052914118820243515
Si	15.513596926005391	4.125917928988145	4.1530710508141055	14	-0.011920929816866568	0.042227833778112046	-2.9053490117673295e-05
Si	2.6060197586542637	2.634063039073926	8.311351664468104	14	0.09732764923101345	-0.1299642317228451	-0.023432796777297576
Si	9.543786091602337	14.387746672774224	0.2916911753402169	14	-0.006931185722055192	-0.27508358664477106	-0.06734110499265841
Si	12.057474068006936	1.8811432505509775	14.304961923559961	14	0.2613171174291022	-0.019687210546905854	0.2937968624964048
Si	2.992772316950293	4.623163475676189	9.471474665915817	14	-0.08999871351593135	0.14580892536878967	0.12547148228641836
Si	6.164400816873477	13.860265296362842	10.780679523500224	14	-0.06338083146803433	-0.45423409158417694	-0.13658868458020662
Si	6.412441373941729	11.419593317668191	6.064064176716613	14	0.2710418090814983	-0.022738855451389612	0.3039547853952458
Si	11.009604663830295	13.827919035287277	7.588263685347367	14	-0.16792454489057534	0.06997468817208609	0.3686435381396395
Si	0.7604795671332979	0.4246565623256281	2.001618497121072	14	0.00226205846066628	0.01074284935917472	-0.03947109465384928
Si	8.296358568892638	12.741899273226693	3.462117468454195	14	0.34779470220909076	0.3211359395866033	0.3254980768727666
Si	3.430541473763218	8.59547156468477	14.785461977588628	14	-0.20257687395340312	0.19002936577001647	-0.12279830408506039
Si	2.81401467551914	12.755158037667567	8.922286230218539	14	-0.20024256743324068	-0.2354188877603146	0.29378272141714395
Si	13.094699343316824	5.726388590924265	10.00982681673995	14	0.04790843387244721	-0.02018523364741854	0.04826350351715966
Si	4.103672175940746	7.012245672552834	4.672412895877913	14	0.11435556554529012	0.025891544794955184	0.0015565471608176469
Si	4.485852406700123	12.128065943790126	10.506625641772116	14	0.027396926959901886	-0.01508004692373251	-0.04070342543379626
Si	8.234191994928064	0.25336508504017297	6.510294767246791	14	-0.051415678639661205	0.0068021162349837586	0.0402701941873513
Si	10.243081215470388	0.14402010560940828	0.9051057032243961	14	0.20903009119644278	-0.04681365722712816	-0.11538220789962528
Si	14.340193809449428	5.094467961501652	8.14780883708133	14	-0.019635274219438864	-0.023924649225041904	0.03154617672555686
Si	6.93077316820272	1.0368590292464275	9.989950987771357	14	0.0807450483581864	0.2910727764097079	-0.26278984655648296
Si	3.5617544636647183	5.7305667522939645	2.7912975654304275	14	0.042067396806134805	-0.06855158137738412	0.01826693196805606
Si	12.885234515121018	10.153442902028234	9.794464277271116	14	0.04409651312479567	-0.3778277834537404	-0.1879634826452775
Si	8.0975329424865	8.111816538961452	8.978290673106416	14	0.016196420853740807	-0.02566734441103827	0.061343744722881
Si	15.324234572324178	4.149659871110935	13.898197220495934	14	-0.0011253727986288143	0.05444238382253953	-0.08319891127573573
Si	7.478373442718984	13.893532920853659	12.749695551537211	14	-0.09583769369798764	-0.01995589105286133	0.05713253131901046
Si	3.161933654575174	7.07073993172863	6.804093089221176	14	-0.22052113220378058	0.2545731081743538	-0.29312580400784616
Si	10.136541385261102	3.9347982511459345	8.065446174137513	14	0.01377881052120557	0.1190198077065708	0.036827741274205045
Si	7.758655149884945	10.0899066006335	10.217237053790514	14	-0.06970420789240651	-0.0037378729144312765	0.007537709467078124
Si	9.307273252558424	5.770559837008413	4.632825473843619	14	-0.04950946115530342	-0.028138433734232596	0.06889970903773218
Si	3.9428113208482793	3.3677770811121	11.198796212172494	14	-0.785938559589249	-0.22040491824330988	-1.3306567893738013
Si	11.062703773595924	15.38350074024359	3.976675121666612	14	-0.1512532408842032	0.439597817438702	-0.30956030921423267
Si	5.034370759913582	11.30841053848401	4.177432162290818	14	0.6595571631300302	-0.0051596941564731645	1.1208481674864175
H	11.431917579821583	13.641061279125244	13.549534252799775	1	1.9864292854725731	-2.519811254790061	-6.5377240755917585
H	4.726211650589883	5.317459258660054	7.476847691181071	1	0.08255484939303862	-0.24900615093516915	-0.29420258291592416
H	4.590122496731371	11.554128799885298	2.572830967396838	1	-0.1402669078512105	0.25930368485289423	-0.4612460100132848
H	8.654537364802646	14.587776148348595	1.5548114385717253	1	-0.7244294927942825	-0.1757021384840233	0.848047208144874
H	4.845450200811163	3.4404728188113993	12.670617606651335	1	0.15152423538494683	-0.6392338611269197	-1.4749366784086986
H	12.657867973509441	0.9318958637049547	9.296300651885877	1	-0.11756250521111082	2.5254170357195798	-2.635260054317478
H	7.0357708232838005	10.867494621771579	2.9385416218137035	1	-0.13152592109430306	0.08585640573464078	0.19862817040271968
H	13.37430768328091	11.788470440292912	10.657000034464609	1	-0.23958536393161453	0.03470375116923071	0.6708278604114314
H	6.219526597680855	15.929946436362489	11.938481871640002	1	1.95674664588306	-0.10164942016365036	2.18475972187922
H	9.777365677420509	2.942529269536043	5.426761536756065	1	0.06865673958497819	-0.14024865300343742	-0.3070090014050497
H	2.5010138917780376	6.1908296583676625	11.633812775252865	1	0.5392911406747836	-0.26635057031435605	-0.00855740983704885
H	4.488534378994431	15.408880114318263	6.4879012018867845	1	0.30892781730547625	0.4869136115348551	-0.4161336531764986
H	11.591091732191297	13.913162395967909	5.083084771071861	1	-3.802944761868373	-4.063887526362862	-3.985266982330714
H	11.581314768891838	2.405279141620347	12.256807183353025	1	-0.26460710379676367	-1.1139126108853181	-0.5112576080376132
