228
config_type=amorph dft_energy=-23284.94983691077 dft_virial="28.54010759477735 -14.819528202022862 4.774322049154853 -14.819528202022862 35.29253750061529 -14.123527289486223 4.774322049154852 -14.123527289486223 35.182642619688444" pbc="T T T" Lattice="16.476621755346525 0.044141840803071 0.09983404756469101 0.044075932866075 16.403628715123453 0.09853236580902 0.100427218997655 0.09915849121048201 16.402986112737743" Properties=species:S:1:pos:R:3:Z:I:1:dft_force:R:3
Si	8.17686820340874	4.380808301012326	14.783038224709909	14	-0.018561580637745025	0.07188527653548812	0.055158950875264796
Si	7.2350256590532265	15.454325392299992	14.277603437474983	14	0.522401035605667	-0.01849961699952946	0.04102738470413491
Si	12.129482523948603	3.5975847409266604	13.01261757342493	14	-0.17293871448592812	-0.011179937263599893	0.46344559061467144
Si	10.694587646021288	4.091625693553402	3.1293912334913254	14	-0.08557384125995648	-0.0268346262263855	0.05616579571863478
Si	1.5900174461395258	13.558673069928915	10.483293390805812	14	-0.030466055380562646	-0.011345516446217428	0.06322270849084521
Si	1.0432814501860574	13.86070442970521	16.04790710217179	14	0.05676486325822929	0.038495360184853084	-0.16863468418000027
Si	6.740587611106084	15.481527245596666	5.724267450246665	14	0.03170070015529775	-0.03226300088881414	0.07109337609688252
Si	1.4831015907446146	5.944391721321181	6.365162820389469	14	-0.09206356819854228	-0.15500191244097913	0.1353931206063378
Si	15.390200264999734	16.270324969453767	11.098674150839038	14	-0.08688381942057194	0.11098561780217206	-0.021595484915519762
Si	5.3631941128109295	13.09170380242328	3.1418346519961697	14	-0.003133663164196479	0.13335269142426825	0.05103284105749117
Si	16.745045010350132	6.041187412990356	8.464126299107383	14	0.012922118228532231	0.042308566485164706	-0.007631297700731513
Si	16.51932350772623	9.730507763723324	13.478154990999327	14	0.02740952537597061	0.0283122404538746	-0.036728496608847326
Si	10.021547327307111	3.4646995106569	11.908643151757682	14	0.13132486065826746	0.12193158448163847	-0.11697783586130918
Si	14.340001776825945	13.075268010634904	5.291067761959356	14	0.7246938024211936	-0.7135282633473865	-0.4004216285650737
Si	13.369927567658197	6.509899945429535	2.9459859218157063	14	-0.01515049520950457	-0.0008124692811667931	0.13141844889192084
Si	4.422786713783503	12.241270623585944	16.233375332275386	14	0.26482153398046404	0.11497725881170194	0.10793525845034838
Si	1.526328958921866	10.595340179095862	4.213356005486588	14	-0.34463481377062877	0.001736010312163983	0.42024639324660745
Si	16.417309555145398	7.3494616100593815	5.274177205405707	14	0.043624201077484465	0.1172388030513042	0.016389253752751912
Si	4.726366910079204	1.9859709115319701	3.6507707983840074	14	0.04136702771692647	0.10773265535112071	0.02826441789491985
Si	11.20049532270416	6.592288162071385	6.007358516628734	14	0.021824056178480926	0.029419101294198353	0.052339219670658396
Si	13.300078336029834	9.411241478422575	5.856643541703131	14	-0.01070171167405235	0.03437516390931579	0.040526276277238045
Si	10.744048257339935	6.965175497213654	13.054909048896839	14	-0.01921489849959465	0.04224377463109697	0.02983356347180622
Si	8.860977760141395	0.7427939838338944	13.844403749187675	14	0.03436642215122728	0.011370456167822864	0.007899206875090945
Si	7.556728890324402	4.747763921824955	5.476740306667638	14	-0.02818291385627115	0.08212341792031778	-0.20270980009845477
Si	14.362440133976234	14.456625871340368	1.7313685509164223	14	-0.028411999340296347	-0.03610243246339127	0.0053936647406066405
Si	12.346057652615885	0.30446171495302204	12.423697202397173	14	0.043876683619923015	0.035263480797426944	-0.0073464192312591055
Si	10.173114162318386	16.084123513551095	12.303003292773248	14	0.01382149086952003	-0.06550944956258492	0.00043683079389315865
Si	13.593406552725806	3.525618216822303	11.180836632796677	14	-1.3295702402655067	0.47486592622570517	0.370996356618107
Si	15.98870035466986	8.230952256507658	8.848814450368785	14	-0.04058078371002519	-0.021304692903811012	0.003923506718545969
Si	9.97750270071111	13.815232896273244	12.716923261790802	14	-0.03824184920028648	0.10668801525954455	0.036841625242933836
Si	12.127976527588245	7.972177923480263	4.34309742716164	14	0.013935390835202587	-0.01050605055918908	-0.026474414371032755
Si	9.941241801474334	3.477040771859401	16.031181315460632	14	0.00694121303280377	-0.023997154395070077	0.02819628360393592
Si	9.724801784077895	6.871470887789591	0.2043953419104201	14	0.04572890789255769	0.0010394978809358682	0.005919969999640952
Si	16.385655620704643	9.394716710919253	15.761006557031354	14	-0.006299208034362794	0.15399043960803283	0.07850381585061332
Si	9.149987359265706	11.774914299894373	9.369876009465461	14	-0.020677086095162868	0.06961061965875312	0.04694812603537191
Si	2.437839022973396	6.313695312389292	13.696244354519092	14	-0.16952145840491933	0.008858743380570206	0.1913270026250952
Si	10.406629278492064	2.2679613153662057	9.893008725482236	14	-0.08619887696328449	0.17913944918652927	0.011647878431866843
Si	12.478214600181838	15.76055838305978	2.4509135099749777	14	0.14724977279020063	0.07096173550449093	-0.011581029693542992
Si	1.9138017205213502	1.049204926023573	14.251006289500246	14	-0.004465238609501169	0.07069434055119553	0.16768286099048144
Si	6.195548744530264	12.895375592001171	0.9540322173029241	14	0.05487355818472836	-0.009753488031981738	0.016219817912154155
Si	9.856355674020337	0.663050323164009	4.616753772362731	14	-0.04205891215857832	0.007517397735048954	0.046549347600216937
Si	12.091529438429458	10.789137524737326	11.691921377930585	14	0.0558726897121379	0.06040220595464278	8.613202822496065e-05
Si	9.068449355011104	11.30205451051972	15.508279277223341	14	0.005053250396219035	-0.04080909786245434	0.009711321904731311
Si	1.1670334880865971	-0.0830209328370114	6.041427976960391	14	-0.005087446096977004	-0.03449060653819044	-0.0070083188816596345
Si	5.579189251632645	2.135979023833291	13.740786586039412	14	0.24474711497234386	0.5894338650704396	0.03594585214939425
Si	13.219413611940428	1.4825693841533718	3.0062702640875223	14	-0.03279856212700098	0.01658465775708317	0.024756658906641825
Si	1.184467785120464	6.846434110223235	11.79232223375344	14	0.06633528859141648	0.009172675340160287	-0.029122138629721246
Si	4.2507472258428445	16.096202790704037	9.088487015556314	14	0.1277350834102767	-0.023685793540800148	-0.08368382173911565
Si	0.9358597513747021	9.805634573406639	9.722107797153184	14	-0.03468703898464975	0.026843367984474002	-0.024007953037414702
Si	6.783828160870735	4.742591796469195	9.28330428652279	14	0.23769945817928595	-0.10022348515309622	0.10240609645936992
Si	10.587671790626377	1.3316533900199312	15.432099588246516	14	0.04212756067062627	0.09464110128199073	-0.037004633320231226
Si	0.38059362067552654	5.792696365832763	0.6343853136660238	14	-0.03577513075613642	0.0037676977361449948	-0.024573853318379295
Si	1.423501043319132	3.802367291966932	5.286429490893263	14	0.04174677997271234	0.06784169919849124	0.036065408546781134
Si	14.622278880186114	2.46223978894774	15.274175932711975	14	0.003742758014539559	-0.01802010585732184	0.039452325585012195
Si	10.63912776473758	7.637861560766478	8.030157135655644	14	0.056785946321854505	0.010445372473633585	-0.055019339856380765
Si	3.689974487007653	9.628727784318826	4.632687016131514	14	-0.006824227740737031	-0.14207902288085084	0.49564817052846216
Si	7.227411644631763	1.685775087801014	7.823250701345677	14	-0.014187359156577099	0.04609709017440289	-0.06974303158274074
Si	5.996862677662121	8.126333292717057	1.1592036251714721	14	0.06914499248527431	0.1999512612004679	0.31608706006942855
Si	8.982170922388066	11.440508961465643	5.479800082642678	14	-0.013868284986346725	0.4173603275247412	0.2754008610412773
Si	16.123765489955762	3.8944242029660945	1.87252852267603	14	0.020784815408077074	-0.009929351635879867	0.004134594465330126
Si	15.55707751377518	7.802120616744759	12.428689728624619	14	0.009300459274571645	-0.012973797445467207	0.07751985384459265
Si	1.2272914671836148	5.059531531593984	10.331467867141827	14	0.06947769351370146	0.07617490865162317	0.0005281050327584154
Si	7.830332509175897	6.3421329395046415	10.567477598730804	14	0.026601684084380087	-0.0267582643983771	-0.0021661562322247566
Si	13.575482889259746	14.674159960490941	12.588158925281716	14	0.12956185374024193	-0.823756433522243	0.0552908485781884
Si	3.0741735638760765	10.745511413541248	1.2801776435276302	14	-0.06665230587739074	0.16533004251201394	-0.8450194745198677
Si	2.6207928652805923	2.768774308519286	15.802409923052242	14	-0.030752733623759156	-0.011283809918533875	-0.03478037010777112
Si	7.166618163546653	14.506397897661323	3.7050739953734366	14	-0.03391622160966935	-0.10427863246403378	-0.07980016715303197
Si	14.071833915078196	1.6975874378091222	6.802096193307602	14	-0.18769531636038603	0.17197326443821254	-0.2831805115189814
Si	14.068017845526128	15.857891224415475	7.431632330509145	14	0.5797603384139145	0.2562312139953173	0.9029377356247155
Si	10.792543317381593	9.343573799508782	13.081291996076338	14	-0.027753796378338438	0.0101365827246838	0.003917593176309628
Si	3.758449538149647	11.723501165942217	12.69749689736123	14	0.036017071766762346	0.1618567363350259	0.04159199943243943
Si	9.480568389650243	15.135713243273928	8.30374757291974	14	-0.056219274709293866	0.0055276193277863555	0.0023821290791171956
Si	2.352585458770645	0.8205076800443029	9.9521182587771	14	-0.09273308402390883	0.005205974052235831	0.16417330222847934
Si	1.2041413043137699	2.2096871651727676	7.008427580867279	14	0.0360718363100815	-0.09419501450894503	-0.060907685260583884
Si	15.329820356219274	7.328174994108098	16.13303544129425	14	0.05004476528295826	-0.04279707649599283	0.02197883671875384
Si	14.881969333537754	9.649129586215938	2.638118414218416	14	0.04385585766682981	0.008975471562104927	0.02272060060361656
Si	3.658107999470087	9.310099158308514	6.961507720519827	14	0.023397829744943564	0.5351220933981635	-0.2843778752665743
Si	16.09228621154805	0.6267004482122902	14.939648664599803	14	-0.0684641637964991	-0.08968066778782903	-0.06956819642097069
Si	4.081693367448104	14.195192153055183	7.658980111478422	14	-0.035460941686014325	-0.0827420258603454	-0.05012395532681881
Si	12.657136524443304	14.507686397829595	6.055916189210537	14	-3.1524579440867613	0.09835814824332878	-0.9010546580882389
Si	5.832873844225524	9.879196069586301	7.539624132975516	14	-0.08561189361869469	-0.04882529002961202	0.0711797652356395
Si	7.900338272154623	6.737158750683867	1.7322813758438167	14	-0.21999122739729804	-0.32343733595866786	-0.5492767995171748
Si	12.410662260157789	5.677841899426683	14.117430673590455	14	0.007260287203034145	0.0051596941564731645	-0.016079178451142057
Si	6.268077133797511	13.591337043504133	7.063005943493667	14	0.04591094214922417	0.11932011280796409	0.042139387755098956
Si	12.511626628841961	1.5092258492714041	10.392894064422098	14	0.41079732408453123	-0.18062709072476696	-0.041529264462627814
Si	10.405075498877384	11.461744498765754	7.423296624177575	14	-0.0034080001018562786	-0.008604718174939576	-0.08516400707192488
Si	15.605491836594018	15.43843004559498	13.36227565617296	14	0.05647484257811659	0.1970001465140019	0.03147110045020854
Si	16.143053447717644	15.591015158232846	0.5720957224111041	14	0.048443995110634054	0.017824701852990586	0.09621127530100515
Si	4.959041700056183	0.8362217799225742	1.6113040620908088	14	0.024270720001133835	-0.14721249176305848	-0.08503416625325741
Si	10.808400767022832	12.560612703014238	10.91444828534782	14	-0.031998177040838884	-0.026626109584921495	-0.01818054282929908
Si	5.576987926536979	8.719687620206221	15.225372753064862	14	-0.6904345953618166	2.1410419325680823	-0.3756793678482247
Si	5.316378057464246	16.334109023180073	13.21365984904068	14	0.4510510631978336	-0.3338287152205784	-0.7576090927297294
Si	1.532458397062494	2.509049253500724	1.5555607766780168	14	0.0041011700961682005	-0.00026173852159107444	0.01529704821275301
Si	3.244665862995754	15.610558509250586	1.7073731187546033	14	-0.00588885962526716	0.02340554306090401	0.02215752853850413
Si	4.551012252907646	5.485230896651148	13.169616870143102	14	-0.33932805238984304	0.22149815222543684	-0.578954296896048
Si	11.412188320938462	5.273979481594719	16.23791309373756	14	-0.021159425453222646	-0.0385478107333841	0.005574413444613051
Si	4.8800477421696264	1.4662110341909649	7.563461386088544	14	0.046471700219548474	0.03234244804320672	-0.08217638268991283
Si	0.694964593955897	15.559506221253482	9.67151851241348	14	0.016619624789437182	-0.0073081097619889	-0.19232047772080044
Si	15.470130115591633	2.2356548923491917	10.634957440024158	14	7.259729787400738	-12.147125378511916	4.812363795884893
Si	15.710862150866372	14.17987020540204	3.7538672888300004	14	0.0883830309327503	-0.012674777896733986	-0.0978999772752784
Si	5.281114015774535	11.088789607988064	14.396857258675544	14	0.013446880824374454	-0.12012821121008661	0.07167418878870396
Si	2.4658696685777945	13.724706697110815	12.706364810284043	14	-0.013153774817877571	-0.1420509978328612	-0.13510104304196893
Si	16.948631332333925	10.9188871849045	6.451175973566099	14	0.029525802164984495	-0.09464032995039466	-0.1261620811754101
Si	12.606369288273712	13.576904853000434	9.71046845547969	14	-0.04390213756259248	-0.05416341889530346	-0.5139444130971679
Si	14.4861872287815	12.058005366276442	9.260829680007154	14	0.00793751634436115	-0.02749540029366356	0.029100541345032
Si	9.94667096778438	5.7002308256242245	11.252373107612136	14	0.015289077786260551	-0.010611980098379182	0.034028578912159824
Si	1.0850555483525472	11.996035428515953	1.1043319722254525	14	-0.19392690432482895	0.12938007659410747	0.4028276689236682
Si	1.2426150625351848	12.800458276536382	3.256407361971591	14	0.07189941761474894	0.05682708400697688	0.07107820657549364
Si	13.450037017378408	15.82983915873155	9.720633107062898	14	-0.2300558191730177	0.7014612947483356	-0.9150509841195291
Si	4.774374251387091	5.91705640445209	-0.819118670272112	14	0.0957034820002759	0.6838042289622187	1.464886999043836
Si	12.488715382243727	4.706118344135607	1.7675272928508527	14	0.03426846303852964	-0.026387768121743767	-0.10816768637128976
Si	15.62332158124986	12.72732353424877	7.203281101199103	14	0.16360611639485464	-0.0574006976039019	0.0766251091931811
Si	13.666656633903163	8.049364356194705	1.287200134214554	14	-0.022542937225994326	0.05378289530792154	-0.08896435784563576
Si	11.056949483625298	9.446627449795729	2.7650636916664117	14	0.21112888446927966	0.03700540465182727	-0.051546033679392714
Si	9.381721313442068	0.21139311712097042	10.066610231529701	14	0.15343893751686108	-0.16569153992002675	0.0019018466053135341
Si	3.327986676946097	14.373868570251341	16.101872520984116	14	0.055295476567764665	-0.07711104809868909	0.17266077800082014
Si	4.058454228863314	6.67013202645736	1.4157436791347027	14	-0.006966666975473235	0.21308523850738034	0.21770320077289831
Si	16.918397713935434	13.549505275892772	13.905352113924724	14	0.031398338169648335	0.03378946611738605	-0.06669781444155737
Si	13.615381906618698	11.107795809319287	4.2304525243433515	14	-0.17378949323636514	-0.0990528609008328	0.02002531089650533
Si	13.63354448635637	12.331566144968889	0.7862372005048077	14	-0.01380914956398332	-0.0008055272968023931	-0.02507419041368011
Si	8.502886756854728	9.737821897031454	12.545794951079111	14	-0.010659031325737891	-0.08680360093458332	-0.06755013585518646
Si	16.485118936123733	-0.031807170394269606	4.108867209871556	14	0.053496731285789065	0.023624858344712635	0.019678725899349367
Si	14.760122035016398	5.777002038335589	4.635771507582927	14	0.008039332115039015	-0.013292614505165569	0.01881586295390767
Si	2.133560202545538	10.706554879681336	7.976898579467601	14	-0.04960176383629674	-0.04562786345347587	0.04801642029589344
Si	11.90906331485603	9.6542753483969	7.80886958949315	14	0.02515183779434858	-0.007206808212375065	0.03083295210974778
Si	7.067945743371517	16.12764252434955	1.9657750719379707	14	-0.000456371194326284	-0.04932562712491284	0.011304121650563045
Si	11.141450049647867	10.159568433567284	15.29783688209354	14	0.024251693821764744	0.10251819665132839	0.05928506069303844
Si	6.337282115341736	4.345110914636868	16.260463494380744	14	0.07357757805720959	-0.3297375724351587	0.09726182893481766
Si	4.806543915434838	0.47478265343651016	5.456831166599572	14	-0.012783021430712218	-0.0899128385982384	0.02244086434478445
Si	8.994022817158372	9.670389838992422	3.826023298253221	14	0.39817371118366823	1.1393506127017994	0.6843529028375384
Si	5.8460438977357505	10.049573029816235	9.840992533906569	14	0.12655494606832873	0.0786771083491913	-0.0053031618333374275
Si	14.049883276661678	2.9592877911999236	1.2297646625193899	14	0.03790940528239134	0.037589045559500885	0.004587366112208203
Si	6.979889444148011	9.868100468393024	2.549752347691029	14	-0.3984914998012385	0.30281604284895225	-0.15875804020318343
Si	7.764070317018543	13.596347694414254	8.892626751486876	14	-0.009424643661534797	0.12280678873261688	-0.15889842255366352
Si	3.2548222760868377	14.09922031059846	3.540956641459697	14	-0.02335257829130896	0.013382860301902765	0.02765326616032065
Si	2.486661975001608	8.58321040737018	10.985371816349215	14	-0.06734033366106236	-0.0033370375950201917	-0.0022039514804309333
Si	2.4070814364757878	9.803860002203022	12.934666608641336	14	0.06277507905460744	-0.006465558548576375	-0.04890062341549236
Si	1.4208416580613432	4.7537187039325435	15.160392470282082	14	0.0819570674061042	0.023211938830296857	0.07117719413031935
Si	7.2188732713939325	8.086599045200593	13.664918312064891	14	0.30144307260799313	0.34057632402277505	-0.30440138638935554
Si	7.227637379315975	4.476826279024948	1.9272106903031865	14	0.008133948790820463	-0.0246676986625647	0.07137722612422685
Si	13.217897729389522	5.271529354036892	6.3152688643850725	14	-0.0038116636371195267	-0.08745974701228511	-0.017553450241714966
Si	8.874485591828726	6.632727624513705	14.473855853769546	14	-0.0186531119871423	0.002465175780957978	-0.015160008299189117
Si	15.545505727737108	10.955316149380614	0.8520380371031893	14	-0.032976225504623216	-0.11373155828409019	-0.03497011768039805
Si	4.700797925921606	8.032997767740172	10.342846872464186	14	-0.14099890153585665	0.22822082130602803	0.3288675103948206
Si	16.975078539751998	3.417693969991353	11.936261872755855	14	0.041711555829826316	0.29554495700357347	0.1075066551934797
Si	6.017524815910367	6.984394251641687	12.004957715486785	14	0.3517333784490256	-0.036153854569794225	0.16949266202533367
Si	7.516317438755305	11.453349475290889	13.782801248175938	14	-0.10658208572035444	0.17915616137111023	0.0553726097273691
Si	11.210007485711108	5.719721450292366	9.279216346730614	14	-0.09394561729289065	-0.12424892170668794	0.010677543284042957
Si	2.819642054292799	3.35718554073375	3.4219532704197193	14	0.015016797732856869	-0.02048245342242766	-0.05455139868811381
Si	8.497942013881605	7.4215846655141045	3.9132129081052294	14	0.07635822846094974	-1.2837150911017297	1.27149771284145
Si	7.935702823448252	2.8403091356363195	13.032844719289002	14	0.16037603678115264	-0.15251745337012002	0.1414948677521132
Si	3.223756569983773	15.210716475575376	5.674230144479302	14	0.018414770523964574	0.022761224067674897	0.009140279413126421
Si	13.43831199538682	12.259545246816511	13.019682904270901	14	-0.15781521588228511	0.06374104332338708	0.36486632731380997
Si	4.97620412684994	6.307195142103063	8.673476270181476	14	1.5357199221717874	-1.6613359005771982	0.854852409706242
Si	6.6899884401758305	6.960064336699614	5.302712046728125	14	-0.3385693192098674	0.022757367409694675	0.04116442461769881
Si	8.105992455661667	3.8346358179201734	7.576494680629502	14	0.050199802933763187	-0.007056398551146402	0.09264772332727991
Si	16.393997917829914	11.892151338222858	10.668501284558271	14	0.027999594046944597	0.028493503378945042	0.014660185424952333
Si	14.710465347585187	6.279545114834815	14.077200468848096	14	0.027912433576591577	0.032611642770226226	0.009583795080851965
Si	0.4865505155871459	8.633318564169812	3.3055713875737576	14	0.00010592953919010086	-0.0064771285225170405	0.0027690804297994813
Si	12.214180813782164	3.129621911270811	6.46442511660072	14	-0.012668864354497643	-0.008309555284186577	-0.02107997829883007
Si	5.676873052752842	15.868466152906484	10.915109012416204	14	0.04237592944455258	0.254976771709617	-0.6215251161238678
Si	8.03467842013357	11.45777848865702	1.2205227220541257	14	0.06028547777310806	0.047684747709594334	-0.024493120611326642
Si	8.961454410091799	0.901867732869015	2.4200059829207032	14	0.04870753340594924	-0.04096567817645136	-0.00023294214200541595
Si	15.514047869408916	9.016765998517267	6.670758151858823	14	-0.008574893353225858	-0.02497957373789866	0.020233827537969335
Si	16.297060524096196	15.037182525163335	7.610092899211638	14	0.09505376368587448	0.06361583049429585	0.008462278940203374
Si	2.4044846637581454	2.0073382647060733	12.10533715123012	14	-0.1731739706227217	-0.353043099499109	-0.1121860668761492
Si	6.682750100995245	7.738998937785265	7.47825725283854	14	-0.08347890464509986	0.12711930368610125	-0.09615805342087809
Si	15.7177989612352	11.812290690964804	12.902846256659668	14	-0.04574022075596634	0.004043577336996883	-0.011149083999758115
Si	4.973368437860688	2.4028106021584468	16.039451113855204	14	-0.027941229956177236	-0.054194786380209276	0.2659445927843047
Si	14.935227889725796	1.690770909425311	4.569314887011435	14	0.016514723692375142	-0.02145150301759147	-0.05485993132653157
Si	11.367039736397777	8.525234490591648	0.6445549083445066	14	-0.04096079307634307	0.001279639117837699	-0.052908205278007166
Si	15.598309519159878	2.7277350838503023	8.259782035848133	14	0.2803193855187206	-0.08403194939946369	-0.683844338205213
Si	6.583009972240773	3.105975791175071	11.009153047715797	14	0.2831195763228938	-0.25031741464844465	0.04612665788558459
Si	11.471200640026256	2.339718581770601	4.39795919391711	14	0.02043874463198514	0.009513089684547891	-0.010860091761773471
Si	1.7808654116004181	7.421352340036194	1.6356438632234318	14	-0.011954611296560507	-0.015503507969960901	0.009175760666544465
Si	12.505904172212283	12.143356144686262	15.184719089827304	14	0.011647878431866843	-0.15723825984844392	-0.09957222417550271
Si	12.06426991568791	11.558329285036542	2.450155568699523	14	0.026497811429446103	0.024225982768563258	0.04059261079449787
Si	3.323887203264946	15.506972652372395	14.067352175362467	14	-0.7170869302210036	-0.15474711590375245	0.17961201834437251
Si	6.056708732152915	3.933817376908604	3.8486181867538747	14	-0.029625561051406242	-0.08145133098963107	0.043484847169132444
Si	10.435307469577449	13.206981727324559	14.962236962306756	14	0.10255573478900254	-0.056208218956417234	-0.06456868212594273
Si	7.3548759470836025	14.740122271534961	0.1291696703216106	14	-0.008442224318706218	0.011801116308947666	0.024791111717931805
Si	9.921723165932969	12.63875480081512	2.093878681378671	14	-0.004071602384986498	0.02865625434571041	-0.09305472929945935
Si	2.0194208372558653	9.0705996014556	0.0295201649805084	14	-0.006207419574433507	-0.4015832539487166	0.09218595281178131
Si	14.289396015101993	7.8745501441065135	10.407060975479387	14	0.06198215017387376	0.03817474335143062	-0.03242266652919533
Si	9.081311288915874	3.1348236951982202	1.7979784074414296	14	0.021286695166569974	0.006701328906433953	-0.03280010479019307
Si	15.899668617978815	3.8117641160841367	4.18160979993404	14	0.016597256173151893	-0.031111659926451832	0.018088240148305765
Si	3.001485347861613	2.6099493619463257	8.4868579465773	14	0.22207665092247017	-0.03242138097653526	0.07285843989916417
Si	9.669467127874478	14.309606683981816	0.4253780638643085	14	-0.010876546835822419	-0.025162379326161187	0.00011312863408651548
Si	12.596323270977095	1.7116044083097466	14.275935966668984	14	0.0033524642269410804	0.04241012514531055	-0.06150443880539026
Si	3.4731736236561606	4.518246122030085	9.841313835099426	14	-0.11678937384134233	0.11463813001997443	-0.060547730515763155
Si	6.477840677176256	13.699602363909037	10.848830343274603	14	-0.05648281300460904	-0.17547125322627402	0.21627855131500423
Si	6.680436732406685	11.48512698711351	6.061574385601644	14	-0.028387316729222928	-0.04431248597168811	-0.06263058293561512
Si	11.318506779292347	13.633757039453183	7.7365356286400395	14	-0.8273189570538403	-0.050140924621931794	0.3763915640219057
Si	1.0792226959284013	0.2482125861237858	1.918931005718064	14	-0.016118516362540324	-0.03244374959282055	0.014565568749170883
Si	9.312349914356927	13.478398850366212	4.144841409582397	14	-0.18834297779053133	0.031038640535359627	0.046050810278640227
Si	3.2486252823107886	8.35696823204401	14.591338399163341	14	0.3875321633741074	0.09345787861365858	0.1535924325044739
Si	3.122744418045279	12.579557939503738	9.00749604717878	14	0.04573430721373	0.07027576460507544	-0.014207927999138283
Si	13.437221219029535	5.571926196975687	9.956291878887372	14	0.12000068438620727	0.09458839362292767	0.05414953492657467
Si	4.40101237909845	7.234849355321762	4.695762559535111	14	0.2825441629522447	0.12056812733036394	-0.26277313437190203
Si	4.80610727535224	11.992609863490586	10.598286263879583	14	-0.09433976773846936	0.005471312121275112	0.030793614198349514
Si	8.52461989907916	0.1766958836894262	6.537545029602508	14	-0.014546542569801788	-0.05063586239606029	-0.010750305564603149
Si	10.593926453847297	-0.0880628900172054	0.9758279720675013	14	-0.06219503769438204	-0.03177860464649824	0.048235992690234084
Si	14.72385619268435	4.958530913544464	8.123196074916049	14	-0.0076171566214706995	0.042400612055626	-0.1166168526743604
Si	7.208594928619406	1.0085792736592387	10.073145003482853	14	0.10443495566749879	0.19313166144930713	-0.18012392541361397
Si	4.2121482425411365	5.307829798035864	3.3059025749571624	14	-0.07090825651383184	-0.12506730453009107	0.03841077081982021
Si	13.237482272867883	9.989618227229398	9.770785751720004	14	-0.05867468029003529	0.018204711219308473	0.016481813544277246
Si	8.4749796886322	7.941845443176279	8.930510633672176	14	-0.07268566162165023	-0.05273902654794142	0.10331241108472214
Si	15.911560057511316	4.174320382102283	14.038929377532943	14	-0.09248805768689872	0.08594305198392976	0.03253605227381386
Si	7.681789200774312	13.582762420900952	12.86721642591963	14	0.01700554769799141	-0.027988538294067958	-0.06845439359628253
Si	3.533049336718602	6.947207345890119	6.866344897989728	14	-0.8043623289818339	-0.2839623846468384	-2.064403453627236
Si	10.479867825780444	3.7517664733382525	8.070425237461775	14	0.03411522516144882	0.06343842422720564	0.02328752932670921
Si	8.128389620351332	9.861480016121774	10.236394020326673	14	-0.028158231245197732	0.012832386652859063	0.038885911082983574
Si	9.645392606188263	5.514952080839494	4.644117100105046	14	0.21633768673736764	-0.1286462831357372	-0.13690827297150102
Si	4.406490976361241	3.4208064723159888	11.97548203836375	14	-0.4795661638614679	-0.6380213278579379	-0.8638255672735587
Si	11.138726404151509	15.102790581046001	4.366514517176318	14	-0.8434667840170302	-0.23522245531385527	-0.3787986328226283
Si	5.547210720602187	10.967288326135938	4.058299345211374	14	0.2793055986909862	0.03766617871910533	0.29436713365641365
H	3.6630247315699886	10.398438569621886	2.7367529373297796	1	-0.41127477834248277	0.19713307265905358	-1.2043671813745116
H	13.965033398573029	14.583968244108766	10.960812871326082	1	0.1801902599308738	-0.5292949403005799	1.468500430460772
H	5.92725895309907	7.100687158772704	-1.048791353718923	1	0.07501096927319215	-1.9489582536472674	-0.041991549199190445
H	4.762993598366306	4.730374112648561	14.601155386378897	1	0.1273008237217037	-0.8241176738197238	-0.6917684848019094
H	3.8455913647473334	7.285804429111795	8.292047266404525	1	-1.138999399715067	1.3112452013172153	1.2890771312468985
H	14.94497402590908	3.1635727373158753	10.239289026459222	1	-6.48732578332728	11.757094100766624	-5.0292851235299345
H	4.304435831319786	1.9630003477904392	11.132236120055827	1	0.07572547944166129	-0.0005939253289542062	-0.08129757889148621
H	8.65010037262742	8.50411429218128	2.7896374659753698	1	-0.0699399782502641	-0.3296792083443914	-1.4808314515762022
H	5.070829799693523	16.651277788385922	14.77929630158696	1	-0.20315922930841665	0.12706325359012205	0.6180669794682687
H	5.101935050558785	14.793008447878979	12.776479321358812	1	-0.18534866853468687	-0.3540717987377003	0.4442965124112726
H	13.607270287272916	14.135303258405344	7.11304984005473	1	1.8575953116484656	-0.09511598443462206	1.2752160453554482
H	13.50511463262754	15.061291648516471	4.99129869212045	1	1.4889725994619192	0.777519218107892	-0.5762574645257448
