231
config_type=amorph dft_energy=-23326.853472837236 dft_virial="21.989384629726974 -4.702768356817298 5.276967072782953 -4.702768356817297 52.77775803368819 -0.7440321389977496 5.276967072782953 -0.7440321389977496 46.041032253415096" pbc="T T T" Lattice="16.48769933091906 -0.024897745570203002 0.16752390396904804 -0.024732859837950004 16.391076291818802 -0.013702004350224301 0.16656756672198061 -0.0139658215218291 16.29798180738876" Properties=species:S:1:pos:R:3:Z:I:1:dft_force:R:3
Si	8.400266866504015	4.142496801114311	14.63192030755548	14	-0.05368287931096778	0.34230462101897857	0.315538386194109
Si	7.5372434018905565	15.129835646383802	14.037919457114048	14	-0.07868662143887584	-0.07069125522481136	-0.10291877486020745
Si	12.40590521213369	3.345002224212838	12.847988593163823	14	-0.13131971844762716	-0.08644158930550648	0.05886519919425825
Si	10.892951656698582	3.8754132431535786	3.0715887029909137	14	-0.04563686232209639	-0.031706613697534095	-0.22136574030144923
Si	1.8441364418091957	13.370933586148148	10.211525093301963	14	0.011711127622742486	-0.12519380291184234	0.1692689758624808
Si	1.3910139610047263	13.56213837898337	15.766095061144354	14	-0.001386854209687874	0.03898746974312942	0.0008443509871366291
Si	7.059764000717674	15.202474406870536	5.495371043391596	14	-0.1141676177463873	-0.0637729250293569	0.0622431173638688
Si	1.7618749499881738	5.76299707541144	6.147616129894078	14	-0.5766495580870672	0.21841102606753507	-0.29973174490690263
Si	15.573780587331067	15.961684165600186	10.891245089369763	14	0.1066875010384805	-0.9253503178109782	3.002190722092835
Si	5.582475229168888	12.875526159307396	3.024497337859457	14	-0.44341153796007765	1.3787243746655657	0.6865553116547772
Si	17.016355965668627	5.7689478014884505	8.29525114363208	14	0.07012304094905863	0.08044371481466504	-0.02125327079740805
Si	16.79468523608502	9.446503112510397	13.224676643925092	14	0.004265463726125663	0.004481950794082132	-0.02817468631924668
Si	10.307973353526034	3.204689412637503	11.750223906971057	14	0.25784612524690226	0.17046788227326581	0.06490421137022206
Si	14.649741157497385	12.842687516871889	5.101548067334595	14	0.06890690813262859	-0.06989266991237338	-0.07328344360858464
Si	13.606502534103365	6.280713541826022	2.8273995289535105	14	-0.010228628295145103	0.025984361697012532	0.03415224907805895
Si	4.866829929757804	12.157326779903714	15.875925447398076	14	-0.1915010664552692	-0.1687830369569728	-0.11859351844449023
Si	1.7127488949207152	10.410594935565657	4.068169610729303	14	-0.007621270389982935	0.3181385450043747	0.2589187903864681
Si	16.698494197603264	7.101677953856386	5.134078373450789	14	-0.040960278855279045	-0.47167389897074136	0.2763472849096238
Si	5.320984595246177	1.81429047541408	3.511604416938592	14	-0.0334117707458563	0.0442705769549697	-0.039663927552860384
Si	11.472186989816759	6.404488314456382	5.8661380475076585	14	0.20551101934475607	0.24891333403311175	0.2338481995202361
Si	13.591392405599699	9.196984831606576	5.698703181834028	14	-0.10627509574512876	-0.0009639073845235149	0.06778102111293575
Si	10.984799604992793	6.7025984206551605	12.898865734707808	14	-0.036512523761954886	-0.010021911427405198	0.0829001488375345
Si	9.175117685795184	0.47976966399387666	13.704797514528666	14	0.15564623143420822	-0.1438757112785703	0.15973557444590372
Si	7.9260093325393575	4.539323995212961	5.239057821461629	14	-0.07232802087161762	-0.07548019599411916	-0.10438790444014007
Si	14.682250028468387	14.24111474039871	1.5283918065459583	14	0.015069762502451919	-0.04419575779015339	-0.017258801572025997
Si	12.68570805548042	0.03942912515365989	12.285551818447582	14	-0.06792037502128777	-0.4302765322110371	-0.15730690836049188
Si	10.431654141289009	15.868461070298984	12.012412007541199	14	-0.05750174204298373	-0.04145110286089532	-0.015912570826396463
Si	13.91703348251276	3.279371107346854	11.050058080103886	14	0.12000017016514324	0.2707440750854251	0.045008484181852194
Si	16.262082885762634	7.959129929577018	8.688554729632484	14	0.07294431481685712	-0.09165039157359448	0.11643404708609785
Si	10.371055336971386	13.585034411764024	12.38584356509047	14	-0.03948857817002629	0.09458145163856327	0.013893481818484174
Si	12.391372183692914	7.78256039433657	4.211115647448719	14	0.04710136391245273	-0.00890759438165302	-0.084401674344501
Si	10.00472540791025	3.1882107325561377	16.03521330904109	14	0.09215741354272768	0.035474568544211105	0.015081589586924602
Si	9.83699704563321	6.6991028431313975	0.1373877386851672	14	-0.05859960401468696	-0.0222750280516349	-0.004274205484214167
Si	16.66616834979506	9.08549569488639	15.492289111879666	14	-0.051009958220141836	-0.08318245620168678	-0.005699626273704262
Si	9.421859290967864	11.49896773044929	9.093312927452503	14	-0.0037499571094359732	0.009609506134053444	0.013553581695160598
Si	2.6723756123465625	6.035652122265001	13.353505164249006	14	-0.05017280632790163	-0.13252145307426438	0.05283492877638295
Si	10.737695251209157	2.036701541935507	9.733081110595402	14	-0.18276290791421396	0.013773668310565274	-0.19037389388291628
Si	12.798219483740576	15.557625083284918	2.2009409221180753	14	0.04243455064585196	-0.08654880439735665	0.024876986635624754
Si	2.246939094844694	0.8621479213751962	14.002294245803464	14	0.0063794265203514135	-0.0033576064375813765	0.1491125385946479
Si	6.558775191840159	12.535101427640528	0.9145337673692969	14	-1.2000649508423078	2.4999242693597794	-3.1815785400532905
Si	10.229187652940906	0.32696181162840887	4.518271384918898	14	-0.03320068299907215	0.03601090111399399	-0.02097302031751191
Si	12.332293625826663	10.518337868449056	11.498674233845879	14	0.014290460479915038	0.055741306230278335	0.008591862648338836
Si	9.360790562313321	10.873155475684287	15.939551553759864	14	-0.22583149313201442	0.624255115752801	-0.4069527502993139
Si	1.4905406378499597	-0.23146164436479383	5.892684650400391	14	-0.05006044902541116	0.017130503416550605	-0.06939438970132866
Si	5.890654907036358	1.8597692580841025	13.500881680594059	14	-0.03327781615867659	0.012336677547134514	0.13985887343690295
Si	13.525817349882681	1.3054036399616462	2.9066502073035925	14	-0.015232256358685279	0.03660405511135215	-0.06085446338045683
Si	1.4141589712410798	6.6194828207410685	11.4912181010334	14	-0.036054352793904496	0.05211373373408141	0.03692621460796671
Si	4.56031559778609	15.84953878366563	8.86722161138719	14	-0.06656540251756973	-0.08274433985513353	0.03086714781050575
Si	1.1812990958667806	9.605642576994379	9.498745507917437	14	-0.3642479764843143	-0.21027579172405456	0.18831212452668955
Si	7.092887895469979	4.482369165578129	9.055443621325958	14	0.2151236108051937	-0.11254602162096994	-0.02225008833002946
Si	10.854586044517955	1.1318943839118143	15.313228153224877	14	-0.021883962932440375	-0.08786495321074045	-0.04525608162418246
Si	0.5181022990280542	5.675263026136941	0.43449863734649297	14	-0.003765383741356862	-0.04474880254451724	-0.050522990872505794
Si	1.8106580427325467	3.641699259686209	5.053942258718509	14	0.03889362439894402	0.01103441270247951	-0.03112862922156481
Si	14.926012148459254	2.139987613476108	15.103585837809122	14	0.04615776825995839	-0.018878083702655257	-0.05078550072569292
Si	10.908952168156414	7.414273271633592	7.904313667889507	14	-0.010805327218454315	-0.013126263990951988	-0.0258293240462076
Si	3.827901419404877	9.393444532728704	4.56468177197615	14	-0.5369123540325828	1.1985076323498944	-0.2738029190848053
Si	7.602442518138038	1.4766275797624515	7.646856138977705	14	-0.035040051745106084	0.11444298312617518	-0.18527050693295435
Si	5.855260535750928	7.746575732129675	0.7123030656183149	14	-0.0464860984093413	-0.32355792079818285	-0.18514220877747897
Si	9.243652440406144	11.280475997783519	5.1464810782308605	14	-0.029547656560205755	0.10058369700844896	-0.09214250113187081
Si	16.45398019867332	3.682881120173718	1.7820569636159411	14	0.03654671946271285	0.023347693191200676	0.016709099254578336
Si	15.802402899386465	7.5007442961990325	12.228229293629827	14	0.007856012305712456	-0.015870147588614016	0.028663710551138845
Si	1.5122923636487753	4.822624064940775	10.061831932418754	14	0.024510347016971638	0.03425997839097315	0.009721092104947872
Si	8.095013910384038	6.058356887596239	10.394483950667214	14	-0.019364022608163244	0.058869570073302506	-0.01749817147733178
Si	13.456121799716659	14.372503936144513	13.137048121519234	14	0.18986275814527087	-0.05701014670577142	-0.1338296314611557
Si	3.4202527746984623	10.601263849771057	0.7395224022986402	14	-0.20810629305491357	-0.026314491620119545	-0.05934548166806192
Si	3.0159941806471697	2.6152064312598022	15.524600119971964	14	-0.07645747312630745	-0.30293277103048694	-0.012909776922995518
Si	7.442800152170683	14.243179109766517	3.460732221966574	14	0.27690624320622403	0.13093816641811717	-0.07201743134894374
Si	14.396930108520474	1.4612338477993114	6.666874277905225	14	0.05538752213822597	0.04803673202792261	-0.08721034979623075
Si	14.283671747893209	15.615529654737527	7.188030260694605	14	0.05768146230486208	-0.11551539115520894	-0.40510515401625546
Si	11.044333247480061	9.074974336311325	12.923191326787094	14	-0.09425414993130844	0.039330969413901205	-0.02673358178730368
Si	4.050422959366912	11.501426176717183	12.463875737879201	14	-0.12545142766492118	0.03868022265737173	0.04044811467550555
Si	9.767052518011488	14.852804532196243	8.063819178699093	14	0.007315051746353301	-0.039586280172191915	-0.048034932254198505
Si	2.681023869003232	0.5806236709837467	9.733707676377962	14	-0.034087714334523234	0.11525905195479016	0.17607854830289302
Si	1.537490201251679	2.062582006469938	6.793867620029164	14	-0.009574539101699432	-0.0484133989573243	-0.027432922434383958
Si	15.579279526501704	7.025701906148849	15.873656619722276	14	0.025686113479875355	0.0029315742860328395	0.038501530837621444
Si	15.100731665783822	9.405423481176884	2.4884752574501467	14	-0.5883689132468343	0.3116015097278982	0.031964495561144946
Si	3.9124993420519236	9.035635898310403	6.858591865367757	14	0.30925640456539116	0.5715461711371054	-0.3132457315801329
Si	16.44754800625813	0.32263026344212264	14.788170974010391	14	0.01626069848674451	0.04599450307212899	-0.12337577433996565
Si	4.348073034372706	13.991072122866326	7.4003964884071785	14	0.14260249992403298	-0.019220297820766966	-0.15659316952361876
Si	12.908402725461324	14.233036988375636	5.777345431832096	14	-0.025487624149159924	-0.050665944328306026	0.060633091212392076
Si	6.1214751459026875	9.59717734350051	7.354746224575613	14	-0.06298770946458368	0.08225968650228563	-0.09879549325828597
Si	7.895129532603015	6.723342694629911	1.5602675163051083	14	0.06514229572286777	-0.05691295892466981	0.015850350077648876
Si	12.602762287870549	5.390551534541041	13.998290820224362	14	0.08042314597210384	0.03952585919716844	-0.05085054969029266
Si	6.521623138648913	13.332045286196276	6.825354199460197	14	-0.03331072630677448	0.05757116188662773	0.05164862078166663
Si	12.83786460920349	1.2552932170726367	10.249798369472531	14	-0.7111836724059436	1.6038817239826373	1.508346135159767
Si	10.65878753518216	11.200366264768396	7.1284883739207245	14	0.008194626876375956	-0.015393721772790577	0.08554401643824279
Si	15.71251379359142	15.124480157800223	13.175717123447209	14	-0.11488032814113236	-0.3498220187540275	0.7706548811241607
Si	16.465802505675864	15.398823634552054	0.41614850420405664	14	0.0056271211036760865	-0.049160047942295296	-0.0368948471230609
Si	5.341112196582301	0.5724057660882571	1.5126056465400561	14	0.06033124344780669	-0.17717692449566025	-0.15606017939075206
Si	11.109385615425838	12.28382876254554	10.606464345766318	14	-0.012208636502191138	-0.016631708984441877	0.010620978966999699
Si	5.747850672046679	8.637700672091013	14.808671217101406	14	-0.06192764274108663	-0.0025029710291641547	-0.07164950617763055
Si	5.631548520802026	16.01815423118219	12.95019631201549	14	0.06849938793938512	0.10713770158003844	-0.039732061843844306
Si	1.953858003479632	2.454118017420589	1.4339188773942795	14	-0.0015292934444240773	-0.06071433814050875	-0.045852320947924796
Si	3.4950268054178752	15.4507956173582	1.51846073889236	14	0.0017475802861046494	-0.02860251824451932	0.012383471663961207
Si	4.763207491323406	5.107643892855989	12.910867767158503	14	0.01722820541871623	0.24199063295861312	0.3863024036994805
Si	11.559192244154698	4.941295624157904	16.123748702974336	14	-0.06533949950092313	0.039198814600445595	0.07032692960094639
Si	5.254904989188465	1.2248981811891189	7.43039579853329	14	0.02834797881782466	0.011126972494004841	-0.01309103984806596
Si	0.9116350761962893	15.369843318251267	9.412290971925223	14	0.2566204793407877	-0.18187561946823083	-0.3052807044088462
Si	15.761905314687805	1.9231678221353812	10.47783698603575	14	0.03930551547123174	0.3649100361042525	-0.13792643067827964
Si	16.000612038127798	13.962297913730854	3.561775847548535	14	0.005278993443328035	0.04458116647764359	0.02969472378451822
Si	5.7055442908652045	10.928111890244212	14.112076815194834	14	0.10218241029651705	0.015947023637686446	0.02660425518970023
Si	2.698646856066433	13.495475077433484	12.442704409857916	14	0.06713155990906634	-0.056007415630913666	-0.026070236614705478
Si	17.210345678521605	10.66100854599561	6.356397741787472	14	-0.438885878375553	-0.03773277034689717	-0.3708456898463463
Si	12.894875499987286	13.314120558243053	9.445652302131972	14	-0.20782809945927358	-0.38171555180833633	-0.007279313382403241
Si	14.760867545606615	11.796220430840355	9.06754128750136	14	0.09782901476844233	0.017968940861450896	-0.009192729961657441
Si	10.213206927770946	5.437072395038902	11.09166699463793	14	0.023386516881534914	-0.02899384047424586	-0.01783730026905931
Si	1.3876255592069273	11.836602595526436	1.0022612212145057	14	0.03323410736823407	-0.09139688058902787	-0.02652120848785945
Si	1.5221921030132455	12.633795431537886	3.1383080656897677	14	-0.10285038345869153	0.030219486380360445	-0.045314188604417806
Si	13.696650510498046	15.56557752215148	9.472517134487953	14	0.7070611621356181	-3.432141495259809	0.7473452402916981
Si	4.481325438892968	4.822464125780489	-0.9602895580695044	14	-0.04957528145149922	0.3721209580851398	-0.30253167860054386
Si	12.682125088518562	4.469892262218545	1.6813942240754847	14	0.2651197821976012	0.11278230619989152	-0.03904557672336477
Si	15.897464470602285	12.494663201805482	7.034635415122317	14	0.03191950121804236	0.06542306042382795	0.1000545635335625
Si	13.864776247389816	7.814267920648822	1.1477547424972303	14	-0.0026333260688956627	-0.030668144258726285	-0.05989158443806137
Si	11.311563553742499	9.267572413584086	2.6308326521054193	14	-0.053483618648656306	0.01977077146981067	0.024395675719693033
Si	9.726337284146254	-0.01985389102058373	9.891447260995117	14	0.3179277143681226	-0.1845763084965144	-0.025824696056631333
Si	3.6505866006546452	14.184718873396216	15.783943941660741	14	0.04196969480396918	0.0658511494596326	0.05703868597482505
Si	3.960637731583187	6.301292930068518	0.885068687015686	14	-0.13646604285643557	0.11196263782382833	-0.0748330487850379
Si	17.142252817673086	13.273520744390398	13.703676291549346	14	0.00533375798664719	-0.029495206011674734	-0.08931042862172771
Si	13.905369465813184	10.88861681079765	4.07263801407336	14	-0.1328392416918347	-0.0755503871693592	-0.06927586174606984
Si	13.98132572723285	12.09427612474749	0.6074885033397279	14	-0.03403963466503646	0.05224074633689673	0.028974300073812735
Si	8.77272889594764	9.559804343428045	12.477609070518556	14	-0.014032064395240155	-0.04048925236062792	-0.01662425277901345
Si	16.838060076811495	-0.2262825835147271	4.020730336702792	14	0.00487121613955255	-0.052555192517550836	-0.0018159716876205885
Si	15.040708312671764	5.5376114702801695	4.492351347808726	14	-0.05941284462744979	0.01728528395682352	-0.03800710728455697
Si	2.406845277983654	10.502180715545585	7.78286048636927	14	-0.02121727532292598	0.1785390960942747	-0.16660711052453148
Si	12.175042102976976	9.423283903694529	7.616965653434882	14	-0.004641616434463328	-0.010579584171345316	-0.0034092856545163528
Si	7.377452638764174	15.808757595507494	1.7018004822991157	14	-0.23434159463117255	-0.00109091998733883	0.058543811029239744
Si	11.358941820048075	9.855142720467652	15.15825700005225	14	0.16060717914943393	-0.07198709230616598	0.08853035526759477
Si	6.630681859675692	3.9729250163506804	16.160646832137914	14	-0.012812332031361909	-0.5485687171120059	0.10099147431222447
Si	5.22583398573494	0.25937844769254925	5.3102719692217	14	0.04124747131953959	-0.05858006361425383	-0.008412142386460484
Si	9.113183307046313	9.74631648832335	3.3274880617329248	14	0.22135417032750856	-0.14885105718358888	0.14351010010204523
Si	6.108712990226305	9.786454622125698	9.663367422998833	14	-0.04998357297633873	0.02636308551067034	0.04466909827959265
Si	14.339821935154646	2.7834179087323454	1.140395892266779	14	-0.010688856147451608	-0.005946195273906462	0.04317708586231072
Si	5.457496790693082	9.709269962000747	1.8693425236987118	14	-0.3804156009584695	-1.5015761577412852	-0.9219106931136841
Si	8.042367544932977	13.322260966844384	8.646700135357383	14	-0.004853732623375543	-0.021235787281231044	-0.011586686125247318
Si	3.505117812231759	13.943830711718519	3.3398825222263824	14	-0.18463518680834579	-0.07677011953323745	-0.04128500945721375
Si	2.7422343993875136	8.354110403474435	10.721392998861303	14	-0.0706431755553246	-0.07526602292095083	-0.0025153123347008656
Si	2.680985945284814	9.575123876811672	12.663573794782776	14	0.036173652080759365	0.0066663618740799395	0.05729708205949994
Si	1.6268533215608374	4.541879724062882	14.858798128563642	14	0.06229299680707968	-0.12591242684882376	-0.07776950817117903
Si	7.457723959796902	7.84496304856504	13.437191268796694	14	0.026223217381254285	0.004222269156747175	0.03794308676208528
Si	6.686380260030755	4.760432464449589	2.04664909816233	14	0.07064626088170876	0.07775768108670633	-0.1824978269557067
Si	13.480287452635661	5.031173187951692	6.151289784008675	14	0.04451611751304384	0.024418815667574364	0.011795974098307372
Si	9.098749210044884	6.3914689370376845	14.29147908731539	14	0.020140239304315948	0.04726231510549401	-0.020803841587446165
Si	15.87353625313773	10.714469446964001	0.7488285530269995	14	-0.04495526230172513	0.0035800070477741853	0.05260507196076171
Si	4.968120883938145	7.749352407860815	10.15203432110508	14	0.1312528697093033	0.26822696297700016	0.2967232945717973
Si	17.273907479447814	3.1242152821541036	11.739123799475784	14	-0.04773257026854909	0.18568471200003026	0.14385437110441307
Si	6.270996825624352	6.665848688650612	11.828071407739666	14	0.07221489223753111	-0.024878529298816843	-0.018960873293964023
Si	8.020396521110264	11.324492244008457	13.880869094857712	14	-0.1920996197737997	-0.18332803686358248	-0.08635082928770525
Si	11.500890298087361	5.485812617492889	9.135385170894178	14	-0.03443044267369897	-0.043519557090954446	-0.014490749584354574
Si	3.3914307487006377	3.248151642802071	3.284464427616149	14	-0.05400940968662659	-0.05998645822437483	0.024775427975478905
Si	8.595742199804594	7.461775202238359	3.6587814215476198	14	-0.2461720215407699	0.5662003289554535	-0.17219206550095717
Si	8.22749135196271	2.5776273240220213	12.880591449002209	14	0.13890062248408377	0.33547627950972925	0.8685985671898817
Si	3.495735814066563	15.064321598387716	5.438480519192343	14	0.04473980367589672	-0.027740940851737696	0.08582143870228676
Si	13.715622262851076	11.943638168618472	12.804277385543552	14	-0.1137816948378331	0.043160373677729756	-0.035340356846499374
Si	5.264179811627697	6.032456636773937	8.475896654173821	14	0.6352568754177147	-0.6203704327245892	1.1920397598065298
Si	6.949341674685162	6.734040480938485	5.1217680046807805	14	0.06921235544466219	-0.0158056128450783	0.0748119657214127
Si	8.466864213761003	3.6324030021017846	7.356462685048367	14	0.020640833510148778	-0.02840891401391217	0.11553107489766183
Si	16.66954191187696	11.637540997549356	10.46998182975122	14	-0.012805390046997508	0.040437573143692944	-0.03524162640220569
Si	14.928063326968482	5.953778111914773	13.862253495686346	14	0.004904383398182461	0.013787038058230044	-0.016011558381222164
Si	0.6845511480228125	8.47970881230351	3.106984723133665	14	0.3388333717262466	-0.1979442563875603	-0.5372447979504777
Si	12.528021234297587	2.8798546269551575	6.346481513849777	14	0.012665779028113468	-0.007399126890322141	0.01892102116150173
Si	6.0152771923304975	15.55501329328603	10.66575890394182	14	-0.03748363024137481	0.051520836847255266	0.07221257824274298
Si	7.701904889547692	10.477635825442402	1.4038981321229758	14	1.0110545141106664	-2.1869880988601924	-0.36125829521804614
Si	9.374500810950158	0.510097096727171	2.3279688902457862	14	-0.03135951447931411	-0.14160593950194358	0.09452025933194376
Si	15.783259665871892	8.75866579184378	6.527590353299149	14	-0.09519234626263047	0.13417415957405554	-0.19056569833979936
Si	16.53681384398526	14.814224568563688	7.409888960012984	14	0.023899966613968482	-0.09840134281270728	0.07290729090024699
Si	2.6877314205912843	1.7782662406314447	11.843601994860576	14	-0.3435598346362749	-0.2856145769255655	0.03336960461860587
Si	6.987148324233453	7.4592491528202425	7.327503803892773	14	-0.19032118622385324	-0.010303961681025441	-0.19293985699242408
Si	15.980237108193291	11.522694787320496	12.684941336825444	14	0.08105178122288005	0.009251351162956818	0.0666065402026921
Si	5.40110257254791	1.9911419652566804	15.83662987968754	14	-0.08768291895407397	0.15502145284141222	0.09428731718993834
Si	15.259993145709673	1.478324253947335	4.453418528709148	14	-0.001453445837479709	-0.031833883410881426	0.0043341122381736165
Si	11.557406531674399	8.288419927744838	0.5419183941946775	14	0.023228136793813792	0.0016524493892591705	0.01905060486963719
Si	15.92470854014245	2.4808295060455747	8.11613742154297	14	-0.024776970638670993	0.08761992687373032	-0.060735421204133964
Si	6.913145958740984	2.8520301596374638	10.80398426214683	14	0.0014156505892735324	0.27653009049788635	-0.30660713764351055
Si	11.742245086387335	2.1064943746835567	4.302960298028285	14	0.20387039703996962	-0.38936947523588517	0.011648649763462885
Si	1.8928354428301193	7.3206725880055314	1.373298637931464	14	0.521187216784025	-0.6225602431257594	0.1086006605072027
Si	12.842994204333879	11.684640606967427	14.96731602438863	14	-0.05732793532334171	0.03169941460263768	0.12457442364021869
Si	12.415176736858278	11.326772613685515	2.2452044969413927	14	0.030776644903236536	0.0380024792949807	0.17104818074402325
Si	3.5814994788406382	15.300340684391982	13.746155802749687	14	-0.11827058761627961	0.03890133771490446	-0.013754642131196176
Si	7.366243706685615	3.090285096171081	3.4806883421411543	14	-0.057455462147221054	-0.016733267644587727	0.05339003041500292
Si	11.57763141559255	13.562298318143656	14.42185753352248	14	0.32954499664667963	0.09642467704257744	-0.30383728588211506
Si	7.748315276604944	14.349810712814532	-0.07130648377013238	14	-0.07866116749620639	0.420828748601621	0.2963898222117741
Si	10.326090997785993	12.30449554022613	1.4755047079258086	14	0.2881813113666694	-0.221690985124448	0.7237733467165807
Si	2.2278799530535704	8.86780860459401	-0.29837392337038376	14	0.07050150765218442	0.07905146128380486	-0.05479745346725198
Si	14.543379967050265	7.6110198739298385	10.21434463932349	14	-0.004868130813168373	0.05023014197654093	-0.02962041884076594
Si	9.184855837142047	2.7601294479089318	1.9800022851856678	14	-0.24075984484185822	0.007799705099201213	0.030484310228335698
Si	16.251564824902218	3.588488985030843	4.084796687969696	14	-0.003547868231272334	0.027316965584445282	0.010083875065620767
Si	3.3347347896654442	2.372512770813934	8.269899962298183	14	0.17528047721151904	-0.00238238618964921	0.06527033676781116
Si	10.120310306219604	14.11609508048984	0.015007899349668062	14	0.6314655235126243	1.7506524998516944	0.7783990503484467
Si	12.858105981694868	1.4829641384529344	14.127289172852496	14	0.1185428676696833	0.1444626946231601	-0.07674415136950398
Si	3.7734726391881614	4.279294248878013	9.610963439574183	14	-0.0150797898132005	0.13117727921289096	-0.20686110674836586
Si	6.8323948202274	13.382462396547277	10.652474060494194	14	0.030613122604875122	-0.0033149260892669182	-0.025038452049730053
Si	6.978660006737068	11.206336777133279	5.861328330697839	14	0.22019537315971785	0.16738049900483204	0.1681526019324725
Si	11.605645501502336	13.354807761533804	7.475744321474832	14	0.009232324983587724	0.05635220085434552	0.0004419730045334548
Si	1.445294344062414	0.18072300683590067	1.7885485148947418	14	0.013151460823089437	0.04220932181980698	0.05580969763179428
Si	9.576365466375536	13.141506631719356	3.588096556988081	14	0.1058488064830482	-0.08163285102523353	0.18509258644480014
Si	3.5572860090592857	8.040182808980624	14.200468758541023	14	0.11391847764086498	-0.006028984865215231	-0.06055415827906353
Si	3.406568907778786	12.388781828839218	8.771282848075781	14	0.028599690028667156	0.40439090095831826	0.09971569185236698
Si	13.72527137590252	5.306641185397489	9.802552416165558	14	0.06581901064313075	0.0752012310668831	0.0095236312163605
Si	4.68434429444412	7.031895014252272	4.474200726402317	14	0.5682389583637989	-1.5131062795494892	0.12398589763243678
Si	5.08287310929962	11.76013189062214	10.361224849614462	14	0.11367576529864298	0.0643542519422424	0.1120526265100335
Si	8.895527545043063	-0.08590876421845807	6.427826240999471	14	0.010780130386316866	-0.10383228858045607	0.00548031098989563
Si	10.987596067011804	-0.2976616170070508	0.8440830405495577	14	0.16543982870918428	0.3886619070517804	0.0807748731799001
Si	14.9961413481011	4.69784843591564	7.959588311912681	14	0.012411496711950822	-0.04551344926672928	-0.004380135023404267
Si	7.559570578894935	0.7568931141914939	9.89089489379207	14	-0.19235801585847456	-0.08431451387414797	0.10608431973037379
Si	4.5406068062098885	5.281999012712278	2.851212326405489	14	-0.16911316688007985	-0.05173423858882756	0.10005147820717832
Si	13.494154342718137	9.73463103647858	9.586204198019074	14	-0.04861985871453219	-0.005914056457404612	0.017121504547930086
Si	8.745280368099484	7.727087887434694	8.833632738869932	14	-0.06057112757417651	-0.13008764477821222	0.1534499932697377
Si	16.143963693748553	3.8446999778068127	13.811803408188895	14	-0.017072653546847272	0.1273633015809833	0.12007216111410739
Si	8.104143633378886	13.293155337387084	12.675826453546497	14	0.07177806144363796	0.020476539880191314	0.029783684028595343
Si	3.830401087105832	6.681606818082031	6.65349050301825	14	-0.7925583844570342	1.2122414485279973	-2.169260841898835
Si	10.806939014468805	3.5264062091229436	7.927374586402412	14	0.036136371053617215	0.09252816692989302	-0.04872630247478632
Si	8.384899516258038	9.677361275095146	10.131779757755124	14	0.02126226966602857	0.060470340245626704	-0.03205834090533035
Si	9.886950827076577	5.548301012302131	4.39531279666319	14	-0.6773489548349229	0.5253161548176508	-0.087266657002742
Si	4.694227545235364	3.1047933917520223	11.6905666001846	14	-0.2498834120704037	-0.5798135602940415	-0.44652488939224494
Si	11.429191386274466	14.767451432895479	4.015716161584979	14	0.014914981962179006	0.04785392643966008	-0.0010556958444528012
Si	5.6313176807768714	10.747713708300848	3.9843417044518783	14	0.5092603734249221	-0.6372726219887107	2.0354294106639554
H	5.472801484360805	5.969676394218608	-1.1294672659330502	1	0.6612425226673873	0.9506253115501618	-0.2891254212402278
H	4.414352152166445	8.255000887531802	3.414584003223604	1	-0.22108086183197678	0.2735342385788498	-0.25130086243340133
H	5.514914949235544	11.170685184105535	2.4642337570943105	1	-0.6881206005736833	0.9571224946941761	-0.6983119478416862
H	6.9611540885437675	11.708084060379159	2.0072991181601516	1	1.45818541302687	-0.3632683853573379	2.5278634424317006
H	4.022964538374821	7.084561165991203	8.082537007024452	1	-0.3768222241630305	-0.12327010191130756	1.6220494112853359
H	8.112221385401961	1.5335939513985404	11.712160035680451	1	-0.027799562053037078	-0.915017045529303	-0.9147097984435454
H	4.645068513021454	1.6774402642160577	10.820906484847956	1	0.09578935691796885	0.10624835624979921	-0.05696180992575263
H	13.415828673325995	0.5369949062296028	8.990292321940828	1	-0.22470483478072553	1.856922967607247	-1.2195359314317893
H	3.5553815788517635	10.376887345321174	8.869877920533787	1	0.47047910632846857	-0.03767569180878987	0.28758044405335076
H	-0.16663022330023675	9.296196576703208	4.3282867465023465	1	-0.17003593657948096	0.7101860835417261	-0.0792190973506785
H	1.027122691923613	9.45814569406478	1.7623498208970625	1	-0.1038343454647122	0.15135582798647712	0.41588322751831613
H	9.582143062433683	12.853121486008858	-0.5058018234019803	1	-0.9213625334594285	-2.4472274089390886	-1.3921427162208866
H	15.49399897692313	16.443130717491076	9.577527910787921	1	-0.139026606644771	1.3019491129216878	-3.4895406502005195
H	10.731327364229546	4.296996381092694	4.876963806862074	1	0.5628136690277544	-0.7440136020178504	0.024820936539645524
H	3.7801307250565377	5.240240052161884	6.5279085827623975	1	0.7314187854965729	-2.0215238446504666	0.05197360849413335
