229
config_type=amorph dft_energy=-23297.731301589876 dft_virial="41.57034711305674 3.5973178123194978 3.8226531562679225 3.5973178123194978 43.90015361566635 9.065723748496449 3.8226531562679216 9.065723748496449 38.395533070640546" pbc="T T T" Lattice="16.33848228960137 -0.0164528681184967 0.0045584411172399 -0.0160444056527942 16.486950226634914 0.1667670554970167 0.004509425621355599 0.16714284096546297 16.271118659757715" Properties=species:S:1:pos:R:3:Z:I:1:dft_force:R:3
Si	33.56672653749181	-0.08724268112446557	24.27740452079132	14	0.04701548899475979	0.967935792339123	1.3109826914640281
Si	32.07267867204301	11.108329549063297	23.71993821530027	14	0.02978316980753132	-0.19403334808508307	-0.3874020654449079
Si	37.03116629434207	-1.4623871228072673	20.850260654759417	14	0.41372195638619974	-0.16708842144046318	0.36098241561719424
Si	37.71295713744392	-0.18102076170017112	12.19118315183898	14	-0.16775922281848984	-0.166269010174932	0.07129032276440586
Si	26.43576757120935	9.008580862473575	19.461208883044378	14	0.4621772643602424	-0.2503456968069663	0.24340037000565026
Si	26.69196339894727	10.194783638321303	25.0508151288001	14	0.11510684251983741	0.15973094645632746	-0.21807395416006367
Si	32.3918969905391	11.842588212809563	13.579731697796273	14	0.277461601955376	0.43066785444076366	-0.11624841328198317
Si	27.19122216922585	1.6981549257104758	15.089520072823385	14	-0.21375809676966306	0.6612090982982254	-1.282177313009749
Si	40.678147927114786	11.91403973500997	22.40533608028389	14	0.07982407843250935	0.24255319080266152	0.14337280307794936
Si	30.661078138371327	8.432455991549238	12.566958817186103	14	0.17953282830051193	0.22925003476568329	0.12814568892990436
Si	42.26326168236702	0.9742516023947004	17.050244474586602	14	-0.3599647721314796	-0.2140054371014613	0.6275664422946198
Si	42.19690123633914	5.280083192345546	24.753621106454684	14	0.06345513641178661	0.1722329460755475	-0.06602855572672281
Si	34.83962628860982	-1.0601545266316617	20.01310376050324	14	0.07338011716862221	0.04879572231843032	-0.17672183885399403
Si	39.53785796626188	9.119527437407688	14.126367212546752	14	-0.06506593389485939	0.23527156342547012	-0.08444101225589926
Si	39.358577254665605	3.1290479585622175	12.380449953796752	14	0.08604769597045979	-0.1254761102759946	0.09140407968392429
Si	30.839914442804925	9.62530036708929	25.068347971677916	14	-0.26598470202729896	0.15986232993818703	-0.010408862778087483
Si	26.298765992513005	7.053599442978133	13.494204559027759	14	-0.011954354186028493	0.0561989629772647	-0.08194575454269555
Si	41.06071877404134	4.315637956827431	13.395158946494353	14	0.07567020067727812	-0.5559346767436982	0.0698047381104243
Si	30.043154486406724	-2.1298115240654267	12.90493863365684	14	-0.09690701640063722	-0.034826392893001774	0.2877946171265191
Si	36.818576285592684	2.4670054587521544	15.11426963054523	14	-0.08468963814035758	0.07558766819650137	-0.22589602787555016
Si	38.24978301761809	5.713880134020777	14.673697113488926	14	0.04443589902705522	0.09888368217076705	-0.21750059767367064
Si	36.011872718929425	2.872476345355849	22.712135505972768	14	0.025161093773501116	-0.36927140205881964	0.07283504284075083
Si	34.078258787939816	-2.205978336969903	23.304814543707096	14	0.8226323462762742	-1.7298224329899827	0.1040464616536244
Si	33.97260098501162	0.10682437173024341	16.444847549520162	14	-0.23088217242291334	-0.3921064168491828	0.05493655026507199
Si	40.01983550654152	10.606458252854086	10.566080921194464	14	-0.1112087897439609	0.1103091599924411	-0.14034326967921887
Si	37.08237768444199	-3.8109041556585774	21.251508039467744	14	0.035029253102761455	-0.1753444977339907	0.03663490837519393
Si	34.89844161597126	11.742826974036248	21.235772431439024	14	0.03540771980588726	0.0848220500643452	0.05470849322317485
Si	38.6512068581116	-0.8522879778356596	19.282573542143908	14	-0.08384760114800908	0.02737224434882846	0.03479014030798769
Si	40.17078526151668	4.3392127764979165	17.70150846685171	14	0.03269391814047096	0.007463404523325845	0.17401369362028207
Si	34.011762732373306	10.20336461780078	22.808815303904826	14	-0.24307203985626738	0.3497176318780295	0.1113705122685982
Si	37.400663074666426	3.9494284824270607	13.365210478509047	14	0.2191101096040833	-0.05629306543198211	-0.043706733558261227
Si	35.19251825277843	-0.7668408977104222	25.88980847030207	14	0.0861955345263683	-0.5686878733526968	-0.5594342081949517
Si	34.91277864851742	2.6543345147726347	10.814792082710852	14	0.2901489782681787	0.07610548880797918	0.12830355479656144
Si	42.52268109588427	3.915664975012092	20.65812644629241	14	0.10748145836134224	-0.2319134427668247	0.12032181544069376
Si	34.170643194582546	7.579578193913105	17.954124529540216	14	0.09785395449004776	-0.30999251201854955	-0.04849258900118486
Si	28.800755444527645	2.0676794814824877	22.64470488828474	14	-0.045166864269573316	0.13935185146776977	0.14250685480612346
Si	37.33449215522261	-1.8175958860813382	17.606196201254825	14	0.011653791974103182	-0.1093647930083507	-0.08175086475942832
Si	38.20716404394669	12.255847661709273	10.76611806144788	14	-0.15486615808007528	-0.46560557619412785	0.13856329346608035
Si	27.335917546926165	-2.5629369534470436	23.08464347159427	14	-0.04201443203653976	-0.28707933562645394	0.012479373892402732
Si	32.09145324081656	8.7777276799577	10.697424477815897	14	-0.12912090917783653	0.029000782458610257	-0.39556532483637796
Si	33.747324132077516	-3.141512599165595	14.616592426933853	14	-0.3536064286747535	0.07081081162219825	0.0971029346260325
Si	38.535330958141394	4.943635927046122	19.504107245042317	14	-0.27185427836266507	-0.19095110702728957	-0.01770231723975154
Si	34.63248190145318	6.852505201863479	21.28019844305869	14	-0.47242054795571237	-0.2749164647989614	0.4666437885224036
Si	26.656503955374706	-4.3013842506242765	15.040829713061783	14	0.022435465023612135	-0.1323671867550555	-0.23489001139596014
Si	31.34769210626819	-2.9415342775072393	20.58264911803004	14	0.06291031919444723	0.13118782074470356	-0.08449654813081446
Si	38.86891735233104	-2.0233972486507485	11.213033183671614	14	0.10328464314726453	-0.17321125164986384	-0.33380840348854923
Si	28.00965351020436	7.428974815108868	22.85482941759114	14	2.4714490208286075	1.8160279948270994	1.1999543933135415
Si	29.292606339528245	11.230791497830495	18.732997097640368	14	0.197157241049063	-0.08825576121940296	0.11839965710335104
Si	28.737054906076413	5.777773466755825	21.384924951565083	14	1.0345225350308498	-0.20022354125387157	-0.6349629980796218
Si	32.9631252134246	1.7212444919717067	17.82421549309833	14	-0.3573646133212139	-0.8409866958252153	0.13194089749297494
Si	36.31614131118081	-2.0937900361400543	24.260360199022482	14	-0.4656575125215949	0.22616290860778152	0.07617105199364295
Si	26.152322395459482	1.8085721332890383	9.434938885723433	14	-0.14368930614285957	-0.1581980534644552	-0.24064363088138752
Si	27.0564393586432	-0.3722645219919444	14.006648497699214	14	-0.4073278745655234	-0.19001651024341573	-0.5093058819890888
Si	40.12482016332624	-1.125402320902979	23.515916115231462	14	-0.07943866974501916	0.25823616192396875	0.2138105473181941
Si	36.20489737557166	3.739941154567151	16.96965973165309	14	0.9467259732216253	0.28929537130188954	0.25517346126660834
Si	31.577764308549646	4.883730821826194	11.488537849088225	14	-0.2979186014351342	-0.11298130975167098	-0.16602321250632587
Si	32.41923783414337	-1.3275700013775	15.444839937888126	14	0.1357980696942611	0.17650689444922965	0.006277867860205564
Si	28.051708805673087	5.446384600631662	13.511871377594323	14	-0.22338302953563743	-0.2821757235598675	-0.04918138811645253
Si	33.84725202353683	6.60812047478381	14.247450192029739	14	0.23940821477505636	0.11176003472460065	0.024797025260168148
Si	41.70053928186732	-0.10655805420260538	10.508049841767178	14	-0.09317402858631423	0.14865642451085365	-0.08336577601101333
Si	40.779425378560795	2.1600557188759026	20.9296869981402	14	0.008580292674398169	-0.028781467174801626	0.17319659634953902
Si	27.27407306191908	0.8554445757706084	19.043324005183052	14	-0.20646104276055083	0.18303518796761764	0.3768497349899561
Si	33.90377669339061	1.1144342867739354	19.95880276031275	14	-0.139425127969394	0.20777384913701843	0.3669700056867551
Si	38.37599955337003	11.641691667528308	23.095691564366593	14	0.08013801039209942	0.07210433470876473	-0.11888456756673099
Si	28.78894924541898	6.679166802218239	10.020428984061397	14	0.04106620839446915	0.1962470697657306	-0.12467443963717242
Si	28.156551317519746	-0.9537418850668464	24.57333067564319	14	-0.1651284678549143	0.053424483226292896	-0.06895395935998731
Si	33.90684833113269	10.365375536347159	10.496161950165373	14	0.17020768641486686	-0.3334422780909601	-0.07408922801591906
Si	39.842729449112646	-2.2182273093913896	15.18012358311565	14	-0.26300941895082364	0.14059112423208114	0.04517843424351398
Si	39.31972593877785	12.056749985126972	15.92337985805641	14	0.0447063793067348	0.01399066959958577	0.5099458301032735
Si	36.952834630369374	4.935182387855943	23.50838079966418	14	-0.14195021050431142	0.40399443651795147	-0.11896889982123185
Si	29.886687220444863	7.631385939212947	24.35573618476402	14	0.15574856142595012	0.032467660872297924	0.5331338576540932
Si	35.945456722006206	11.14449644962646	17.378171212851473	14	-0.17985498779712647	-0.09865074002876165	0.12013952407349526
Si	24.264567362419218	-4.142052845852908	19.896009008535373	14	0.014252408121176846	0.18270017294440236	0.46212352825905134
Si	26.944443852097162	-2.043232185985262	15.67966827712022	14	0.07355109567241207	0.05088345983839056	0.46948820233808347
Si	38.86856444076067	5.11677663085796	21.948467544695923	14	-0.04798608125311569	-0.3082755278857547	-0.17404840354210405
Si	40.76890665314402	6.30773064210674	12.17603246206114	14	0.14544588529758473	-0.14246494578940505	0.29604323721461817
Si	28.72541862735348	4.931102664748506	15.71526496408126	14	0.22338508641989352	0.2616870994846715	-0.055104443442477655
Si	41.48346762294425	-3.060114199000401	23.789914371074563	14	0.07931191425273584	-0.046893361492052754	-0.2002605651704817
Si	29.23776126733344	9.669192109803816	16.910547043616624	14	0.07352692728240268	-0.09838180241227415	-0.15140699298234805
Si	37.88338728433336	10.756133604936249	14.493733452649993	14	0.06734958964021491	0.16899772425120516	-0.216082890200141
Si	30.79530380615076	5.901939520929934	16.102158977744807	14	0.06334277910929613	0.08035398323899187	0.016968780891913293
Si	34.879428505117744	6.391574915516561	12.126791494895773	14	-0.019932751104979995	0.03134100252100904	-0.22065251568564015
Si	37.85251242347584	1.5696689724990973	23.280030675138132	14	0.11049196558070364	0.132932058593892	0.09159305592495516
Si	31.0569991725269	8.271392705923292	16.19386697054433	14	0.06323582112797797	-0.24734110312984123	-0.19141519153757627
Si	37.88387907314207	-4.116326245913102	17.551246562668798	14	0.12492409396375882	0.039705065237982756	-0.15816102954784506
Si	35.25527442600896	7.554889088636182	15.888410569442689	14	-0.07095865017810675	0.11932371235541227	-0.21169092809226403
Si	37.90907467187646	9.37699603418874	20.281091082701064	14	-1.33504772303955	2.9874433761975294	1.9789180583902928
Si	41.76681966925194	11.849548413225135	9.58946023649869	14	0.1742988292002865	-0.25869921799212736	0.03441450182071405
Si	30.612814213423924	-3.265435209710145	10.93510225120873	14	-0.5285104960674027	0.2425724740925626	0.3344483516027341
Si	35.805935746821405	8.10029758213969	19.634655116780557	14	-0.351879674341742	-0.7876102922684092	0.359659324819446
Si	31.33228980361148	3.4743523239679344	25.95430632748636	14	0.09056281402317183	-0.10691941473835787	-0.0405532728830996
Si	30.49691053800604	11.83539437186361	22.135263965661128	14	0.19502605184919222	0.18798225171411456	0.15185487952911786
Si	27.13543273181034	-1.5808134624133245	10.345849396636716	14	-0.15463141616434578	-0.099177816619392	0.07356060876209662
Si	28.961570384974447	11.576453676356168	11.264259278420296	14	-0.3939527275795811	-0.11155923139909708	-0.030761218271315647
Si	30.516374591421698	0.4933883477215009	22.411884550534037	14	-0.2244125001058247	-0.05280099018615699	-0.17246177444904068
Si	38.28612637396643	1.464101031313355	25.563103851734585	14	-0.13783489932888238	0.14416418929549094	-0.061863365108082935
Si	30.746106952931687	-2.694094251184116	16.468098866917813	14	0.19138202427894638	-0.11710484846412449	-0.014365536755263362
Si	25.82079955364657	11.214395814457196	18.753482307220285	14	0.13222140508340308	0.23311903405144213	0.07055704352709963
Si	40.77220866371676	-1.9036687307040316	19.086397189116312	14	-0.09718855243319344	0.12331946713345442	0.04939736096334497
Si	41.0736278218074	10.206851253408017	12.652590522345838	14	-0.08809763824221387	0.03972049186990364	0.0079765971452274
Si	30.589830847403775	4.932596003523115	22.53007071421026	14	0.058183599173887	0.08728362629785497	-0.3850801002302821
Si	27.466498095661663	9.267541164179372	21.54217156391151	14	-0.13603384005211866	0.10330572621088975	-0.2662731800442196
Si	41.899757863339474	6.996978375982453	15.708540038045935	14	-0.22736747145027092	-0.0699993707831595	0.10842222579798441
Si	34.858627962514305	10.357791205283995	19.332007303593084	14	2.0021770484479484	-0.8188890740406707	0.5349930239110922
Si	39.41503657052487	8.473276096521683	18.509772360133955	14	0.8530708908299113	-0.08199331999111828	-1.8219834460801583
Si	35.41344906507746	2.882452632618167	20.43902881353945	14	-0.0038448308957494378	0.1310440959573073	0.202487913709326
Si	26.90562031165707	8.135319153949023	10.156017282626411	14	-0.07200766114872718	-0.04539620686413053	0.17561420668207423
Si	26.749930758229908	8.993258618460143	12.331119124888929	14	0.0975266527827929	-0.005937710626349973	-0.06662530927152918
Si	38.38095338615407	11.624983918831212	19.812225187570476	14	0.008360463169525508	0.11874058566880269	-0.30439624417871525
Si	32.62042193700047	-0.033773310514145505	11.793492658281986	14	0.07915070594916257	0.29486644230958636	0.34535060949175794
Si	36.39606924646947	0.8225535441823804	10.515165257919717	14	-0.021864679642539263	0.36886850985515246	-0.015601981303722572
Si	40.53738522603425	8.811438904177058	16.282264783521804	14	0.11273731185678894	0.03429134587587896	-0.2304371140919957
Si	40.83677677644515	3.2494414534030978	8.557365447410927	14	0.06311292229367489	-0.3700350203389036	-0.21120344652356393
Si	36.11731158597601	4.523283935891953	11.463151089919883	14	-0.17240906678997764	-0.06159005661255118	0.13398415489089663
Si	32.94464146992663	-5.33432210624125	17.949747445757747	14	-7.752240952328085	0.12204522733678902	-10.750949626485847
Si	28.89624089820999	10.904800871653055	25.376490421954013	14	0.3027841611429824	-0.023242792094138636	0.028681451177847865
Si	31.093453630665916	1.0426592623006923	10.248599385102539	14	0.2949008951208764	-0.08028122095843168	0.155417145950183
Si	42.0750781228683	10.064899109627358	22.912244535620147	14	-0.0894181579346419	0.018541783126779888	0.0749754880197741
Si	38.7000295597121	7.251956985572581	12.98708370320934	14	-0.17641870553674857	0.4345155135523653	0.4477268811294141
Si	40.28649450880088	8.370274933470416	7.002742598298446	14	-0.08042366019316786	0.11499834187532718	0.028227651088841732
Si	33.889903674205485	4.722914247529531	20.494901577297966	14	0.20096427669660624	-0.07170272805775763	-0.06641653551953317
Si	41.94773423071102	-4.146980537039143	12.963922247554146	14	0.018425054945245163	0.051211018656177415	-0.14008127404709578
Si	39.468760821713786	1.001481344208292	13.272064697830249	14	0.02332352480119128	0.21529073265100332	-0.06271491519011597
Si	27.197674242334088	6.124510718491226	17.15157584307808	14	-0.019846619076755036	-0.12609497532655425	-0.18292103089140307
Si	36.8591170022386	6.001539008566832	16.501991448471944	14	-0.012117362263325882	-0.17978299684816232	0.18204119865084836
Si	32.84328069213762	12.47205991560451	11.115977600271112	14	0.7552650160093503	-1.4493204989935313	-0.31258624306551497
Si	35.435538715222656	6.703254650745648	23.4651899785408	14	-0.13782950000771008	0.03174003806669602	-0.10658619948886666
Si	31.2226993240635	-0.13658167928160195	24.578269803778465	14	-0.326737092526546	0.13451817346589137	0.009267806237005766
Si	30.368860822708037	-3.945466396509746	14.465531570168029	14	-0.12217249705013634	-0.09561760708258295	0.41941258379128343
Si	33.55031451561988	3.447426478228825	8.967576132466633	14	-0.3186843906638422	-0.27311283441687756	0.05199906243680281
Si	30.932313554096417	5.403638186670963	18.370043886016582	14	-0.3198776406429229	-0.14748220071114201	-0.3032395038951806
Si	39.68968673246323	-0.6155414988646277	9.477280104918155	14	0.2082754717849793	0.09337457480128578	0.007329449936146129
Si	26.875328735200576	3.357291882847186	13.201794449080653	14	-0.004683268340649726	0.29474200081209123	-0.8097914749758587
Si	32.268716147832265	8.904207265537547	18.080957026690427	14	-0.061264297568488425	0.1484800466858915	-0.05043994417066502
Si	28.812319833856616	9.919726647767101	12.918831259040315	14	0.17458499322241897	0.013763383889284681	-0.09035558293436789
Si	30.143423852487373	3.349648733188961	19.231509198531644	14	0.22236641449205088	0.05721737779457536	0.022930659908272654
Si	26.31436925870284	5.603644283776987	22.440641941969353	14	-4.081701172462976	-5.317476976428416	1.4821517141580982
Si	27.028724363420352	0.9911047637295856	23.734286684795467	14	0.24583392119117045	0.009276033774030239	0.20999194169671018
Si	31.75726395602754	3.71566541330552	20.955877611441043	14	0.12931425629791166	-0.3510934303348407	0.011147027115501995
Si	28.37879411125861	-0.7151148449037203	12.102806578909723	14	-0.31544428373939154	-0.1295160880655433	0.31433999400438795
Si	38.79259859138932	1.238904237022527	15.519939846832187	14	-0.23935782111078144	0.024838677166354548	-0.20972274696969065
Si	33.92067070097207	2.092121875430126	23.503717792155722	14	0.11217629667593262	0.19015406437804366	-0.14574799017270215
Si	41.33463043584171	6.805249362281424	9.957213699019414	14	0.2434322517116201	0.1059930454915085	-0.06000085641416766
Si	28.156025217863917	2.674122070461127	20.392619308186333	14	-0.14879912085612187	0.5294183533559471	0.07869510608643232
Si	42.42136933359116	-0.7696331471259645	20.338205572355314	14	0.17753816479314105	0.22275413717432918	-0.03226762887839041
Si	32.43788169492789	1.6413966153263193	21.722434219275335	14	0.21731136432210774	0.3850021957390816	-0.08763766750043937
Si	31.800972707557435	6.703638605463408	23.379607288876947	14	-0.03677683338886611	0.014569682517683119	0.07608003486530972
Si	37.25008256976026	3.0614441527887277	19.033610767748645	14	-0.08685476593045428	0.15881589007288674	-0.2380750966665596
Si	29.254222304701248	1.3948584741274672	11.63811026862903	14	0.14396492863317945	-0.04300533602692483	0.18320076715023517
Si	33.789773185363174	1.828310673481646	12.681633837507146	14	-0.2267666041369523	-0.055712509850692676	-0.05798228162731941
Si	33.63271773345071	-2.7414285155595848	21.064680575355148	14	-0.10175586392390448	-0.13661028186489585	0.06565703100796143
Si	28.64565244320123	10.953920933928577	15.013650620593939	14	0.007620241947854877	0.26292945757536706	-0.1827914471832676
Si	38.16760527106833	9.349932945061155	22.659514103441246	14	-0.1265212645886348	0.0836776510863473	0.06196440954716475
Si	30.546860596011868	1.6527878165698306	17.645063855641215	14	0.09452051644247578	0.2333751161413289	0.12247460192525374
Si	30.350953828211637	1.9093234850792171	13.711215765505909	14	-0.020920826879512907	-0.0944966051629984	-0.17948320596783307
Si	34.34057338341396	-3.730789961485552	16.822289741727353	14	-0.11649961027176162	-0.10851941357908601	-0.2874590878822398
Si	41.11403619661442	7.322913451264556	19.64205809050895	14	0.03585097836308078	0.048692363884560365	-0.030070876492855888
Si	42.03045278156537	5.270381391860179	18.781473423069944	14	0.06022479968755255	0.1258437783367758	-0.10258170295273604
Si	23.43045923200705	8.468400688531059	9.352035709834592	14	0.04133206068457246	-0.1952355969327843	0.14757296072894324
Si	37.96574312051816	-0.9510394973937588	15.594497317621798	14	0.13628375148923708	0.041698443192693564	-0.029688553131749867
Si	29.537747539094394	10.184660304571333	20.806680977368686	14	0.01613599987871733	0.13260244289184905	0.13437007779945082
Si	33.574435041144554	5.7759582595582435	8.476844424622062	14	0.2962514967455502	0.04382037641341177	0.05617479458725531
Si	35.45278073282489	-2.779623023802494	13.053220311806026	14	-0.09720886416522259	0.14151209415775817	0.3567341782967136
Si	40.362007781760234	5.2194281500385875	15.50618936638678	14	0.024003325047838437	0.05019286094939878	-0.12922143939585432
Si	41.385016731760906	10.985022899917029	16.52359747905774	14	-0.023659054045470605	0.4135982862203006	-0.16016289215011234
Si	27.80439948733899	-2.236560738701981	20.812053075717603	14	0.02472914807971624	-0.21649092461444847	0.0001560660929329884
Si	29.794809307259605	6.29085133917405	12.103703562484407	14	-0.14828515690262425	-0.21295411213605278	-0.04911813892557689
Si	40.648147175933865	6.685656453873321	21.863281880548733	14	-0.45587188567311127	0.07915713371246294	0.5852697028939278
Si	30.442813769048406	-2.286450344262884	25.00393344083663	14	0.19471520521598634	0.12047479620724258	-0.3892064671585878
Si	40.48530789550705	-2.3281494604615207	12.937385258082386	14	-0.0008073270705264967	0.09423126709395911	-0.051278638726097316
Si	37.50555950355855	5.056479401670957	9.579171883912576	14	0.21603352497799413	-0.08120784731581304	0.06013249700655923
Si	41.37799117735082	-1.2820149995026318	16.826692967107626	14	0.1436186007465555	-0.48570904869236575	-0.29128746370394026
Si	31.19466736196727	-3.906401046289959	18.4472939413801	14	-0.17876406780978765	0.05381529123495542	-0.020258767259574775
Si	36.38476954081828	-0.8573349400618796	13.927762958623019	14	-0.03348556146854455	0.021176908969399652	-0.028381146076454568
Si	27.61130457515265	2.8982013114457925	10.938191861299305	14	-0.4673477571590602	0.11771265776180748	0.12807729752838842
Si	39.6696508315956	3.03307071607117	22.75819209975552	14	0.025938081801249867	-0.10006587639697115	0.03510330093598173
Si	37.68744947338573	7.4315889748893635	9.833039475595992	14	0.07930600071049952	0.20774479564690077	-0.4826185800975477
Si	29.156921643821324	12.64868562117372	23.853263631805294	14	-0.27508281531317497	-0.05782544420279037	0.015319931050102329
Si	31.285497977390467	-0.30608543329882537	13.694509650658677	14	0.1511905059143916	-0.09194863979073165	0.09906803042222169
Si	36.554534710813556	8.580409265876	24.28769123952757	14	0.14302467541760128	-0.2441475332116853	-0.11164844875370623
Si	32.59380488888544	12.869706295215206	8.647983662351958	14	-0.31788786223566035	0.37129409061418017	0.3030104184111555
Si	36.64431476077497	7.939990769000226	11.883824949497026	14	0.2540203205305219	-0.09148584083310499	-0.07661893854041275
Si	27.96623231625032	4.596053974931649	9.33858095621435	14	0.11667315988087162	0.10700606098764685	0.27171518156484503
Si	39.09744883419186	3.549339497271462	26.341610437465473	14	0.10068345589487071	-0.05734027662887843	0.13860237426694658
Si	34.02378950121346	-1.9648629434657172	11.342916078515696	14	0.2682310767455124	0.3135110696491722	0.10552330454951744
Si	41.39627885886526	-0.19288577940389734	12.807079196123835	14	0.16061772068124655	-0.04909628453035563	-0.04127678192018928
Si	28.631089939374007	-1.9948669623463602	17.297548891371115	14	0.2121537270498907	-0.08045477056754168	-0.2527699920133339
Si	35.317297000651095	10.360980480216199	8.538045172783198	14	-0.25346830421828614	-0.3581775968234447	-0.06798053888577923
Si	37.80849977587147	-0.761708975291336	22.936512107632463	14	0.14354018203429098	-0.3012857209624001	-0.21015443555294355
Si	29.344484340372187	-0.14927669271563565	18.589213408163502	14	-0.20501273913371143	-0.00036561117652505684	-0.23689624487727165
Si	31.185529239684577	8.60941827019019	20.1696984667544	14	0.11964072964138654	-0.00023705591051765288	0.8294573453486074
Si	32.3228570307362	8.39383178079241	14.229149439716405	14	0.0720099751435153	0.03121167592340559	0.07475488718330539
Si	35.85713406612242	9.83670093313855	15.449681035031633	14	-0.17689281735778387	-0.06261361364050215	0.2569089573577083
Si	26.910052946334876	-3.793168715397775	11.05325083633811	14	-0.1740424899998677	0.25907099982142084	0.013806835569195186
Si	35.43993213750375	9.984647672065858	12.201531956870017	14	-0.07018963257685047	0.11431494208123182	0.17426309083633643
Si	29.608769358780883	3.7370982558058614	24.260848720131467	14	0.13816502925198942	-0.16937670517539502	-0.16016674880809256
Si	28.112857270638617	8.024707518236788	18.15098546566033	14	-0.061804486796251536	-0.08147575649017247	-0.2049379199688951
Si	39.070916746269695	1.4749579636517272	19.247958798950414	14	0.0630435024500309	-0.11429874411771486	0.18477865448521005
Si	32.683875764122426	4.7693678668289445	15.127203186059235	14	-0.7508062051631496	0.13667558794002763	-0.19108429028287324
Si	29.652344134622023	6.941514074689642	19.565187088313607	14	0.4220842193294493	-0.07794177222762895	0.022091451131776324
Si	33.929253314301405	-6.371952378664213	13.880412355748925	14	0.17358071948436912	-0.2931880247565937	-0.12472251930665922
Si	37.06526147327919	-4.4311102958815285	8.53892418400939	14	-0.0019609820276769397	0.11502173893374051	-0.04783412892869494
Si	40.18087265056966	2.0273331929702576	17.266541688674707	14	-0.21777801993771462	0.2677837044198066	0.08542188893553575
Si	27.637431468308847	-3.6243544460226573	18.81023408220499	14	0.5912922599958426	0.4347602827788434	0.13998151516067403
Si	32.12455667288695	3.407382451941215	13.273956695971384	14	0.2647400299418153	-0.09503319484331331	0.11241258125485425
Si	37.625822290410404	6.89042849102916	18.51982870603955	14	0.10283161438985444	-0.9242995070666337	-0.39395195624798507
Si	33.839169368265516	3.7495253178623944	16.949679381680784	14	0.5801735150388623	-0.2281123206615178	-0.11794328590902478
Si	41.61462982223092	0.32411823423465935	22.252543342663493	14	-0.1454399717553484	-0.1161517397219456	-0.019911410930822767
Si	32.82737026217358	8.237055717206477	21.87376792896825	14	0.27910016737590637	-0.12720646415645429	-0.18125058376490286
Si	29.2917910484467	2.563927066463906	15.743903084476594	14	0.6574938511106113	0.03192284365495855	0.013014163798993533
Si	35.00955484359138	-1.6041595431030164	17.7405868878704	14	-0.02439490438809699	-0.13958119406232697	-0.12114379781154509
Si	33.279735907539646	5.472295825605966	18.404624318362952	14	-0.004843191091562936	0.49988458076447007	0.4818130528007454
Si	35.05499384212599	0.9987577164869876	14.532535753041866	14	0.1652716784212466	0.013590862722302744	0.04908008656683869
Si	29.89643150102666	-1.084041411625944	20.706771058257853	14	-0.004234610462283886	-0.13902377842891886	0.02134737325212547
Si	36.837221780227075	11.829169403886304	12.633366644860015	14	-0.07357552117295346	-0.15650112395315746	0.011963095944116996
Si	33.05339378449499	6.587947330527695	10.636228631204348	14	0.28628666385625223	-0.0396017068041128	-0.013709647788093587
H	32.15281083856453	13.83972132491564	11.518362144483957	1	-0.42291674323211326	1.0478925398061518	0.038964844016312124
H	33.63202661495874	11.232052829924585	19.03608114874121	1	6.1237236684993865	1.7690747265810873	10.018462803839283
H	30.320268493938205	-1.71637398553067	23.45747493948861	1	0.38052075916606354	-0.3266877273043991	-0.3226904298631649
H	38.42016251516178	8.160336663048371	19.785629379503657	1	0.4628033285056985	-2.3634381718818465	0.39221568882528907
H	36.55622901312128	8.898122808648441	18.58251298987612	1	0.8975666966109259	0.7998680368822153	-1.19540996466018
H	33.91765788182505	-0.6897525934833207	22.795868677591915	1	-0.03650172511961026	0.5758198624002555	-0.15356852122499656
H	27.030090261905663	6.636260270970986	22.119108458217664	1	0.516879586930649	4.024431601230401	-2.3386532308166834
H	24.67529271018171	10.165841621851486	18.611280184410614	1	-1.3429654418729462	-0.81703607843644	0.09828512885223659
H	34.2261189328244	2.5579194005183536	15.943320995632007	1	-0.5092632016407742	0.09933516826498506	-0.5141483017490557
H	32.23225188659408	3.7560362095656923	16.93610699087042	1	-0.5901398905913523	-0.36531164275525957	-0.5747163439968479
H	27.39243568138049	0.6413318189490835	16.291946977808816	1	0.38862925401421455	-0.07414990610147455	0.8982493250734253
H	27.284139210923854	3.1254828981615663	15.83604077979004	1	-0.4597712240016479	-0.45333240494840105	0.5632692688904847
H	30.841214987295718	9.898413076306745	18.176151655097193	1	-0.5253426372024483	0.09591739796291222	-0.09404871861622859
