231
config_type=amorph dft_energy=-23327.04331572651 dft_virial="36.517735202921465 -12.358296015051696 -5.680536587121115 -12.358296015051696 22.504130018914783 -3.508447970297264 -5.680536587121115 -3.508447970297264 35.80716346210176" pbc="T T T" Lattice="16.34998475355828 0.07735301551733251 0.05093101740361251 0.0773203150246175 16.50500143927374 0.031523274977260006 0.05088196666454001 0.031719477933550004 16.29517872776794" Properties=species:S:1:pos:R:3:Z:I:1:dft_force:R:3
Si	7.695660379439492	3.5462261877984402	14.963477322343739	14	0.008283844230985096	0.2517731744807125	0.29952759914448285
Si	7.002720588562284	14.491906786949993	14.410595376789512	14	-0.004867359481572328	0.03657577295283053	0.00386102885926637
Si	11.86070415127805	2.6284459841360714	13.16088228172499	14	-0.2062317001659936	-0.0055818696500414796	0.4471902914490992
Si	10.196765739869447	3.212202099887165	3.4430839287014225	14	-0.7849700242151493	0.7199441995632841	1.02289214011516
Si	1.4629726283546634	12.57486002182875	10.628991042428503	14	0.014003525126186512	-0.006258841680836468	0.15243183556295908
Si	0.9041048576089559	12.817334175310474	16.185306707270176	14	0.0007978139808419489	0.019022836932179592	0.012733656208565376
Si	6.650055584778824	14.455555284223365	5.818334902819156	14	0.018633828697241187	-0.05135088678559348	-0.0006224645980078499
Si	1.4649281178190203	4.972656015544091	6.496618332861501	14	-0.010282878617400227	0.02548685281756388	0.010837466034956167
Si	15.052169233709998	15.323058480336421	11.287340252111782	14	-0.38379197646488794	-0.16578589948527622	0.02239561289114984
Si	5.309212756616143	11.854703610864847	3.4437166832354578	14	0.05562200694342347	0.03728951178970363	0.17779836065154003
Si	16.578124646058388	5.065953791309258	8.592569493626513	14	-0.013529156194619191	0.022744254772561923	-0.006810600882540246
Si	16.331690462908874	8.709911941685018	13.594373093352118	14	-0.0373566176385595	-0.09039672061949026	-0.08730882312999243
Si	9.749594677115	2.531287915205899	12.098454718587092	14	0.12168321570771216	0.19130052024029767	-0.06329495655034138
Si	14.19944339025485	12.256242771060146	5.596694233246158	14	-0.46096704508604874	0.19580355409800498	0.15045208446644506
Si	13.088767885140603	5.520717908472126	3.207032151988924	14	0.050715823771516906	0.13397078514323185	0.2416335064296445
Si	4.334059538485306	11.316435515504953	16.319614170949226	14	-0.07681100010782782	0.06330472675055794	0.04878620922874577
Si	1.1055170023884553	9.783748706731181	4.543540529842232	14	0.01265857993321705	0.002412725232426957	0.06364565531600958
Si	16.151631739872272	6.439573958344819	5.445987472470537	14	-0.030444458095873404	0.03503928041351004	-0.0016334232098900745
Si	4.767014062031906	1.0529280700041925	3.7640245494774263	14	0.06810549460433844	0.002271571550350828	-0.022126675274662354
Si	10.92014151434114	5.694091015773149	6.218451591581353	14	0.10265266545957213	-0.05995817606585319	-0.10471546325792694
Si	13.138588720816541	8.363590833488267	6.183473509548754	14	-0.10287917983827717	-0.051724468388611	0.14519263142355016
Si	10.534414677398178	6.019022731685019	13.231564396728466	14	-0.026035012471819448	-0.05413513673678183	0.03834906429213666
Si	8.538834408972587	-0.23107966679518327	14.0441847208933	14	0.028736472831699035	-0.15817799884295802	-0.04222372000959981
Si	7.183327044851866	3.8056228462601775	5.533426954965811	14	0.03793408789346476	-0.08681491379799197	-0.13627038174157227
Si	14.065799746577914	13.685108785513066	1.967099774295461	14	0.36863376793942293	0.10463730165619442	0.03977757040801093
Si	12.079799087493186	-0.7200861049045648	12.66716370261538	14	-0.099125880291925	0.2043072278338628	-0.022180925596917478
Si	9.923562933383437	15.278275155563229	12.396998771902592	14	0.0690148945560748	-0.07120033407820067	0.24341913907448737
Si	13.355124843476728	2.517821852305862	11.36252195491284	14	-2.382422699344756	0.939291622188417	0.8897826752541778
Si	15.797745372685904	7.214400688054294	9.107527042754517	14	-0.08049770802638814	-0.03726817161554641	-0.0008039846336103042
Si	9.877339151906147	12.995496269769607	12.749418521990691	14	-0.16888999493829096	-0.07849430276092877	-0.24758304414046717
Si	11.922167997385163	7.052698386603255	4.596615064543313	14	0.03758724578577678	0.019709579163191143	-0.02918770181538502
Si	9.30288959638174	2.5691420055727834	16.356904177816773	14	-0.0001136428551505451	0.004372935928507853	-0.010367725092965114
Si	9.501478053615301	6.0191911392225	0.4137691444707095	14	-0.007362617194776039	0.08373087296647436	-0.09642699103736557
Si	16.179945461489552	8.220383930716832	15.835453945860205	14	-0.12475285834943696	-0.04697100887272122	-0.012125589800350356
Si	8.988899465332311	10.814872088193013	9.458715619291896	14	-0.09373941464621478	-0.0015586040450737654	-0.17332926538405866
Si	2.524950559717732	5.123568789423816	13.949261730640199	14	-0.1609643056784025	-0.1313600848011535	-0.04366919542058706
Si	10.144933823891535	1.342963455115249	10.074297489577862	14	-0.031947269155499954	0.1254727678390784	0.055877574812246186
Si	12.263423799260359	15.071256511307743	2.5959678547715335	14	-0.12573142103428533	-0.12868973481564772	-0.0172536593613857
Si	1.6637961642652928	-0.06357956798577451	14.436242373225886	14	0.014290460479915038	-0.018629972039260968	-0.06885857135260981
Si	6.201511101330348	11.628909978717044	1.2813557268401892	14	0.0740100379720585	-0.10683739647864514	-0.07456642516333854
Si	9.62662120421097	-0.38789978468387304	4.850096203872907	14	0.01244672085483685	0.030447286311725566	-0.08536763861328063
Si	11.88950347521215	9.888306897162758	11.96876129443013	14	-0.1025793889579479	0.08286723868943661	-0.13669821366684493
Si	9.23068363841775	10.42141648979686	16.223265439213748	14	-0.34284789557312584	-0.13199411937310201	0.21248899918363798
Si	1.0247484204070412	-1.1305590397096021	6.288141246630925	14	-0.0007661893854041276	-0.036936499029247304	-0.004920838472231408
Si	5.349421282458506	1.0109193820378677	13.855107201965899	14	-0.47978882158219277	-0.1560537516274517	0.1345513407245213
Si	12.893572104026225	0.6701426423809453	3.276244379844857	14	0.11307052710628013	-0.002571362430680094	0.0397179207645835
Si	1.1846047790443186	5.741124134445134	12.086362076381086	14	0.027760738362702837	-0.009867902218728328	0.03681745685292445
Si	4.1090605283104775	15.085975003078763	9.211011022000408	14	0.0246329887407427	-0.15651706480614236	-0.0036591970916347465
Si	0.833450538024291	8.782358248270466	10.01538428190252	14	0.07658242884486666	-0.04417596027918825	0.04108472035277421
Si	6.620455098773206	3.741135839601562	9.403224518179178	14	0.11224623074064066	0.09812520610132337	0.000686742231011552
Si	10.187356173090704	0.5328071130764883	15.628530133033594	14	0.04829744210738562	0.09203631448214869	0.025480682164795522
Si	0.285167916770429	4.765233520203575	1.0207769455668043	14	-0.012379100784916957	0.02681174338903618	-0.012381671890237105
Si	1.3777469692161946	2.801961338580404	5.497605200221164	14	-0.048777981691721296	0.09218878102763349	0.07668244484182042
Si	14.298524248156664	1.4352213552120787	15.463977983642444	14	0.004813366269849219	-0.0036710241761074274	-0.021152997689922275
Si	10.47316011444444	6.719289067955022	8.268456925057153	14	0.010018568990489005	0.023627429450032787	0.02819345538808376
Si	3.141967981633888	8.667105361696446	5.017499836228806	14	-0.023533069884783354	-0.015135068577583682	-0.09826661689393153
Si	7.032048025453732	0.6584097055948034	7.985005784154262	14	0.005045279969726576	0.11427714683302563	-0.23879140660875284
Si	6.21351708723066	7.857369220989074	0.9958264696252593	14	0.2724109226644771	0.3508972549989134	0.048917335600073324
Si	8.798955383347963	10.592119601867703	5.451178675689043	14	-0.001852224272634676	0.01625812738142436	-0.05698494987363397
Si	15.863620515260273	2.8960210358258305	2.1487477412780147	14	0.024789311944207703	0.03858457753946222	0.05808795405597749
Si	15.381991308307393	6.726586182904374	12.633511625562374	14	-0.03803718921680269	-0.02850790156873787	-0.028895881361548213
Si	1.0468850189504602	4.006716161235706	10.57268896909645	14	-0.02497905951683463	0.047907919651383184	-0.02482479319762575
Si	7.657991046856448	5.378915491862801	10.649549842198422	14	-0.0038939390073642654	-0.042549993274726604	0.03162999475899368
Si	12.877597913334947	13.69435157977896	13.631990105146818	14	0.18292925842842755	0.9216651525556098	0.3129053172357453
Si	2.858619847283049	9.803761408272761	1.1576186974312648	14	0.017838842932251405	-0.03190664569144162	-0.08504085112708981
Si	2.38045362250869	1.6229875843816086	15.980284428094942	14	-0.12646007228201528	0.14081866705291424	0.23575184589927378
Si	7.0581560988373875	13.421639280683674	3.801564715114246	14	0.026243272002751443	0.061557146464453295	-0.05320491083195225
Si	13.788072826924784	0.7278230414809338	7.025050120012722	14	-0.0025664773305718127	-0.12510175734138107	0.07712724606220604
Si	13.79875444287014	14.991843364749364	7.5943231875403425	14	-0.07067942814033869	0.07190301716219714	-0.02995080587440497
Si	10.645879211891163	8.405867665494856	13.345139748026204	14	0.015556729850087969	-0.01209216543118843	-0.04245229127256098
Si	3.642872494017623	10.74287050830849	12.87589258263986	14	-0.024261978243045334	-0.026237101349983086	0.035472511659954985
Si	9.312995683655313	14.19849671099075	8.46474653765285	14	0.003949989103343494	-0.021515009318999124	-0.01663659408455016
Si	2.204953348156556	-0.2790055089182873	10.17693616108707	14	-0.02167904583842457	0.16871927354503313	0.20941781387872108
Si	1.0644648038340445	1.179186307401443	7.19781336312461	14	0.027662779250005196	-0.14063637568571574	-0.04842111227328474
Si	15.079130789953515	6.189428269272155	16.254543460495647	14	-0.038882825756599404	-0.05304807340742323	-0.05053121840953027
Si	14.36336115008733	8.782650917680265	2.560649687614698	14	-0.42241460636308836	-0.21565505827486833	-0.4046102162421269
Si	3.5141126689276745	8.11356613623865	7.229957947463455	14	-0.47637953592767646	-0.11186724981645083	-0.17302330385096104
Si	15.731853879865179	-0.4513992364624958	15.102452781357853	14	-0.12510021467818896	-0.06044977140306552	0.1662664390696119
Si	3.9047102442605346	13.211517359669534	7.779677755372142	14	-0.006564288992870061	0.011315948735035726	-0.04704557092700552
Si	12.41418451584896	13.628375065677176	6.182927411320414	14	0.14939715995358832	0.044070802071594195	0.08273148432853279
Si	5.652836074163905	8.860553301475207	7.77762416442964	14	0.24258250140331117	1.2073882301256855	-0.8789616642932704
Si	7.603618302594581	6.1174005289934605	1.7791013716276545	14	-0.13451817346589137	-0.11869327733091196	0.0568795345555079
Si	12.09680497872962	4.650180106635118	14.339094114443528	14	0.0614530166989873	0.019356052181670785	0.0022831415242914946
Si	6.096724007449766	12.641474195538477	7.216043887813223	14	-0.025632120268152245	0.02512072741997479	0.11305844291127544
Si	12.225689065691887	0.507145401418392	10.618847349588307	14	0.32873201314444883	-0.272357186563286	-0.004802567627504596
Si	10.216124431556725	10.52831276545756	7.479017980177981	14	-0.028246420157678812	-0.020047936623322632	0.08341616967528824
Si	15.126883319465229	14.45432247564801	13.54804140024887	14	0.19613625512643218	-0.04982442155702156	-0.04606855090534925
Si	15.924997705061692	14.666653314945048	0.760973165970765	14	0.028753185016279995	-0.0015570613818816767	-0.028347207486228616
Si	4.827117567642076	-0.20326299266716852	1.782497317796107	14	0.05008178919956839	-0.14879732108239774	0.004776342353239087
Si	10.635382353729648	11.625020255108595	11.022268423139355	14	0.0454946801978922	-0.012115562489601777	0.033710276073525496
Si	5.424681466442079	8.01294018005605	15.118423701999859	14	0.0990371771583799	0.18519183111015783	-0.24032455671115718
Si	5.104028610001968	15.314131245825227	13.28671050764304	14	0.18867979258747072	-0.20787412224450422	-0.15445349567619152
Si	1.4163024851518153	1.4686494338899874	1.8624140519422958	14	-0.05013192575331127	-0.01619487819054872	-0.049421786463886376
Si	3.1565654815818642	14.660667489753568	1.9281077067820949	14	-0.015671658257898582	0.02730796671582476	-0.02393339098313041
Si	4.63751847585587	4.186872985750456	13.483562568713433	14	0.177189780022261	0.25386759687450516	0.2794421243834861
Si	10.97139626662263	4.234764492356208	16.436289528956344	14	-0.13632334651116737	-0.023055615626831855	0.04975808703976174
Si	4.713520961024074	0.33440341362676873	7.706969844844974	14	0.05659182787018332	0.05223097613668017	0.02406940245456624
Si	0.535823733529447	14.623328432146945	9.933693546026543	14	-0.42271851101192986	0.2552336251310998	-0.20008315890339148
Si	15.206427267994467	1.1712335475731552	10.834910950128764	14	9.03647077871491	-11.416706238763817	3.027406066188591
Si	15.437240425774023	13.312527546641533	3.9236536396903343	14	-0.004352109975414654	-0.03216144222866829	0.1119826924453255
Si	5.324485521738683	10.280825626442624	14.496602577703868	14	0.05016277901715305	-0.028930077062306183	0.06819625462213966
Si	2.296215518250214	12.720745094953543	12.854911946513916	14	-0.007943944107661518	-0.17171152591662148	0.3431615704221839
Si	16.633785789733224	10.006076086651195	6.785154400381575	14	0.08025113902618594	-0.07028862013167617	-0.02513049762019135
Si	12.409836985342501	12.66787493833193	9.858963110024954	14	0.0025309960771537693	-0.03512592666279903	-0.05537878038013745
Si	14.254354057621878	11.13654520000583	9.498606950354924	14	0.00898241354646933	0.07456102584216623	-0.09000539838976372
Si	9.755647538316547	4.7654656937018505	11.409913143980052	14	0.03197426576136151	-0.002936202275609106	-0.05018437630184229
Si	0.7680152170769403	10.979102137730921	1.3243683199328644	14	0.06715649963067177	0.10824199131504203	0.01619924906959297
Si	1.0534725332078971	11.888942661762087	3.4427503836757296	14	-0.025254682007154507	-0.014194558251473515	-0.02938027760386411
Si	13.183512657708407	14.933764019638254	9.868204269266213	14	-0.010617122309019476	0.04668227374526859	-0.05084052237954408
Si	6.0976788618370446	4.330251566108644	1.9838980174031564	14	0.747689254183534	-0.2522202896958862	-0.324707204876289
Si	12.066888932969302	3.7427332586706896	2.085879409008791	14	0.3067737452682562	-0.03270600233547565	-0.43600881152230725
Si	15.417556364184229	11.875188834526158	7.523325512782171	14	0.0029840248345638603	-0.04072527982901751	-0.015202945758035592
Si	13.407612404333573	6.9247969494470745	1.4376117612295451	14	0.033688421678304235	-0.18428243115842147	-0.354797621769578
Si	10.930092274274314	8.535760562657378	2.995804954321017	14	-0.15633451632841186	0.22454825446672852	0.019508004506091536
Si	9.173546067496831	-0.7395249127989966	10.216006709782953	14	0.2996718381529432	-0.2027033723351544	-0.12566122985904526
Si	3.179503242196801	13.390720964821641	16.22554629858062	14	-0.0020028910443953534	-0.016444789627667114	-0.021785746709210716
Si	4.184001882490079	5.333301574574647	0.9580623056133416	14	-0.5083260337515803	-0.21122067292920896	-0.14525305239857364
Si	16.60250613342669	12.62215964951636	14.00202070558658	14	-0.058230136180181684	0.01010650079243807	0.10454962696477738
Si	13.493295870370053	10.214070840614225	4.822353105853501	14	1.359249537418104	0.26767571799636036	0.6589840637541693
Si	12.507493736786577	11.954837424632084	1.2679272695067745	14	-0.25553418734302513	1.2818502684130262	0.3024370619247624
Si	8.389165888840669	8.925738463653289	12.837865179661586	14	-0.059749402313857176	-0.0003766669294016936	0.07283427150915478
Si	16.16412005804013	-1.0077490692691482	4.348308778185867	14	-0.0027217720919087566	0.0026184136580388036	0.01365694012903055
Si	14.513261843717526	4.805909663091763	4.8689120673811175	14	0.024385134187880426	-0.025574013287916898	0.04918473055336872
Si	2.0288006989747585	9.604664458377483	8.236112867712748	14	0.02647364303943671	0.04883428889823254	-0.0046038211862571505
Si	11.71409803228889	8.739729885967192	8.061863387206962	14	-0.017459862008061575	-1.4141079260814435e-05	-0.13654317601604
Si	6.892055581116182	15.054755842683754	2.0911196629663698	14	0.05766552145187716	0.016519094571419392	0.031172852233071355
Si	11.137022627199471	9.242580077667467	15.534692799138629	14	-0.29355389304365076	-0.8845021391476576	0.03614896946968595
Si	5.4631208956285615	3.6007591644746095	15.88858897647281	14	0.04983907685734641	0.3180729818187109	0.05335043539307264
Si	4.7134490199401	-0.5807133349039634	5.551106476352176	14	0.04849978809608128	-0.09569756845803956	0.057106563155276964
Si	8.776122264309713	9.097520691983728	3.587389568028082	14	0.0374625471777496	-0.05618585034013194	-0.03510535782023784
Si	5.6779010018299525	8.995598161264981	10.085749202126657	14	-0.023128892128456074	0.15454579835718482	0.7912255234590695
Si	13.739474989676388	2.078423696669771	1.4950910522993364	14	0.07615202581427385	-0.025159036889245	0.04830952630239031
Si	4.417184190966837	8.411031073294554	2.390268675397097	14	0.07144741729946691	0.40273305224788686	0.17111502948234714
Si	7.6064485302390645	12.64124529208947	9.04384446821669	14	-0.005059421048987389	0.04248700119438298	-0.0057962998337418295
Si	3.189038705872495	13.04511926746462	3.695072290538577	14	-0.02925352211158081	0.004817480038361455	0.008415484823376677
Si	2.3868482038591083	7.534451855428449	11.25119312746462	14	-0.11249151418818279	0.07161685314006468	-0.04608114932141798
Si	2.3597296852505587	8.754590624881523	13.20005093189902	14	0.034678040116029235	0.023842888075861195	-0.06479519650464778
Si	1.3273882104350945	3.6976409142413402	15.426413292636086	14	0.02357266490671363	0.03611965886903626	0.016042411645063936
Si	7.055654511144691	7.196431767307401	13.703774226754787	14	0.028243077720762618	-0.04176117816250518	0.015947794969282492
Si	3.942220979453911	4.544591850683019	3.2555089974142755	14	2.058143069283208	-0.18622130168034515	-0.5248371578965073
Si	12.934563806669113	4.297904238714967	6.5116720046828505	14	-0.006660448331843598	-0.04265026638221238	0.007265686524206456
Si	8.621195504949222	5.72215948369507	14.59012108179486	14	-0.04716178488747621	0.023813063254147476	-0.058633799715444926
Si	15.134204959784118	9.942728692163698	0.6857996382928873	14	0.003174543738786833	-0.03698149337234989	-0.14194789650952327
Si	4.55882964521113	6.921420623574251	10.576967828568208	14	-0.22574664665644956	-0.17024856698945723	0.24023971023559224
Si	16.701008192607446	2.3797636421124033	12.125870811679349	14	-0.13081706735753823	0.21825495997460206	0.08218538155853335
Si	5.9048358811735095	5.856372115945245	12.210434285840337	14	0.14637174032337005	-0.03655211878388517	-0.06349884520222912
Si	7.6677325236362455	10.705796324692859	14.265037308591868	14	-0.07875809816677595	0.03660225533762805	-0.030206116632695675
Si	11.022783455899619	4.75629484051993	9.45023965158017	14	-0.12077741530342401	-0.09112588608828427	0.09876181177859203
Si	2.824388971508987	2.4308859573983987	3.631857333046575	14	0.06784915540391967	-0.6773294144344898	-0.2664896671121761
Si	8.22298852496158	6.826726536770154	3.891623507075992	14	0.07705885466069008	0.07589337261906696	0.016077121566885937
Si	7.650113498161405	1.91330582875465	13.217118954071614	14	0.5983391454573045	0.20593165217513232	0.2955817238096516
Si	3.1162490441135406	14.266559516527751	5.77165658449313	14	-0.024000496831986275	0.03177166266213384	0.043973614290492596
Si	13.244436945685724	11.29484665021451	13.364439578826596	14	0.3975695014334334	-1.4576516515624072	-0.13612254318566377
Si	4.616129083570989	5.0405062678784445	9.058865439545325	14	-0.846795851185558	-0.8379895583535188	0.7299925933754868
Si	5.208604785704538	5.205707522049988	5.271966895413757	14	-0.17862548523303168	0.04452023128155608	-0.46647718089765805
Si	7.8507849767809095	2.828900004479021	7.61800324933991	14	0.04031313164619777	-0.016850767157718497	0.12473794593858008
Si	16.179837549863592	10.922772268980061	10.851727178507453	14	-0.5140737396947713	-0.5262684922282337	-0.05955939763069824
Si	14.427416510242107	5.187177787853034	14.228837863156363	14	0.08792820240161608	0.0006944555469719961	0.011946640870068049
Si	-0.021052577209917003	7.912096765596898	3.556481062313864	14	0.2120817361009265	-0.27143724507973704	-0.18880012031645366
Si	11.936541498958041	2.161549984175937	6.6964935544833954	14	0.055260252424878635	-0.0046758121352212965	0.04144596065025502
Si	5.556188132920087	14.84931009212786	11.017541566917403	14	-0.07967778253979292	0.058357148782997	0.04631871945299966
Si	7.605976008119333	9.696937073696034	1.5213135774074948	14	0.053702162600868894	-0.021547662356565005	0.03456054060289846
Si	8.726155911441195	-0.22069235528426354	2.660147476798628	14	-0.047458233330889284	-0.09060498015042226	0.0018262561089011807
Si	15.325687599950706	8.018097047757207	6.975371531480094	14	0.003241649587642698	0.052035057911284884	-0.035994188929413036
Si	16.056540342081686	14.19478029999369	7.817656107611342	14	-0.0664013659981443	-0.011899846753241353	-0.047446406246416606
Si	2.246301486170038	0.9080550771289279	12.31617132903429	14	-0.33187030429822156	-0.2266678736926586	-0.05471209277062306
Si	6.6905306196368155	6.846585545995974	7.394196172124543	14	1.0586916963718378	0.2710459228500105	-0.23760715549829262
Si	15.4914856381143	10.802037144802375	13.063210815059193	14	0.22691161447700864	0.20715781230231095	0.05108734849027831
Si	4.71689238182299	1.3385014728842874	16.119774919869318	14	-0.15987904212276802	0.3213431706754073	0.15547319604616222
Si	14.641160010824434	0.7484047315957548	4.810613628968816	14	0.0735048157766494	-0.01809698190639427	0.012676320559926074
Si	11.193674595803571	7.568437477507149	0.8775193570316608	14	0.023950874499307415	-0.015889173767983114	0.04440735975800158
Si	15.349840183870008	1.7339468962621467	8.453952105007629	14	0.1676021282834288	0.07095222241480639	-0.6113057438078752
Si	6.408531380610469	2.0796041844567825	11.143791629191476	14	-0.011225960048830542	0.26360668671669407	-0.14149101109413298
Si	11.095417790318175	1.4425985863685826	4.654408280343168	14	0.10265729344914838	-0.13289940555632615	0.3284833872599905
Si	1.3122822178254003	6.637994008040896	2.0901615385298205	14	-0.03852672766975889	-0.023315040153634795	-0.03941967254744632
Si	13.055415017595939	10.697596676144572	15.672889986426128	14	1.4156763003267339	-0.35528073245923386	-0.16663127891454088
Si	12.430032809643285	10.285420045669081	2.8689564730302606	14	-0.31765363454099477	-0.7243806417931997	0.05391993522148543
Si	3.125307080595596	14.51614112210108	14.182950896754038	14	-0.08540157720350658	-0.1140560317754929	-0.047789905917188395
Si	6.621244815672274	2.5862214729178272	3.536121735549505	14	-0.11576941636083957	0.06213204561403841	0.0676933464215187
Si	11.022441735750744	12.688327461500526	14.792262447561905	14	-0.40435156304692	1.3273202659998449	-0.5918813002246884
Si	7.231123720028744	13.604032818900128	0.294402535913145	14	-0.04576850291448797	-0.004264692394529619	-0.0715672308073858
Si	10.10762256170372	11.908298083400094	1.63756382900932	14	0.012835214868711227	-0.2378305845506135	-0.04433922546701765
Si	1.947178634133483	7.883536155259617	0.23349623320682175	14	-0.2633596034954278	0.10884671528634086	0.14323447761172536
Si	14.081061066528006	6.8661191853192785	10.63161525696888	14	0.01855001066380436	0.06659908399726368	0.007485001808015088
Si	8.544100823324339	2.0558309262529777	2.267800425105515	14	-0.19431051323859502	0.017703345681879597	-0.17561806334005445
Si	15.677088729690732	2.836945960711547	4.448042010917346	14	-0.05109660446943084	-0.01928149012738649	-0.043951759895271336
Si	2.85187537066058	1.4687115648261457	8.67098200510781	14	0.18074150491151353	0.07356806496752505	0.14270791524215906
Si	9.593467809671868	13.634220278749982	0.189525515677597	14	0.0633042125294939	-0.046429534092298046	0.2262644672679274
Si	12.233604219953552	0.7774787396686612	14.472476154178741	14	0.0801341537341192	-0.011456073974983796	0.03560260958915448
Si	3.2151680345764158	3.362251580759214	10.039556486117448	14	-0.09393816108746222	0.294390787825359	-0.0414004520860884
Si	6.364730705643363	12.668334380254576	11.032457896669351	14	0.09889936591321996	-0.03287055307596513	-0.0519867211312661
Si	6.482285706904516	10.51950652276941	6.243081602694291	14	0.1927418818827727	0.5036062557153845	-0.3451030120494277
Si	11.14061968139812	12.697473789312912	7.874049742322996	14	0.049670926569408726	0.02682202781031677	-0.06270231677404725
Si	0.9472678729681201	-0.8049994743376053	2.2432439901011856	14	0.027289968978583726	0.004382963239256431	0.07389793778010005
Si	9.281670246658978	12.45267953587306	3.877663666735958	14	-0.003828890042764519	0.03852904166454702	0.043145204156340884
Si	3.2551623721914966	7.20836581212374	14.764200519738528	14	-0.059443955001823576	0.15275219528584955	-0.35560417750850853
Si	2.9974972048190183	11.56421368890505	9.153544811127702	14	0.05954114278292519	-0.279753485237756	-0.3009941576190953
Si	13.245012474357509	4.567984148146694	10.135388550068026	14	0.17170278415853296	0.09966452685649603	-0.02669707209175758
Si	3.1393797376354957	6.780422639085715	3.5133131418807926	14	0.009272177116050018	0.37253310626795955	0.011411079631881203
Si	4.658569418041152	10.985002941641342	10.76409476310516	14	-0.19251742438832375	0.21709307748042714	0.006597199140967956
Si	8.32018256443374	-0.8948702384662398	6.756003546150788	14	0.012552907504558966	-0.052736455442621274	0.061938441383431256
Si	10.360858447337952	-0.9592460634496246	1.1448246296565212	14	0.07601112924272975	0.07567122911940617	-0.03868125109949979
Si	14.52497843025731	3.991469556507337	8.28113490608276	14	0.09397724188832848	0.008554838731728702	-0.0008188970444671632
Si	6.992554005377191	-0.0239269505195655	10.241272745479197	14	-0.1349861146341583	-0.16998194336775785	0.1411516251918734
Si	6.314497843759216	7.283742082856452	5.084468810284491	14	-0.22272276968942337	-0.09127089642834062	-0.12913916402560957
Si	13.036911443793155	9.054105882830658	10.045705813772503	14	0.13884740060395673	-0.08020974423053157	0.02808109808559329
Si	8.307530743802308	7.06800385221851	9.100784201156685	14	-0.1187994639806341	-0.1276324963080028	0.10230813734667228
Si	15.667370143255836	3.126987885921147	14.25095974647806	14	-0.1064321902801898	0.0614548164727114	-0.003023362745962126
Si	7.625844827492966	12.668389971092191	13.043409031695626	14	-0.014983116253162933	-0.06670784175230593	0.023786066648285923
Si	3.655120463564026	5.734456503980545	7.017195461662579	14	-0.6755710355060405	-0.22766494833581202	-0.2509504207782652
Si	10.210985549126564	2.819863223317231	8.2486649518414	14	0.04195812483002852	0.023919249903869594	-0.04906311727172572
Si	7.980381934484361	8.976725071894517	10.48228191688729	14	0.02867579474614354	-0.044885071126485085	-0.09459276450197193
Si	9.19724084451812	4.881012884710304	4.837143538708495	14	-0.24270411468495418	0.5049499153556939	0.30966932407980696
Si	4.225636149814816	2.3491805063006996	12.026364847372239	14	-0.4647733094019959	-0.5980303557083546	-0.5247438267733858
Si	10.968114772178682	14.19141051421941	4.404491494719509	14	0.025394550136570562	0.015036852354354025	0.05450100502383891
Si	5.26276007168985	9.548223407951394	4.404105628905472	14	-0.08258081755677212	-0.3852711333555692	-0.14079115622598865
H	5.718191278904105	5.718001616046358	7.816081578887115	1	0.6635236073074227	0.3078278984495169	-0.2538164318786342
H	4.060356414460756	6.96828696973339	0.4728850952008865	1	0.18310100826381345	-1.2337613429471046	0.6053739467237615
H	11.285402747918418	11.201718917011462	15.075492860138972	1	-0.3574232345225133	0.19390839236652388	-0.14469975053367776
H	14.945151966226252	9.729238620399911	4.230869863673853	1	-0.47219789023498754	0.5388530243282303	0.6069135245894662
H	2.7190426992029786	4.666226238410369	3.977122215328631	1	-2.4942282426335236	0.5719464922354525	1.155769177055201
H	3.9305992243430006	1.03281236191056	10.982550404687716	1	0.2445080021775701	-0.07111368782891168	0.13590528478611125
H	13.125524873976898	12.61625884560594	12.407117939373249	1	-0.1938829384238544	0.4886861315425651	-0.6450013645810759
H	14.535292165659621	2.0531707411706126	10.566209366464973	1	-6.964180973739184	10.460223949294358	-4.014699710483108
H	7.617996709241367	0.7618806046436063	11.985703419705771	1	-0.09873944316230676	-0.45914953073523596	-0.4506903371214169
H	12.702936406620953	10.391510254184357	17.26619696859497	1	-0.26599395800645154	-0.8559528427832653	0.5921821195471458
H	2.5301303177637884	13.704957984591069	10.516723710839363	1	0.7509391313082013	0.43427742919971957	-0.0299027262049182
H	3.835527446848045	0.41713402517108306	14.274914492416434	1	0.2324148083042536	0.23941978474899703	-0.05601949982591836
H	5.089346088772933	7.733537360151277	8.820120777257745	1	0.1691141953222079	-0.6261263662048048	0.7639183280748407
H	7.153528720865322	9.384694783982223	8.161910544668505	1	0.2694616077517352	0.2252141707446469	-0.12345753548914634
H	10.820916774271378	2.1701142432179954	2.5725624771107722	1	0.8545063389301499	-0.909148497636065	-1.3966398365363573
