226
config_type=amorph dft_energy=-23254.501084257587 dft_virial="34.62661814001797 0.004042804219500055 11.21473890489315 0.004042804219500055 21.968598128763293 6.884895585808593 11.21473890489315 6.884895585808593 34.52959083874996" pbc="T T T" Lattice="16.395653474692015 0.037660929014154604 0.012821439481527601 0.037775698932787205 16.452054691848605 0.2069793504025632 0.013444476182676001 0.20607758675616422 16.32626686102728" Properties=species:S:1:pos:R:3:Z:I:1:dft_force:R:3
Si	31.685923432057873	-1.2042151734012247	25.758594913731386	14	0.46767737286110317	-0.3640654280065838	0.20807466845947578
Si	30.24001756614879	9.991177217501829	25.22122575899089	14	-0.11242852210783916	-0.25412470740651993	-0.1751115555919853
Si	35.173561556886916	-2.5972547356476015	22.307863515594054	14	0.3253854624597441	-0.2073203061585443	0.37440332827783523
Si	35.85002365515879	-1.334564288703067	13.621525177869449	14	-0.10702817249340013	-0.10305401500004725	0.035280450092539925
Si	24.632421645430064	7.738848716172111	20.970670995754297	14	0.14638253896571468	-0.0780695561620403	0.2102775914977786
Si	24.85194206879864	8.996172849635439	26.594072373838998	14	0.08527070794271105	0.09459327872303595	-0.17950480325252233
Si	30.540278627275395	10.662714046694099	15.073121992172444	14	0.36677331612976377	0.5144100402706466	-0.12083243695727516
Si	25.30124334626154	0.5084077855586915	16.456317574540677	14	0.15416913142778316	-0.0041109402963847635	-0.015317617055314193
Si	38.89499584339217	10.786650802684912	23.914634178599126	14	-0.18298402297174668	-0.0399385216010522	-0.05443081384859886
Si	28.823768247214364	7.275898016243261	14.033239306980175	14	0.6853741458707011	0.23169695569886825	0.900241674586008
Si	40.26222365093807	-0.23672935288239932	18.270185637007476	14	-0.17593688039975283	0.20081103881952542	0.04942821422718674
Si	40.27704044743354	4.1858228895575404	26.581190270257622	14	-0.186149310731381	-0.44820125006098155	0.35906591371155583
Si	32.98284482701971	-2.1990818173652564	21.46279948814009	14	0.05681705669622829	0.0599424923234003	-0.06206648242837463
Si	37.73960379337725	7.9603169490169075	15.67146020683111	14	-0.25553187334823696	0.24801190450786784	-0.09259810099460106
Si	37.55501277495937	1.9965194692597819	13.81492068861671	14	0.03237201575438842	-0.20600132912930838	0.11459544967165995
Si	29.01817045410506	8.521746797413593	26.600547036820142	14	-0.19387651066055403	-0.0627431973486376	-0.046835768732881436
Si	24.493510694198232	5.928818887698441	15.070187161395982	14	-0.05355252427123629	-0.007576018936348329	-0.17684730879361726
Si	39.237451245318915	3.1546627181813482	14.907936927425077	14	0.08030693201163316	-0.50373841052884	-0.0030680999785327027
Si	28.17633310093494	-3.281180157771128	14.337072991716788	14	-0.22063528927999515	-0.11798082404669893	0.21516911936936034
Si	34.930773991870986	1.335866107494414	16.563576621783906	14	-0.08367122332304693	-0.1230014214053521	-0.2859459924013326
Si	36.423853573478596	4.502535398734999	16.222952619844477	14	0.049589679641292045	0.2800874718188432	-0.2574509463591955
Si	34.18332014064378	1.738478982057575	24.215288736589613	14	0.00945086893580031	-0.3695177139484898	0.07322430818622125
Si	32.20662963418318	-3.3195493811402725	24.767717344224973	14	0.1636138297108151	0.4040980520623534	0.31359514479314105
Si	32.08945610554036	-1.0356952227324456	17.896427559558813	14	-0.3200234223145753	-0.11217835356018876	-0.056592342091247354
Si	38.1995344048758	9.435797383387346	12.069517801325059	14	-0.16522411297282383	0.0778682386154727	-0.023985070200065385
Si	35.229685686668525	-4.940120307075779	22.718602100396403	14	0.07007444705850782	0.011866165273547414	-0.17536660923974398
Si	33.08612791636746	10.60869020642347	22.73121695402439	14	0.039939035822116234	0.17243734894849927	0.30570647944986273
Si	36.77753183387735	-2.030760254698685	20.712184545439694	14	-0.09048388108984329	0.042339676859538496	0.0265047534138105
Si	38.34287875410738	3.1799104607102544	19.231424694812155	14	0.03933174074549725	0.09891222143982072	-0.024767200438454432
Si	32.1958904489397	9.103995909050234	24.325800691240946	14	-0.33001293781494656	0.0478456989026356	0.0048269931280460025
Si	35.59214876455347	2.7931325557778597	14.818683640845034	14	0.16102369821129792	-0.016993720613518726	-0.020875318315346284
Si	33.32627905239537	-1.879737797910579	27.36827417438866	14	-0.13606495042649247	-0.31003827769324815	-0.3648866390458391
Si	33.0768758213554	1.5063863338879324	12.272004729198288	14	0.3172790244958492	0.020447229279541627	0.08275282450269003
Si	40.87045667215313	1.878699949932087	21.372123054569006	14	0.03084992140486076	0.08652309334415517	-0.011675389258792426
Si	32.35990977922781	6.446985395481436	19.446611733967213	14	-0.2811171994995625	-0.2768789894898304	-0.14919841351234087
Si	26.953894104025125	1.0696851539206234	24.281124041057808	14	0.2639509577190619	0.17953205696891586	0.03344108134650599
Si	35.45088011127887	-2.9630445016026257	19.034086017574726	14	0.036630280385617664	-0.15751439655982782	-0.06290466276274291
Si	36.37845387280807	11.074196996397294	12.233660099383135	14	-0.07895067395525505	-0.39317599666236436	0.0996832959253331
Si	25.428142805723343	-3.7056206312879434	24.530938804234587	14	-0.06470726470269872	-0.3614534421118453	-0.18994451929445155
Si	30.275384736360554	7.629914028116846	12.174412588244456	14	0.14911973768954434	0.19975174342762442	-0.6035317497618754
Si	31.843587787994274	-4.2791554269598375	16.067236073384297	14	-0.31475651306625196	0.01963398866677879	0.09248240125519439
Si	36.68984597647178	3.78742043143793	21.031366247438015	14	-0.12100367257159703	-0.051971037388813195	-0.06253416648610956
Si	32.845329150084396	5.734713443025924	22.789151169379863	14	-0.4248180756163628	-0.33278330379740617	0.5449388306210209
Si	24.74963780289981	-5.475239971411075	16.492550437852987	14	-0.025913913411240476	-0.19972114727431467	-0.15136868351307786
Si	29.436998678600744	-4.000521937214409	22.029382505883383	14	0.08519228923044653	0.13641024987098835	-0.13453642831366444
Si	37.00541078646291	-3.177588829213344	12.642711566381585	14	0.06926069222468097	-0.18433436748588847	-0.3040483736288992
Si	26.264102299489206	6.243836081220669	24.272476947473976	14	0.9835241467846486	0.207228260588083	0.4583288339170448
Si	27.46670413574851	10.052788988964341	20.21153684595083	14	0.35648529530172324	0.03045268563289788	0.13368050735258713
Si	27.119018504672646	4.604270733751468	22.865558422924384	14	-0.14936964912666273	-0.09894076070887435	-0.052881208672145616
Si	31.077816657753306	0.5498512031769234	19.31608226593609	14	-0.19829161271631232	-0.14660879623388773	-0.300155720174195
Si	34.4379519612626	-3.2061911325068535	25.72320970824669	14	-0.5365140898184918	0.09469098072520157	0.11772319929362009
Si	24.24129068144096	0.5861201370350911	10.83325886664161	14	-0.05670675627799395	-0.026067151288321298	-0.11284915493821537
Si	25.167372434027943	-1.5883205787997456	15.41093577067564	14	-0.09194915401179567	0.06646204408369978	-0.003990098346337805
Si	38.25202196780702	-2.2844689972576444	25.01626799872653	14	-0.08801407731930903	0.2806541434314039	0.08865556809668598
Si	34.35538812136857	2.5517812543150993	18.468816295614648	14	-0.04169715764003349	0.16031895824304532	-0.19796636789331357
Si	29.75884960099241	3.768084979288869	12.975908315015218	14	-0.29911133719315086	-0.37347978724683806	-0.2279577972317769
Si	30.51912489170114	-2.4603866889674273	16.903928455059148	14	0.15249174231691853	0.1356502311383526	0.006601827130544223
Si	26.196335581247457	4.278855385601125	14.966713881897363	14	-0.12992643647463892	-0.34620961577921944	0.07826958815594783
Si	32.03151697147409	5.437688893604754	15.73977126240123	14	0.052085965796623813	-0.158021418528961	0.02252982458886157
Si	39.845651475128655	-1.2556616092134207	11.946800885612284	14	-0.27316502785487656	0.4220155708174014	0.11565268817930485
Si	38.90170168578084	0.8878715675336569	22.37533675075816	14	0.16676086262267634	0.17141559169427242	0.24951805800441063
Si	25.071242789751544	-0.24519937287748522	20.289678764836967	14	-0.10870376183054062	0.22273511099496013	-0.018522242726346762
Si	32.0638279827097	-0.023985273423947222	21.44028490924491	14	-0.21052416049798084	0.25506290373784196	0.3239343306170525
Si	36.5893616335684	10.485761786146357	24.603766875888038	14	0.037161213634228245	0.21736278642851067	0.0038995954390685914
Si	26.902355852278024	5.503806204158729	11.456515270205678	14	0.08005187836387447	0.27298299359821004	0.022317194178885325
Si	26.256083161317324	-2.098707325669716	26.031547292504502	14	0.09581918173968257	-0.02368862175665231	-0.4501066962137433
Si	32.096198018474894	9.20599521487956	11.956679296466017	14	0.01650726748694671	-0.6091632417445959	0.27035172441357047
Si	37.9368490151095	-3.396878073174386	16.581772572597973	14	-0.20553955861380976	0.06876344045576432	0.12728179754233462
Si	37.48950374497416	10.865640379398666	17.41801407244962	14	0.04386228543013018	0.04175217929388465	0.46838854059265617
Si	35.11913602190107	3.79775136368513	25.025316787025577	14	-0.039491663496410465	0.38205159527367966	-0.14987050044302758
Si	28.051028943342132	6.528645832158797	25.876634135474752	14	0.16077841476375582	0.016110545936047865	0.06395881594400361
Si	34.12448908035271	9.974342110008692	18.858919249046856	14	0.7555452664892466	0.42160830773468994	-0.11707502364241078
Si	22.366758519125504	-5.3530427994726795	21.342232049046277	14	-0.005292363190992805	-0.0608349229800237	0.19030010316022805
Si	25.06687989327324	-3.2214850439497806	17.132051703614366	14	-0.07414424966977023	0.03669584357128144	0.3128266414129488
Si	37.040407413794526	3.958284967587346	23.47849209209258	14	-0.235564412321435	-0.32466041075946234	-0.10425574962668446
Si	38.95875545190338	5.241381506064757	13.892606806968852	14	0.0066033697937363115	-0.1682287066499489	0.17399158211452878
Si	26.88946063213452	3.747288670032642	17.15789297057963	14	0.19299796397265945	0.20025233763345723	-0.06829447084536931
Si	39.64954247559087	-4.180587741697628	25.288095632297043	14	0.29773399607314754	0.18292257355459515	0.11073750613877777
Si	27.39939649718129	8.479595085440371	18.400828235386964	14	-0.04735538911808336	-0.10780747451593702	-0.3380088182500751
Si	36.0621299417837	9.585234375728056	15.974146192381395	14	0.048701105642648866	0.23578912692641593	-0.12775848046869007
Si	28.958029377171314	4.733034384605914	17.57032687103721	14	-0.0035013312249776536	-0.06974868801444507	0.0859939598692687
Si	33.08164041254892	5.236131602072448	13.624179642130395	14	-0.10935399436600608	0.09048722352675947	-0.22839102847822185
Si	36.0417205711103	0.4355633182025803	24.741754749060014	14	0.049168532589851786	0.10689987433792474	0.18219083698048102
Si	29.241943922744106	7.112452535548308	17.667756694534688	14	-0.1130247614315815	-0.01277659366741185	0.19993994833705925
Si	36.01165085242855	-5.26079729715686	19.01522112209206	14	0.16200740310678657	0.14169515685655273	-0.2660055279803922
Si	33.43591711609483	6.390174285758299	17.381764813434646	14	-0.09751842524576843	0.15371096045973276	-0.14302724652292145
Si	36.12868829673928	8.207016528687946	21.784797971855713	14	0.5913231132596845	-0.149513116803527	-0.03785438362854017
Si	39.95824404444777	10.653552128046686	11.072460691485409	14	0.10874952750523928	-0.40666247250866916	0.08309709550505785
Si	28.72586458790996	-4.414115013850178	12.358031341494485	14	-0.3632388176461562	0.4418079395719013	-0.20912162254584005
Si	34.011360371556556	6.962477764160291	21.128689498868198	14	0.33398838086095956	-0.35673212141245747	0.05575390464634706
Si	29.514155215756908	2.3522488320615254	27.538778005079518	14	0.07148315566341697	0.035106129151833886	-0.08546482639438222
Si	28.670727479428596	10.722764947263208	23.626540368417835	14	0.13512238321612619	0.13138913829127116	0.17588648673547794
Si	25.23218628622031	-2.7699391947924776	11.757904355675418	14	-0.38067399704314436	-0.2719470952647224	-0.26743609098052257
Si	27.118561064568382	10.403573407843286	12.727110085403467	14	-0.33322810501779176	-0.16941347198147313	0.021827141504865102
Si	28.610779871786253	-0.5502545374624036	23.887807529903885	14	-0.09650746663388621	-0.080269393873959	-0.0946251604290058
Si	36.43931800022921	0.33546263474149274	27.037271170771177	14	-0.1480771544822243	0.13035452551044358	-0.022853526748668217
Si	28.813958698311808	-3.777119011455521	17.93288504399759	14	0.24956536634230134	-0.14587268878072934	0.108084896779981
Si	23.980864619501464	9.949820697107706	20.245323470426	14	-0.10374152856265485	0.45061860328298464	0.04132794691606022
Si	38.90237718873051	-3.07101840148191	20.50301964787231	14	-0.14672783841021056	0.07860280340543901	0.02598281903382044
Si	39.261157791797615	9.04961300289131	14.164257366950618	14	-0.016536835198128416	0.04985578904192737	-0.004097827659252008
Si	28.93429495799809	3.8559872599695773	24.143457523658	14	-0.20594193659641294	0.1267482931884039	-0.4427826455987694
Si	25.664536046701173	8.129128743193066	23.04257298714224	14	-0.19529730346046786	0.13096002081333843	-0.30012383846822516
Si	40.09494485496079	5.82703272600372	17.254230840279835	14	-0.2165731999846932	-0.08569211210468332	0.24039783321278135
Si	33.03921817148178	9.217893576301226	20.828761270505623	14	5.992946196163778	1.6584786312349178	9.614014053011262
Si	37.64367253710306	7.256629786475113	20.04455809133226	14	-0.27757910146850673	-0.876037803323198	-0.10297713895097481
Si	33.60027911656858	1.719371430175513	21.941654019650887	14	-0.0019931208441787912	0.20858657552871726	0.1486695371479864
Si	24.988998666059427	6.911198564515245	11.66399304996916	14	0.041273696593805094	0.0022391756233169618	0.17227896886077818
Si	24.912312685569653	7.826900197747042	13.830944208828088	14	0.006109974682799895	-0.06546316966682225	-0.045078932467624254
Si	36.58117689879964	10.457731692875743	21.31815659925769	14	-0.2969693493509355	0.09589888600460715	0.027662265028941167
Si	30.752196363319694	-1.1823072355045277	13.236926261820807	14	0.09543325883112834	0.29165358910152933	0.27834606218550695
Si	34.53801657417783	-0.3343854370766125	11.937596338137949	14	-0.04152309380985946	0.1615615734442729	0.013990412489053758
Si	38.744742345058896	7.646485164797127	17.821310647813778	14	-0.002999708577016764	0.2715706854458527	0.13949480492357
Si	38.988618584731576	2.0832970047378905	9.949346861300778	14	0.021895790016913056	-0.230754645599034	-0.005371810345385381
Si	34.292049882415775	3.366382066223438	12.926358862000992	14	-0.16102498376395802	-0.04907880101417862	0.1858796017832975
Si	31.057154793258906	-6.411206693132856	19.43021767087568	14	-7.538732509885011	-0.26121504454789224	-10.867797107307423
Si	27.045562477607252	9.756559631122268	26.893695642132062	14	0.2689468724666416	0.09284595554746333	-0.0769338989421309
Si	29.223974232626773	-0.13882077486719444	11.68968183689967	14	0.11445660998437195	-0.20230793633691563	0.015403234862475126
Si	40.315873669188015	8.96414056534508	24.440045947388366	14	0.619444834809336	0.29704134029989965	-0.17080623973339734
Si	36.84535429750816	6.096591194325843	14.591545774019789	14	-0.18389985068678344	0.3959515048554642	0.3683164935429166
Si	38.553337272614776	7.208187043390558	8.49766970805474	14	-0.7398610098152792	0.20692692704456167	0.23361551448876272
Si	32.150185788199664	3.6050067623335416	21.978711586807087	14	0.0924165809589986	0.047949057336505556	-0.0377039739673115
Si	40.103323059020966	-5.275878064465184	14.412114483229582	14	0.031075664451969753	0.10123418665444642	-0.08748417251282653
Si	37.60563450692768	-0.14313940294831254	14.700308307197105	14	0.0526847762256863	0.2272666841217211	0.03405994639706563
Si	25.369803616512126	4.897863662605522	18.63303893261577	14	-0.007587331799756982	-0.2615361756023788	-0.1342098979380056
Si	35.01467408153194	4.816136003547247	18.026270047648406	14	-0.05350264482802541	-0.21281064445918849	0.007283941371979508
Si	31.013827509404834	11.300192082747014	12.573595481810768	14	0.2830421860527574	-0.626355194578298	0.06331989627194681
Si	33.64126345451228	5.58834244708297	24.9775151159151	14	-0.18044145692065225	0.028560866338332925	-0.11174383676108372
Si	29.333554911366914	-1.244005904191147	26.038886009015922	14	-0.032974168620367096	0.1137001907991844	0.11318571262462276
Si	28.462547963591184	-5.064114448025907	15.936144232751877	14	-0.11908768488702268	-0.16855266592028753	0.32630951771180533
Si	31.709969369581668	2.2970838508856333	10.441718010085964	14	-0.31445929329124284	-0.19848136028893926	-0.08886125652229783
Si	29.18010097187406	4.261390683125777	19.827282239658086	14	-0.24166873057253058	-0.03107360756771364	0.051832454812057206
Si	37.83792062438874	-1.7764333941493757	10.912046776212625	14	0.19266192050731606	0.06663867901919396	0.040402091890274903
Si	24.999685385054388	2.1869604743873876	14.624519171642934	14	-0.2338196602511825	0.2749884557479255	-0.10708113726299517
Si	30.4667111094319	7.787066838130199	19.547546958693786	14	-0.1625686753981749	-0.1377500528533175	-0.10562717720445144
Si	26.97885492175745	8.76853327430874	14.39921762351581	14	0.07687630618295957	0.19662759335311247	0.09379495052112997
Si	28.454427172062793	2.2384249454725116	20.790959338448577	14	-0.24589485638725792	0.042128846223286345	0.05059189649508577
Si	24.099333408654566	5.66784848843057	24.902265398978503	14	0.6458701410687538	-0.3581613988599278	-0.1736897343499434
Si	25.13550246719394	-0.14598077821960248	25.167847909405136	14	0.22624107020951403	0.0450172259399407	0.21188761764925534
Si	30.059323806253623	2.6100630585669995	22.52664449277258	14	0.02090025803695172	-0.1656838266040663	0.01480133910702846
Si	26.49161070919461	-1.9092894123882074	13.509699927434909	14	0.0030860977157737396	0.011639393784310354	0.7118932974743045
Si	36.88644356794889	0.0948245463445203	16.944047099902306	14	-0.2774873130085775	0.02698812121399834	-0.2610466371494226
Si	32.09666857514129	0.9805040084322946	25.028364748150405	14	0.12338117366113795	-0.08279164819302427	-0.006176052089527701
Si	39.44783926230487	5.652388980390759	11.684968072384402	14	0.2681783690864493	0.025044108481434377	-0.08389516659643181
Si	26.551527165001893	2.3735534081002685	22.320443938246452	14	0.01950826161662355	0.11301884788934514	0.06670732753124191
Si	40.518347480499116	-1.8740238955329418	21.731684093082812	14	0.2004654822644975	0.07223726085381639	-0.014329027059717258
Si	30.630905873738495	0.4884624132706118	23.24714708796432	14	0.10910536848154775	0.28287300732269166	-0.1681387179637437
Si	30.050288134516705	5.678959856124472	24.959611008608416	14	0.09678566022952623	-0.1219128154128014	0.28354046626380214
Si	35.42527002372114	1.8946726434652126	20.53178426862217	14	-0.20561643466288215	0.050992474703964834	-0.06895190247573117
Si	27.3712926232487	0.20129823943024952	13.062610430261083	14	0.23807638221921965	0.01870119165662907	0.26433688062761607
Si	31.92347584921389	0.6842598944578275	14.116337646780975	14	-0.22275156606900906	-0.10916193279859102	0.10395158786731094
Si	31.745767746773442	-3.8502307287650193	22.521578220650085	14	-0.1365364911422076	-0.036525893509619656	0.1605788969909123
Si	26.80475879261339	9.77409647468933	16.508167344638352	14	-0.03913325141478182	0.21906922902949297	-0.04086694773215767
Si	36.392457442451516	8.193275290287092	24.172418892839808	14	-0.27699957432934535	0.256261038817031	-0.07244037817410809
Si	28.63162700772073	0.5308321880892354	19.137411735749392	14	0.11293374430324826	0.2698791552557273	0.19850938533692886
Si	28.47942733948151	0.7608622568640232	15.136502859952165	14	-0.16435610781674184	-0.0068450536938302305	-0.05466195621688017
Si	32.464838997122804	-4.8629752469114775	18.26947406351195	14	-0.21639707927026308	-0.0770591117712221	-0.28554027198181325
Si	39.385165049309876	6.039234107704067	21.119963705911587	14	0.12042568809562773	0.15752236698632027	-0.2166372205071649
Si	40.32067597049766	3.9346767953246204	20.237873263136482	14	-0.011596970546527911	-0.12645981517148328	-0.2515379183439189
Si	21.566666264502594	7.241678545217818	10.85033663053414	14	-0.06890690813262859	0.09283541401565072	0.33743443332155404
Si	36.079756961715404	-2.1066231709148333	17.01604063029027	14	0.19669367075984026	0.1086353704290247	-0.011430105811250299
Si	27.736565924569874	9.050814807896419	22.297901486656745	14	0.27474471496357555	0.12436410722503057	-0.0767847748335623
Si	31.79171998262367	4.632279512608621	9.976904758334731	14	0.2159113974752871	0.1904939645013672	-0.00459096565965641
Si	33.5570633234926	-3.924690172833318	14.501474341876925	14	-0.12460116313554823	0.17396638528239133	0.3532963533731436
Si	38.559403682599644	4.032588652480357	17.033280711639154	14	-0.0428068466962094	0.12486264454660728	-0.17322410717646458
Si	39.57769322738633	9.830837082891021	18.025579788566343	14	-0.07257330431915975	0.35004184825890017	0.05528622058861213
Si	25.874614184906818	-3.355518273639729	22.24951776810177	14	-0.001454731390139783	-0.289303598838914	-0.02688424855906436
Si	27.938108459969786	5.14846541951007	13.547003430131035	14	-0.2954899353497223	-0.7444445192695072	0.053849486935713384
Si	38.8336972298505	5.487649878755792	23.341328922764497	14	-0.4192128089079079	0.10836000504923683	-0.3942792579552399
Si	28.544574024437907	-3.3948040167876683	26.47811048762288	14	0.018390859244487193	-0.029495206011674734	-0.01571948081685334
Si	38.622810783503624	-3.4760529213282183	14.359969590483992	14	-0.011325718935252287	0.10338208803889815	-0.09747163112894172
Si	35.67003655004835	3.8838353609406444	11.032281382542402	14	0.1793729055495987	-0.08340022882230332	0.062363702203383754
Si	39.47144087628653	-2.5050584204397675	18.202745193248692	14	0.10430588618042734	-0.27029541720705924	-0.33414624672761667
Si	29.281836306890533	-4.999735081954084	19.89938726082415	14	-0.1382290497744611	-0.03427489080183001	-0.2205864382789124
Si	34.49997198572139	-1.9981688769475587	15.35293269336899	14	-0.13812183468261094	0.13892299110036907	-0.008848201848757599
Si	25.707412448732047	1.6739012279835432	12.36239095883226	14	-0.3986493656678956	-0.016151169400106205	0.07457670958461912
Si	37.87542251508707	1.869500321168551	24.194153036288288	14	0.07608260597062985	0.1528139018135331	-0.028978413842324968
Si	35.859105234863165	6.25901686231523	11.289461095354865	14	0.171616652130308	0.3090296330761541	-0.32972188869270586
Si	27.317229433291676	11.49985239148135	25.35789869680939	14	-0.03192181521283049	0.07829555631968131	0.24468797954998045
Si	29.408671823111952	-1.450644223978345	15.134523898640886	14	0.14229268173295512	0.01772854251401705	-0.004297602542627514
Si	34.768694273207764	7.458849464394955	25.79520651777519	14	0.3632064217191224	-0.6555619225730521	-0.3092036969063281
Si	30.7548672232833	11.703529647367825	10.10237123338389	14	0.3245938191316705	0.08207379558763891	-0.04856560839227706
Si	34.852881287665305	6.778147437414739	13.371292324274792	14	0.20566220033758079	-0.06877012532959673	-0.07278722028179607
Si	26.08392500422789	3.4167381878086247	10.821003078901915	14	0.315400574948949	0.04958916542022802	0.38005178955566854
Si	37.267863357251414	2.4074744773372667	27.816513010319078	14	0.14751871040668812	-0.08104741034383581	0.18206588126192183
Si	32.14686401884038	-3.110446787243006	12.775972558476163	14	0.31803107280199255	0.17934539472267313	0.11090797042150358
Si	39.541706299613935	-1.3416324761205691	14.250962761337016	14	0.06712256104044582	-0.018474677277924022	0.013260732799195731
Si	26.70473680852508	-3.095930032106249	18.799045422066495	14	-0.08234993229902282	0.008042931662487221	-0.24466921048114335
Si	33.5109208974915	9.193021295363275	9.993305379707332	14	-0.15343662352207296	-0.20685210787974534	-0.11969729395842978
Si	35.94787484821468	-1.8955596509792159	24.396220234173377	14	0.14742049418345848	-0.2585791473736765	-0.17589240027771427
Si	27.279971838563007	-1.1542000824314038	20.10104948485349	14	-0.07998528673608263	0.04628169553638952	-0.06766300737874095
Si	29.427890865772113	7.510540196176812	21.666242285478504	14	-0.05481030899385272	0.16676446217012456	0.4678799759603309
Si	30.496887400180942	7.2155733074396995	15.693840340964465	14	0.6414136442173413	0.14706953830725825	0.47134196927391026
Si	34.03292072055682	8.669175316178233	16.922427726372455	14	-0.15891462051718047	-0.181218702058933	0.23177331752687663
Si	24.991190771505305	-4.9756989818518855	12.47418997614254	14	-0.11025208145433381	-0.05667050369297985	0.31734047391300074
Si	33.619119418497256	8.819735414151275	13.669840034473241	14	0.08342979653348502	0.09778556308853183	0.19381043325382624
Si	27.82661112358848	2.673548858843755	25.853960518263747	14	0.10002499582238078	-0.227282624974706	-0.24514563629696678
Si	26.315663505220034	6.794011919310297	19.635764036865602	14	-0.10435062341299792	-0.06113908473939721	-0.13220957799893043
Si	37.214764234610904	0.28347350117119113	20.690889806822547	14	-0.0012467289697398035	-0.14865745295298172	0.03751242662096047
Si	30.851831408825184	3.5987419643464675	16.604608507265326	14	-0.04827918725961257	-0.30160273824837436	0.02283295790610703
Si	27.94544061820014	5.814030933792913	21.04309245398174	14	0.2734884729041512	-0.07762038406261043	0.03549385183411222
Si	32.047360138956186	-7.511243571821003	15.308003549364859	14	0.02072747975943777	-0.19496511665310473	-0.18140819252102794
Si	35.20624147143242	-5.569995655804416	9.94791223731787	14	0.520215853194073	0.1250781031724357	0.06079069996851715
Si	38.25933281162391	0.8833660284421943	18.686106903421216	14	0.018540240463587796	0.03607235053114554	0.19169132824896018
Si	25.72945975010137	-4.805154161904373	20.26712811539593	14	0.29249228365696167	-0.13473131809693165	0.10075570395436688
Si	30.270457827710686	2.2592688022664578	14.74046302258612	14	0.2041948705313723	0.02252442526768926	0.01453908636437336
Si	35.81639770856971	5.728561775387216	20.018215115865548	14	0.42867113404913665	-0.09920481322525355	0.012839585747755476
Si	31.988638929872952	2.5624745315911253	18.436464295122384	14	-0.08540260564563464	0.15056444176893555	0.12108774771556587
Si	39.74546389444346	-0.8766880587480431	23.73392566257156	14	0.023977099773572926	-0.10980650890235213	-0.12797548175771054
Si	31.059012426370487	7.140833496855884	23.379840788746794	14	0.19828287095822383	-0.1559239108087842	-0.1703249288174656
Si	27.4001425016524	1.3784441077368423	17.177011999453555	14	-0.1517258100420464	-0.08015112302923219	0.00430377319539587
Si	33.131209540406346	-2.741176213612882	19.188540094929948	14	0.03336369107636953	-0.149408729927529	-0.07694469758447552
Si	31.511443643471527	4.317695165636664	19.881655308395413	14	-0.12198557769336157	-0.14137222602834212	0.16389433730124325
Si	33.17360554834922	-0.1410768235534581	15.975939882252598	14	0.3554671375949446	-0.23290434675720978	-0.07855446662542022
Si	27.941536801396367	-2.144984196432647	22.19109823994751	14	0.00864071364942165	-0.058544068139771754	-0.12669687108200092
Si	35.01430517822205	10.661704071410131	14.113284766945348	14	-0.08701777400775165	-0.15037752241216076	0.05257344736532389
Si	31.261594449319155	5.451128451076632	12.129612970291353	14	0.3381558854743876	-0.05233150635469795	-0.006227988416994692
H	34.79528154464414	7.787904658536217	20.01236348958555	1	0.017009147245439615	0.6039068740280851	-0.7990319134321031
H	31.70354389370851	10.190717837606734	20.620667012322055	1	5.351910761539031	2.1583377580567182	10.472997457635385
H	30.242949117784715	12.791707514320692	13.012972440452483	1	-0.07453402923630469	0.18351701310461338	-0.13868619230038343
H	32.52178127246724	-7.494055956720638	19.5623227659326	1	-3.793943065032003	-3.2623369581591417	-9.153548887683705
H	37.408622104173226	6.193852142085906	8.748907618222567	1	-0.6580870051079695	-0.8417505712158314	0.28965789715203044
H	24.255238505695356	6.754927843305098	23.710450295500397	1	-0.13717875325118062	0.3293843025641704	-0.4223513571722128
H	22.591637058123958	5.266691552263778	25.340894713578837	1	-0.35515629096173873	0.01584366520381649	0.2274433190572153
H	27.76757019830334	7.313978675245557	12.984943986752135	1	-1.0374147714054844	0.2582680436299386	-1.3475602641905828
H	24.314389282188333	-3.3971338461359104	10.481293957171017	1	0.02593731046965382	0.2697228320522623	-0.25436999085406203
H	32.67289882433078	10.499737483095275	10.346450779769574	1	-0.6398830652202571	0.7060630590503367	-0.11235138894823472
