236
config_type=amorph dft_energy=-23390.085716056463 dft_virial="47.86937038941883 -10.314550913235102 6.950408035112611 -10.314550913235104 66.76591844072149 2.798740713732156 6.950408035112613 2.798740713732156 85.6624664920242" pbc="T T T" Lattice="16.340244157064422 0.042191058897306004 0.07359741644983202 0.042795655790877 16.528208429138672 -0.031994613989514004 0.073417671427419 -0.031537081205190005 16.286941587690677" Properties=species:S:1:pos:R:3:Z:I:1:dft_force:R:3
Si	7.769950832997174	3.4343881432451915	14.849950397462049	14	0.21062211961067848	-0.010390607930314431	-0.012349018852671223
Si	7.008642424612571	14.422013448101177	14.321491861339537	14	-2.1083063625214246e-05	0.050236569739841294	0.04429474534497909
Si	11.878490657304564	2.582182677026334	13.163468213987201	14	-0.20068274066405004	0.0476582653247968	0.161372597203242
Si	10.260912911148912	3.1781714180694096	3.459812259642681	14	-0.1716842722002279	0.03845807915771094	0.1781326043431593
Si	1.4627028986619788	12.575938927317145	10.564498985913152	14	0.20257610262180706	0.04145058863983129	-0.030406148626603194
Si	0.9185787668133452	12.792433636585312	16.1297823443667	14	-0.0742203543872466	0.00012701260281531513	0.003950760434939539
Si	6.62287365750979	14.470405710271733	5.75840631267105	14	-0.022784106905024217	0.01768586216570259	0.1497478587192565
Si	1.4555768255461323	4.9654137589720095	6.461006728644251	14	-0.13506299068323077	0.18987509945080758	-0.01017386375182595
Si	15.052134134854823	15.263368851148924	11.226287477524652	14	0.046921386540042374	0.13267546228294125	-0.11270131638230686
Si	5.1673148064659	12.040790608269553	3.352859069169971	14	0.08711316201512916	-0.000669258714834545	0.038620315903412285
Si	16.570525309551666	5.01894346069226	8.595526257122716	14	-0.03593376795438955	-0.026888619438108607	-0.13642181984492902
Si	16.309839469500435	8.680271133053472	13.56701212976097	14	0.05925086499228047	-0.2193782758889748	-0.018399858113107716
Si	9.78678966125619	2.467619735922921	12.064951607373176	14	0.0963215757192395	0.06349935942329314	-0.008891396418136086
Si	14.163347288483605	12.246873178603034	5.528920940419398	14	-0.842907568609898	-2.076305100154202	-0.984138640956164
Si	13.115834149002099	5.5183715416494135	3.169921121540653	14	-1.3683432798249358	-0.47906428410297497	-0.40894818513828074
Si	4.3338256992172095	11.292546394923058	16.243949846420804	14	-0.04753973736953798	0.028723360194566283	0.09532192997076593
Si	1.0784897430258997	9.841388028836969	4.498503186615026	14	0.057191409630841857	-0.08680514359777541	0.07107332147538536
Si	16.165968285469752	6.452746627841544	5.413047494698029	14	0.032716029646224234	0.00839697286507161	-0.007074910509451469
Si	4.826532950381776	1.1460003393985643	3.765730117561316	14	-0.25264426496317866	-0.21872418669552912	-0.005811983576194732
Si	10.934242667244984	5.679465566918577	6.158595532708328	14	-0.1259206543858482	0.08839460090669096	0.007339734357426722
Si	13.138903605605977	8.364349647614723	6.136892138274788	14	-0.11911108194543603	0.08572039426320494	0.12484516103043027
Si	10.566552981305636	5.974737617373387	13.169741315269414	14	-0.0577686227752151	-0.02386165714469828	0.14120818950891667
Si	8.589635522524546	-0.33902525700145086	14.020152599355459	14	0.008165059165194255	0.033576578596877786	-0.03618522205470003
Si	7.461529617130025	3.4579853965967016	5.7208330668041	14	-0.11880897707031861	0.38030530054023515	-0.14428091747702565
Si	14.026739437404066	13.673594391869244	1.9178123932747198	14	0.42830526576207956	0.051860736970578844	-0.1269694082459366
Si	12.126352507029457	-0.7853926073422869	12.706000791489533	14	-0.07205394104448984	-0.3385772896363598	0.09172006852777048
Si	9.952537448560193	15.20588312488993	12.31748519363515	14	0.016691615738401326	-0.03905277581826119	0.2305610413684268
Si	13.40771228662462	2.5090722061826756	11.40893783311811	14	0.06617433739837521	0.1523053371812078	-0.13440453061074084
Si	15.792646044146244	7.175614112114641	9.08345065664544	14	-0.017590988379389126	0.10648618349191291	0.03510124405172561
Si	9.894365423124713	12.921856588905305	12.690219178521671	14	-0.14074256233543786	0.016110031714983833	-0.27026070728523727
Si	11.93333903387106	7.042679595674961	4.544593078453036	14	-0.154044689930288	0.702059848066866	0.49648557953123434
Si	9.29172284816104	2.501799068957582	16.35305017288852	14	-0.005170492798817788	0.010716109863845179	-0.035910628006508225
Si	9.372611376338206	5.974392833739485	0.382758855000192	14	-0.10998108695359018	0.11395575866800711	0.11412133785062466
Si	16.165549969781228	8.218898341432466	15.814542255967464	14	-0.113884281940107	-0.041964809703860906	0.02030838959225363
Si	8.9827722015006	10.771432894034605	9.370202793037873	14	-0.004009895857302944	0.024339368513181792	-0.07247020299582181
Si	2.5315190913907424	5.099480669052891	13.893517328928525	14	-0.17591785422038375	-0.034473637243077455	0.008314183273762843
Si	10.27402449351111	1.225980338189716	10.11066894905086	14	-0.2393526789001411	0.19457430864444222	-0.10398295535221674
Si	12.22952451584886	15.064080642662654	2.5401239758273504	14	-0.00545254305243803	-0.07402237927759521	0.4154152863500492
Si	1.6988911262039774	-0.12408779324564372	14.430696766729385	14	0.011284581250129919	-0.12670998371913367	0.03121347569712969
Si	6.1500020865913285	11.702456552581564	1.2435806439752655	14	0.07842848246473297	-0.05571585228760888	-0.1110264983767624
Si	9.637715675849481	-0.42273414798484327	4.848697145690957	14	0.07177471900672176	0.055981704577712184	-0.0761162874503238
Si	11.871742048735785	9.846201927346321	11.89330654928837	14	8.870313354510874e-05	0.046284780862773704	-0.004674269472029208
Si	9.203935379214531	10.373144069097929	16.16136517885032	14	-0.5482324165361306	0.025562186203444213	-0.03475465905456964
Si	1.0317789138377358	-1.0943187433178518	6.2828859476156005	14	0.10396315784125161	0.21305721345939072	0.023014735052241497
Si	5.374908869033307	0.886915864092466	13.838905888982481	14	0.2552637070633455	0.4172618541909796	-0.22095796299767376
Si	12.92992714041165	0.6368431505918922	3.2731503219580973	14	-0.0013755413462792222	0.043465049658167304	0.007337677473170603
Si	1.1704897816795063	5.724684512420713	12.051173334382392	14	0.07289932047375454	0.1583132389827978	0.05963267413232246
Si	4.125555141747268	15.079664536105863	9.13859316143043	14	0.24013403780693415	-0.7485058372332132	0.10917684520944787
Si	0.8286637704197293	8.791999004939733	9.963735563456522	14	0.2726158397584929	-0.7589177853376848	-0.13338200202491796
Si	6.563678719492215	3.668239685495821	9.446336248349386	14	0.12323719176320966	-0.198980668942112	0.4122736527593603
Si	10.1838349774469	0.46670631664969625	15.636349576929849	14	-0.09475294436341715	0.13386485560404174	-0.17373807112996217
Si	0.31032487905906964	4.844259077683015	0.9952498231464394	14	0.01686208002112715	-0.006704928453882161	-0.06160111236542782
Si	1.4137681333328687	2.824915257429824	5.4384144194974775	14	0.0005972677658703987	0.030028453255073445	0.09050136460602029
Si	14.321217341668941	1.3692338529615604	15.464420194900496	14	0.05197309427306931	-0.10811163627531054	-0.025867890626009825
Si	10.528862084151287	6.669260945657611	8.234258370620488	14	-0.006363999888430525	-0.042069196579858914	0.1369478679934313
Si	3.1234047437858266	8.732500134429715	4.971672153843299	14	-0.09638096825213492	0.05556364285265611	0.0027359131711695707
Si	7.088253129084947	0.5745582322344711	8.055565673611431	14	0.2222959662062788	0.03151840878809926	0.08290451971657876
Si	6.184470645707508	7.962052508678239	0.9289222758303841	14	0.002443578496268734	-0.08803721726719037	-0.017070339552059142
Si	8.78259343813056	10.529471583181833	5.367238658713246	14	0.04859440477186273	-0.09829541327351718	-0.012893064738414558
Si	15.886628180183367	2.9161097115738888	2.123597567298389	14	-0.06329135700289318	0.09931768474880806	0.01151135273936698
Si	15.364117570257068	6.683687934774741	12.629019266481363	14	0.019478179684377817	0.0028852943902701747	-0.06340242875272357
Si	1.0112945174652872	3.9722702206791194	10.573273811098222	14	-0.23756524648157423	-0.0034884756983769136	-0.1874153229910219
Si	7.63689539717878	5.3316965315995635	10.614719745175345	14	0.00871141904572572	-0.009593565281068528	0.10076418860192336
Si	12.896767451867767	13.657935332325756	13.602220911560359	14	0.26754793406194904	-0.3429828786024336	-0.12060283725218594
Si	2.8601910351012045	9.850849153198524	1.1206595593296478	14	-0.12235196020148269	-0.031344344957925235	-0.07832101026235079
Si	2.434933920619946	1.5811597705691207	15.943943965693899	14	-0.08185113786691409	0.2789315028669046	-0.018336351811700055
Si	7.021925581768892	13.476151020931198	3.72391325511976	14	-0.08430345812127132	0.027749939720358215	-0.03235838889619163
Si	13.839853635464294	0.6889528666350793	7.0294895791211625	14	0.033911336509561074	0.03943072830032295	-0.05042400331768009
Si	13.770447546128002	14.978620054733565	7.538983381333444	14	-0.2772695403879609	0.272999448672259	0.2838497702338159
Si	10.638227126015648	8.35663531806189	13.277720686415536	14	-0.0952607376641464	-0.12440421646802488	-0.443349060100798
Si	3.649992297629585	10.714122010661049	12.793593809002704	14	-0.0685302412032269	-0.04920967027497416	0.03798833821571988
Si	9.296361903784954	14.13823527480685	8.38378008453757	14	-0.020533875528830618	0.1009523935113582	0.09298582367687937
Si	2.238854977806579	-0.31965201167664603	10.154386206593017	14	-0.4377990721567264	-0.47009549741470247	0.5305735509762896
Si	1.0897287090636871	1.204191973381944	7.16312836923957	14	-0.02252879614673351	-0.09550190734317629	-0.19698446277154905
Si	15.107415533520772	6.163721533938415	16.229650312865022	14	-0.04732196474892143	-0.12094376581763758	-0.09121561766395743
Si	14.320158480082364	8.824273040736816	2.5343084073294606	14	-0.5071171000300466	-0.43724397051810643	-0.6817879681701586
Si	3.500217306635465	8.135253178229748	7.173055196613743	14	-0.0005684713862847403	-0.07461193372750516	0.09299636520869199
Si	15.757265687552731	-0.5246855246974969	15.111817652524232	14	-0.0720811947608834	0.08345833580253866	0.0991636755401312
Si	3.9069476114429182	13.214831171164544	7.6888711214779875	14	-0.011693386996033464	-0.00018820490943483937	-0.0006255499243920276
Si	12.384066018028243	13.615239353320035	6.118652920636843	14	-0.26783435519461357	0.14961364702154478	0.11310703680182622
Si	5.64988607241203	8.869116155737544	7.664362070649146	14	-0.05666638992446762	0.13279681845405222	-0.03180174459437958
Si	7.33519337705856	6.012358250564429	1.6515185085242021	14	0.08241061038457831	-0.1238210897814153	0.0027911919355527548
Si	12.098438105048718	4.614994301595233	14.332221005131935	14	-0.014796711117452193	-0.033990526553421635	-0.0257095105382887
Si	6.079231569130356	12.59616677852124	7.101600014021941	14	0.016228816780774674	0.14497254480814548	-0.024987801274923133
Si	12.329949693916662	0.42238282816830874	10.675068319427679	14	0.014434956598907362	0.8283764526720172	0.31973622985031475
Si	10.218265953512939	10.475530101955691	7.391850642168796	14	-0.08503828002176965	0.01437504984494791	0.10249994180355533
Si	15.151899158476672	14.400962037885298	13.491919561533793	14	-0.08378229507287731	-0.172224204317459	0.09390447960776828
Si	15.875972568445592	14.665268923115324	0.70828199272711	14	0.015562386281792294	0.05275496740092635	-0.11775122434160971
Si	4.861244982301043	-0.1256728175341947	1.787203123806801	14	0.3547310301417862	0.2515505167599877	-0.028924677741133872
Si	10.620852318530943	11.582504528897077	10.934388097308574	14	0.03508993118831695	-0.09382631800603579	0.1033417216853718
Si	5.4181555214258745	7.983584328317658	15.046413341005117	14	-0.08809609557902176	0.03349198923184492	0.04522291436555254
Si	5.105203096948259	15.224272674728438	13.204170657289795	14	0.0026292123003834253	-0.0023114236828131233	0.14620307581436837
Si	1.43298124218316	1.5045916591124993	1.8238629381507614	14	-0.033569893723045405	0.02310626640163877	-0.006005587806801883
Si	3.1209667476636436	14.788466161477194	1.8251636384947683	14	0.18231604980957222	0.15321088047496398	0.05173166748350741
Si	4.626430987157674	4.1738166802651575	13.37677163208471	14	0.024600592813708834	0.5247319996889132	-0.08330921169397007
Si	10.942930888010165	4.176944243655144	16.422281419339374	14	0.21882728801886703	0.11858426246533771	-0.05746754634222576
Si	4.758017415929257	0.3440123643505824	7.728147042920886	14	1.7271330568251078	-0.6962316665271544	-1.14273367308205
Si	0.5383968018162921	14.61233074592338	9.841727910333896	14	0.09052527588549766	-0.0038044645422231124	0.017503827909036106
Si	15.219470214538694	1.1115726314238414	10.834065864117244	14	-0.03016060806852906	-0.21165390417565388	-0.20030735928730842
Si	15.402751311756255	13.336809411465323	3.8798077471042136	14	-0.10245469034992073	-0.3008972269485257	-0.6813657926765903
Si	5.323676635508627	10.25180147255823	14.424734134122248	14	0.05709730717612444	-0.06636434208153416	-0.04666761844494375
Si	2.2991545306891656	12.69783383128935	12.779192964616106	14	-0.03685602343272667	-0.12021742856469574	-0.009295831284995379
Si	16.61954341120935	10.007292684524169	6.766971973886976	14	0.055852635090640756	-0.11992766499511504	0.0472396893786767
Si	12.384781730026576	12.626971807271513	9.77920768940168	14	-0.08493080781938747	-0.30908979694064553	0.015844179424880523
Si	14.24212299562459	11.125689090617069	9.436875123987829	14	-0.0034892470299729577	-0.23142801808238073	-0.20556526966701125
Si	9.754071165040049	4.708809764975211	11.3742862608882	14	-0.13933642483584888	-0.022968712267010846	-0.09177663284481373
Si	0.7543882250217028	11.020365043665686	1.2847177434229677	14	0.11490706763646188	0.12523571192856076	-0.037635582565795564
Si	1.021909278061604	11.956194430493705	3.3905532344156355	14	0.09688053401583968	-0.02866216788794675	-0.01709707904738868
Si	13.184727148001684	14.872176686506245	9.815217153573636	14	0.33276299206537696	-1.359179346242864	0.3520773923408614
Si	5.669682535562335	4.243562651098377	1.5228129022482026	14	-0.14098938844617206	1.4608462499226913	-1.8691442025255065
Si	12.075667678800308	3.7427799462904923	2.050438075084981	14	-0.2306368889753712	-0.5456566832264063	-0.4212774064799869
Si	15.389252460573038	11.88106101112507	7.454774472378612	14	-0.09812160655387518	-0.854280081661977	0.642782243579256
Si	13.387750784862826	6.949780831909289	1.3950158253582179	14	-0.26478271029012973	0.2298213343678202	-0.558517352037787
Si	10.848113754641648	8.466725876198534	2.9458607808745567	14	0.002367730889324366	0.13883583063001606	0.0903332143180826
Si	9.222195839446034	-0.8125684206854743	10.211605583409709	14	0.06781598814528976	-0.29423035085338173	-0.09624315700697497
Si	3.1898156274304554	13.380440064587592	16.161875001095712	14	0.09461513311825721	-0.034531230002248774	-0.1426048139188211
Si	3.822967468880248	4.630494858709867	2.989277374015588	14	-0.646668983491724	0.22699671806310553	0.2436091437576463
Si	16.60835673463263	12.556797716475819	13.969209591912298	14	-0.030635234110628386	0.05866413875822268	-0.03585894878957324
Si	13.48844231237293	10.18539222295926	4.718888558595605	14	0.548638394066182	0.29848630148982286	1.32636638592607
Si	12.45908995633777	11.940358894019118	1.244221189873319	14	-0.2161787924285825	2.1132613966944143	0.8858604540882918
Si	8.38544190897206	8.860841348523913	12.766519306490332	14	-0.04245306260415702	0.03083937987304815	0.006301264918618913
Si	16.191479006287132	-1.0133746575883031	4.349174290085622	14	0.01789977812833891	0.08194446899003546	-0.03380592119143501
Si	14.531345809052373	4.808200592141309	4.837840546337212	14	0.558690644536365	-0.30316828427781256	0.7272325118143078
Si	2.0276349679234045	9.624926000481967	8.200446697858943	14	-0.03936002290401888	0.22971411927597005	-0.031393710180072074
Si	11.722488318306663	8.710197045239578	8.012604979209067	14	-0.000941024547174197	0.025955822427958887	-0.09879215082136979
Si	6.867936387022017	15.110199947322513	2.015160663367942	14	0.09626526851272826	-0.0864904403065893	-0.013836660390908901
Si	11.087079859802758	9.161964916481097	15.486110516968772	14	-0.1630633560617714	-0.6772931618494757	0.11361945809213174
Si	5.5438381432340185	3.553400590676155	15.557493801551608	14	0.14541271803895484	1.3762095765519289	-1.5557048667147664
Si	4.73436950716234	-0.5296497554074123	5.554364665364788	14	-0.08950069041541865	-0.08860414599028302	-0.16673592290107092
Si	8.66551896885034	8.958821994286897	3.551929949583685	14	0.09584000769277576	-0.01914573576648267	0.015525105254650144
Si	5.691098337960015	8.960158643635387	9.98062669342637	14	0.14010441399497708	-0.05771745777934415	0.004625675581478409
Si	13.756419264151498	2.073445437953845	1.4956534293615984	14	0.0047377757734368645	-0.16368556354924724	-0.08037840873953328
Si	4.445649979797312	8.509219233542627	2.379860045752603	14	-0.052876837793101365	0.10121593180667338	-0.007604043984337944
Si	7.581700602932723	12.583488218258491	8.939203642113347	14	0.009619019223737993	0.02760518649083388	0.013842316822613228
Si	3.1029301516873278	13.216579600018926	3.610412443694242	14	-0.0015843150982752462	-0.1541722167541673	0.09074202006398616
Si	2.36618471763829	7.521639620716248	11.200969574094952	14	-0.009280918874138521	-0.05048262451897948	-0.11033898481415481
Si	2.3466170208801476	8.737314032939066	13.149853345562246	14	0.06471832045557536	-0.015102929761081832	0.04553581788301457
Si	1.3458245148607546	3.6628653093256722	15.387311214330978	14	0.02753730931038197	0.049692780964629986	-0.049060289055873556
Si	7.069108650152304	7.138696118556668	13.674486580798677	14	0.04942615734293063	-0.0122392326555009	0.03824082075815842
Si	5.829240557912697	4.921096806673256	4.127375468610613	14	-0.17919292817718835	-3.899742249182372	0.3749815698643365
Si	12.953808717707703	4.287886139579764	6.477968122577405	14	0.888467811993454	-0.2689954663571924	1.255193048453731
Si	8.645194708952404	5.640003364270632	14.504375885462132	14	-0.10031887316047372	0.05439044749507254	0.044450554327380064
Si	15.080885168212612	10.006228920800615	0.668819790079165	14	0.0036717955077034715	-0.05198749246286214	-0.14940821570646495
Si	4.566644524611794	6.920250358772491	10.564949982514841	14	-0.07311966419969122	0.0037602415307165654	0.11693284151820657
Si	16.693379398325295	2.29987187673316	12.15845496803242	14	-0.04140096630715243	0.18182599713555198	-0.010403206346383158
Si	5.9000797052913185	5.8550339686289625	12.168889983606324	14	0.04573507854532605	0.046229244987858506	-0.06633451725982044
Si	7.67057634628766	10.655047992022187	14.188653753593698	14	-0.21415173299417778	0.01993352243657604	-0.019616505150601784
Si	11.074032005221232	4.72989875824123	9.457472269510701	14	-0.11303144630541388	-0.03433788288217364	-0.044262092307413216
Si	2.851914593841915	2.484401384833662	3.552250222532712	14	-0.014641673466647265	-0.025112499882950317	-0.009350338717782519
Si	8.030036978291811	6.641398833137938	3.7972573944925556	14	1.0340095995194802	0.32430456978315386	0.23861888544177093
Si	7.715836142931254	1.794240958457099	13.158822622180654	14	0.039267206001961534	-0.17449114787823358	0.14120510418253251
Si	3.0883038089998847	14.348659504454432	5.7245946399095065	14	0.06876652578214851	-0.016377940889343263	0.05244437787825245
Si	13.229251624099042	11.23866864147759	13.293286605356503	14	0.3529227717701261	0.2188493995246203	-0.5735377493180921
Si	4.481597350234254	4.93711535626157	9.204886393787662	14	-0.10577141621291175	0.1633112106146337	0.2782761281207989
Si	5.717551903122233	5.117561384261981	6.500449322744296	14	-0.8056152286043422	-3.6976271457444674	1.996842262019173
Si	8.011970969493646	2.7018389384466683	7.88047441323327	14	0.02191378775415409	-0.041158511075462464	-0.13929631559285455
Si	16.161417468311388	10.90150783057226	10.798531907231851	14	-0.4149805124404122	0.9275159598221389	0.25167830069439906
Si	14.430155897616487	5.133606078580828	14.220944129847362	14	0.11873621478975843	0.014884900029933272	0.03595767923386693
Si	-0.030772347837105602	7.977809610961226	3.4851661120768638	14	0.23360188763056597	-0.4400534173014322	-0.08912659459133712
Si	12.003223898585237	2.1230616003224663	6.681267913154799	14	-0.11302090477360127	-0.1426094419083974	0.1543645354321144
Si	5.556098387808244	14.770877294011253	10.944527350618323	14	0.01680088771450762	-0.04738161439234888	-0.0022391756233169618
Si	7.576054975183296	9.758963497741	1.5073123451335688	14	0.021260984113368495	-0.18052013274344877	0.05154012013715638
Si	8.720006221326353	-0.19012284638886334	2.6722463715748552	14	-0.538446789687647	0.21470734885386175	0.5217703434706346
Si	15.319774473227781	8.012551055702342	6.958300745971665	14	0.022425951933927588	-0.06907865796801449	-0.07394113234947854
Si	16.029380042938115	14.189446265737972	7.748098740408729	14	0.320487506824862	0.3355187027475117	1.0708057161982474
Si	2.240394248816698	0.8424355072278817	12.31039016738681	14	-0.28778741803162267	-0.07823359268146574	-0.06955405534170986
Si	6.894633424987322	6.9888721061928	7.214502764736522	14	1.050051754054012	0.6566996366772175	1.0744659417320102
Si	15.478966469350684	10.760417792252005	13.007962624869423	14	-0.03673055349310344	0.049883299868852954	0.19217083939116777
Si	4.785531476723713	1.325907132331736	16.080852481174563	14	-0.6029697061388911	-1.203605362868152	-0.11010347156682924
Si	14.672662979719131	0.7415756730149725	4.812944226687353	14	0.05587937458597029	-0.04045017155976166	-0.13892967597420144
Si	11.123355673417016	7.517492412835483	0.8235737181941247	14	0.037227033930424036	-0.2891940697522757	0.054727262292011934
Si	15.370237071247402	1.7214344201058842	8.458800754755782	14	0.05292363190992806	0.15142704760384523	0.03553961750881085
Si	6.401311772655235	1.9844569454484853	11.150761887198026	14	0.5100643580585325	-0.07483099190078178	0.046981550404533834
Si	11.12893920743143	1.3948589569750212	4.6579419236323325	14	0.02091054245823231	-0.08699746227572248	0.0043976185395812745
Si	1.350368795836487	6.7315671066085905	2.0451012819649734	14	-0.1290147225281144	-0.005712738910837017	-0.03339454434021131
Si	12.963920192241265	10.666670958789677	15.601789511256802	14	2.039344946956009	-0.37033403988763686	-1.8261216400929368
Si	12.31583153942895	10.257484683357797	2.8557840139607693	14	-0.5596578943578047	-0.5128056705508742	-0.5085674605411422
Si	3.1193931616947	14.474530041513281	14.116605412427933	14	-0.06204102848570517	0.14370241877999235	-0.06334200777770009
Si	6.638220614332544	2.699833964423934	3.536672865272138	14	1.9235660175054852	-2.7059497668790975	1.5420001040267812
Si	11.030130100519687	12.635287465626602	14.738328738543574	14	-0.7549911932927545	3.54293042350499	-0.6724152608360907
Si	7.210290195029424	13.646075428937815	0.23344303083605464	14	-0.11900412396411786	-0.16004153597900134	-0.0776962316695548
Si	10.05843504553764	11.90978099761535	1.581417949783132	14	0.03470760782721093	-0.1390307204132833	-0.10729453900456747
Si	1.9217046900327905	7.956460804435537	0.16655663990486072	14	-0.06354743909277992	0.06631831929630351	0.2507933262432041
Si	14.080787131597996	6.844986215751193	10.616448565481825	14	0.025383237273161913	0.019515460711519963	-0.014393561803252977
Si	8.54682842841406	2.1051589960901316	2.2980564520067883	14	0.10059141032440941	0.12410211159290747	-0.293869881887497
Si	15.69663442340151	2.8335185078207736	4.424776680558188	14	-0.09169692857988916	-0.06550867823098888	0.08714581505269503
Si	2.8533983072996514	1.4433165809719075	8.669546891398047	14	-8.398884738987674	11.94777164218785	-0.07179117408077071
Si	9.568984447370068	13.654003818471885	0.14095277848495802	14	-0.16852824041974612	-0.3207163351983552	0.12649426798277327
Si	12.239268330109304	0.740587075391701	14.487077878123367	14	0.12405840280246494	0.012671692570349807	0.028222765988733446
Si	3.160915895917762	3.2545761249602014	10.12980689180087	14	0.09818177041836663	0.09470229358861024	0.22196249384625563
Si	6.38334217255091	12.604361517497615	10.95187401989804	14	0.015014226627536723	0.017427208970495697	-0.03477342812340672
Si	6.485126876606417	10.478200132561353	6.104417114861733	14	-0.05635117241221746	-0.018230165161977938	0.030356783404456356
Si	11.124746246272231	12.651518441150495	7.796892977811225	14	0.04298965228447192	-0.060541302752462785	-0.054486863944578086
Si	0.9329289557845356	-0.7512426871294753	2.204744274689567	14	-0.020269308791387382	0.08982747790160948	-0.03551262090294929
Si	9.221442544397556	12.415650486557524	3.813274310035212	14	0.05642856268235391	0.0863204902449275	0.06380506384585875
Si	3.243431933570595	7.192475829262638	14.713703670472995	14	0.0627431973486376	-0.047875009503285285	-0.2512856929120124
Si	3.0044919731400195	11.582975134046668	9.089826702804126	14	0.02333612321726001	0.0036016043324634288	-0.019682839667861603
Si	13.264638516875186	4.544066915751063	10.168197160496968	14	0.17488401277115218	0.09419167207202883	-0.04077053128265212
Si	3.184214118913803	6.855251290576634	3.472306172746043	14	-0.1397935673617712	-0.14065951563359708	-0.288591659775765
Si	4.669507698801779	10.952774379055764	10.677967116425503	14	-0.0706398331184084	-0.01190550318494568	0.007487315802803222
Si	8.350381825327576	-0.9420142496446836	6.769298854904395	14	-0.03038429423138194	-0.04467372626916891	-0.0348981267314339
Si	10.36153254065005	-0.9564379706704977	1.1612312789795785	14	0.9822275383716981	-0.3366749288099823	-1.0591904908039464
Si	14.502872563456496	3.9756379887808753	8.284116371746535	14	0.6347495963380494	-0.22207613670140613	0.3778185274745879
Si	7.025582575952168	-0.12727091418801212	10.27922566084148	14	-0.019519574480032203	0.0651654356707491	0.02077941608690476
Si	6.0758441924807	7.181996694455959	4.966359871408165	14	1.3359764062811876	9.023221615889655	1.1782455226534034
Si	13.042677924880007	9.024327616636828	9.989741400108366	14	0.07403523480419595	-0.0314045088224167	0.07737252950974814
Si	8.3606044149659	6.979358692370177	9.05861152859362	14	-0.18762975317472227	0.12951248851809508	0.21802381760632075
Si	15.663757424756515	3.064090520435195	14.252685466759841	14	-0.03982256475111352	0.07893730420759028	0.09443489863531485
Si	7.64113411161641	12.610304541556852	12.958823603833027	14	0.030927054564465196	-0.08079261380660914	0.048278158817484505
Si	3.552469184650924	5.745181981158428	7.183222228699686	14	-0.6614901201097176	0.163577577125801	-0.5438797923396519
Si	10.37439411402653	2.7429417229355466	8.334660672049072	14	-0.002717915433928534	-0.04368796448942414	-0.049338482651513575
Si	7.993177810377538	8.925824076263186	10.398303470098774	14	-0.04267417766168976	-0.0948614450079274	0.04936187970992693
Si	9.208904512061421	4.8181290535611385	4.828836954759979	14	-0.05213018880813036	-0.03133611742090076	-0.04343445350485754
Si	4.2395690435094915	2.239567421713598	12.067531765467633	14	-0.03880517837593093	0.5635140381169628	0.3600730156654579
Si	10.93169845815501	14.163234539333184	4.335884596746668	14	-0.015618179267239506	-0.009915981888215096	0.10407011582256977
Si	5.109168925760952	9.836634590016974	4.264702299779803	14	0.06078607197894089	-0.057064139917494525	-0.0118659081630154
H	14.847283634947702	9.732557319902872	4.116742733512055	1	0.34456822214283694	0.5215024342962752	0.44702985447712207
H	11.284150668330712	11.25809581030912	15.013600070140793	1	-0.2571233875414086	-1.5257592030510019	0.21804618622260602
H	5.8898211666485105	5.935208418853452	5.444656473912184	1	-0.39365216536765585	-1.4292820754598936	-1.209319901552713
H	5.764249659945131	3.753500919854598	3.040700790882289	1	-0.9111835274969622	-0.4417251499805925	-0.7459763838192514
H	5.938685668014314	6.2559372666189175	3.9960766318748915	1	-1.32991014038883	1.444343610425321	-5.2277063199543825
H	12.922026529653769	-0.1774491882630885	9.158035036672885	1	-0.18808329615319638	0.5857425291623031	0.24297408074356974
H	5.311163113857365	2.6909071729926413	16.888551445798306	1	0.17016629161921246	-0.8263709905223017	1.3729386163636363
H	3.503671679157111	0.490148335663668	8.670048543415147	1	6.529098274353194	-10.070760371603756	0.7282822941165243
H	12.676161483723318	10.43596822252259	17.114856965198907	1	-0.21156083016306454	-1.48245947546492	1.4253061181928164
H	5.64916545827672	5.23785655753471	7.953481939200455	1	0.8168689565906303	0.07724191735948464	2.7480428747384336
H	3.9921647265689213	1.0025866881522063	11.230253306337344	1	0.007789163567388607	-1.2637077779424655	-0.7281619663875414
H	11.403955627905953	9.730504958556047	17.045169820009384	1	-0.36562686026750973	-0.20740078175506493	0.53057997873959
H	15.426340394879475	13.859202370104224	6.209185586289296	1	0.27397621158338326	0.42870275864457447	-0.7724672532643331
H	14.614811227232678	13.625854113916352	6.070773748802995	1	0.44709181811533755	2.0536752595683865	0.24477539713086546
H	11.543076641207955	-1.5080198869036125	0.0736268292716814	1	-0.1467455790369196	0.09792825943380004	0.2655087904325396
H	13.780993676806672	6.653817580141017	3.885801426578858	1	0.6304491655795698	1.7436359534330101	1.003568226749991
H	13.863633901929536	4.554412058813761	2.3005908568228115	1	1.0328574872255218	-0.9496027829643389	-1.0730796017433863
H	11.994739933527342	4.481208447367578	5.3597302189133575	1	-1.2746601723852322	-0.10494789117886831	-1.5237413995957496
H	1.937362115530621	13.717038763786467	1.8716015820579959	1	-0.57228690657984	-0.6632245877586894	0.15390970690098021
H	15.447305200675464	12.36684317678976	11.338077443145929	1	0.012364445484592113	-0.026675731917600348	-0.06081743946384669
