72
config_type=amorph dft_energy=-6953.640830795687 dft_virial="12.694401704836995 7.996731005583435 4.037355540723943 7.996731005583435 -4.176965031384491 4.9404151289606375 4.037355540723943 4.9404151289606375 19.31893492383793" pbc="T T T" Lattice="11.105996452100001 0.0 0.0 0.0 11.105996452100001 0.0 0.0 0.0 11.105996452100001" Properties=species:S:1:pos:R:3:Z:I:1:dft_force:R:3
Si	-0.44350353051922586	-3.1222465521731966	-4.6159064528115135	14	-0.18502393793275218	-0.3604409408367711	0.26475674212639627
Si	-0.3901436599654662	4.673448841629134	1.3947465644369788	14	1.9453671908466166	0.022132845927430707	0.0745450849891813
Si	-0.9845887882651831	-5.337369751934253	-3.7127390563356113	14	0.5762237830460508	1.1079653871692836	-0.8725200170241716
Si	4.687506811938202	4.282190139619877	0.11835882538932013	14	-0.560704334223105	-0.689643723365339	0.8879993566041231
Si	0.8562956490494595	2.7309967349611015	0.39232820946759417	14	0.8276395738872627	-0.2604758517683497	1.0810029770084868
Si	3.831112319520319	-3.5235994943577675	0.6311415617767457	14	1.0816382971330953	0.21768854547257346	1.042061272940056
Si	1.6121420025882554	0.569843124959025	3.2267917391753946	14	-0.7350389017873414	0.23071170814018752	0.7682228726018326
Si	4.933001531712937	2.7917198811626034	4.514974046455183	14	-1.0072706184110043	-0.025808498093114404	-0.26862291319630294
Si	-1.027732252682656	2.724727399963891	-3.126555678796611	14	-1.9355206288020457	-1.5772077918387608	0.9149903060339736
Si	2.24150771553231	-0.5273004949496107	-4.113150210021044	14	-0.5788303696196169	-0.5689151590629978	-0.13826453102787917
Si	4.4421875669074105	-5.382638904072658	2.1602817892805866	14	-2.343426230733006	0.34751290906600246	-2.1763735476564934
Si	1.8301649295390758	-2.974557900753526	-4.357857514647325	14	0.883815654027178	0.9709889799067987	-0.04535892583698838
Si	-1.467768491109536	-1.380061105328367	-1.1087782617918556	14	-2.018485569493648	0.013053244599859782	1.0289612342233694
Si	4.517660586996946	-0.4211116204725018	-4.33805552297323	14	0.8992461426060466	-1.2293866072448727	-0.6666526424820428
Si	5.411214632943911	-2.0288867452557917	-2.7103562405548733	14	1.1180983703465193	1.7089602273117692	-0.14858006268284527
Si	-1.6081083046768525	-1.4081037463699193	-3.3584577695136213	14	0.5414637246703088	-1.0491750071398418	-0.8993975807094035
Si	0.771543568924194	5.436127604185262	-2.0448838225453962	14	-0.4537355542626002	0.18612102857285936	0.2910606922147032
Si	0.9457011416881549	2.909395687770119	-2.003319630823412	14	-4.7844235943708435	0.5040525995989621	12.690421529943894
Si	-3.770710136616283	-4.782064376331027	-0.8931142484874613	14	-0.46240146474415933	0.26784952471600243	-0.6452564182288346
Si	-1.3949897857592797	0.5811612459433602	-4.378102635579858	14	1.3072898128926993	1.9404864616173794	-0.7895368214847962
Si	-0.32747252198626586	-3.0689655341942474	4.117422686856166	14	-0.958269207666962	0.9947719612287004	-0.6490886507085153
Si	-0.6234617652301185	4.228567056950203	5.407078759865149	14	2.238647518284204	1.5989218047095395	-0.6546422382000351
Si	-2.690038930645402	-2.2460622846773166	3.5568841657247114	14	0.7990933628492547	-0.6597546240186175	0.0923854705846248
Si	-5.261853418458554	1.433693072795203	-4.953857482450336	14	0.6924269448743993	0.22223785922604347	0.6565407423684324
Si	-5.286941864443848	-0.5065989175628963	2.9344885761539943	14	-2.211951474634574	-0.537679314749583	-0.208981754416424
Si	2.5818243224154296	-5.2794408744401	3.5646583632411812	14	0.9439206402068117	-0.10330983997940198	1.7851996707069278
Si	-3.526273818303433	-2.5963243113832917	-3.6666502816590416	14	-1.267416340256247	0.2511314265928036	1.1609928917341457
Si	3.8585674533495555	0.9666848113847527	2.8540211894599485	14	1.3407308942392053	1.900442010477137	-0.22339228551478993
Si	1.8140501286870787	0.3194106791616865	-1.9522997937221098	14	-1.5712785658599675	0.19571845051190812	0.29303401554791686
Si	-3.269519839325559	-4.955382335763209	-3.197383060570234	14	1.38737691539946	0.7812131251213489	1.4232556616999983
Si	-4.367650782318787	-3.372742302150312	4.9621103484138915	14	-2.5966973311732366	-2.561763723188385	-4.201331360572549
Si	3.919589350855619	4.744560536911931	-3.4940908617845374	14	-0.28729582269441034	0.1649734302041094	-1.1978813110939062
Si	-4.6525218125144425	3.0240850919316657	-3.262488632971735	14	0.6148127314645572	-1.1454618729372592	0.9815266550614257
Si	-2.9601301007626026	2.855528273178499	-1.4217552372088404	14	-0.06183636850222138	-1.3088682144487385	-1.1858529090746572
Si	0.9463819392706687	0.8284873445330464	-5.527457766009106	14	-0.9097691624603488	-0.8113364521627356	0.11132063282538733
Si	-2.279389158830778	3.7081800447920243	2.0422505907866033	14	-2.3326149899723156	-1.1559496686486752	-0.0163959386265843
Si	4.997514043903895	-3.8950462092961233	-1.397645229510977	14	2.266658425194557	-0.15700146104845827	1.4281345911555112
Si	-3.638406622081706	-3.412056418991101	1.7230220499667313	14	-0.30079643961997593	0.7634092492214514	1.2680362337489348
Si	1.6414851558143488	-2.8014109736667057	1.0714243533248626	14	-0.6658481436273685	-0.0017082423747063835	-0.6344374641521835
Si	3.3772580003077364	2.3912420914984582	0.8719417768511779	14	-0.45585157394108206	-0.017134360074530827	0.5907559274260598
Si	4.916294781250043	-1.8095455365261068	4.740339147660487	14	-0.04582789544738339	-0.17934848004905732	0.7272276267141996
Si	-2.178534494449613	1.3091648663767412	1.4951703161558025	14	0.7165611391830333	0.0878536403473318	0.5837015857591694
Si	-3.025001336638964	1.339239904769028	5.241754896679188	14	-0.6234056225550241	-1.0654758148695804	0.17369693344483983
Si	-4.7197564044358105	-5.06578593589389	3.034707977538099	14	1.702569230817477	0.7045988145705123	0.4775648154802646
Si	-5.46478551743026	-2.015785001241249	1.1126753559468976	14	-0.2649151222141174	0.8543610714795616	-0.48065168452763446
Si	1.3720681196817905	2.935751327950598	-4.7304992348039265	14	-1.29792199065874	0.9958034886831438	-2.641348688826121
Si	1.5442332766822446	-1.6789789998366382	3.220803385888422	14	-0.49609040064352755	-2.6857748176529594	0.6027951280876531
Si	0.12863742510573867	-4.555237725992627	0.12141075321435722	14	-1.0624182564228604	0.3573826110584549	-0.38434450699818773
Si	3.1251652080408086	4.104690772523479	5.4751918361058785	14	0.5478230965691631	0.340924194572591	-0.9241475547422129
Si	2.893641831802815	-3.1099977486861756	4.647496349119867	14	0.2219576087461473	0.23197154974706008	-0.8153370920408862
Si	0.14336952939944933	0.5734159240176656	1.3606511553290317	14	-0.4160945723756323	1.9633484730136044	0.0866889296373047
Si	-2.61324096517913	3.489916117718193	4.534714955148791	14	2.1395152102289785	-1.1557532362022158	-1.4240920422606425
Si	-3.0673762661019515	0.4338857375917072	-0.43248527143909743	14	0.11762241196507028	0.6825233042917209	-1.4293394111085327
Si	3.7612667078330624	1.053434860271751	-0.985360655018604	14	0.9855684326246985	0.22993189189658658	0.01652860766110394
Si	-2.180697942558482	-3.40911444053094	0.038291254567550385	14	2.0541735397794314	-0.3469621783064268	-1.2714385774190868
Si	-5.311050761542067	-0.30804702359189773	-0.8415557705582325	14	-0.157118446340525	-1.6437811647828229	0.2825539331524613
Si	-4.121915062421041	4.26596872120194	0.1704304003546362	14	1.7448775401921097	-0.5209887274533096	0.799621210771481
Si	0.300501609602341	-5.29388089102712	3.4377434781851632	14	-0.9159637265081815	-0.9636641579602288	0.3419284683106409
Si	-4.407111498312743	4.5928415193797925	4.795614802602234	14	-2.8285850628868605	0.4278218979618918	-0.3075931565337874
Si	-4.954643786999145	5.127151008690324	-4.140133339001066	14	-1.0264461789992005	-0.5129105716479364	-0.8452701572885821
Si	0.5449079417247701	-1.0420134535204113	-0.21804736014301496	14	1.8165735833760348	0.4331399722060861	-0.24262569597268968
Si	-3.115169811233918	0.1108911533749281	3.2341894434121388	14	0.36685404883681644	-0.39442195430050814	0.8130583213956388
Si	2.70972875175533	-4.478676318250786	-2.7570114210505006	14	-2.0138727494387703	-0.06971372098209105	-1.2645549571454542
Si	4.509754228122697	3.0683880223787376	-1.9563523718274811	14	-0.2725145382088791	0.3686720774086932	-0.15487438561709976
H	2.6134908500993026	-0.836074961309121	-1.7567753943839537	1	1.4936034172540378	-2.518698223296969	0.3483950553013453
H	2.183602160630706	2.3519379700544762	-2.665104858010792	1	1.5736632660444048	-0.6641612414268193	1.3129128202278633
H	-3.7920514193986383	-2.5457431611418473	-5.294090794360065	1	2.946176364477557	5.377780451938765	3.553001185933478
H	-1.201646604124316	3.9730136361888007	-4.178955460199027	1	-0.644343932950714	-0.7269682021873967	1.374562526483842
H	3.4061136002895824	-3.7517388734768056	-1.5911827660838522	1	-2.5204303769511527	1.1031039412299475	0.2511234561663111
H	4.260511234545378	-4.952293758149881	-2.2190791556972944	1	1.842757205735359	-1.1101443989281092	0.1769334408218422
H	-3.940927301839039	-3.9532482943029983	6.438119488890886	1	-0.4732507578635882	-1.49780717445248	-0.8121466074491145
H	1.344972820137602	3.0047695429021735	-3.1137782298784704	1	4.008940434565977	1.7280357719030117	-12.13716594494379
