228
config_type=amorph dft_energy=-23285.328060348904 dft_virial="50.71489317692743 -1.8869537518331139 0.7266779342165821 -1.8869537518331139 35.41852340142922 0.8029590433332399 0.7266779342165821 0.8029590433332399 31.50409806517967" pbc="T T T" Lattice="16.180009709980393 0.0339630630515187 -0.13313391271457636 0.034367577856801196 16.579233461609796 0.05613047438099969 -0.133328079821112 0.05603339082773189 16.301881930515904" Properties=species:S:1:pos:R:3:Z:I:1:dft_force:R:3
Si	33.877720135959414	1.0623400177513436	24.37595052023719	14	3.0797812813337315	-0.7469181796980217	-2.5757880742676647
Si	32.113705500846606	12.053251604219257	23.006663050178265	14	0.09528773427000796	0.02053233286563853	-0.13171181200894974
Si	36.964289454706474	-0.5323884074691827	20.17800104486478	14	0.2629214871488746	-0.10152472155562318	0.12418027319463998
Si	37.5628969358004	0.8879714838454903	11.385049777965309	14	0.3225127664855426	-0.07484641853270266	0.7815427408233918
Si	26.547895683648306	10.209068606936341	18.72040637475346	14	0.06646590074168	-0.24245214636357965	0.42352480964032835
Si	26.670921580408482	11.134781322114689	24.353242677127852	14	-0.05533944246873919	-0.18788172149609678	-0.8424802509056895
Si	32.62065639930041	12.90932143246095	13.029693712098473	14	0.3254803362460575	0.3002205120282628	-0.19870376089913205
Si	27.234392905515573	2.77795041126405	14.503470592480312	14	0.2411673650351017	-0.03424300909586017	-0.11982250678752099
Si	40.44980098277846	13.032369982050223	21.582715921570344	14	-0.09946912285216478	-0.5314736949488734	0.43860382812193277
Si	30.76457904868296	9.440742894138086	11.942992194713797	14	0.2216274788230403	0.15692947009949412	0.09262561182152662
Si	42.09814703640957	2.1235134148042527	16.321434558144038	14	-0.33229633644977014	0.4280859504782709	-0.16522231319909972
Si	41.99473363546871	6.185861437149865	24.002233854169678	14	-0.1665757430396257	0.07356343697794877	0.01876392662644068
Si	34.726565329778765	-0.07676396556884944	19.487845391098535	14	0.0334691063944956	0.04530441840420124	0.08159916954553958
Si	39.54930895667987	10.223839869566037	13.287693254907653	14	-0.1265143226042704	0.008049873646851622	0.0009636502739915
Si	39.338695896220706	4.112805581097329	11.537362546627937	14	0.06813377676286007	-0.1007649599335194	-0.010591411255817997
Si	30.821169051882762	10.592292988987213	24.381864526690418	14	-0.21406097297637652	-0.1101579789996164	0.022665064728701362
Si	26.46392811842699	8.113332414781228	12.733650360882086	14	0.020349527277376	-0.0527629378274188	0.05319308374747958
Si	41.0826158538663	5.336920777836472	12.404708629581686	14	0.05971777771841935	-0.2503618947704832	0.0327728510737995
Si	30.107297504112417	-1.1716302097833484	12.348317647666082	14	0.024036749417000364	-0.17020665797273882	0.22986838559517894
Si	36.726717909564066	3.4825844589409636	14.300855598751191	14	0.017538537830858108	-0.029185644931128903	-0.14817177115800573
Si	38.25089409856566	6.68237099944971	13.773968592633851	14	0.027058312389238382	0.16117153676720644	0.008339894326964322
Si	35.99978376970154	3.7354143025386315	22.008660303177493	14	0.09257650370991181	-0.2933777723292207	0.034358965945798854
Si	33.99605851515599	-1.0152027165213846	23.132630578602456	14	-0.06068579887145511	0.04443358503226709	0.15412902218478883
Si	33.87796122678336	1.1362416365580141	15.827528453130991	14	-0.21510329907316458	-0.001987464412474465	0.14727908339085033
Si	40.002431879024336	11.666231255235616	9.766082825612255	14	-0.010888116809763086	0.048882111457187294	-0.05347744799588796
Si	36.86411702638554	-2.9384732124146944	20.278988975033165	14	0.032742769141553774	0.08861160219571144	0.10534024185072292
Si	34.584159937727115	12.945282798650565	20.271748160018607	14	0.01799388058305633	0.32898603835007945	0.9141624101208858
Si	38.543986109762706	0.45327825602969474	18.67648092107745	14	-0.20810552172331756	-0.1621956080162214	0.17544734194679662
Si	40.30461414692569	5.550286157030779	16.64862878548562	14	-0.20576067367134251	0.05131977641121968	0.011103832546123509
Si	34.03263959802729	11.20087904129785	21.907309927743572	14	-0.6779737334277189	0.5253845462191669	0.5253413516497882
Si	37.36279155192326	4.913414811475569	12.517346586142207	14	0.31833446322977	-0.05404823337696083	0.002874495747925552
Si	36.04178049678597	-0.4457300097631233	25.942450284285883	14	0.10658439971514257	0.0567355526575796	-0.46254493242102357
Si	34.79086700322647	3.6966909092585483	10.081131900440035	14	0.3260925164227848	0.11651812223006668	0.2881406879026111
Si	42.44254770550865	5.340317084141624	19.891942737101985	14	-0.40746157204217115	-0.6211731318055396	0.048795465207898306
Si	34.35541490563597	8.431056141501534	17.454404478956928	14	0.1706895115518626	0.033935504899570465	0.05305141584433942
Si	28.68365295257885	3.022876035566498	22.01444324683381	14	0.001424135236830021	0.08510769986541365	0.20244086248196724
Si	37.300594973522244	-0.445552023248799	16.908055456527833	14	-0.2725549045624054	-0.09360031784839477	0.015800984855502034
Si	38.162373314696076	13.260199192622212	9.968265797529332	14	-0.033007078768464995	-0.46461621486693483	-0.10974634503786068
Si	27.349325270051658	-1.6325780665211993	22.55826809687794	14	0.020582469419381418	-0.39881108819253297	0.07032358716403019
Si	32.141421237245346	9.775732930807074	10.014309290725807	14	-0.2065530883310121	0.03470400827976273	-0.3484107390437982
Si	33.936606165194	-2.2650677077055894	14.279139625944406	14	-0.708428990165937	0.2187365280010658	-0.4144698909238308
Si	37.4712112280943	6.352398564425448	19.176917513106975	14	0.11461627562475316	0.4047585690190995	0.0754336589878245
Si	34.25774237881167	7.580605832934829	20.744269994365204	14	0.11543851510613651	-0.32731893366049547	0.18565694406257263
Si	26.75899254381459	-3.306159371765054	14.533416014485764	14	-0.13138399608063087	-0.034332997782065354	-0.1792165823461337
Si	31.29566006430147	-1.9166720503895414	20.057589931805946	14	0.19805687080058276	0.21329761180682455	0.12319528274649123
Si	38.69235405004422	-1.0467904686362843	10.460063571377248	14	0.19310929283302183	-0.23075721670435412	-0.29025645047056087
Si	27.932242430878286	8.411699299039157	22.11657676293076	14	1.1699002290052667	0.42967155112920624	0.2480769534724676
Si	29.66196715497691	12.315851289394109	18.07327815179551	14	-0.029065317202145974	0.015373924261825439	0.25554164354845355
Si	28.746307441739447	6.8589676009030605	20.57063605934574	14	0.557199146340147	-0.01791469053919577	-0.4834223076206259
Si	32.835638219656616	2.724557693085202	17.213491641522882	14	-0.01844742356153045	-0.2331498873152839	-0.27525816469600906
Si	36.256428996942624	-1.2153210448723006	23.748323147012297	14	-0.07681305699208393	-0.12679868685267878	-0.3128639224400909
Si	26.29842331293448	2.8012326653968898	9.006137041520233	14	-0.05919532911736527	-0.02656080350978973	-0.18865922374490957
Si	27.141678112144824	0.6392175314258487	13.505357817452502	14	0.09634291589339673	0.003571008179153667	-0.06729636776008784
Si	40.00222153132559	-0.3360158862151825	23.01336181535374	14	0.008943589856135093	0.06398041322869286	0.01471983506837977
Si	36.129540792821615	4.772883132001986	16.133988869613013	14	-0.2287098455379202	0.21034238335184638	0.013559752347928954
Si	31.572810956051942	5.775471458835441	10.741303298779517	14	-0.04772845650003685	0.04444386945354768	-0.12490609622651777
Si	32.50580979190303	-0.4591485748839544	14.88346694638503	14	0.012067739930647024	0.22439784480549985	-0.011248585775647846
Si	28.184986517337236	6.481694440667504	12.868062540381356	14	-0.24297382363303774	-0.14855049497166356	-0.039459010458844576
Si	33.9382145160598	7.643611440946409	13.638912425564572	14	0.13298476625295505	0.00473160512066851	-0.03081264037771861
Si	41.6597565432735	0.914863628100671	9.899262043985022	14	-0.023239706767754456	0.22194706721433474	-0.23551684687301225
Si	40.16237379691459	4.3182424701081	20.154312657867436	14	-0.15334406373054763	0.15074030537283367	0.33954633923152366
Si	27.164526726406404	1.8896779684034295	18.503879307841068	14	0.05824710547529465	0.20320190965673113	0.08610606006122715
Si	33.71827496225004	2.0385361806289475	19.371688155732055	14	-0.07113939888211318	0.1972130340345102	0.1535620934616962
Si	38.09027906803941	12.684322207466717	22.165243130124683	14	0.14211064747628865	-0.1459729618882151	-0.173092466584073
Si	28.90075928469241	7.734476792627406	9.33511598818272	14	0.07154949018067679	0.23440047294300395	-0.06577170230524003
Si	28.008482145259492	0.04588977757046792	24.056592553703542	14	-0.0052674234693873695	0.20974280159118783	-0.06333635134599576
Si	33.93670972098415	11.369878854707993	9.79044917942325	14	0.08765232280076421	-0.3614169324162993	-0.20581620954625768
Si	39.81332606173243	-1.1721059191943606	14.492937026950756	14	-0.1416493911818541	0.7576317184565466	0.040077875509404226
Si	39.195563995578766	13.24003817472693	15.161878306268763	14	-0.2061008309051981	-0.5699618560388301	0.3568434502728199
Si	36.95940291585867	5.805169317780062	22.75283486404116	14	-0.11687447742743921	0.17941044368727288	0.17639042337822697
Si	29.780951139802706	8.618864275298094	23.687679905463565	14	0.2852006289690217	0.0723431903930065	0.44204088171390665
Si	35.97003251480262	11.815479419733427	16.90956834189959	14	1.688645152845683	-2.9021819242339713	3.3522490254257837
Si	24.37240049830603	-2.983964947416764	19.328125147321572	14	0.2367592049637078	0.860461533072677	-0.9005802891566715
Si	27.05667498902198	-1.0322764774227482	15.193139210420993	14	0.0627933339023805	-0.031207562154893356	0.22208719245428277
Si	38.80091935154516	6.122365557194281	21.108003235038343	14	-0.280725877269836	0.05450923256086338	-0.53988789421959
Si	40.799686872637174	7.38967808095993	11.302078937224204	14	0.07695369645309603	-0.3041123941513709	0.2805911513510602
Si	28.878431685500036	6.020330742709823	15.079423626419198	14	0.2262739803576119	0.2824693437874284	-0.1380138482591647
Si	41.379092844953945	-2.2277957135468602	23.171842625767322	14	0.0038810834807635254	0.2694274120509773	-0.060674486008046466
Si	29.523315660318282	10.75962458334037	16.260720121989575	14	-0.26525965032701726	-0.04311280822930702	-0.12336934657666529
Si	37.87979383425872	11.790370376739931	13.74946632184828	14	0.10423826611050745	0.25412367896439186	-0.11101312862909764
Si	30.950684984178892	7.022499992205005	15.46495212480096	14	0.009614905455225756	-0.00742149550660743	0.15137254017105808
Si	34.89401180633662	7.413424718089234	11.461218297740782	14	-0.1536597954638618	0.04607086490013739	-0.0817938022182748
Si	37.79215003848699	2.3253743929363258	22.517434754373504	14	0.14492317958599865	-0.13289246357196174	0.05196563806764088
Si	31.44627063466347	9.417758362901935	15.777737534778378	14	-0.06354641065065185	0.16188219027769535	-0.11529144788182405
Si	37.43850216093915	-2.804012491138791	16.635134171581395	14	1.4964910256390964	0.5748140459990135	0.5924613415849139
Si	35.33507856942445	8.573704242436357	15.31657771228256	14	0.1996874657946207	-0.15107403484338888	0.01834792178564072
Si	37.76452653146386	10.814022116295542	18.188013113106617	14	0.7484207336471163	-0.08643824686859028	0.06769848863215899
Si	41.77808521411473	12.916377788724297	8.838721308087575	14	-0.12146158642911539	-0.23267217594680042	-0.18449788978424989
Si	30.722059688470107	-2.3574556531136706	10.439433316307841	14	-0.47434167785092696	0.502731822796002	-0.3537964333579124
Si	35.89638978547133	8.112419829380508	19.21993685361916	14	-0.356480924422679	-0.3659950425493549	-0.016357629157314094
Si	31.21737512306476	4.253811351922703	25.21380747388584	14	0.011210019195845624	0.022855583632924333	-0.06565445990264127
Si	30.518977075626083	12.880793430333206	21.465383975209328	14	0.18136165551473324	0.1929974497515954	0.23228368193292603
Si	27.26228015619175	-0.601110618709016	9.840366306395111	14	-0.0671739831468488	-0.04846687794798338	0.016339117199009025
Si	29.107124939696106	12.59242777012108	10.594889974037127	14	-0.24495151784529562	-0.0926335822480191	0.1940374618535953
Si	30.395680962975973	1.401802370107533	21.90104965661702	14	-0.04403172127072794	-0.16406480158396908	-0.02599027523924887
Si	38.030771704063916	2.3324906173908553	24.833553848564964	14	0.2723692707582907	0.11331555344329024	-0.8135303763324181
Si	30.88789457804372	-1.8224767328314584	15.954447400377205	14	0.23671960994177751	0.023292157316285474	-0.09231167986193656
Si	26.011640114640624	12.462876240522087	18.09011729410981	14	0.4599679135586391	0.10192144310652201	-0.522020769128817
Si	40.614499994778846	-0.66520841669486	18.42780463550042	14	0.1956662570739091	0.2826968866082615	-0.5309160222049334
Si	41.075418726450714	11.322359691501847	11.84331812863297	14	-0.08097696205806375	0.08147035716900017	-0.07575299026858688
Si	30.498371091444987	5.966132231038852	21.830793525235556	14	0.38471346061162903	-0.08061906419749912	-0.20598924493430365
Si	27.443658122643537	10.325771128260342	20.866538639409892	14	0.20905965890762448	0.14135808494908128	-0.26427388854727246
Si	41.90159814670047	8.11964931798052	14.793693784678293	14	0.009857103576383705	-0.03744403521944453	-0.0063794265203514135
Si	36.63905793320013	10.113261702394013	20.056295484429043	14	0.7949243155726345	-0.6972426251390367	-0.3400582463007652
Si	39.38070394971968	9.296620741252818	17.309615685672554	14	-0.1695469123475888	0.06820936725927242	0.08977528446361048
Si	35.24191557364945	3.7653500161887576	19.791325342495238	14	-0.1800843303916837	0.21348144583721515	0.12124484225062693
Si	27.02087542875448	9.18884343459257	9.435307833214312	14	-0.13887619698354237	-0.3955123600667829	0.18372398708288531
Si	26.89196303254783	10.070753668595707	11.604382559567142	14	0.16157674296566177	-0.16919030003968427	0.20945200957947907
Si	38.41729530886666	12.993572158045968	18.67804396628506	14	-0.6816380727299939	-0.2931507437294516	-0.4057505014516126
Si	32.803053743061504	0.8243849925735236	11.079359557672543	14	-0.5993436763058864	0.3903315828466846	0.8396844309805603
Si	36.113374763143305	1.8175481244438962	9.502077046974241	14	-1.6893126117867936	-0.2132780714063914	-1.3392879899335384
Si	40.611181355316305	9.95813836486428	15.390943714085694	14	-0.05682168468580456	-0.05859086225659845	-0.08419212926090892
Si	40.866328259718635	4.17622541226952	7.815224419998678	14	-0.1574447196056518	-0.2542771739520047	0.03153075009363596
Si	36.05475571368021	5.539825404166173	10.671134542595993	14	0.13696766550439646	-0.09882557519053171	0.10243746394427575
Si	33.70124650700687	-4.1921212260579015	18.009054145190415	14	-0.09565591655185315	0.21529330375632352	0.6092946252264554
Si	28.867634376317437	11.839459057390572	24.720173202821943	14	0.46790337301874424	0.23629974844299736	-0.2641805574241511
Si	31.222392724709483	1.9319352030224606	9.579294069125007	14	-0.7226621149972127	-0.2557187927050118	0.5999908235149677
Si	41.83319307506798	11.140905676266666	22.083244742975477	14	-0.14893718921181381	-0.007542851677718419	-0.24290003291034945
Si	38.74950390173453	8.312185420821221	12.177068731938569	14	-0.19466224044639127	0.29428794361255306	0.5833161770716792
Si	40.14838729300715	9.581721157956702	6.186765932254476	14	-0.1371527850874471	0.03213084607535853	-0.01937507836103988
Si	33.627162047508214	5.504626143869712	19.87678799443688	14	0.1604593405935254	0.16909774024815896	0.009121767454821355
Si	41.90315795578964	-3.12652081897598	12.298308291318618	14	-0.1258147248466581	-0.0732582467764472	-0.27142747487952046
Si	39.400910273273155	2.0158493722894835	12.482843091310832	14	0.15541611750805495	0.2395131158721184	0.10783961333243886
Si	27.353043570141814	7.2929132853586935	16.425532398135438	14	-0.17123484299026603	-0.1586968478965639	-0.12564271790074022
Si	36.96610329909336	6.959528363437068	15.69460327005594	14	-0.0056631165781581595	-0.16701000272819871	-0.18734101804726963
Si	32.99858810963896	13.472247471610519	10.562053080203514	14	1.4863292460822748	-3.2609637308076502	-0.8332916347125442
Si	35.32018757041239	7.515909353037166	22.809274387733396	14	-0.17654777502382002	-0.07712030407784164	-0.17075430340593034
Si	30.285466859128704	0.6149773862341003	24.122664383939163	14	0.001092205539998904	-0.1451599783859843	-0.17518894586212175
Si	30.481290858306743	-3.0061469212792353	13.897219399625767	14	-0.2166055959117271	0.10871867424139749	0.5150664434588804
Si	33.54996282400888	4.45480343225303	8.212728174676021	14	-0.31461355961045173	0.023134548560160402	-0.1132921563848769
Si	30.90523531871657	6.3445169979593246	17.69465229405109	14	-0.19297045314573386	0.06615325433475	0.11940650194672106
Si	39.6457517584961	0.4174123553341272	8.860142794116115	14	-0.041097061658310924	0.014976945600394575	0.1126984881664547
Si	27.051278761519512	4.385445323739293	12.552453617063065	14	-0.2578980615743693	0.20657108606825314	-0.2126247535445418
Si	32.77007122389799	10.148875185851084	17.67910112687681	14	-0.1195222016861277	-0.4394129549661833	0.038160345161637785
Si	28.94533519817532	10.961616624269356	12.27170577966402	14	0.013330409753371745	0.01541094817843557	-0.16359557486304202
Si	30.023960981987337	4.334944077388603	18.61538785906524	14	0.19875106923702276	-0.013574664758785812	0.2699665728366123
Si	26.177555907175293	6.772830218266204	21.894813656378783	14	-3.3485126951745445	-4.848522021333731	3.3255920625770203
Si	26.991012527769303	1.9925266666761159	23.28698371994293	14	-0.012770165904111478	-0.2504611394358409	0.04719366659344605
Si	31.582428700062337	4.508066705694187	20.401929114654624	14	0.1461814785296791	-0.1814560150799827	-0.06615711099273022
Si	28.47775653474928	0.3144455387382985	11.596282555106166	14	-0.30258901424918316	-0.09627940959198908	0.16868353518108306
Si	38.75889026327631	2.390548200304221	14.710769867654603	14	-0.2535858037314169	0.16841845422257581	-0.021132171736829075
Si	33.96066346969376	2.9068935505959	22.9270415920249	14	0.12167061729164343	0.23587988694421716	0.13417390246352354
Si	41.323609594261406	7.866280660662214	9.095821209969806	14	-0.017680977065594308	0.22796731032146142	0.10618587839051963
Si	27.992036191335927	3.719683530790806	19.804373372054428	14	0.06955688355756204	0.3841385614620439	-0.1594818063508051
Si	42.15091194761062	0.4481926958976832	19.78240336394993	14	0.17568902584689056	0.06988161415949673	-0.15043768627665222
Si	32.36706768592803	2.488266032786704	21.261589416308	14	-0.007612014410830404	0.13699903298930224	-0.2806346030309707
Si	31.71689751163435	7.686423669878288	22.78216865966102	14	0.15783218517739808	-0.024410845241081905	0.08463898736555066
Si	36.94832244631236	4.229250831005171	18.30049897210035	14	-0.10160879669959201	0.01655071916685721	-0.16755353439287798
Si	29.463437760781144	2.3867344347200175	11.086246017717674	14	0.14768017582079343	-0.0785367259987112	0.24358754647295702
Si	33.79975071627083	2.7750055434815932	11.979162290542938	14	-0.17761992594232176	0.03586434811074555	-0.0907358494112178
Si	33.50951296153985	-1.5604967643383	20.832404062080933	14	-0.1076735199287573	-0.10928020364331784	-0.18428423093214558
Si	28.80721766305966	11.998473827347123	14.379556381207735	14	0.00052193437999006	0.15555341453215088	-0.273156028986256
Si	37.81923796790793	10.340749502470343	22.03388746449413	14	-0.041240015114111156	0.0842144978771942	-0.06160651168660013
Si	30.43848833773019	2.643020452814019	17.057496170072962	14	0.1450054549562434	0.2689643559828186	0.05556544262638021
Si	30.560213314876577	2.808903884164267	13.185355863348843	14	-0.3669990591768728	0.1281968539257753	-0.3081690841255005
Si	34.745689171713295	-2.655853280496802	16.438459073253043	14	-1.4258198250357819	1.7821107447753022	0.6171480664268477
Si	41.060749401551945	8.5886017136853	18.799709075240266	14	-0.06736141672468758	0.21234887394368993	-0.06299079479096785
Si	42.01357108092111	6.559890388647053	17.9273842240631	14	0.11381794742284718	0.0794916345146142	-0.01900766741079072
Si	23.55603460723243	9.470340433410998	8.694760961124418	14	0.11661453867957224	-0.12577153027727964	0.01743929316550039
Si	38.00801531917794	0.2018431794806407	14.846774217427464	14	-0.17491769425084613	0.15755707690814225	0.01448637870531032
Si	29.585361759211732	11.220818385079834	20.138028509865983	14	0.12834674936593993	0.03280807521668553	0.274231265231142
Si	33.602543276458725	6.786124192827009	7.840684581843159	14	0.432097646109298	0.06129232261647804	0.04071011030762864
Si	35.514639455370904	-1.8811119628867672	12.627055855512486	14	-0.23850755658140851	0.1366437062340578	-0.07403626324632401
Si	40.45948992139459	6.275699321225444	14.461564476712267	14	-0.0048457621968830845	0.03872084612143007	-0.07541231881366725
Si	41.30672029211125	12.183401815730072	15.755167226702834	14	-0.06526853699408704	0.3369510655213662	0.2192314657751943
Si	27.683336380891863	-1.1837705081194867	20.274406631318925	14	0.06365773951101428	-0.024193843952061405	0.12308883898623711
Si	29.899075935182083	7.290329244782549	11.42279748153505	14	-0.19560840720420578	-0.18193681177485038	-0.07413910745912994
Si	40.41156624338316	7.888205363108526	20.998509167544476	14	-0.8027497317250373	-0.27995454567379163	0.4812394392038203
Si	30.565980077940683	-1.6485547832706369	24.490043112037508	14	0.44335291675877825	0.04022211451786453	-0.08940735929229728
Si	40.35971229952361	-1.363201949328256	12.22105890798343	14	-0.08627626723342097	-0.15452677217781574	-0.09623750057527065
Si	37.490843140624264	6.049190446977898	8.811084856590675	14	0.18120996030084452	-0.1426863179574698	0.1172424025987524
Si	41.31174112987442	-0.1573772940247672	16.151258415680132	14	0.2258029538629608	-0.3896777507637709	-0.0888067490895107
Si	31.582799235623977	-2.955462834236559	17.9316186850448	14	-0.16412856499590875	-0.03257976106425639	0.3983243779554289
Si	36.36874010554048	0.17535393197152147	13.22745129204576	14	-0.14240889569342582	0.11737892829125227	-0.07096662060459921
Si	27.852219694038084	3.942456306296763	10.327093082644005	14	-0.3231719978896286	-0.2206010935792372	0.2828287843111851
Si	39.99019449713493	3.118650578924404	22.135561451772272	14	0.07105429529601627	-0.07311657887330704	-0.26135465556677634
Si	37.717185354772035	8.408600715630694	9.120050028747006	14	-0.10379192222692973	0.28912336435597163	-0.44919806759360287
Si	29.166713206632664	13.60351090786547	23.216509150566615	14	-0.07879666474657818	0.24674743491141904	0.25253422165547634
Si	31.499330032642767	0.5661022894006473	13.048712380183636	14	0.22383657251411151	0.011810372288100201	-0.013363577012001655
Si	36.350059611832535	9.430468218083911	23.683154193822066	14	0.20937847596732284	0.028761155442772458	-0.19714978484363455
Si	32.86177473025553	13.881077640835773	8.019247125250182	14	-0.2254005758803576	0.27130329049255736	0.03543368796962075
Si	36.66289194552737	8.938473041011019	11.149152924116766	14	0.3415448593968748	-0.12609343266336218	-0.11591211270610778
Si	28.092571064922396	5.640737285551167	8.662281658378676	14	0.12423092396944689	0.02458593751338399	0.35874092599908913
Si	38.90936006248607	4.398019261946693	25.541966064523216	14	0.10446195227336035	0.1106061226569182	0.22077258630409108
Si	34.24778322430562	-1.1118413035033736	10.779343871068283	14	-0.03327987304293271	0.2924712005933364	0.4287698644934304
Si	41.31197736652069	0.7435710247741858	12.177416614671111	14	0.02198037938194593	0.14278941928080777	0.09460407736538058
Si	28.790100214559327	-1.0469182953147536	16.759726349667627	14	0.01239118497992165	0.12897821283256833	-0.1272763982211623
Si	35.29645225969764	11.371572962712516	7.764224811407882	14	-0.17686890607830652	-0.18688644662666745	-0.21768700280938139
Si	37.730231766272006	-0.028892065452497277	22.31470164232124	14	0.04298245318957551	0.012436436433556259	-0.022242375014069015
Si	29.242281426437096	0.8650128415568767	18.05887904278667	14	-0.032564334432335494	-0.0495246306766923	-0.1556025226437657
Si	31.295923807954512	9.704730874124667	19.485633504143255	14	-0.19117556452173848	0.061076092659053595	0.500524271768123
Si	32.415921747991604	9.453166352837924	13.634021032539096	14	0.2751620053570355	-0.12879103636526154	-0.008269703151724282
Si	35.870864901258	10.857581888587582	14.80689067568583	14	0.2833162658798852	-0.5631908501782201	-0.4339956360566313
Si	27.02901264857754	-2.827113522638864	10.522352379153867	14	-0.14679391581693838	0.35323567528758804	0.020030453107145626
Si	35.500465256593806	10.977329597365749	11.450094140595512	14	-0.10817488546618616	0.09665221986341055	0.1663263458235713
Si	29.5425835095235	4.7113920274213825	23.529495199887453	14	-0.04942101513229033	-0.2388142894461022	0.039344596272098
Si	28.24313794768543	9.19165076734123	17.436701293018544	14	0.027377900780532788	-0.023374432686530215	-0.23942878361761755
Si	38.901582051810095	2.8825805927392003	18.5632976785594	14	-0.011336774688128924	0.012767851909323346	0.13856355057661238
Si	32.73186399150945	5.792257205195444	14.415783109109613	14	-0.08224605964408883	-0.24414059122732093	0.04631640545821152
Si	29.780329805061793	8.046582617731952	18.819894364023863	14	0.28338157195501695	-0.05140282311306047	-0.09324010599304203
Si	34.011904169108504	-5.476090051445863	13.275277886503922	14	-0.1394408117118469	-0.279874841408867	-0.027964369904058567
Si	36.99029813862692	-3.5061434012006165	7.80433002726281	14	0.16187679095652308	0.1608393499598433	0.14740995265164586
Si	40.02330807909536	3.2223018345707706	16.543835180029134	14	0.11953891387070868	-5.1164995870946776e-05	0.0636947634276244
Si	27.882834992561083	-2.6398975985172384	18.309992125550725	14	0.06953862870978897	-0.207436005897951	-0.15657311490212159
Si	32.190064951610175	4.395577610582008	12.575447856654543	14	0.09727519868248242	0.041476299693032764	0.1488328023358158
Si	38.624272590255956	7.103114938720144	17.31662997239615	14	-0.20774453853636873	-0.2981811112883213	-0.5411482500475266
Si	33.78503932183231	4.696766390121589	16.228185805230318	14	-0.11587097502098542	0.15309338096183317	0.23194712424651864
Si	41.36457723568119	1.2397763919404594	21.88998213154449	14	-0.11571568025964848	-0.006308978234579357	0.09928837414815837
Si	32.722500282796766	9.23308926399437	21.26500352126459	14	0.35994111796253425	-0.18056512708655137	-0.018722017609722266
Si	29.368224683972972	3.6101522479348525	15.119837891585362	14	-0.12248591478866241	-0.35651820544982116	-0.09419732850373315
Si	34.99375544896396	-0.42373249465186097	17.191686675458932	14	0.3031780544780291	0.3127142841104583	0.09943184182502263
Si	33.249976262470604	6.361250966424251	17.749664689510286	14	-0.17928600218977772	-0.0511673098657349	0.2865753989837049
Si	34.97741790500821	1.9508535514359124	13.875411197443375	14	0.4383554593480064	-0.09339874319129517	-0.030625206799879817
Si	29.79029381374551	-0.09455614476439493	20.17006446438514	14	0.014398704013893274	-0.15437893362190722	-0.12338040232954192
Si	36.83139339669741	12.841047423625369	11.886015475360146	14	0.21822693492661244	-0.061181250866647656	0.14773056948506832
Si	33.05393382529771	7.560611475139325	9.988124238350261	14	0.2986688499675534	-0.06387139836311859	-0.06298410991713548
H	35.42910399076431	10.998100623587396	20.182395693709367	1	0.048222108721505286	-0.1894102436089248	-0.25331043835162903
H	29.823472118074783	7.932564456655805	21.05557973433295	1	0.37612236929488624	0.2980515275801858	-0.07394087523894652
H	32.75418026428728	1.0941381175649905	25.17601122853947	1	-1.9072752370864947	0.14017151984383297	1.0961262185015979
H	32.45265816454814	14.695699264068997	11.01107907660008	1	-1.4639917401713605	2.9320581680540916	0.7146040138133366
H	33.17205700261786	-4.540222396595703	16.632953027751313	1	-0.2361796778245464	-0.3848810966785026	-1.4064198069531368
H	35.45063550481989	-3.8416447445834794	15.976242658085829	1	-1.2928445718725114	1.257242219393889	-4.076200806851583
H	26.6830295175602	7.704652725063538	21.175120331530813	1	1.6126851885988243	4.936353807285842	-3.6013017133672474
H	37.30793610820851	2.278505689537074	10.313490058771967	1	1.4322517021046646	0.17915641848164227	1.7389555133082126
H	40.30769816780117	0.47074035114412976	14.0283744259129	1	0.32634165652830716	-0.1132836717373204	0.11818239870379854
H	24.331379460931945	-4.493423269742961	19.834964399689113	1	-0.720393114552182	-0.1541351928375572	1.059773617490556
H	23.285639112730173	-2.2171505019310453	20.204470875663244	1	-0.23588682892858154	-0.4199499448031944	0.7400121908081039
H	27.364408818111034	11.153748212304773	25.80929857291987	1	0.40624492500467707	-0.08608703388185805	0.6846704343445766
