72
config_type=amorph dft_energy=-6953.872367938313 dft_virial="8.9526158065025 7.743924630603523 9.905985121103354 7.743924630603524 5.180644072349508 -1.3231458033774415 9.905985121103356 -1.3231458033774415 12.767350808065027" pbc="T T T" Lattice="11.105996452100001 0.0 0.0 0.0 11.105996452100001 0.0 0.0 0.0 11.105996452100001" Properties=species:S:1:pos:R:3:Z:I:1:dft_force:R:3
Si	-0.4224043584595263	-3.189283457357718	-4.600361389577509	14	1.3971304034314418	0.587826410024283	-0.4396009027650862
Si	-0.38511153297301964	4.441741105850036	1.4982222439808395	14	0.2677610786929893	0.6330722072271848	0.49973314266111346
Si	-0.9213145946786337	-5.297996773312268	-3.775696729023276	14	-0.6068659591410436	-0.3074314340091501	-0.17043497212516795
Si	5.032846661016606	4.0222909424467685	0.8619719238361278	14	-1.1541869188411817	0.18799536435124733	1.3036393575591532
Si	1.1736905898550898	2.816814990745769	0.7351014627659183	14	-1.1738749007196836	2.370925230574118	-1.899198881054846
Si	3.5926488060994086	-3.272214154064838	0.790720292998035	14	-2.0067862689553775	1.494592264360167	-0.6089876352512298
Si	1.6416173171721287	0.3367104898351226	3.2976335587444052	14	0.15157514327028576	-0.16540563300842628	0.35801330319348723
Si	4.756136317013954	2.765435319359418	4.780076402966101	14	-0.9773563222321454	-1.3188546446227254	-1.8292822998629947
Si	-1.0782312185503546	2.370797062629787	-2.92595250728091	14	-0.5741339886418344	1.8000316059672663	1.2554810122495876
Si	2.2163404169722067	-0.5714235082541588	-3.975552466977751	14	2.0019543907272235	0.06117019511377101	-0.6324885663195112
Si	4.098996728142487	-5.044143680607682	1.9644730764332567	14	1.51954432727114	-2.052475581826005	0.5091320752694468
Si	2.078046327951367	-2.7835969553575373	-4.299863111774104	14	-1.3426381401656913	-1.0985366297392365	-0.3290500588725512
Si	-1.523301805168972	-1.1584242871320332	-1.1772222967268577	14	0.35456442251704057	-0.7186843579564116	-0.5104780489045443
Si	4.649924119944296	-0.3413039299677112	-4.363001812203938	14	0.3069413813351298	-1.626386351739361	-0.21825264597981395
Si	-5.401032655396626	-1.749584261681219	-2.517681639906326	14	-0.2023267054057527	-0.6906037740918822	-1.9884087794585557
Si	-1.5346032671586287	-1.3669660249116957	-3.5930752763631695	14	0.11028293471817559	-0.160034851105169	0.11990658193148986
Si	0.7536440344423443	5.419846213386483	-1.9769784284383212	14	0.02284092833259949	0.13021825692847575	-0.13985707366317887
Si	1.1458611839454176	2.8121349238408535	-1.9309096445553653	14	0.2292754887083528	-2.4784704523473997	6.328516321017694
Si	-4.024988588984984	-4.635917237218907	-0.8080334308672138	14	-0.8677927827825472	-0.6567608289838371	-1.4067270540388943
Si	-0.8867427383228916	0.751991462170272	-4.502906270710332	14	-1.0928578294186255	-1.381718426810878	-0.41983810172176794
Si	-0.4167980514505062	-3.2802748862897726	4.03456751092492	14	0.1414588722776311	0.374920120447185	-0.002740541160745837
Si	-0.8816950629354122	4.446739914853127	5.184465724580676	14	4.32473207463412	2.1602630017204447	2.3122292101099258
Si	-2.4455970593343257	-2.445031764114914	3.1165180792032037	14	-0.7082914360313091	-0.4802241097128938	0.880444934952464
Si	-5.02739250615898	1.490270350521136	-5.069185481407877	14	0.07082983780156733	-1.2643166156822765	2.239810943441571
Si	-5.336062576151841	-0.37270724553566914	3.1317510639369037	14	-0.09095182225811023	-1.176192237944733	-0.8443509871366291
Si	2.8089574982559076	-5.207712796354212	3.8191267281492127	14	-1.363242206869762	-0.7367939382788745	0.9680427503204408
Si	-3.4870207844431307	-2.5777972881018982	-4.144850055694273	14	-1.0551512843459938	-0.16230436577126367	1.0612867129714632
Si	3.921492918647509	1.0218283049687196	3.0572620351330237	14	-0.2190088080544695	1.8084692022963962	0.20262032563331359
Si	2.0510776367667325	0.34409819867505953	-1.9896670293848453	14	0.2394336687177258	1.7809714880079444	2.74127906797272
Si	-3.3256106744068905	-4.800164929348659	-3.3059708302809967	14	1.0867493973990177	0.9313494778544796	1.1817723078210505
Si	-4.151151598081194	-3.275564833194437	4.756476160505389	14	0.4306945939360932	1.3481341348980398	-0.01873898690483524
Si	3.9354675939831862	4.893930636194449	-3.7641331655173493	14	1.2873683746511282	0.2272273462103228	1.0076588553143466
Si	-4.960459997341109	2.7498758183300263	-3.034626903763999	14	1.171796162068344	0.6874677969328977	-1.1788839281043961
Si	-3.1397185057916404	2.5300215125642547	-1.6142643585102516	14	0.28478899500726595	0.8555021280206434	-0.6264675518807884
Si	1.1939390425865586	0.6542631357903728	-5.52784647588493	14	-1.0159907792148184	2.0359827125288517	-0.34510506893368387
Si	-2.5962632284028047	3.404958576658564	1.9334162679546043	14	1.4424880437157699	-0.30772839667362717	0.23772234101663525
Si	4.786678917856874	-3.6101940592944364	-1.1196965669039152	14	7.357575257243229	2.5700696789251234	1.9197857213532712
Si	-3.8754008121720034	-3.527352210558932	1.4567902136166353	14	0.2411632512665894	0.2628962903167371	0.5100517596424636
Si	1.1121633695104558	-2.7430189761204997	0.7752274279473557	14	1.6275019543377736	-0.012785592536032368	0.3811288255742785
Si	3.265014136564942	2.4300564384989025	1.1960702833057164	14	2.6346090504504165	-0.6551623728063011	0.5873512697611196
Si	4.994140042181748	-1.9495799351909906	4.6815184586512295	14	-0.5956471981871093	0.5857880377264696	1.0679972978570498
Si	-2.340344420358129	1.0094751051150488	1.4792820776314282	14	1.806935023751864	1.5333257088976655	0.16814771683236424
Si	-2.800715738288804	1.1406546928086732	5.283085862475678	14	0.11456896728686243	0.6444866292959822	-0.5424808539349594
Si	-4.975689650275874	-4.827411270444596	3.246030656829368	14	0.10866545236127043	-0.8582987192773684	-0.2667128390539649
Si	5.403635900964998	-1.9291904363045802	1.1981326668468715	14	1.4713934381670029	1.0487924266682038	0.5386907875825292
Si	0.9946730330436898	3.1933404778616694	-4.852306472091624	14	0.19174480723961926	-0.9425145027072228	-1.7654073019524281
Si	1.338066000944041	-1.9151035904047364	3.043155198439566	14	-0.5576699157242662	-1.4690665878522688	0.42946869091944656
Si	-0.10470733455039882	-4.716360190720758	0.092867231732815	14	-0.30326315806412596	0.29769594371440933	-0.31668921293540725
Si	3.0262685308341486	4.077274509681825	5.431735182588456	14	-0.8422426807741078	0.5637703773173816	-0.15705468292858532
Si	2.752834455784866	-2.9902229087492125	4.59232509054477	14	1.4570867797235707	0.12471300621697468	-0.4581216028282408
Si	0.3568445508031347	0.953375385236556	1.4401167811430977	14	-2.2424149589098166	-1.3883140832886538	0.7647505948669727
Si	-2.4982839065030884	3.4138244936262754	4.3800906089447835	14	-3.8003998818224902	-2.2056885191852253	-1.7580323434521152
Si	-3.048255072010371	0.5085991075239196	-0.6261971721562709	14	-0.5172518829810063	-0.9095143659231222	0.4983974534472964
Si	4.1123750114686874	1.283053558118209	-0.6804810616148452	14	-1.1614106963486697	-0.767775243165595	-0.4571047306741223
Si	-2.110128219902548	-3.4068121674664193	-0.3223459940239765	14	0.7762092399472766	0.12010327148848116	0.4785462063809651
Si	-5.279882893098893	-0.4059630413118374	-0.6953775346560469	14	1.5605603991118662	0.8399839647503576	1.0535199180203598
Si	-3.8595303432419525	4.165601610065021	0.12185721427173163	14	0.2867173239973771	0.05670187117788566	-0.8391025898466109
Si	0.39883410218923443	-5.542448640020151	3.5453883487971427	14	-0.4319706335064827	0.29740386615004055	-0.40994217445504993
Si	-4.701384865104747	4.318689996959704	4.67633640070668	14	0.955559005548994	0.9406231976337218	-1.3857375786473336
Si	-4.815587826621691	4.990536146333041	-4.265151319863065	14	-1.2605869703048698	-1.2404153635156479	0.632518905362289
Si	0.6779388990269596	-0.619444726313394	-0.23124683692633582	14	-0.30659042545892956	-0.7076072649056177	-1.0617495119290898
Si	-2.881109825406266	-0.1590933991763325	3.3166725684622405	14	-1.1294441439032685	-0.32051424632019154	0.3414289025469361
Si	2.7827795540186626	-4.471876116623164	-2.800398106790274	14	-5.390037168110443	-0.26453716973205565	-3.3246384396137776
Si	4.219375734286444	3.241707092410565	-1.9187230346484758	14	0.03420392829499393	1.5856430741731027	0.006587171830219378
H	3.9976689483124628	-4.537541431245851	-2.050250240031051	1	4.413619299320152	-3.7371023541668285	-0.3583110371895604
H	0.8976721494314033	3.3188593391636587	-3.1317266307447094	1	-0.2450908717536476	2.196199855001219	-5.897547390143941
H	3.566757396570628	-3.857301369754016	-1.5854720627081824	1	-6.999288131333146	2.163297163108752	0.41961004467987084
H	5.593589532482781	3.5986227215909934	2.2558089071636793	1	0.005290306306736688	0.029668755620784727	-0.14671472577307781
H	3.6941465076751503	2.358784816867196	-2.922470777393176	1	-0.8265075162148015	-1.1154251921451612	-1.6512941916388277
H	-1.2386628902991652	3.729084861913812	-3.887140961021518	1	-0.22605312241061123	-1.1821173501550142	1.1320679568824796
H	-2.635931626530416	-5.256921245434176	-0.6193425511460346	1	1.3015583049130253	-0.22901606418154982	0.39946363472278656
H	-6.643825865776328	-0.964931174544966	-0.7376602843484822	1	-1.8998462853744589	-0.5485049537000664	-0.13126881056228826
