72
config_type=amorph dft_energy=-6953.816303890963 dft_virial="-8.087288513038926 1.2728360770132803 3.958117721700389 1.2728360770132803 11.273151935049437 2.307958696955899 3.958117721700389 2.307958696955899 11.868064449305646" pbc="T T T" Lattice="11.105996452100001 0.0 0.0 0.0 11.105996452100001 0.0 0.0 0.0 11.105996452100001" Properties=species:S:1:pos:R:3:Z:I:1:dft_force:R:3
Si	-0.3775161419994284	-3.1069080604732013	-4.699790044014224	14	0.27082635045566983	1.027304671065598	-1.310753091758939
Si	-0.18304903352351223	4.524576290987669	1.4719476775744613	14	0.10981345088671654	1.2884268987114331	0.5606205161896681
Si	-0.6081332689269302	-5.116469261302694	-3.7772204717365034	14	-1.3746360600959981	-1.512009703130446	0.44614256603113894
Si	4.80257159877983	4.3605573823848305	0.27725231662951483	14	-0.6029625070439947	0.027630383322971328	0.8819410611382582
Si	1.1300162588072065	2.8652193656826013	0.5486417777319661	14	1.1207108704623217	-0.1330112486377526	0.6142198345777311
Si	3.8768568083068735	-3.507019352254427	0.6995211819323255	14	0.42881331617334084	1.5852496950591202	-2.122146108238718
Si	1.6142377041187668	0.36947540056810807	3.3831597268223823	14	-0.25768800226971317	0.012724400229412845	0.04919218675879715
Si	4.553132029065309	2.6389291349728374	4.739014202283752	14	0.46695437804507756	1.0502512718268557	0.6220444793985377
Si	-1.2478997475483768	2.0231071847021185	-2.0662928519061095	14	-0.20127100956129992	-0.04814446134083681	-0.23697209248421605
Si	2.448474623015065	-0.797235070516837	-3.962782792257126	14	0.0659676205306353	0.7218897549590402	0.3063029758841371
Si	4.004730140856708	-5.144686266488544	2.116867338549682	14	0.47819936427327725	-1.471639750056673	0.449095480491329
Si	1.9149547700522784	-3.074248656706511	-4.358860386126949	14	0.15947563569803677	0.5950519873054951	0.038215366815488955
Si	-1.4593234914073594	-1.3135783893668058	-1.295296808607004	14	0.7500888667788284	-1.0597931578909892	0.16951631619427904
Si	4.805147079357072	-0.9001476760405763	-4.46973710170649	14	-1.3472890125793073	2.856207218672807	-1.2238790425385835
Si	-5.549505390165815	-1.8051997601143999	-2.7104828489144275	14	1.6103071732882193	-1.3692028003334613	2.215251231202452
Si	-1.77257034253813	-1.5692639714859877	-3.6631152429883382	14	0.5144612052665176	0.42561254716028857	0.6504186834906279
Si	0.9807683254856606	5.511128619425584	-1.957128680979483	14	-0.4355197872904152	0.39465309666878945	0.5545192832649567
Si	1.2039255545962868	3.0386550486771755	-1.7475529749301297	14	0.016191792864164542	-0.33746631502752383	0.7783802812796097
Si	-3.903370153636972	-4.529591758985438	-0.7434020845142177	14	-1.007786125027694	-1.032686765832264	-1.8159264361669534
Si	-1.5219146662121046	0.6917192194247253	-4.1561659554793176	14	0.6593707579943194	0.5021486961093925	-0.662400034282518
Si	-0.47055662727689623	-3.074688454166014	3.8573991025227947	14	0.13505887691471852	-0.3104583963025604	0.9974237992559012
Si	-0.6878565538586848	4.530022671647779	5.328758162285294	14	-0.3351194100912927	-0.6776204635567306	1.6937405693691527
Si	-2.4869702279173342	-2.1004182472044772	3.2190153204596346	14	-0.7561065387806348	-2.262858331531378	0.6755419820159229
Si	-5.109529124119777	1.110619636003614	-5.166761655636383	14	-1.1631963289935126	0.44467549333546236	1.1932098698377291
Si	5.274107774943801	-0.32560782518195824	3.0546776697586204	14	2.0307602834025666	-1.9439566824679835	-0.25275559382354107
Si	2.4441643857920052	-5.452108022480188	3.843396662195987	14	1.0255095253310709	1.0205568051528695	0.7935186922941094
Si	-3.72791206868847	-2.6965825837549793	-3.978885376513026	14	0.09419784272479718	-1.5395758088204137	0.35499405421603736
Si	3.8390253419924405	1.3931983885315558	2.9621480603179493	14	-1.4447801841086818	0.37331292251156045	-0.5429454526663101
Si	1.9250556738254634	0.4174888444298268	-1.8606375626043477	14	0.24249276982763796	-0.37462932843547625	-0.1794541524777154
Si	-3.0425199354425065	-5.143351325715002	-3.146394320258998	14	-0.40634416967003484	1.2009918343102215	0.23012781012198189
Si	-4.151852386457322	-3.254854371010561	4.774942100806295	14	1.0706807604796882	1.6165148499731847	0.5204649932995954
Si	3.984990342762745	4.717845062446404	-3.3350663197862085	14	0.7622972461704874	-0.13288886402451355	-1.732501781844109
Si	-4.715408406824813	2.7394284074675355	-3.3683198943630863	14	-0.8817605695447838	-1.3469948781306822	-0.5096730358288059
Si	-3.42215176976606	2.9951362015796215	-1.5703679075333263	14	1.6447586990255432	-1.7920113000315965	-0.8155587213194828
Si	0.7667268982629183	0.9318630701088384	-5.2819397236418215	14	-0.5746957751542868	-0.4951910280025397	-0.5510248940243434
Si	-2.3092454090929584	3.5813306851150735	1.8000554625577871	14	-0.12915279088380635	-0.387595412564983	1.469279218262245
Si	4.829575829153111	-3.731199443638292	-1.6149618150874436	14	-0.3024136648663491	-0.3222098902788292	1.2159633805894436
Si	-3.4276125882215576	-2.968420727114095	1.1976728785937545	14	0.23936244910035773	-0.15759024416677217	1.593755425679234
Si	1.6927770898287273	-2.866709790406473	0.8830755382944082	14	-0.08112300084024816	1.2019901945060347	-0.4993181662624415
Si	3.4960977153434323	2.5123774160008034	0.8820593396190411	14	-0.30694575221417414	-0.03537969475789764	1.3985977332376502
Si	4.963213173861584	-2.04030148840926	4.744803758234232	14	-0.7834839253401037	-0.771059573101552	-1.5954502983062755
Si	-2.0856717051153786	1.2132723612103742	1.4584372328904815	14	-1.2756603323547697	-0.16330478285133332	-0.9797335662111544
Si	-2.9791213546956934	1.31523984643604	5.111628157449223	14	0.631944006212704	0.36930071265946934	-0.05982704969452564
Si	-4.811025483279169	-4.923693596086433	2.6824435396718105	14	0.44192183953758385	1.7771973625084991	-0.6264814358495172
Si	-5.512793408293753	-2.0573347551678456	1.306890358303351	14	-0.7185072087998534	1.4419586531303517	0.0669970911008226
Si	0.9833749028529686	3.1473660949485565	-4.647841745609527	14	-0.5340689686590309	-0.20433525288185242	-3.6359126476344215
Si	1.3957361087208608	-1.9974023559137333	2.9807828117649278	14	0.25497188660950876	0.46731381856883425	1.2965240806961753
Si	0.31818013475479373	-4.553949430404184	0.251280943926279	14	-1.635532544694724	-1.3881965837755232	-1.3206474763624647
Si	2.85947423371793	4.177901501135723	-5.451744856396205	14	1.5400116111721784	-0.6236683895187431	0.1852519949746493
Si	2.7256280962761563	-3.0831378962667713	4.589390886282125	14	1.201318621796412	-0.6730847766614573	-0.70070384712102
Si	0.1960086207834677	1.0071239656661393	1.474219964448561	14	1.0585479715844417	-1.6447666694520358	-0.14388625281038292
Si	-2.770019874694845	3.6889555649334387	4.422288953064183	14	0.4001627182593348	-0.7564464389039584	-0.9250147885666988
Si	-2.944949314212227	0.437597361605999	-0.9151963012331719	14	-0.15217035415190003	1.0585510569108258	1.714548524725111
Si	3.929015010044516	0.9244664764717397	-0.6732155187358814	14	0.9105302096351127	-0.30564194470632705	-1.3730563729872993
Si	-1.9083866837505066	-3.571797297760591	-0.38665859827879717	14	1.9329994029251085	0.9932670932848178	-0.1976802038711811
Si	-5.192834092907333	-0.7338598123625735	-0.6303485936300658	14	-0.21937364789939848	1.4959269251318557	-0.6038945327225484
Si	-4.049301836417921	4.6262006009229655	0.6126212020932238	14	-2.5896884980705135	4.101942970427437	7.564148400195737
Si	0.1866340491782501	-5.43958267968151	3.5971711678547034	14	-0.4343352790694229	0.37715106853347746	-1.309594037480616
Si	-4.934475297442131	4.682444698755335	4.564516786028356	14	-0.4664998066244754	-2.5133289840569035	0.0012644695964488253
Si	-4.810063703986416	4.799157615470453	-4.234564295034337	14	-0.3238430563781873	1.443180699489018	0.3607780127442424
Si	0.8107432940015261	-0.9274628743145164	-0.25254591692217315	14	-1.2588892694619758	0.7546194114634611	0.09911045366000411
Si	-3.2674785571776632	-0.03344348711620874	3.1336335303355347	14	-0.7744829998353292	1.8776154803343308	0.3020742789640895
Si	2.918573683238135	-4.4936816300572175	-2.7469171808751867	14	-0.6230837201689415	0.367141498411609	0.10763778156480723
Si	4.602885782571072	3.1772845387908686	-1.6967497047596434	14	-0.21100084342433625	-1.142680708312455	-0.9040610515390881
H	-3.6350881503418186	4.060151284351978	-0.41735668307204676	1	2.768910736848351	-3.551539512558974	-6.870486553436072
H	3.158960755244549	-1.679030087420318	-2.7331812844632295	1	-0.06707191026563891	0.016450960280435467	0.18450200355276214
H	2.474741415223927	2.2549370864421894	-2.6507925603829707	1	-0.8234712979422386	1.0643339869969026	0.9757552949492891
H	2.7638560466639297	-0.9214511984349946	-1.5373797662716537	1	0.26319222453908614	-0.8390732792459612	0.3892355206487055
H	-5.4421959206466894	-6.228137303371385	2.559634541504134	1	-0.46806612398550956	-2.284123686523791	-0.3813900498748056
H	0.8685966507198054	3.295163585133458	-3.237072560091104	1	-0.8791660671662224	0.6712106979936014	0.013999925578738305
H	-4.299313364949725	-4.8516367805055625	4.4845358419789125	1	0.5371663792382133	1.1882949449077342	0.5852252227718893
H	-0.20929250313982453	1.7411403725786871	-6.213264152922733	1	0.00920969925677042	-0.2064849540400282	-0.2364015642136752
