225
config_type=interstitial dft_energy=-23348.36682972623 dft_virial="71.90542860901891 -1.8533343266377238 1.6916604811225178 -1.8533343266377238 67.67430577395024 9.76746622783328 1.6916604811225178 9.76746622783328 72.55212399107974" pbc="T T T" Lattice="16.254729908999998 0.0 0.0 0.0 16.254729908999998 0.0 0.0 0.0 16.254729908999998" Properties=species:S:1:pos:R:3:Z:I:1:dft_force:R:3
Si	-0.519631205730912	-2.0943894393148317	-0.392470453652805	14	0.6455549235565038	0.3207099074350548	0.5157624416690445
Si	0.05277910801452299	0.17633131005283198	0.127697158165104	14	0.011725782923067328	0.06251514030674046	0.27378055046852
Si	1.594556494613082	1.485828606251781	1.404636230356326	14	-0.03946312422735682	-0.34401543449900507	-0.5606611396537264
Si	2.8198055256936834	2.893553235290817	-0.15500510441222398	14	-0.7428370642233506	-0.6661659322449388	0.5220703914614959
Si	4.1715326101962145	4.053750837275601	1.2774917330081277	14	-0.32588554244451284	0.7912262947906655	0.26742529233817797
Si	2.8792165635110787	-0.08428077457816499	2.663483788158831	14	0.02122704552314254	0.21767646127756876	-0.10674663646084391
Si	4.2554720354462905	1.274972249872233	4.0616994002011015	14	-0.8707169008631517	0.005582126760573495	-0.053434253426509475
Si	0.026917832729303995	2.7016986581748896	2.6371673804361597	14	-0.07319988268567984	0.013932048398286394	1.089810298282654
Si	1.4518074565522439	4.016023609156812	4.090210196461488	14	1.2363936405738722	-0.6478306088753669	-0.7311215657215638
Si	0.082720320506901	-0.080737243458003	5.478835517857449	14	-0.4096740081701586	0.6782488416969746	0.6981808214703586
Si	1.345680324976383	1.4686798661977858	6.843826461965723	14	-0.4657588140712086	-0.8128791153548247	-0.31465675417983013
Si	2.9035011299951248	2.531446617108024	5.546585232118161	14	-0.02591057097432428	1.9773743667560761	-0.6711906433721042
Si	4.200124680106145	4.173596960894657	6.988493558155823	14	-0.11760004334878499	-0.6188853622916719	-2.044786434255571
Si	2.6368097763781617	0.05994744390439199	8.165612333975877	14	0.42363125340058244	-0.9617797948710923	-1.511836153521336
Si	3.9114731863821235	1.3603908555440278	9.481513993758972	14	1.183431956305206	0.48766720250419043	0.4424753985130117
Si	-0.07769760896502	2.7339155328545277	8.203664656692844	14	-0.4623456717587121	-0.08309426728920569	-0.14535075440073927
Si	1.3367727329862509	4.140681132828933	9.379157959521999	14	0.12451657377051534	-0.1585664928568324	0.429389500875586
Si	0.07096815078269399	0.014076596101193998	10.790247317652197	14	0.30790683138284547	-0.15026387955701023	-0.02768823319267466
Si	1.3985081971806328	1.3930140984713908	12.240348027563995	14	-0.4515843104412324	-0.3154100880386336	-0.9487365775819812
Si	2.6200186403821646	2.7565746263476734	10.804356423213209	14	0.541467581328289	0.4859011102597808	0.6558581139059332
Si	3.9508746516815396	4.111828987240457	12.293988636263697	14	0.1405610422998354	0.258865825616873	-1.3894075743813128
Si	2.870634066119127	0.11009328567365699	13.463955330923788	14	1.4953818508039842	0.8264134137600839	-0.4911212253912774
Si	4.213729889039978	1.5076261990597497	14.939218362734719	14	-0.3685923731437685	-1.5159239538698395	0.1970065742773023
Si	0.057915602665766994	2.798268008564259	13.460119214665264	14	-1.537169254240755	-0.45203451098279024	-0.19953242814381578
Si	1.3784823699327449	4.115388773090529	14.702598259449406	14	-0.11625406971368749	0.5413655084470792	1.3061659827572627
Si	-0.14494342659855297	5.274676110200408	-0.11960230267042199	14	1.0713790726846406	0.3730887221276435	0.21271577067287506
Si	1.1222753171070867	6.654783953124053	1.3965576295915527	14	-0.16792428778004337	-0.08207739513508712	-1.0680965425224074
Si	2.557925572129785	7.956982875593861	0.11495344991644799	14	-0.1668696203777186	0.4118591905817524	-1.0060002352723192
Si	3.894682050386127	9.251444546626987	1.4510109747867028	14	0.6747631942144501	1.223177387896715	0.1334164548362079
Si	2.7392145748048615	5.517668067610049	2.4919801328889717	14	0.14117142270283856	-1.7372192458855167	1.3891949439713367
Si	4.060480295457927	6.544820705289669	4.106286124341488	14	0.9401596273444991	0.266488638670048	-0.4500483321229759
Si	-0.121975493237136	7.999358956466624	2.7821920806842577	14	0.9660537432447746	0.4540939663442288	-0.4112174426938434
Si	1.3622601494835629	9.241155302594589	4.078051658489556	14	-0.4387192707508074	0.7431682225885856	-0.26382960154795093
Si	0.21789465443014497	5.383956659378616	5.421212500330043	14	-1.0142395993812656	-0.11082106706168257	-0.0015254367864438554
Si	1.313967346923924	6.88077346304888	6.733765685751884	14	1.3138597583172738	0.07663745049871781	-0.6668125652329561
Si	2.9042325928410295	8.07502472419302	5.2996108658808145	14	-1.0616520670374563	0.09517126319900525	1.532447933541367
Si	3.954190616582976	9.507619089992826	6.861901721624531	14	1.5867296232813972	-1.1505729732031815	-0.9872751323362127
Si	2.6481393231247345	5.52903012381644	8.066507245720702	14	-0.44062266001931305	-0.9454681884990088	-0.5174835395703518
Si	3.9682021937645335	6.807042008181656	9.303004549898333	14	0.5569078401073743	0.224573708409398	1.6092324512643976
Si	-0.09562657605464699	8.16164617987808	7.958364527636126	14	-0.5756902786921201	0.605744957221459	1.2389704023257246
Si	1.1223891002164499	9.609682539091436	9.402711063160138	14	0.39666678635552943	-0.5356399140096414	-0.4469223822747398
Si	0.13538564541206097	5.635141000662393	10.671018873769683	14	-0.8286801002103267	0.6296886326258699	0.44240752133255984
Si	1.3982318667721798	7.131031284727844	12.080807853507162	14	0.22543965668122387	-1.3684643788855146	-0.9850436700288561
Si	2.68788213775224	8.322519241787452	10.515867476788276	14	0.15884211534715229	0.36911199352897045	1.4770830371299584
Si	3.9263300095189493	9.737103366848087	12.10925363084791	14	0.5560128383454307	-0.8005002716804396	-0.9869200626915001
Si	2.5511310950278228	5.6037043530183865	13.425659187258184	14	0.6461665895121669	0.09476271456363372	-0.2161080870322784
Si	3.9400815110219636	6.7926728269421	14.845070967101792	14	0.7191859806043724	0.49545739451370713	0.5291064782806131
Si	-0.0020155865087159996	8.225153409632544	13.458331194375274	14	-0.6030800065571256	0.9138726465513052	0.3509175667309426
Si	1.3723543367570519	9.521711940823927	14.909325914432069	14	0.13047922411847077	-1.1005919713321628	-0.20078198532940772
Si	-0.04687864105755599	10.64228051129057	0.010533064981031999	14	0.37985792821452935	1.2515881016843513	0.11186622137432278
Si	1.276045062046227	12.107676922046737	1.327458772748394	14	-0.15881666140448283	1.1185621977462739	0.28858883155991283
Si	2.8052900518849464	13.640969339632798	0.07005788590778998	14	-1.3300561791710146	-1.4402563242978814	0.4377481642713875
Si	4.285770851996666	14.793819803698716	1.2469816049689348	14	0.7699570831402726	1.4420995497018954	1.3151905624309823
Si	2.5683773634612717	10.748976558413245	2.7707162413685036	14	0.9120613028532608	0.16703674222352824	-0.25946874981444773
Si	4.131968597597709	12.149646634671775	4.043737923651657	14	-1.10210121015509	0.5425677572947805	-0.2845169720643943
Si	-0.08046091304955	13.421059098693938	2.95397206636257	14	0.7455935462370813	-0.17548565141606684	-0.9324537675894833
Si	1.3576925703791338	14.915356419228308	4.032115791766722	14	0.32904980176201915	-0.011245243338731654	-0.3162467257098098
Si	-0.06519772166499899	10.59237849046994	5.370952875451415	14	0.6995504492744015	-0.6280960899905703	1.3559649503716147
Si	1.3536451426317928	11.93989559992604	6.773687302408389	14	-0.15866933706963832	1.163983601442542	-1.2836945222591685
Si	2.6483343798836425	13.583671416703572	5.395399989234551	14	0.008226765692877808	-1.348850187729701	0.3424897406020292
Si	4.039609222254771	14.822753222936734	6.746493139270631	14	-0.9363741889816452	0.14295268446863715	1.1668239014897095
Si	2.7084281163572155	10.815263346982148	8.222877747445283	14	-0.5583875112191194	-0.22354809449719093	-0.06708656556596375
Si	4.134618118572875	12.045957712582265	9.481318937000063	14	1.0608072018292556	1.050795831933663	0.32929585654115734
Si	0.076283447462937	13.4392318867322	8.0426615569442	14	0.02315048941314532	0.26682313947219927	0.3731036345385004
Si	1.4338784894626169	14.816202566783407	9.345348121311277	14	-0.527265566871387	-0.05859086225659845	1.2011844100987004
Si	0.12547026016757098	11.068447020044731	10.86531166037196	14	-0.32125266776813804	-0.11459210723474375	0.0012652409280448696
Si	1.5641926591430697	12.37407569052534	12.20486395217265	14	0.06466252747012814	-0.4212884622328635	-0.33123087040510074
Si	2.9219827579016577	13.606623095335081	10.763540796411709	14	-0.11582212401990259	-0.0653161024425098	-0.18954059864865633
Si	4.270361368042934	14.922102132140543	12.131278789874605	14	-0.2631294895692745	0.28801727484724393	0.36639947741621426
Si	2.697001041231189	10.927112143485976	13.628697018551504	14	0.29076501510288616	0.6141815251084609	0.718397165492151
Si	4.095395455302458	12.21346270429451	15.102415851021078	14	-0.2691456189078891	-0.010911770978708447	-1.4470376145797719
Si	-0.00042262297763399995	13.727623304777678	13.581005640998498	14	-0.2687656095415712	0.18080938209196543	0.5036003421731481
Si	1.6591527912714477	14.992322565347424	14.873988131609902	14	-0.4453918032776557	-0.29713518564408503	-0.4071324705611922
Si	5.673941040955175	0.06085770877929599	-0.075226890018852	14	-1.8065717265701269	-0.6012905172543025	0.004103741201488349
Si	6.9526031145167515	1.3300432748039248	1.2625536362217569	14	-0.751802508474707	0.6963491660402852	1.4306910411753344
Si	8.066328443691704	2.7913760030828425	-0.053803155998789993	14	0.8460594866218675	0.9544932823937925	0.03126515491406467
Si	9.49207956819982	4.1086268054483845	1.4062942128070437	14	0.09148429816991291	-0.8937609465160428	-0.6326292057805233
Si	8.208297254716909	-0.06401112638164198	2.656575527947506	14	-0.7447962464773035	0.46352503776906406	1.1042588817397583
Si	9.620638227050103	1.1461860248032258	4.0615368529020115	14	-0.002980168176583639	0.6164592673115801	0.2932291624417161
Si	5.472853777250937	2.731899946345812	2.669010396327891	14	0.30966289631650656	-1.082765469705448	-0.4038782225574808
Si	6.8811635765666965	3.9604486875979408	3.9836116777182653	14	0.37674097723491384	-0.43403188864164544	0.733850022687305
Si	5.3638333037512735	-0.134475380537157	5.511019883077268	14	0.842438341888971	0.11356366510668454	-1.462404082636169
Si	6.569950517728983	1.213594389735849	6.874921760281641	14	1.2620265321736206	0.7323158441427726	-1.7953285401156514
Si	8.203014467496486	2.4465644175232257	5.417717733399608	14	-0.9385673418197313	0.5324771973553273	-0.14566828590777753
Si	9.469436729436584	4.043022715535661	6.624192551435315	14	0.688775203988193	-1.3405570875195634	-0.659621954984098
Si	7.922246517778328	-0.10695612280121998	8.033201304137162	14	0.9349194575915053	-0.31417698592709054	1.4147381039954117
Si	9.275924169869938	1.390445851145769	9.318609090610972	14	0.9041757228363666	-0.47193615171339653	0.49379131826625117
Si	5.427974467972187	2.6059420442809706	8.155225561564025	14	-0.7969248926222416	1.213004552587017	1.4642683911038081
Si	6.794574630341453	4.020233584203242	9.522801007727832	14	-1.238125280006992	0.6440994208347679	-0.2180664979546352
Si	5.495415342364629	0.09795100243163399	10.678317247498823	14	-0.9642418853256662	-0.08766235011151279	1.0080668897286542
Si	6.694494258291741	1.3989308201582669	12.17233823762474	14	0.34804847030418934	0.012950400387053859	0.3550030530846579
Si	8.056396803717305	2.7135971204682776	10.864612706985872	14	0.7067050640487776	-0.1890819134595419	-0.03034804164636785
Si	9.317585042626707	4.13144844624062	12.20518904677083	14	0.8022882183200706	0.4419195255427957	-0.3541623016449695
Si	8.205826535770742	0.157557097007937	13.549000077807676	14	-0.9242118323752165	0.16837808786904948	-0.04068799880187537
Si	9.507651599452643	1.465542703325349	14.967469083316562	14	0.11443604114181077	-0.1981108640123059	0.1966332497848168
Si	5.409314038036656	2.802786823478961	13.57073265169601	14	0.35338737050147684	0.38508678510411454	-1.0221408631406128
Si	6.824385804994559	4.22818034392908	14.761749221588259	14	-0.6729027424047909	-0.8375576126597339	1.43783665708109
Si	5.451381279041147	5.496065531560989	-0.014466709619009997	14	0.01842865449269337	0.3879206573879817	-0.5402442494169626
Si	6.775052699720744	6.950278688139764	1.352962443975615	14	-0.7120488493461734	-0.9341820645856868	0.2845611950759009
Si	8.011078616731012	8.149097528388333	-0.10494053629250398	14	1.7327203257963215	-0.07980633780580033	0.3997551980660913
Si	9.485675204615674	9.565778513607228	1.2438281873665888	14	-1.3628513988610993	-1.0782521514264602	0.5264898643962984
Si	8.06640971734125	5.454729753402401	2.6492771542183644	14	-0.046167795570706965	-0.2240134645601377	-0.6621226120184739
Si	9.363065776912087	6.71676323826707	3.9707704410901554	14	0.8929412781399797	1.1238327065420455	1.248317655717123
Si	5.421700142227314	8.1237564044602	2.8684721870412293	14	-0.5078668343414019	-0.26024393806847235	-0.9534460711968962
Si	6.746314337241632	9.55761863919291	4.051020042650888	14	-0.558639993761558	0.6179060282752274	0.01191193094824605
Si	5.649688983930948	5.352227426596247	5.366629117295622	14	-1.1742402547856767	-0.5608688849635943	0.6386512486613741
Si	6.9942314778137	6.660586891701566	6.7240291025363925	14	-0.6952294496733608	0.8182203295469002	0.06797076868556268
Si	8.032291039262258	8.267025593878127	5.3397112845663175	14	1.390765632211415	-1.5673499169307812	0.5898035900154768
Si	9.504904550098022	9.492339643878365	6.6662435377098985	14	0.32853789469277767	-0.06843948118542567	0.6787712902980289
Si	8.201356485045768	5.1626322569376715	8.046952805640176	14	-0.15015846423888415	1.7090725846142596	1.5751532215774304
Si	9.48964135871347	6.666487358658533	9.61303101345269	14	-0.51655048544967	-0.25141347684642373	-0.5779114565781959
Si	5.451901430398235	7.938598776066782	8.046237597524179	14	0.30155774390527174	1.2750674354679437	-0.7662639474584119
Si	6.7229562903624	9.3527927876096	9.485350110017494	14	0.268798262579137	-0.06994794867675655	-0.7059915823224365
Si	5.290426943482229	5.563473896493612	10.821326361238205	14	-0.5803509213059524	-1.9260995846879585	-0.6354630780643906
Si	6.4463658062308555	6.82227269010639	12.255952568276635	14	0.8087715174953559	0.7938084558636902	0.9227676425168895
Si	7.888062820779701	7.97650480621457	10.890864095788908	14	1.3850840036749519	-0.03259878724362548	-0.21874269865383417
Si	9.287400009185694	9.341983392220115	12.251628810120842	14	0.6214968339653462	-0.0765346062859119	-1.1742703367179226
Si	8.056868190884666	5.61129531188589	13.533265499255766	14	-0.27385408408067624	-0.24314685902108368	-1.5026184838380732
Si	9.50412432306239	6.623574871698773	14.89432279872606	14	-0.6076753430958262	0.9902403881019393	1.1853474297687163
Si	5.244279765270578	8.433002640978927	13.545944188584786	14	-0.7818651574305384	-1.669684536662251	-0.2578625803209512
Si	6.718616277476697	9.531546052418872	14.863763906497141	14	-0.3402451656575399	0.3192914286299291	0.40857486064579523
Si	5.308599731520491	10.71721481617106	0.04377398764493699	14	0.7384425310101536	-0.38010141188834734	1.4571117194451764
Si	6.826092551635004	12.190299714174184	1.3083269556455008	14	0.02359606196512698	-0.6325153058148408	-0.8056535380736124
Si	8.193294139010902	13.625754912437975	-0.062970823667466	14	-0.8015024885342333	-1.3996765690299844	-0.9948038429346703
Si	9.380377064265172	14.785578655634852	1.4146003797905427	14	2.0995016123525776	0.22029204671975539	-0.2964972944141563
Si	8.128681587622628	10.837808657365931	2.6913281404929474	14	0.02892184952528171	-0.16509272949096426	-0.8099585968216684
Si	9.474361912599012	12.222630371963186	3.9234529223250565	14	0.09922769606260287	-0.5665428001840972	1.4931195352327862
Si	5.62135698969956	13.473659404679461	2.7419616241594826	14	-1.4000105556110716	0.1701652631770844	-0.3355333580478365
Si	6.829652337485075	14.86979441129338	4.083692049767978	14	-0.24679422902824574	0.789515224200107	0.21584814828441146
Si	5.368270845016431	10.841303424296365	5.445090698566364	14	0.006746323249536544	-0.48603455062589634	0.6633361737295839
Si	6.777052031499552	12.057336023518566	6.849190522835693	14	0.7623170436814525	0.048469449053303526	-0.26696017938576316
Si	8.037541317022866	13.408624230313553	5.351707275239159	14	1.3411543552854337	0.45117730446905285	1.0896760865849422
Si	9.495135457422714	14.97203666242099	6.816372223149423	14	-1.0567921637613125	-1.1113782723712482	-0.5744659183386654
Si	8.229607205627609	10.714646568845437	8.236580484758571	14	-0.541136937184118	0.27434182275990826	-0.3952256818235864
Si	9.499638017607506	12.0899105022562	9.694743540705232	14	0.09904386203221228	-0.03206656844235482	-1.0186590723160682
Si	5.462792099437265	13.495261940728522	8.048773335389985	14	-1.111984539005739	-0.49898675078667437	0.3967680879051433
Si	6.638057836047692	14.776476006885812	9.513698358978791	14	1.4555970813010768	0.04173700977249578	-0.4444191541350437
Si	5.652094683957479	10.82417093897228	10.883533212599946	14	-1.3661025615384268	0.5090138044247199	0.06140750813482067
Si	6.876563488002449	12.229554886904419	12.30024670727866	14	0.1857829282232599	-0.2831584000132281	-0.23055127116821023
Si	8.181688261855877	13.527430051218435	10.826154016021178	14	-1.044581213264333	0.8038987586926114	0.8529127678527223
Si	9.377321175042281	15.031610247537476	12.209691606955621	14	1.2316286110840418	-0.5137094140709063	-1.1714449490816115
Si	8.179672675347161	10.740946721838199	13.606395529116355	14	-0.5060742597121946	1.3940576754633327	-0.030005827528256142
Si	9.577286862382799	12.209382767087352	14.763943610125972	14	-1.1166495524986157	-0.4383230634209726	1.2507866881560614
Si	5.471472125208671	13.51154918009734	13.655094699923719	14	-0.6666678120034317	-0.24887605300596966	-0.743484725653496
Si	6.829587318565439	14.950222814883112	14.750289637002412	14	0.9706994734477499	0.17832543724217037	0.7427020811940428
Si	10.764971212643703	0.00017880202899899997	0.07859161911001498	14	-0.9301881095813688	-0.7705957457017972	-0.27593307984254795
Si	12.16404832537115	1.1453245241180487	1.4277667110168328	14	0.11466538373636799	1.8931907221427235	-0.436698639079703
Si	13.36233075953272	2.7076153798617657	0.028201956392114997	14	0.6773183586816132	-0.2578435541415821	0.17186913467274656
Si	14.847021534690871	4.0333348965098965	1.340007424238142	14	-0.7222219417664033	-0.5587868038753385	-0.13962233174744934
Si	13.53643517158802	-0.0012353594730839998	2.803908399842682	14	-0.3157435603986568	0.564350161567075	1.21593612687305
Si	14.926946041653423	1.3590254582316719	4.157553542474474	14	0.14123158656733004	0.5180723226886657	-0.2795177148798984
Si	10.884069618686945	2.6608017577238456	2.7433432762017476	14	-0.6477732732267275	-0.20107714822016073	-0.1213402302580044
Si	12.124776897911005	4.099426628319891	4.09455020934719	14	0.38970680425388854	-0.5604518516806664	-0.9000989782407398
Si	10.99517069761496	-0.008598752121860998	5.607215374678731	14	-1.0426883655276402	-0.4736189401454334	-1.155079606608337
Si	12.336364717136458	1.3593505528298517	6.7342695823790635	14	-0.47481398989823825	1.3004481016357854	0.27866770746105746
Si	13.487378396722658	2.8661315059343337	5.4321356788288915	14	1.6799651012848633	-0.4285302374775926	0.052446948983572605
Si	14.981496915228028	4.211616774151809	6.8030595993539515	14	-0.3999603722706392	-0.7604383370240203	-0.33984972965930116
Si	13.548853785238496	0.11378310936299998	8.132095080903518	14	0.07541591836111547	-1.2688792991834112	0.49292845532080953
Si	14.762789524302434	1.315999188162549	9.599409549788948	14	1.5100554059766014	0.8542505139507953	-0.06606583675386496
Si	10.802926006981217	2.6488220217809126	7.940646872035316	14	-0.19009750006100037	0.05914107879511014	0.9010078639714122
Si	12.134090858148863	4.007847480012584	9.370721754699227	14	0.7915376556449355	0.11431802740761597	-0.8002891839336556
Si	10.812776373306072	0.12265819189331398	10.794993698785625	14	-0.015770902923256305	0.47343664877823494	0.19583466447237882
Si	12.215705857021952	1.6649882393087787	12.212032288062519	14	-0.9526819386957484	-0.8858031184396525	0.2304995919512753
Si	13.608362351435344	2.9086051151865506	10.810354418549629	14	-0.6107547559377675	-0.5294072976030704	-0.19778407652611507
Si	14.992777697784874	4.276229325540083	11.995161681616638	14	0.6334668718938276	-0.16281498728784508	0.9682620656042494
Si	13.477365483098712	0.10664728293294899	13.56242648471251	14	0.08835397744263261	0.2864679267813227	0.4957247894670025
Si	14.94700437836113	1.50795129365793	15.028278027906131	14	-0.6278618622959048	-0.34129289107550026	-1.080534007398092
Si	10.697319026762445	2.9507698845704966	13.659190891860787	14	0.8437832870819404	-0.6866471001147064	-0.9431755338850328
Si	12.26872878598511	4.205635033545296	14.81630009516286	14	-0.15356337901435627	-1.1808935040226236	0.5653369517889476
Si	10.896683289096329	5.340881625119765	-0.031550430753368996	14	-0.7150537001338305	0.5651662303956899	0.7243603300611705
Si	12.00021690261834	6.8790016974888	1.3111065144599399	14	1.7794481081057567	-0.6990033180622741	-0.4940078053342077
Si	13.637003185535002	8.012200193094733	-0.163083705176997	14	-1.8186026996946958	0.1726566642323079	1.0280353791975843
Si	14.952823571668553	9.227745150419663	1.263870269344386	14	-1.0400779222960939	1.074375953045805	0.7923385549521615
Si	13.395636701116262	5.343726202853841	2.616084995744187	14	0.7543453316363333	1.100939070550383	0.29807106798061894
Si	15.011746967588676	6.575038248190499	4.053734582545691	14	-2.274230844583457	-0.5199425446985413	0.5619415501031602
Si	10.72290397163921	8.172959471894742	2.668116386182896	14	-0.766163674350926	-0.20121470235478864	-0.12941838606337766
Si	12.17900267688743	9.340130353010489	4.065535516459626	14	0.0040651746216861274	1.2346843697570378	-0.24329752579284436
Si	10.874593111149998	5.4164336097367975	5.3969929527656335	14	-1.6943668906251403	0.8015891347835223	-0.21627160933063982
Si	12.058230033663559	6.775231501749744	6.803319675032496	14	-0.06384620153098113	-0.4022687106270681	0.20476668435457324
Si	13.359973823695915	7.866720360409183	5.3374518771089665	14	1.789783951492752	0.7886809005237189	0.18383634438537577
Si	14.644552618944367	9.413666751118805	6.77869375922036	14	-0.03388125457731534	0.25283992607804195	-0.8130349243372255
Si	13.52926683569815	5.535060628612679	8.034891796047699	14	0.004949377741285052	-0.38414910299385646	1.2381815872135034
Si	14.771875918321564	7.005382222531274	9.483139466749872	14	0.21409645422979454	-0.8104915869545352	0.1429087185676626
Si	10.78481823786259	8.078844585721633	8.194204403885808	14	-0.7379763896156106	0.5479498520614463	-0.2501006704699562
Si	12.168810961234486	9.47990477549798	9.465990726695876	14	-0.6663266263274481	0.697979761034323	0.04759141658647295
Si	10.991074505677892	5.302455443614889	10.843904181081806	14	-1.399965047046905	0.5073495279509881	0.5505682657194853
Si	12.170712764633839	6.741226606780115	12.277230009727518	14	-0.3998094483883464	0.5260905717400794	-0.3793835592829621
Si	13.368149952840144	8.309970590297704	10.977274239985151	14	1.3144832513574096	-0.821916293444613	-0.2776981436448296
Si	14.948369775673486	9.721953958572898	12.053434888340405	14	-0.1105557289926433	-1.096846899322835	0.8867269165811816
Si	13.622455202266446	5.471715946157307	13.513158398358332	14	0.27926908899544006	-0.2866350486271323	-0.9328142365553681
Si	14.946402953354497	6.756668600193665	14.792812010444356	14	0.922568896075642	0.0682661886868477	-0.2512116450787921
Si	10.634299438905252	8.03827277986877	13.55574579071991	14	1.06567224731604	-0.28458536346591023	-0.347279709813465
Si	12.132920517595414	9.294405797776472	14.800159148363225	14	0.3640235189898654	0.89697637082942	0.19108120495648903
Si	10.780722045925524	10.768742309982589	-0.11092227689901599	14	1.1549518226739257	0.5119965437066236	-0.7371592923448675
Si	12.008344267572838	12.047063034216077	1.3918762673777607	14	1.7528477095740367	0.32682219611264285	0.39285435138681385
Si	13.524032812667453	13.554640469086099	0.06235314393092399	14	-2.451692904659122	-0.5601353486157562	-0.37929074238090466
Si	14.942095449928612	14.951669485845013	1.7138337026853239	14	0.9387401200972453	-0.5862058423409936	-0.7766003050664712
Si	13.606704368984625	10.703138220069865	2.689296299254323	14	-0.8660503447070829	-0.44239929379553533	-0.606317028155192
Si	14.871549922123553	11.946998916896273	4.186324414413405	14	-0.6656177725906832	1.3087828537521093	-0.23744517586312328
Si	10.89749602559178	13.553258817043835	2.791213455783753	14	0.1890122365053659	0.778127284516107	-0.41032681181094416
Si	12.277051207698518	14.926604692325336	4.245377848172802	14	0.06190141746682112	-1.2551310848155153	-0.5540971077713884
Si	10.90269753916266	10.913425660902599	5.379584137033095	14	-0.7001114644552578	-0.8798664362554307	-0.5894631756710893
Si	11.989895149126124	12.206570698813094	6.890997688161641	14	1.1700128434182893	0.8623276413140406	0.7949541403943483
Si	13.586369701868467	13.45191057606122	5.577144124347081	14	-0.2882000804355065	0.10198983450803795	0.11462090361432942
Si	14.924133973379167	14.915340164498398	6.9622421693527885	14	0.16221720530091066	-0.3150691594731819	-1.4069803079129288
Si	13.568001857071296	10.957459724226078	8.278127574405975	14	-0.655247990613462	-0.4352809316061733	-0.7752522745471175
Si	14.922801085526629	12.344345789521777	9.598531794373862	14	0.5034900417549137	-0.4713363128422059	-0.8897502793271438
Si	10.637647913266504	13.656590135075348	8.331199267558858	14	0.9982313834369596	-0.8462363786678937	-0.4322161740645568
Si	12.237584723479465	14.963470419758947	9.486991837738303	14	-1.020132058553981	0.5045791619685285	-0.10423440945252722
Si	10.831583095810783	10.732721828504244	11.005476196377264	14	-0.5756666245231747	-0.903851506455496	-0.8089568941889387
Si	12.172939662631373	12.182481189087955	12.091633503626554	14	0.6454929599182881	0.5382020204611689	0.824989792744318
Si	13.534874717516756	13.631281520607034	10.816823801053411	14	-0.07370536199162095	0.13941098689013318	0.8069578598025235
Si	14.885691537144384	15.055683502532704	12.144428866370987	14	-0.5412102136857422	-0.17371878784006106	0.5665109184781274
Si	13.48281081761823	10.794717368377173	13.49903303806741	14	-0.7785024087823167	-0.2594546087351869	0.11361380166042742
Si	14.843510513030528	12.086318206946313	14.86932302412602	14	0.11550999183403664	-0.16421392569253768	-0.14433208247289658
Si	10.765019976833429	13.511419142258069	13.401130799825504	14	0.43893267249237966	0.891454407933338	-0.49916415705376455
Si	11.95028237233789	14.896663479832958	14.849703565125855	14	1.6750108384434697	0.23453339908805562	-0.018791951674430298
H	13.966018424569054	13.015067960702826	13.971507646859322	1	0.14379986367162595	0.3931297167666017	-0.4244619775295223
H	12.539908070529949	12.585112474406875	-1.0837629855336932	1	0.15949440476687382	0.14929534418291046	0.4034635032693409
H	2.646297662226045	14.108192045191114	13.947026398143379	1	0.13019743097538253	-0.21089902765365842	-0.24770414320104614
H	0.3631534227889326	13.424612382652045	11.983554178988623	1	-0.08850181599854114	0.1953258427295215	-0.39064345792201854
H	17.639135502511582	14.915340164498398	6.9622421693527885	1	-0.04834346489261627	-0.1091357075243255	-0.09128040951802516
H	4.1135097263130485	1.3930140984713908	12.240348027563995	1	-0.2007272207860886	-0.14680934244885926	0.21611862856409106
H	6.609683579518541	9.251444546626987	1.4510109747867028	1	-0.07999325716257509	-0.2193790472205708	0.039946234917012644
H	9.49005422885316	6.950278688139764	1.352962443975615	1	0.05523659825593328	0.1567870308647579	0.14748811425337838
