219
config_type=vacancy dft_energy=-23084.502746478396 dft_virial="42.03054674363314 -95.8149894390449 106.42933329957535 -95.81498943904488 -51.36037782286268 44.27743743945104 106.42933329957535 44.27743743945104 46.50822139192974" pbc="T T T" Lattice="16.258361708431295 0.7387293497905628 -0.3252583931197029 -0.1139975239986627 16.756008189391327 -0.35827095611688814 -0.30128033330961723 0.0600346806378792 16.097938232919823" Properties=species:S:1:pos:R:3:Z:I:1:dft_force:R:3
Si	11.840429419918392	15.975602920574437	14.23041526519528	14	-0.7621596920358594	0.2361951044564673	-0.8958057465771566
Si	1.3622614586727528	1.20094755554987	0.9018175967826237	14	0.4232772121979981	1.3408208829254107	1.617702957741625
Si	2.8184312875005655	2.8364628535912866	-0.12304504989305892	14	-0.48979762037246516	0.3260626916010711	0.45725976832492726
Si	4.137390616573312	4.316641671159014	1.2596132240831817	14	-0.9368508719080004	0.9666623238740536	-0.9171256090023564
Si	2.6837488207994755	0.18986456103252924	2.610124945097469	14	-0.5465450001145175	-1.235974293296156	-0.8691788656606391
Si	3.9270315699325695	1.5705238494387233	3.9475195441871347	14	1.0862382616613724	0.23716055450418286	0.11637799699011862
Si	-0.07768370470175898	2.6563734622233577	2.451832310067425	14	0.2185647781656799	-0.7499153171697183	-0.0718467099556859
Si	1.2331722447556037	4.117861439143469	3.8125473222486925	14	-0.43225782597074325	0.9761628151425327	-0.47270439798305675
Si	-0.08721795428137011	0.06426054915566484	5.2816145148154945	14	-0.4035537490660781	-1.4646939090342928	0.00815683162816978
Si	1.199047868122961	1.3322831864757034	6.592918119836182	14	0.9579881858554699	1.7758477893259534	0.6103189535860024
Si	2.564731043137927	2.9387627307606703	5.215379397665965	14	-0.11814897433463663	-0.7582824652130762	1.057098896626006
Si	3.9220682906141073	4.381636375438532	6.489285043007296	14	0.702041078998029	-0.23677540292722474	-0.26512749551356163
Si	2.5848348475272385	0.18447153237327507	8.084167866444535	14	-0.558343802428677	-1.578043143957277	-0.9531244259213456
Si	3.8602804280064076	1.6240113639831766	9.272460606178816	14	0.8538324522257392	0.44314671411210244	0.1858559476143521
Si	-0.16016302136553512	2.734247624019331	8.001743896286769	14	0.3888506261822793	-0.21255687636408988	0.2324276638308543
Si	1.1404196398731277	4.312366967488866	9.251370331711778	14	0.48098669955084966	-0.4834217933995619	-0.38605506336768225
Si	-0.276063488467931	0.08240606393523206	10.757602703065007	14	1.2761233884229286	-1.7070262418899536	0.8911512746160926
Si	1.0789019984418342	1.5311106258052	12.069168390070041	14	0.049171103695171935	0.01016589332533349	-0.49954905152019086
Si	2.487285002844333	2.91516232946219	10.596080436625378	14	-0.9872201106823615	-0.20338445813446163	0.2048078220396956
Si	3.7240840715820736	4.3441814414147535	11.86589857971395	14	1.9219544486908162	0.37733978766397636	0.03132840410494032
Si	2.473191177872458	0.19018036168447472	13.341661071669678	14	0.21083140758373853	-0.529226291788532	0.3472478281074952
Si	3.8245233294464387	1.654679839666952	14.580599120080905	14	0.880688418626282	-0.04193781309799935	-0.3192811442086485
Si	-0.34940900380147016	2.6856582752568565	13.528453901618594	14	0.2143535647618094	-0.040594667678753985	0.7549120032488941
Si	1.077051146167288	4.235871584827933	14.728133371045447	14	0.06449463429272248	0.19009287207142414	-0.9100620113563136
Si	0.011305337771965051	5.549936003795525	-0.06200110943968393	14	-1.0970448744324865	-0.7309261617172326	-0.44576075689109695
Si	1.2534079040562947	7.0123551042873515	1.1496739012458592	14	0.28442158405701684	0.6637202968644139	0.29181711139989075
Si	2.608710353517363	8.401759140643293	-0.2229015416058958	14	-0.11295662714059758	0.7326639718031206	0.12448057829603329
Si	3.9194295645481096	9.94374861055649	1.0636003173681883	14	0.10730765164170024	-0.13909602648841501	-0.4286055708634729
Si	2.5505932665289253	5.698567417849814	2.5246097097951448	14	0.864854523622682	-0.8657731795535708	0.10467252579908047
Si	3.9655494824394437	7.098801463161391	3.820046773813191	14	-0.3527741618826215	0.9152571867662049	-0.9704025107832729
Si	-0.0848429380381308	8.398396026483915	2.4930719683993128	14	-0.06889945192720016	-0.6663101712533992	0.7241934653258929
Si	1.18836110894759	9.833369771347904	3.844789917676959	14	0.5419234383015513	0.16848298896611155	-0.6608445155638285
Si	-0.12470056155815445	5.592546302070393	5.193939137940327	14	0.9089919173220681	-0.7850273598637885	0.5395765333653201
Si	1.2705376476667176	7.0032473483717075	6.5513235927304585	14	-0.2979180872140702	0.6296372105194671	-0.4532329031725113
Si	2.583905351793935	8.486564638397946	5.1325305616826435	14	0.18189773097398412	-0.00959639349692069	0.6704699625508667
Si	3.9394259316022233	10.042822111993113	6.399026286572141	14	-0.5554896184127806	-0.2612726373070636	-0.1605547286009029
Si	2.625734287631	5.6763897473235	7.870253620711787	14	-0.5898436992584711	-0.00253639539832608	0.5987232685921345
Si	3.851988219135221	7.1533145159054605	9.23358294138287	14	-0.13612228607513177	0.9218379308331238	-1.61372082982178
Si	-0.12082793397579233	8.440262402604457	7.88044388917147	14	-0.5017087799891152	-1.2182267246027698	0.24362919837914349
Si	1.093529754412875	9.868169700921563	9.204110926931982	14	0.8701898242725213	0.778124199189723	-0.7792025207609931
Si	-0.1598521042288259	5.590010129824357	10.683492103677786	14	-1.0399578516776429	-0.431836678919303	0.11476231440693757
Si	1.128651995992129	6.984574413946624	11.994186897132352	14	-0.6363439387470733	1.5011362416210077	-0.9073168422059915
Si	2.415459888587686	8.43163485902038	10.466325436797682	14	-0.20297539527802608	0.3188134601509136	0.9629329356071789
Si	3.7534584157282374	9.969484735851633	11.716235116106397	14	0.08648246988009684	-0.06448255009771776	0.2685365240575459
Si	2.4518225430369527	5.670724869649427	13.192279224107416	14	-0.02195312566555236	-0.43398766563013885	1.9001663879868171
Si	3.717274823504301	7.206051596941941	14.532216506796766	14	0.25014026549188645	-0.10865413949786178	-0.8790300556947864
Si	-0.33018097647786304	8.39099261738573	13.257526243340806	14	0.3058964841330217	-0.5677082822257203	0.2153156723726088
Si	0.981749346331479	9.900397645804123	14.499692295323209	14	0.3560098979280279	-0.360127265987713	-0.1033239810586628
Si	-0.14003317156163014	11.141624435022747	-0.30166613101328255	14	0.9700785515129343	-0.876953888148767	1.6758099379769718
Si	1.2182091540716724	12.62092747552477	0.9897697061878464	14	0.1864876681915125	0.3164997224733123	0.14179671551669856
Si	2.612755531971406	14.177984217780274	-0.3611668806519962	14	0.5771951466360027	-1.503691663198703	0.8884935230466556
Si	4.031537168150336	15.518465198499262	0.9448804341360526	14	-0.42692663908941625	0.7835530880732156	0.003558152652552927
Si	2.6039212529089935	11.255921481289235	2.4495321743911416	14	-1.028936037391232	0.0040034680940025736	-0.34296436664412855
Si	3.901205913524762	12.710106975092708	3.675460538212945	14	0.6915232013543673	0.62204859316705	-0.5445981591661012
Si	-0.267201536152513	14.145669997461873	2.1394761642019477	14	0.4854424250706663	-0.4706868516383365	-0.03466235637357633
Si	1.0979005005493367	15.463343334189071	3.497682677390184	14	0.5600296761870981	0.48242960385651684	-0.01339160205999127
Si	-0.12325829672504272	11.288033849644533	5.068707901059831	14	-0.48162536211237444	-0.5578552924178488	0.7757780655850877
Si	1.1929923092299863	12.785711930142229	6.30251500279615	14	0.08538795034530978	-0.19289049177027726	-0.35258929941010286
Si	2.5101349706348404	14.147301091550789	4.825158857034985	14	-0.1134032281347073	0.24236344323003456	1.008220384716267
Si	3.8740454296190405	15.50339304264172	6.30447003672907	14	-1.2168298430823334	1.0663217085199093	-0.6373489838167191
Si	2.496749255372224	11.463345535272978	7.657104459032722	14	0.06898918350287334	-1.2011859527618927	0.9852249329539264
Si	3.7921586461372647	12.72715695462094	9.165500227635619	14	0.2817728313562003	0.7772662213443895	-1.3816366656616974
Si	-0.26502511619554875	13.914035102775117	7.6859709175943145	14	-0.14175634916317226	0.5348541842238042	0.6073853224157134
Si	1.04670009897387	15.384850593796502	9.013976144723046	14	0.005493937848092416	0.8407249573036243	0.18178794477681381
Si	-0.23975943620149984	11.240007732972643	10.518929035084371	14	0.18008150217583155	0.251156623424941	0.7668817840668434
Si	1.0995918246594985	12.813827955195848	11.879277783622918	14	-0.9813793307265811	0.14288403595658922	-0.6348552687667076
Si	2.4639938908441494	14.14246478362847	10.412048420623366	14	-0.7870873294462911	-0.3136871903636024	0.07313380527895202
Si	3.8139977262738642	15.50341583237949	11.652321296532506	14	-0.39231030550107054	1.3907892863803604	0.08292868810658816
Si	2.321139675314367	11.312243062509136	13.072091030627574	14	0.7874280009012107	-0.16443118409209018	0.7419772866042931
Si	3.712243174972531	12.843617398137095	14.371067015353503	14	-0.1375487353067499	-0.6774114326942026	0.32452799883547473
Si	-0.35056476907405404	14.189040496275188	13.284567895042446	14	0.10356386518503262	-0.621753173165765	-0.04426852007071358
Si	1.0024375447107308	15.69145070303683	14.673519392319827	14	-0.40188381616064195	0.3125034534742062	-1.985758226984015
Si	5.434517376863107	0.2680187110353822	-0.053201014983925383	14	-0.3239376730539687	-0.47173431994576487	-0.4696584095102773
Si	6.79234623153974	1.651370444175173	1.198124883743306	14	-0.20565037325310814	0.6880681500251523	0.19994509054769954
Si	8.089284162573733	3.095460084146866	-0.20420744528145424	14	0.40243814646766585	-0.5362785765711662	0.5300971251604661
Si	9.388738731792818	4.597543095387676	1.0419744840635727	14	-0.31447317725997165	0.9672030273228805	-0.4745049430387564
Si	8.101090874576622	0.4188932864215318	2.640101589456106	14	-0.10346436340914288	-0.9180463218175016	0.10799953608335207
Si	9.446273052629726	1.8848773530358351	3.909187205259239	14	-0.24790417519495367	0.3051866019541288	-0.8392440006392191
Si	5.380295707194802	2.97543141883141	2.5962606453416983	14	0.32965941083342626	-0.5210442633282247	0.27074510352755315
Si	6.728606590675944	4.4688722359424355	3.8160439191578615	14	0.1599034676233094	-0.052314794170116995	-0.137446405315008
Si	5.350476963162137	0.18753186858800427	5.332486093031719	14	-0.5749809107342913	0.12532852883061812	-0.3273482442611451
Si	6.71931163334291	1.6507893058620569	6.543483922937832	14	-0.9386285341263509	0.9081375390241828	0.35334186193731015
Si	8.023219968457473	3.133025711182667	5.2606414447141265	14	-0.23939021703781532	0.057727999311156755	-0.37889299238787777
Si	9.316648279875	4.6070301376533385	6.464283072836005	14	0.19810263647528142	0.965506869143179	0.2145993624304155
Si	8.04745685457508	0.42044624426666566	7.91045309029835	14	0.2903742070942237	-0.5919072683884219	0.8032634385680028
Si	9.398896443484258	1.971891827515694	9.16227547974127	14	-0.40498045540822825	-0.5187017292710379	-0.16187473407226693
Si	5.28464880561563	3.087018114141767	7.959237779670275	14	-0.32509287067431125	-0.7445669038827462	-0.9690411105162546
Si	6.50025504606637	4.620137492547486	9.180792141678792	14	0.5965280588697922	-0.03538560830013398	-0.047726656726312745
Si	5.2039991793270435	0.26889286026267456	10.62924764427171	14	0.30649349478836	0.15619927618857207	0.39412087786751876
Si	6.622863835264989	1.7890253438167396	11.902477736672026	14	-0.4479968471880297	-0.10080712606076983	-0.9409947223524833
Si	7.89820197840896	3.268097231264247	10.461951434984396	14	0.14237521421373187	-0.38057706637257477	0.3275644742185696
Si	9.25419951487199	4.684718725870333	11.752395918592562	14	-0.3903243837517882	0.32970106273961264	0.23891687654837604
Si	7.865887758090562	0.39422502312471996	13.230795508775877	14	-0.2420078593642581	-0.49272842332690187	0.30139447871744235
Si	9.135741713624203	1.815165173038081	14.508897721543578	14	0.4276596612161904	0.9065637654577202	-0.2332051660796671
Si	5.291948033055442	3.1202227620715792	13.265151038463037	14	-1.6902688058553565	-0.8511273923184114	-0.8114776058448119
Si	6.56145851468413	4.451552035237797	14.51092438036663	14	0.14478408278817864	2.0249989506011787	-0.014748888558497441
Si	5.426553991351163	5.809017881948534	-0.31948119459519553	14	-0.03687582094369181	-0.8391537548424818	0.8103157233506371
Si	6.7401300587951285	7.274874977166694	0.9505794964167797	14	-0.17508867275463597	0.1732608739825427	0.7801947103040381
Si	8.097713109871535	8.708251812548424	-0.3887864149899273	14	-0.44740986384343995	0.31460070408385093	1.374687996423465
Si	9.395144275944391	10.156494068309357	0.9438223391681941	14	0.16082083800153824	0.6442238623322631	-1.0049008306374236
Si	8.049670714815523	5.941698107402752	2.441811336802599	14	-0.6558187759945349	-0.4159017394766213	-0.6564597525508479
Si	9.330136548957578	7.340302686463827	3.71563884590015	14	0.5735526617289488	1.0706810175902204	-0.51985049912808
Si	5.297451754726718	8.61992692814683	2.3761557301277727	14	0.31986504222685413	-0.6076457753846445	0.20523385419124412
Si	6.658503729459288	10.117152469565966	3.651283882116584	14	0.6140997639592802	-0.6112862034074421	-0.4632936382902507
Si	5.342394745446111	5.8283598579609865	5.09067883610781	14	-0.4011767621976012	-0.847057846817681	0.809343331318557
Si	6.5205346570041876	7.257730583010562	6.4605325331345504	14	0.8529135391843182	0.8603802861445603	-0.09738858442710095
Si	7.995445789470392	8.701037232706039	5.054042704805313	14	-0.9033288007439098	-0.1089742421102202	0.116454101707595
Si	9.303200706752724	10.141688877951397	6.332076548359704	14	-0.2999225209216576	1.1502623836805077	-0.8501524291810112
Si	7.924227858941456	6.011753761305458	7.868339282739169	14	-0.1829076611437383	-0.7430234693590614	-0.7852597877847299
Si	9.203990466889486	7.450222475240205	9.101796399216887	14	1.0122410792159147	0.7056830496840188	-0.5156986782571049
Si	5.21754930626928	8.688009641894082	7.815506159236376	14	-0.44371852793530336	-0.5199394593721571	0.08310866547899852
Si	6.54160539741028	10.176542526192657	9.028374375477982	14	0.41237932518801834	-0.13689310345011216	-0.046909045234505654
Si	5.176036171084162	5.939448434717245	10.531570828192661	14	-0.18766137777016006	-1.3259534664116543	1.0921973124618796
Si	6.480367744185867	7.362512913758383	11.791670775961059	14	0.8831502519703237	0.2794776056369041	-0.03210924879066928
Si	7.906040020363173	8.838404004948666	10.380168833160994	14	-1.0311700708039087	-0.45574667284402004	0.35967038057232265
Si	9.132753002299603	10.295172878312128	11.64229218407562	14	0.9475430704923684	0.32924160621890214	0.7883826523065818
Si	7.888631916384282	6.043810783154747	13.152529037922589	14	-0.1364722135092039	-0.42019625669286453	0.09110197480880688
Si	9.175592825790577	7.548464151248248	14.469414500858333	14	0.8225865806015756	-0.6401856843164386	-1.6549397618722657
Si	5.130816447834714	8.656569570802976	13.147144148455396	14	-0.938127939920518	-0.019736575769052703	0.13581709587363017
Si	6.383755534428325	10.070467691745637	14.497851210079133	14	0.09720397906511433	0.8187327508372058	-0.63712195521695
Si	5.329951548624095	11.371157790319497	-0.2675189646428706	14	-0.542126298511311	0.31112482680154274	-0.14918298688041998
Si	6.647999288186071	12.855075752719797	1.0181282791648663	14	0.48334388890836155	0.18090091344136272	-1.5226075421495644
Si	8.040115303336554	14.331471473817826	-0.4291975035700615	14	-0.8699507114777475	-0.4773213318064466	-0.3298062209472067
Si	9.276253469678986	15.760990332162903	0.8540763518328481	14	0.6795541918680139	0.8831520517440478	0.10873487220491443
Si	8.038223755101706	11.525382457157729	2.204565283109366	14	-0.0874664318861175	-0.46404774348065014	1.084896916015851
Si	9.341856985524625	12.983551271555587	3.5163718901993897	14	-0.2980561555697621	-0.32967149502843096	0.2913944216852584
Si	5.34079783596385	14.194682584211492	2.2761087813207217	14	-1.0226465995570857	-0.6039642096767244	0.7091296163656773
Si	6.561409679531768	15.589354305668957	3.6006613631774096	14	1.056735085223205	0.8759115620519788	0.12074013427628186
Si	5.300606505569348	11.39627045350281	4.978961913724485	14	-0.4896922050543391	-0.04333392328683975	0.5017275490579522
Si	6.5365314250797955	12.780550054537493	6.352870556235742	14	0.31327401373865454	1.420279350181395	-0.47402260368069665
Si	7.9909708616755575	14.254647267797653	4.926005074502373	14	-0.5684562167633515	0.20063466099456326	0.5795186545138205
Si	9.312892856658308	15.833124735717847	6.1992774907014025	14	-0.25463172937565315	-0.3361987601046909	-0.1987394992630821
Si	7.951635774285814	11.555821407625398	7.653366942038564	14	-0.3498991519136319	-0.9966537532125167	0.008924049455701967
Si	9.195413386296185	12.94596611045884	8.9450192817485	14	-0.21829146967014817	2.013998476488925	0.019363765497631226
Si	5.154447778063023	14.265041016058847	7.641941144224105	14	0.4012322980725164	-1.6551441647452176	0.9460034926266636
Si	6.493414869058768	15.680150248780102	8.932580968441721	14	-0.1729135176537907	1.091215407340115	-0.7983557127329041
Si	5.180099255760737	11.433582137746324	10.439283785096043	14	-0.47366753403598416	-0.6456821932698511	0.07159371319218333
Si	6.415975340118823	12.86992326687647	11.7322986255569	14	0.6371057572534332	0.11975077294908885	-0.23530318802090794
Si	7.6544624772899	14.360829539579871	10.332115043236099	14	1.7144929888501959	-0.910729727407956	0.32612028436024243
Si	9.14502364824994	15.794803791658836	11.607233428194437	14	-0.02683411200532147	0.13153209174707142	-1.0149307124913214
Si	7.739261463690905	11.547210142425444	13.124312086887421	14	0.19782135755325722	-0.2684707037613502	-0.2477550510863851
Si	9.110383246840662	13.09572724437112	14.240107415100864	14	0.29256504593752186	-0.26779167484629907	0.527160151553261
Si	5.0984224634341215	14.205138190332345	13.019506966401831	14	-0.24452420014108703	0.1940127792425219	0.7275947805539168
Si	6.3546725733579255	15.759354354558752	14.263409921969933	14	0.46582309170421243	-0.16363902654295254	0.26157885595069325
Si	10.783213484802419	0.4780033548413439	-0.24515897621440236	14	0.26215349798974635	-0.24650189435334488	1.2724423369360724
Si	12.032626673395445	2.0269567174814624	1.169110291886214	14	0.4234687595443491	-0.488023814812095	-0.6864969475640097
Si	13.464678448309732	3.3482405998066733	-0.3284570955994598	14	-0.5699029777269987	-0.9757635224863137	0.9153227499518686
Si	14.781137417581508	4.738520413228319	0.8704312443591165	14	0.6849781956513984	1.4306596736904287	0.47879714626021164
Si	13.55698176979047	0.5804139250227499	2.3297916364746256	14	-1.6052891470348862	-0.10345844986690653	0.006060352350121037
Si	14.80100844107789	2.008197507620537	3.5875100566461344	14	0.3900428477192319	1.1485052903047184	-0.007137902589795097
Si	10.67358833477863	3.418571358401022	2.4465613692890775	14	0.4656217741576448	-1.2598063827296728	0.9383819651261487
Si	12.086208602567797	4.719420985139267	3.7583093741962657	14	0.3298522437324374	0.7072519381503731	-0.6630399823967028
Si	10.75669436923106	0.4711696891873901	5.142466887350041	14	0.37702482726225817	-0.16490426747099743	0.3214526997620456
Si	12.063070507378352	1.9881978848895996	6.38051939166509	14	0.7694415765235829	-0.10144193196431439	-0.458627853465778
Si	13.520405868509222	3.410969353016562	5.020268313431268	14	-0.32814682957358315	-0.47353280811720844	0.09551501998030905
Si	14.905217772704658	4.852574911571406	6.267687399969485	14	-1.082901481176884	0.5576750579349065	0.31471074739155325
Si	13.44086642801768	0.7340086183955019	7.767943976511931	14	-0.5466630138487123	-1.379511390004063	-0.09559678112948976
Si	14.73510051944919	2.0256902591968564	9.089128560694004	14	-0.6394364642261473	2.171172715814898	-0.5101736300346387
Si	10.754189125914854	3.2819875764346107	7.723380272142554	14	-0.5609665869657601	0.3539041626708266	0.4909420193504631
Si	11.95161241130255	4.794407361592194	9.027238144266343	14	0.5455664374296691	0.1337113606164289	0.15342942442717655
Si	10.649935842650963	0.5148527329758252	10.528538165230938	14	-0.2319563802256712	-0.6880666073619601	0.046109174369407584
Si	11.914471650092304	1.9441697393578015	11.833003221082436	14	0.3351867730506806	1.0831020273918557	-0.17585254814525195
Si	13.310518895007984	3.4625246233658644	10.438388473969395	14	-0.42238478154137465	-0.9542184312350688	-0.3404832500101856
Si	14.649464824104372	4.7777952705968145	11.747800530755233	14	0.40280298631259487	0.9113686470800129	0.28288663418088844
Si	13.254405677104831	0.641278803250795	13.174721358994613	14	0.2328575526403831	-0.3469210406213044	0.8620183373440267
Si	14.54829466679298	1.8275367449699649	14.828256828257866	14	-1.4805373171275773	2.2414243120299635	-3.9628230326595446
Si	10.512671624228297	3.3297516111221555	13.129597678211478	14	0.16448492019328126	-0.42375543778754565	0.5974343734951444
Si	11.866261587679846	4.756493377136205	14.497989576344162	14	-0.6517618289098733	0.397562302338537	-1.0614684901175977
Si	10.754250983774513	6.093521712583151	-0.3047150723591271	14	0.04983804841521835	-0.6856885920513552	0.20007364581370696
Si	12.092680888094268	7.55183052108445	0.9075801447614223	14	0.45830620819022744	0.12299113698407149	0.23159256882287022
Si	13.562778502375922	8.923289266785511	-0.44422896346730056	14	-0.6791734111701	0.3519436948642137	0.6587701477915329
Si	14.820229957047848	10.44442938231666	0.8786241550871654	14	-0.22563043269597885	0.4771704079241539	-0.6393359340081296
Si	13.416025613849186	6.142321052500785	2.244553133702357	14	0.22828175650211555	-0.057217892015639385	0.5980537527667681
Si	14.8115926464333	7.628224977763834	3.5849608616928013	14	-0.7394666022591685	0.6191856673930651	-1.101499057289111
Si	10.704137978258323	8.860917010187872	2.272372892164975	14	0.4317194365167042	-0.32699548861122085	1.0575133588036139
Si	12.06907560328055	10.400515185473708	3.6068666832042964	14	0.07902035090943106	-0.5920797895554039	-0.563606083687424
Si	10.699192605162393	6.085279966702739	5.044700540158328	14	-0.18683399607813644	-0.6954559640520657	0.654745339523373
Si	11.981523942124705	7.5370920721013865	6.3330695297910795	14	0.384608302404035	0.5025449034392273	-0.03908002953465476
Si	13.374278069932727	8.956830877266626	4.9308690556776975	14	0.15620390417814833	0.11610494560511889	0.29393827328901295
Si	14.747708127950828	10.456340275977922	6.241327812562511	14	-0.03832566723372331	0.5039415278491317	-1.0808068016725594
Si	13.360640039716236	6.209983783937718	7.674497912465904	14	0.46712098566982313	-0.4362348116799483	-0.12216195551832372
Si	14.690404960168436	7.670377853444904	8.999906737327352	14	0.5721179849603063	0.17850695727777285	-0.6234745281776042
Si	10.653185008121493	8.970551927242132	7.672427302005726	14	-0.1748145929275082	-1.7598331456183471	0.5637127845582102
Si	11.91378307444399	10.373634689774866	8.931584731333523	14	1.0604868421063651	0.6128918586798746	0.2907069081226508
Si	10.571036142655373	6.11925458220147	10.426848727466089	14	0.019677440346689293	-0.4251960280984245	-0.4913125156270965
Si	11.961413626381745	7.500271995058323	11.613778966449452	14	0.3028276128228929	0.7771402371837022	0.8375678970810146
Si	13.338470508381983	9.021648147159226	10.313863718959745	14	-0.3693192246177744	0.4017814861689	0.18390576422901977
Si	14.697110026587834	10.559839870057017	11.61617677243046	14	-0.46430125446521675	-0.29234753042743733	-0.6779809325226154
Si	13.230006007146013	6.146410182591955	13.105818214687666	14	0.045089473999436865	0.007695575333735215	-0.5033761417892312
Si	14.558003095082682	7.664634839527051	14.309523328507618	14	0.7665136017849983	-0.1942457213845273	-0.2819119281540203
Si	10.590469277618903	8.919135023157857	12.9967481575624	14	-0.26339328497512177	0.0317449231668043	0.09891710653992898
Si	11.895150835979209	10.393352696460513	14.383700669269736	14	0.12339094386135455	-0.2499170935500976	-0.9363613334550444
Si	10.790162726983631	11.66558980742945	-0.46005318067122747	14	-0.573900789389297	0.01891896427724561	0.5440697970228109
Si	12.095124273550816	13.120556663670731	0.8967468801289633	14	-0.14424800732892776	0.11811143619696246	-0.6313534233206658
Si	13.416741862750506	14.515098158055228	-0.6440217109751667	14	-0.21746948729929685	-0.06520425936108334	1.3596172054788853
Si	14.721569926567899	16.315251405257015	0.30584967573235383	14	0.4902311087294422	-1.0458582812768507	0.5216263615727064
Si	13.474497569611458	11.827644377029836	2.250341727095749	14	0.11329961259030531	-0.015307075523501591	0.16294791343289675
Si	14.858918792587993	13.45097693239517	3.4068574331876227	14	-0.30478833774003783	-0.6557902367254813	-0.7017993950979351
Si	10.619579911942308	14.400027888542997	2.215888527103864	14	0.59503218979453	0.4253376960015647	-0.48857403135060673
Si	11.997292812822618	15.885598106931567	3.4121576750573874	14	0.27770765673451414	0.5146998038402274	-0.40244508845203025
Si	10.637564270719077	11.656548792888703	4.912044732280289	14	0.1495740519996145	0.05639076743414774	0.7561443340288411
Si	12.026986213297553	13.18123922399662	6.192189882255162	14	-0.266992575312797	0.2471660108575392	-0.7866391857889893
Si	13.43505667272493	14.664899987927809	4.745256408577548	14	-0.6349367728053562	-0.30286515096056704	0.8183108324541694
Si	14.726378561237214	16.130807546136744	6.049968895867683	14	-0.09248728635530268	0.221135626375296	-0.09987458616115213
Si	13.354870980383788	11.846745432957299	7.499282269303772	14	-0.2974488604931431	-0.6808333167647875	0.8848433248236413
Si	14.64594218178061	13.280062038317782	8.85681160171258	14	0.630659224884226	-0.25351612677724084	-1.0079064527566768
Si	10.6141526986764	14.46661624662795	7.580983479206569	14	0.15461341842710472	-0.08698357830699369	0.3741472461879485
Si	12.038939430757528	15.934962306778196	8.8600591393447	14	-0.45748114049299193	0.2962617811668308	-0.4426204088530681
Si	10.557136030454535	11.757663603694086	10.285869781787033	14	0.11071899418047271	-1.1077676691701641	0.42424857578794994
Si	11.993985045169252	13.116029645046707	11.48897910674816	14	-0.6064255287997022	0.6992457732939641	0.9055803176727635
Si	13.378520216834632	14.563793316314488	10.230417466279187	14	-1.1697395349227575	-0.06990526832844209	-0.3682393603833122
Si	14.495059467202399	16.074009008262102	11.45442823645155	14	1.240103488440314	0.9696540620245777	0.6145761897751036
Si	13.252338322321476	11.811157629592188	12.956742400746878	14	-0.09902406452124714	-0.053724274106622165	0.24323401949143672
Si	14.573262452357614	13.288686326225035	14.268431803471229	14	-0.40068568108145286	1.0144424595910253	-1.7845111287021924
Si	10.524676932517462	14.497823536826129	12.93348710119176	14	0.39665830170797295	-0.5166494730044957	-0.37568682405365317
H	0.5289433022708762	0.20335934146875534	-0.10523649766479432	1	1.7729843493309045	0.6026290346839716	0.8086771579301066
H	15.358069396240797	1.0463533693920948	15.689692637551772	1	-0.05930691508825969	-0.6514766933298688	0.7374745098571178
H	13.916838240520734	15.416235318381599	1.2836726758138717	1	-0.5685048106539021	-0.7746061557801642	0.5483172630116955
H	1.8768504818258194	14.730469319166795	13.743468566117913	1	0.15325716037072662	-0.3652738475070534	-0.2660795758136124
