222
config_type=interstitial dft_energy=-23321.138286328984 dft_virial="63.45501273245585 0.17744690361425014 -0.8083692275760284 0.17744690361425014 62.77282796967218 -0.24842566505995023 -0.8083692275760284 -0.24842566505995023 63.786246952535784" pbc="T T T" Lattice="16.254729908999998 0.0 0.0 0.0 16.254729908999998 0.0 0.0 0.0 16.254729908999998" Properties=species:S:1:pos:R:3:Z:I:1:dft_force:R:3
Si	-1.360000742026212	-1.360000742026212	-1.360000742026212	14	-0.22680568493781855	-0.0928505835370396	0.32053764337860485
Si	0.0	0.0	0.0	14	0.8816099027730231	1.0108341703847294	0.8428941988622334
Si	1.354555407506697	1.354555407506697	1.354555407506697	14	0.6508907384274071	0.25702105754966675	0.09590068577833126
Si	2.7091270697433028	2.7091270697433028	0.0	14	0.0628473271141036	0.020274708112559693	-0.0009605649476073224
Si	4.0636824772499995	4.0636824772499995	1.354555407506697	14	-0.001199163521317064	0.008667196034219175	0.020311732029169825
Si	2.7091270697433028	0.0	2.7091270697433028	14	0.007861154516352751	-0.0563725125863747	0.0016696757949041625
Si	4.0636824772499995	1.354555407506697	4.0636824772499995	14	-0.0012670407017689733	0.05955374119899391	0.019344225097198103
Si	0.0	2.7091270697433028	2.7091270697433028	14	-0.11785072611749943	-0.041235387124534895	-0.03415250618859097
Si	1.354555407506697	4.0636824772499995	4.0636824772499995	14	0.0852213427205642	0.001772262897178071	0.0044696094885454205
Si	0.0	0.0	5.418237884756696	14	0.0021383882947671575	0.009186302198357072	0.009576338875423534
Si	1.354555407506697	1.354555407506697	6.772809546993303	14	-0.07603735451699525	0.0830580147041916	-0.09730476639366412
Si	2.7091270697433028	2.7091270697433028	5.418237884756696	14	-0.009971517763130294	-0.002825644746842739	0.013994269147033979
Si	4.0636824772499995	4.0636824772499995	6.772809546993303	14	0.004655757513724141	-0.0063074355713872675	-0.011920672706334555
Si	2.7091270697433028	0.0	8.127364954499999	14	0.22145058677701415	-0.18004884913826563	0.2313778815286379
Si	4.0636824772499995	1.354555407506697	9.481920362006695	14	0.005368467908469189	0.04482567859358967	-0.005623778666759893
Si	0.0	2.7091270697433028	8.127364954499999	14	0.03963358851008264	-0.004575024806671492	0.001042583207320046
Si	1.354555407506697	4.0636824772499995	9.481920362006695	14	-0.0028608688897287676	-0.0006348059035445607	0.0032033401183724918
Si	0.0	0.0	10.836492024243302	14	0.09103049808090677	0.11691304400724144	-0.02198115071354197
Si	1.354555407506697	1.354555407506697	12.191047431749999	14	-0.007085452041264076	0.002929517401776721	0.011014358080982356
Si	2.7091270697433028	2.7091270697433028	10.836492024243302	14	0.01868910746162437	0.036121972863824396	-0.018182856824087216
Si	4.0636824772499995	4.0636824772499995	12.191047431749999	14	-0.00600970157531412	0.0011618824941749168	0.005638691077616753
Si	2.7091270697433028	0.0	13.545602839256695	14	0.007174412285341199	0.08859180468474631	-0.07071568072535277
Si	4.0636824772499995	1.354555407506697	14.900174501493302	14	-0.014364251202603286	0.0028397858261035532	0.0858654046032613
Si	0.0	2.7091270697433028	13.545602839256695	14	0.1413318596748158	0.01946712393150118	-0.1263351165634561
Si	1.354555407506697	4.0636824772499995	14.900174501493302	14	0.0007512769745472688	-0.0037633268571007437	0.06791754680543562
Si	0.0	5.418237884756696	0.0	14	-0.0027132874443522676	0.018778067705701496	0.008080984021225413
Si	1.354555407506697	6.772809546993303	1.354555407506697	14	-0.07666264733085527	-0.0915953699197433	0.08382471831065977
Si	2.7091270697433028	8.127364954499999	0.0	14	0.23162727874469224	0.22271222815761077	-0.18291126069118652
Si	4.0636824772499995	9.481920362006695	1.354555407506697	14	0.0028328438417391535	-0.008122121706347782	0.055343042016187394
Si	2.7091270697433028	5.418237884756696	2.7091270697433028	14	-0.0020537989297342856	0.013322696437411302	-0.006554775903185513
Si	4.0636824772499995	6.772809546993303	4.0636824772499995	14	0.002412982342958972	-0.010559529549848162	-0.007109877541805483
Si	0.0	8.127364954499999	2.7091270697433028	14	0.03208019530055161	-0.023759327152956384	-0.018619173396916343
Si	1.354555407506697	9.481920362006695	4.0636824772499995	14	-0.000456371194326284	0.005200317620531505	0.0006497183144014196
Si	0.0	5.418237884756696	5.418237884756696	14	-0.015306304191905542	-0.004522060037076441	-2.3654168945362326e-05
Si	1.354555407506697	6.772809546993303	6.772809546993303	14	0.023784266874561817	0.0016365085362742523	0.00038335180323407857
Si	2.7091270697433028	8.127364954499999	5.418237884756696	14	0.004528744910908826	0.007873495821889462	-0.008016963498753724
Si	4.0636824772499995	9.481920362006695	6.772809546993303	14	-0.004064403290090084	0.007210664870355288	0.00818408534456335
Si	2.7091270697433028	5.418237884756696	8.127364954499999	14	0.003938676239934841	-0.009317171459152607	0.006822170856480913
Si	4.0636824772499995	6.772809546993303	9.481920362006695	14	-0.003924278050142013	0.007292683130068011	0.002718172544460549
Si	0.0	8.127364954499999	8.127364954499999	14	-0.013492646499073087	-0.003190998812835781	0.0016740466739484144
Si	1.354555407506697	9.481920362006695	9.481920362006695	14	0.04953311532424879	0.020357240593336445	0.0147290910475323
Si	0.0	5.418237884756696	10.836492024243302	14	0.04634057384822092	-0.00758141825752064	0.00043040303059278844
Si	1.354555407506697	6.772809546993303	12.191047431749999	14	-0.0011235730249047103	0.008252733856611304	0.006068322776613497
Si	2.7091270697433028	8.127364954499999	10.836492024243302	14	0.004260321515485366	0.00021957239434064593	-0.0255184774130017
Si	4.0636824772499995	9.481920362006695	12.191047431749999	14	-0.0042544079732490265	0.03216349911292441	-0.09208362282003943
Si	2.7091270697433028	5.418237884756696	13.545602839256695	14	0.003649941112482213	-0.0327155154251602	-0.025813383193222687
Si	4.0636824772499995	6.772809546993303	14.900174501493302	14	-0.00313212050100439	-0.05381837656133959	0.010860863093369515
Si	0.0	8.127364954499999	13.545602839256695	14	-0.019007410300258702	0.004553941743046278	-0.0008119550601027633
Si	1.354555407506697	9.481920362006695	14.900174501493302	14	0.03852415656443874	-0.05767297765730559	-0.1542256957448264
Si	0.0	10.836492024243302	0.0	14	-0.10283649948996272	0.22483004760981679	0.33306946781953867
Si	1.354555407506697	12.191047431749999	1.354555407506697	14	0.050488280950683806	0.007162070979804489	-0.002742855155533971
Si	2.7091270697433028	13.545602839256695	0.0	14	0.021288237829762066	-0.10183145442031682	0.10409428421257917
Si	4.0636824772499995	14.900174501493302	1.354555407506697	14	-0.02248045936671473	0.09135240046698931	-0.01813811959151664
Si	2.7091270697433028	10.836492024243302	2.7091270697433028	14	0.04227334234227867	-0.018469535067283726	0.01418633071444904
Si	4.0636824772499995	12.191047431749999	4.0636824772499995	14	-0.005602952713666694	-0.002470575102130289	0.0036730810603635457
Si	0.0	13.545602839256695	2.7091270697433028	14	-0.07658422861859075	-0.38347984427902193	-0.24487721290154335
Si	1.354555407506697	14.900174501493302	4.0636824772499995	14	0.08278136377174367	0.17113045611426803	0.09089834326745115
Si	0.0	10.836492024243302	5.418237884756696	14	0.036940355687227526	0.004255950636441115	0.018119864743743587
Si	1.354555407506697	12.191047431749999	6.772809546993303	14	0.0017537509388730048	-0.003075813294493147	0.007733627692473407
Si	2.7091270697433028	13.545602839256695	5.418237884756696	14	0.0030084503351052675	-0.02180991509922011	-0.02977442804944281
Si	4.0636824772499995	14.900174501493302	6.772809546993303	14	-0.013693706935108671	0.004168018834492051	-0.04958659431490787
Si	2.7091270697433028	10.836492024243302	8.127364954499999	14	0.007745454776946087	-0.027507227378136236	-0.0016455074048947705
Si	4.0636824772499995	12.191047431749999	9.481920362006695	14	-0.003919650060565746	-0.08578184368035648	0.01630877815623128
Si	0.0	13.545602839256695	8.127364954499999	14	-0.03100418772406964	0.008691364424228566	8.536069662891622e-05
Si	1.354555407506697	14.900174501493302	9.481920362006695	14	-0.046422849218465664	-0.08117159473079896	0.018068185526808608
Si	0.0	10.836492024243302	10.836492024243302	14	-0.08970329351464633	-0.006843768141170156	0.007557506978043265
Si	1.354555407506697	12.191047431749999	12.191047431749999	14	0.07753039537640524	-0.25718535117962427	-0.284962030395312
Si	2.7091270697433028	13.545602839256695	10.836492024243302	14	0.23179954280114215	0.34334077646299827	-0.22749371272149013
Si	4.0636824772499995	14.900174501493302	12.191047431749999	14	-0.02133066106754451	-0.10416113295090301	0.04192084380288637
Si	2.7091270697433028	10.836492024243302	13.545602839256695	14	0.22662827867072832	-0.22969175065968475	0.341079232223396
Si	4.0636824772499995	12.191047431749999	14.900174501493302	14	-0.021273325418905205	0.0458142685891866	-0.10392381992985333
Si	0.0	13.545602839256695	13.545602839256695	14	0.7873431544256458	-0.7700203323311482	-0.7472135996993067
Si	1.354555407506697	14.900174501493302	14.900174501493302	14	0.8291464987154015	-0.23643267458804904	-0.23853583873993014
Si	5.418237884756696	0.0	0.0	14	0.00037049627663333814	-0.004107854970000585	-0.009392761955564962
Si	6.772809546993303	1.354555407506697	1.354555407506697	14	-0.010256396232602702	-5.553587491519851e-05	-0.0014207927999138285
Si	8.127364954499999	2.7091270697433028	0.0	14	0.012146415753443555	-0.006568145650850283	0.04033730003620717
Si	9.481920362006695	4.0636824772499995	1.354555407506697	14	-0.0042808903580465515	0.003501074114445639	-0.0031143798742953683
Si	8.127364954499999	0.0	2.7091270697433028	14	0.008841516974925214	0.03843673898355371	-0.00614339905196182
Si	9.481920362006695	1.354555407506697	4.0636824772499995	14	-0.00039800710355892264	-0.003544782904888157	0.0033828032697188273
Si	5.418237884756696	2.7091270697433028	2.7091270697433028	14	-0.004976888568210637	0.002766509324479333	-0.009778684864119189
Si	6.772809546993303	4.0636824772499995	4.0636824772499995	14	-0.01068294260521527	0.0008268674709596221	0.0030573013361880805
Si	5.418237884756696	0.0	5.418237884756696	14	-0.012408411385566644	-0.021647935464050784	-0.019163733503723707
Si	6.772809546993303	1.354555407506697	6.772809546993303	14	-0.00021931528380863112	0.022649380986248458	-0.00029799110660516236
Si	8.127364954499999	2.7091270697433028	5.418237884756696	14	0.002240204065445021	0.0007751882540246458	-0.0021049639256052323
Si	9.481920362006695	4.0636824772499995	6.772809546993303	14	0.001753236717808975	0.00115134096236231	0.009293003069143217
Si	8.127364954499999	0.0	8.127364954499999	14	0.025555758440143843	-0.020536189523618752	0.00917498933494842
Si	9.481920362006695	1.354555407506697	9.481920362006695	14	0.01390068091338059	0.049603049388956814	0.007826444594530753
Si	5.418237884756696	2.7091270697433028	8.127364954499999	14	-0.01448689292637435	0.028039446179406888	0.012951685939713934
Si	6.772809546993303	4.0636824772499995	9.481920362006695	14	0.007341019910086795	-0.004876872571256876	-0.004119424943941252
Si	5.418237884756696	0.0	10.836492024243302	14	-0.23455011127263659	-0.1865887126305943	-0.24186053502941357
Si	6.772809546993303	1.354555407506697	12.191047431749999	14	0.09666558961107531	0.08130452087585062	0.09120301924788872
Si	8.127364954499999	2.7091270697433028	10.836492024243302	14	-0.015491937996020238	0.0021535578161560307	0.009782027301035381
Si	9.481920362006695	4.0636824772499995	12.191047431749999	14	0.011160653973698781	-0.018751328210371957	-0.05043171663364054
Si	8.127364954499999	0.0	13.545602839256695	14	-0.010023454090597286	0.0070610265407226695	-0.0035920912427788816
Si	9.481920362006695	1.354555407506697	14.900174501493302	14	0.003398487012171731	-0.017894121696634582	-0.08224091743344854
Si	5.418237884756696	2.7091270697433028	13.545602839256695	14	-0.0037111334191017374	0.0017131274748146653	-0.043777953175629325
Si	6.772809546993303	4.0636824772499995	14.900174501493302	14	-0.003005107898189075	-0.006058295465864919	0.006676389184828516
Si	5.418237884756696	5.418237884756696	0.0	14	-0.0017210979013071242	-0.016330632551452538	-0.0025759904202563603
Si	6.772809546993303	6.772809546993303	1.354555407506697	14	-0.0006857137888834927	-0.001818799903472751	0.009853246918403483
Si	8.127364954499999	8.127364954499999	0.0	14	0.026100061436419193	0.004609220507429461	-0.001968695343637384
Si	9.481920362006695	9.481920362006695	1.354555407506697	14	0.003237792929662476	-0.006225417311674543	0.04743457916194392
Si	8.127364954499999	5.418237884756696	2.7091270697433028	14	-3.548125341804349e-05	-0.0014423900846030724	-0.0019131594687221856
Si	9.481920362006695	6.772809546993303	4.0636824772499995	14	0.0033912879172753167	0.011147027115501995	-0.001896447284141223
Si	5.418237884756696	8.127364954499999	2.7091270697433028	14	-0.012074681915011425	0.0082717600359804	0.02308698311173766
Si	6.772809546993303	9.481920362006695	4.0636824772499995	14	0.00755570720431916	0.002000062828543191	-0.0034517088922987964
Si	5.418237884756696	5.418237884756696	5.418237884756696	14	0.001327718787324468	0.0030444458095873405	0.0026613511168852764
Si	6.772809546993303	6.772809546993303	6.772809546993303	14	-0.0003897795665344488	-0.0010019597432617065	-0.0018002879451676848
Si	8.127364954499999	8.127364954499999	5.418237884756696	14	-0.002308852577492975	-0.00042937458846472915	0.0030909828158820207
Si	9.481920362006695	9.481920362006695	6.772809546993303	14	-0.0028063614569416285	0.0066756178532324725	-0.007455948317897414
Si	8.127364954499999	5.418237884756696	8.127364954499999	14	-0.0036067465431037257	0.005346356402715915	-0.0009554227369670262
Si	9.481920362006695	6.772809546993303	9.481920362006695	14	-0.002006233481311546	-0.008343750984944547	3.4195700757969454e-05
Si	5.418237884756696	8.127364954499999	8.127364954499999	14	0.0044973774260030205	0.0010927197610629336	0.0006422621089729901
Si	6.772809546993303	9.481920362006695	9.481920362006695	14	-0.004441070219491777	0.012088308773208208	0.006761749881457432
Si	5.418237884756696	5.418237884756696	10.836492024243302	14	0.0054021493881631286	-0.008516272151926482	-0.00372681716155464
Si	6.772809546993303	6.772809546993303	12.191047431749999	14	0.08744226349610812	-0.08724171728113657	-0.10071662315350062
Si	8.127364954499999	8.127364954499999	10.836492024243302	14	0.0020121470235478865	-0.0034941321300812392	-0.005024196906101361
Si	9.481920362006695	9.481920362006695	12.191047431749999	14	-0.006269897433713105	0.004160562629063621	0.001389425315008022
Si	8.127364954499999	5.418237884756696	13.545602839256695	14	0.00015375209814485512	-0.0034229125127131373	-0.0025973305944135892
Si	9.481920362006695	6.772809546993303	14.900174501493302	14	0.005283364322372287	0.0013166630344478313	0.008514729488734394
Si	5.418237884756696	8.127364954499999	13.545602839256695	14	-0.22801821820680035	0.2271224451132608	0.2384890446231034
Si	6.772809546993303	9.481920362006695	14.900174501493302	14	0.04506633405155553	0.009386848413328621	0.002207036806815111
Si	5.418237884756696	10.836492024243302	0.0	14	-0.2413306302229311	-0.23814554495233167	-0.18094102268435702
Si	6.772809546993303	12.191047431749999	1.354555407506697	14	0.10004016534376967	0.08917287448709978	0.0808216672967268
Si	8.127364954499999	13.545602839256695	0.0	14	-0.014700551778478657	0.0005885260077818953	0.004604078296789165
Si	9.481920362006695	14.900174501493302	1.354555407506697	14	0.014895698672277894	-0.0831392616323083	-0.009139250970998361
Si	8.127364954499999	10.836492024243302	2.7091270697433028	14	-0.013903252018700737	0.002682177069978476	0.0072032086649268575
Si	9.481920362006695	12.191047431749999	4.0636824772499995	14	-0.001208419500469597	-0.04803724624898663	-0.014572253623003267
Si	5.418237884756696	13.545602839256695	2.7091270697433028	14	-0.006046725491924252	-0.04797451127917502	0.0035805212688382144
Si	6.772809546993303	14.900174501493302	4.0636824772499995	14	7.276228056019063e-05	0.006597456251499971	-0.008496474640961342
Si	5.418237884756696	10.836492024243302	5.418237884756696	14	0.00391605051311754	-0.004248751541544701	-0.008088183116121826
Si	6.772809546993303	12.191047431749999	6.772809546993303	14	0.086641878409946	-0.10104521041341555	-0.08352287054607438
Si	8.127364954499999	13.545602839256695	5.418237884756696	14	-0.004188587677053236	-0.00542734622030058	0.0001594085298491809
Si	9.481920362006695	14.900174501493302	6.772809546993303	14	0.006722411970059167	0.006664304989823821	-0.0027564820137307555
Si	8.127364954499999	10.836492024243302	8.127364954499999	14	0.0028732101952654784	-0.0051846338780786	-0.0042544079732490265
Si	9.481920362006695	12.191047431749999	9.481920362006695	14	-0.009854275360531543	-0.0010698369237136158	0.00341982718632896
Si	5.418237884756696	13.545602839256695	8.127364954499999	14	-0.22080781044697712	0.23528544739419893	0.22801513288041622
Si	6.772809546993303	14.900174501493302	9.481920362006695	14	0.04332646708141132	-0.0023433053887829593	0.009570425333187194
Si	5.418237884756696	10.836492024243302	10.836492024243302	14	0.0002049170940158019	-0.0342712912543818	-0.03207428175831527
Si	6.772809546993303	12.191047431749999	12.191047431749999	14	-0.010699654789796231	-0.002300367929936486	-0.003028504956602422
Si	8.127364954499999	13.545602839256695	10.836492024243302	14	0.03217275509207694	-0.0201307262146314	-0.0055366181964068735
Si	9.481920362006695	14.900174501493302	12.191047431749999	14	-0.01686465112644729	0.06433805397872545	-0.00439041944468486
Si	8.127364954499999	10.836492024243302	13.545602839256695	14	0.03039946375277081	0.0017066997115142949	-0.03527530788189963
Si	9.481920362006695	12.191047431749999	14.900174501493302	14	0.01158308657779911	0.012037400887869277	0.07604249672763555
Si	5.418237884756696	13.545602839256695	13.545602839256695	14	-0.00600970157531412	0.040134954047511516	0.037747425647222006
Si	6.772809546993303	14.900174501493302	14.900174501493302	14	0.007106535104889291	-0.008910679708037198	-0.004887928324133513
Si	10.836492024243302	0.0	0.0	14	-0.0006013815343826357	0.15065083090769252	0.1476313248197106
Si	12.191047431749999	1.354555407506697	1.354555407506697	14	-0.008668738697411263	-0.024155534482791202	-0.014300744901195631
Si	13.545602839256695	2.7091270697433028	0.0	14	-0.09340208562821135	-0.02072002355400934	0.11786538141782428
Si	14.900174501493302	4.0636824772499995	1.354555407506697	14	0.08428134661551806	-0.008115693943047411	-0.0179152047602598
Si	13.545602839256695	0.0	2.7091270697433028	14	-0.09039466373523415	0.15468592359713293	-0.0161424276420177
Si	14.900174501493302	1.354555407506697	4.0636824772499995	14	0.07083240890688748	-0.019840448423986683	0.007375729831908794
Si	10.836492024243302	2.7091270697433028	2.7091270697433028	14	-0.009898755482570104	0.000991675321981114	0.0022209207755439107
Si	12.191047431749999	4.0636824772499995	4.0636824772499995	14	0.001710556369494517	0.003958730861431997	0.005439687525837291
Si	10.836492024243302	0.0	5.418237884756696	14	-0.0012814388915618027	0.03502539644478123	-0.011410822521349189
Si	12.191047431749999	1.354555407506697	6.772809546993303	14	0.00039877843515496704	-9.204557046130123e-05	0.010588840150497849
Si	13.545602839256695	2.7091270697433028	5.418237884756696	14	-0.02711050582723739	-0.007217863965251701	-0.005372067455917396
Si	14.900174501493302	4.0636824772499995	6.772809546993303	14	-0.003250648456263216	-0.011205648316801372	0.0019771799911938726
Si	13.545602839256695	0.0	8.127364954499999	14	0.009695123941214375	-0.002332763856970352	-0.008848201848757599
Si	14.900174501493302	1.354555407506697	9.481920362006695	14	-0.07381951906783553	-0.003544782904888157	0.013237335740782384
Si	10.836492024243302	2.7091270697433028	8.127364954499999	14	-0.003324696289483481	0.0013099781606154463	-0.009363965575979304
Si	12.191047431749999	4.0636824772499995	9.481920362006695	14	-0.037143730118051235	-0.009157505818771413	0.011827084472681163
Si	10.836492024243302	0.0	10.836492024243302	14	-0.007599415994761677	-0.07589774349811122	0.007807418415161655
Si	12.191047431749999	1.354555407506697	12.191047431749999	14	-0.21340302712495063	0.2601747753353604	-0.2749249494465179
Si	13.545602839256695	2.7091270697433028	10.836492024243302	14	0.06504356527857409	-0.0025191689926810875	-0.0012611271595326327
Si	14.900174501493302	4.0636824772499995	12.191047431749999	14	-0.08628629454416953	-0.009408702808549881	0.013382088970306722
Si	13.545602839256695	0.0	13.545602839256695	14	-0.7830033857557679	0.8967341727082621	-0.7633621979940927
Si	14.900174501493302	1.354555407506697	14.900174501493302	14	-0.14438016214238336	0.6753139249740256	-0.3290613717359598
Si	10.836492024243302	2.7091270697433028	13.545602839256695	14	0.0107199665218254	-0.01065363200456558	0.07730619499248834
Si	12.191047431749999	4.0636824772499995	14.900174501493302	14	-0.0020424860663256343	0.008222651924365571	-0.08469606590365794
Si	10.836492024243302	5.418237884756696	0.0	14	0.00120430573195736	-0.011058066871424872	0.034826392893001774
Si	12.191047431749999	6.772809546993303	1.354555407506697	14	-0.000873918698318332	0.01723720428733675	-0.005244540632038052
Si	13.545602839256695	8.127364954499999	0.0	14	0.01673069653926758	-0.03892216366799767	0.005309589596637798
Si	14.900174501493302	9.481920362006695	1.354555407506697	14	-0.08847224828735942	-0.034263835048953376	0.0009885899955969363
Si	13.545602839256695	5.418237884756696	2.7091270697433028	14	-0.036024013751126745	-0.005049650848770827	-0.006794145808491299
Si	14.900174501493302	6.772809546993303	4.0636824772499995	14	0.0033100409891586367	0.0070975362362687726	-0.007424323722459593
Si	10.836492024243302	8.127364954499999	2.7091270697433028	14	-0.007859611853160663	-0.00815246074912553	0.018516586294642434
Si	12.191047431749999	9.481920362006695	4.0636824772499995	14	-0.10145093083293492	-0.07256456256107126	0.06619593468306446
Si	10.836492024243302	5.418237884756696	5.418237884756696	14	-0.0026289551898514107	-0.0007355932320943654	-0.0037445577882636617
Si	12.191047431749999	6.772809546993303	6.772809546993303	14	-0.011841482662473993	0.0004512289836859879	0.004296574100499454
Si	13.545602839256695	8.127364954499999	5.418237884756696	14	-0.010516849201533701	-0.005708368031792765	0.005958536579443173
Si	14.900174501493302	9.481920362006695	6.772809546993303	14	-0.004117368059685133	0.006188393395064411	-0.008168401602110449
Si	13.545602839256695	5.418237884756696	8.127364954499999	14	0.007445663896616822	0.003353235558537124	0.0008620916138456509
Si	14.900174501493302	6.772809546993303	9.481920362006695	14	-0.01504353722818641	-0.002892236374634574	0.007554421651659086
Si	10.836492024243302	8.127364954499999	8.127364954499999	14	0.0017511798335528564	0.005335814870903308	0.0011837368893961755
Si	12.191047431749999	9.481920362006695	9.481920362006695	14	0.004849875965395321	-0.006385854283651783	-0.0032475631298790387
Si	10.836492024243302	5.418237884756696	10.836492024243302	14	-0.00033578635481133914	0.013717361104054032	0.0005646147283045182
Si	12.191047431749999	6.772809546993303	12.191047431749999	14	0.007450034775661075	-0.010669315747018484	-0.002592445494305308
Si	13.545602839256695	8.127364954499999	10.836492024243302	14	-0.02442858586779093	0.01208959432586828	-0.0007402212216706319
Si	14.900174501493302	9.481920362006695	12.191047431749999	14	0.07244346350049227	-0.0122392326555009	-0.012689947418122858
Si	13.545602839256695	5.418237884756696	13.545602839256695	14	-0.00046151340496658016	0.011298722329390732	0.0019005610526534598
Si	14.900174501493302	6.772809546993303	14.900174501493302	14	0.000590325781505999	0.0022692575555626946	-0.004139736675970423
Si	10.836492024243302	8.127364954499999	13.545602839256695	14	0.0034352538182498477	0.01095033755851067	-0.03645133145533536
Si	12.191047431749999	9.481920362006695	14.900174501493302	14	0.01653169298748812	0.014771257174782728	0.08621661758999352
Si	10.836492024243302	10.836492024243302	0.0	14	-0.020257224596382684	0.037401354871130076	-0.0500144262401805
Si	12.191047431749999	12.191047431749999	1.354555407506697	14	-0.30590316900685405	-0.27116882168431355	0.5925765271032566
Si	13.545602839256695	13.545602839256695	0.0	14	-0.7471876315355731	-1.1381324230011132	1.026851128087124
Si	14.900174501493302	14.900174501493302	1.354555407506697	14	0.03143639052838654	0.08656037437129732	0.8375501564543054
Si	13.545602839256695	10.836492024243302	2.7091270697433028	14	0.2216863571348717	0.19304861474746637	-0.16758258788299565
Si	14.900174501493302	12.191047431749999	4.0636824772499995	14	-0.09943004205129852	0.012938830413113193	0.04337788918781428
Si	10.836492024243302	13.545602839256695	2.7091270697433028	14	-0.03537455254725735	0.0540286929765277	0.024166590235667838
Si	12.191047431749999	14.900174501493302	4.0636824772499995	14	0.006090177171834754	-0.09554535902308679	-0.004276519479002299
Si	10.836492024243302	10.836492024243302	5.418237884756696	14	0.0014243923473620359	-0.012122504473966178	0.008975985783168959
Si	12.191047431749999	12.191047431749999	6.772809546993303	14	0.005226800005329029	0.0024500062595691047	-0.016886762632200566
Si	13.545602839256695	13.545602839256695	5.418237884756696	14	0.001717241243326902	-0.006160625457606811	0.028796379585658484
Si	14.900174501493302	14.900174501493302	6.772809546993303	14	0.00022008661540467555	-0.005637148414424663	-0.008013106840773504
Si	13.545602839256695	10.836492024243302	8.127364954499999	14	-0.03770448818837554	0.0022119219069233922	0.012946029508009608
Si	14.900174501493302	12.191047431749999	9.481920362006695	14	0.07827293059286401	0.0014794140012132047	-0.0010942624242550225
Si	10.836492024243302	13.545602839256695	8.127364954499999	14	5.733564863930216e-05	-0.04287035299761705	0.012075453246607467
Si	12.191047431749999	14.900174501493302	9.481920362006695	14	0.014518517521812173	0.07820916718092434	0.007433065480548096
Si	10.836492024243302	10.836492024243302	10.836492024243302	14	-0.005372067455917396	-0.003294100136173719	-0.01142907736912224
Si	12.191047431749999	12.191047431749999	12.191047431749999	14	0.004072630827114557	0.0007109106210209439	0.005588811634405879
Si	13.545602839256695	13.545602839256695	10.836492024243302	14	-0.10581641055601433	-0.13443564098511462	-0.021412936437789246
Si	14.900174501493302	14.900174501493302	12.191047431749999	14	0.009404589040037643	0.0066938727010055245	-0.6423317859271662
Si	13.545602839256695	10.836492024243302	13.545602839256695	14	-0.06666670406718357	0.02632734714672028	-0.12479939535573165
Si	14.900174501493302	12.191047431749999	14.900174501493302	14	0.2988588546507123	-0.6835021240871013	-0.24419098489159585
Si	10.836492024243302	13.545602839256695	13.545602839256695	14	0.02464044494617113	-0.08615233995698982	-0.08388642483834333
Si	12.191047431749999	14.900174501493302	14.900174501493302	14	-0.600206025030264	0.29874881134300996	-0.25504284911634484
H	-0.9306824411426947	0.9306824411426947	0.9306824411426947	1	-0.524971626704751	-0.050763132109407624	0.36143210193768815
H	12.612550458493269	12.612550458493269	-0.9330410024524907	1	-0.09238804168994497	-0.27460278994990334	-0.2933150373594091
H	14.906048960882414	12.191047431749999	1.354555407506697	1	-0.06449720539804261	0.17750216931865898	-0.11307824042224057
H	4.069556936639112	9.481920362006695	14.900174501493302	1	-0.05295114273685364	0.03683159793218527	-0.036100889800199175
H	4.069556936639112	14.900174501493302	9.481920362006695	1	-0.026386739679615707	-0.04554275986737897	0.03445821061115657
