231
config_type=divacancy dft_energy=-23145.51002310046 dft_virial="54.169365173421994 1.7839612637235418 -13.916494242961948 1.783961263723542 53.383145108648975 -14.199852743463895 -13.916494242961948 -14.199852743463895 44.391501423706835" pbc="T T T" Lattice="16.3199774331 0.0 0.0 0.0 16.3199774331 0.0 0.0 0.0 16.3199774331" Properties=species:S:1:pos:R:3:Z:I:1:dft_force:R:3
Si	1.3580995620502827	1.233953493716691	1.3321181579767876	14	-0.7110247780971585	0.42013326461252093	1.8155099171050897
Si	2.798076450882428	2.527474905064197	0.29997750519781113	14	0.001946069616820081	-1.6842400781006734	-2.5413517180517293
Si	4.062075023053456	3.843534205246814	1.3360186325832986	14	1.5060308548189736	2.3649198998778482	2.0600747407102347
Si	2.5002368627283533	-0.042529861190658595	2.905755661986022	14	1.6208129667368765	-0.6749066618913142	-0.9424214286946333
Si	4.200680591392774	1.0095864439664322	4.117628226235728	14	-0.887250650734896	1.7914405146505235	0.01120924786424958
Si	0.0622117539749772	2.834943279903801	2.690609399485465	14	-0.3078548950553785	-2.123050623090346	-0.5842363756657601
Si	1.2257119051129757	4.208040901215103	3.989451123476161	14	0.8886022808016977	-0.5526048382435744	1.8591451739354508
Si	-0.2833800881483484	-0.12319950964247191	5.2837395737630235	14	0.052636953666731545	2.124022500901362	0.37453753997554695
Si	1.0814596245818047	1.351114611708916	6.610227339525391	14	0.42642784465730743	0.7283391155440997	0.12414016395164566
Si	2.7181575213925377	2.7220906359539145	5.282401335613509	14	-0.4652811027027252	-0.8265052022200133	0.08515835064022056
Si	4.155980173203513	3.9878354457102843	6.644939931525594	14	-1.06859713672824	0.7959267895369603	0.1318637643333705
Si	2.336384289300029	-0.054786164242916706	8.053794623392818	14	0.5315832240355117	1.643343562657334	0.9855236953921278
Si	3.8917597385616247	1.5212503764489835	9.477206735130368	14	0.011318776950887888	-1.2994602829717845	-0.7853595466711516
Si	-0.1986630852931263	2.8261141721124936	8.132016275229667	14	0.9585551145785626	0.6454921885866922	-1.4928660242482195
Si	1.275243036622434	3.9992757498908875	9.616791502115673	14	-0.9093536718406129	1.3304860679805435	-1.414084271912498
Si	-0.1281934227370005	0.1021304187763398	10.843906925287895	14	-0.043555295454904504	-0.5203786041608384	-0.06447098012377711
Si	1.0405128012021565	1.338205509559334	12.446561349173178	14	0.9950617247982811	0.589233833076532	-1.4217968165413462
Si	2.523199070976725	2.749214438447727	10.943573027471835	14	0.19017643299432893	-1.4432385493587212	1.0431244249899372
Si	3.922963535413712	4.064163980164893	12.195462176387505	14	0.654951799280581	0.3877674195109009	-0.4100792143686139
Si	2.4946064705139337	0.0839826038707326	13.673219812977276	14	2.421567777844011	0.4695751056979045	-0.5049023499072711
Si	4.077872761208697	1.365492511827477	14.972290016652035	14	-0.4744434936216049	0.8984894663103272	-0.650073641156664
Si	-0.2161907410562757	2.6927962764615003	13.782400462004714	14	-0.852821236503325	0.7893108213271551	-0.21129214965710905
Si	1.081002665213678	4.186155811477315	14.98004200593276	14	-5.5802169435416875	5.323354780300806	-7.34580345153493
Si	-0.3596759826480909	5.464679163563802	-0.1916454949968933	14	-0.03149861127713412	0.04399058358560558	1.2301114018346224
Si	1.1526473661449868	6.68139876111114	1.106673989715944	14	1.5265966120537742	0.4624965956410048	0.07220615047944261
Si	2.573138201922011	8.312531545617185	-0.1533098680065414	14	0.5715281733998643	-0.8808977065993419	1.0682510659521482
Si	4.220754163635488	9.624249731802598	1.2392085264501491	14	-0.27646812685967076	-0.5140919945425443	-0.4796471536790526
Si	2.5604902194113586	5.277962301751706	2.563542055191348	14	1.3042011440716057	1.425419761047967	-0.8046472074513065
Si	4.066758856576755	6.769151279768919	3.929817925935614	14	-0.7070508777143376	-0.21168501455002767	-1.0818779241489331
Si	0.17122920322808519	8.330679360522792	2.369007924188796	14	-0.4124387177209138	-0.4449261761041768	1.8107559433681357
Si	1.469450768076324	9.402118518960675	4.201741389925926	14	-0.46148306592380245	0.23081609501618552	-1.632597113750711
Si	-0.038319307012918795	5.585055317110348	5.395596699089491	14	-0.013926134856050055	0.8422419094425116	-0.3528644076793587
Si	1.5127639881837713	6.7154259140591535	7.044338739245851	14	-2.0425115202683033	-0.8672639064181927	-1.0949869617342403
Si	2.4606609174530854	7.7019848698674815	5.311222415760363	14	1.8391401747709746	1.3171754557381368	0.33537034997053916
Si	3.9597977244802185	9.111133321328502	6.693100184930673	14	0.6397717363598947	0.7797434813203522	-0.038536497869975456
Si	2.7499488374322163	5.296469156160842	8.214252641515058	14	0.7232362428152017	-1.6667583616973904	0.22046379655514128
Si	4.1286768509579375	6.572821951248726	9.52517114880625	14	-0.03813463410843631	2.0408145907570057	-0.07385834275816977
Si	-0.0948680288186103	7.989216472690042	8.038878164018964	14	-0.8154173105268747	1.3002609251684787	-0.29131805985725
Si	1.289098697463136	9.184067300477025	9.41262858442759	14	0.6595846739569559	1.9264091457685046	0.8900166458383112
Si	-0.0314649164910168	5.598486658537789	10.80098538463884	14	0.09661185350988422	0.7508596841538087	0.26401754934685373
Si	1.2669851280412854	7.054489765209239	12.378735522961216	14	-0.4342206077721443	-1.9859299768194005	0.3409794733369742
Si	2.736680695779106	8.083660182095391	10.99755951282053	14	0.0015354640971924325	-0.6069862868700264	-2.1197575513963005
Si	4.133246444639205	9.48280448738992	12.036130236708148	14	-0.02549996545469663	-0.42717295097908636	2.7260285567662614
Si	2.6584427239648245	5.293368360448552	13.628209315216786	14	-1.1660980784578316	1.3970005626127742	-0.11266892045527299
Si	3.891988218245688	6.7544469801016955	14.932012312347144	14	-0.7607849220211763	0.0760206423324143	0.4948940653380627
Si	-0.1984672455639291	8.440822888218785	13.664945584418694	14	0.8202260488071478	-0.7745418781471606	-0.19633191624129542
Si	1.2176661562384572	9.727702068751018	14.957602036962246	14	0.9091898924317193	0.21013206693665828	-0.8451526577754513
Si	-0.1193969549005596	11.017975804589339	-0.0023827167052326	14	0.07588668774523458	0.35008709971253477	0.2770471397777681
Si	1.2702328035504722	12.081287614265536	1.5289534057974068	14	0.5871018725450653	0.3224227777993374	0.976844672273436
Si	2.594974331727499	13.542105114279751	0.21362850459927898	14	0.351532832234054	0.5225311335348665	-1.2575821195172128
Si	4.119145984137007	14.981331284149972	1.3312368791954001	14	-0.20015694962607974	0.13050699205592836	0.9400488127052007
Si	2.928636270347228	10.69684760863823	2.8663755564399516	14	-0.6950006212998675	1.1918572113287993	-0.498407737868577
Si	4.231819108335129	12.255911372799705	4.140149795093407	14	-0.05915367721117887	-0.15553078880533358	-0.4064909797838152
Si	-0.0242351664881535	13.55300685920506	3.0368703606835474	14	0.3808202929358608	-0.8840686507906806	-1.280403764559911
Si	1.2533253069297807	14.929939675213141	4.2971479779998285	14	1.3921797401374967	-0.8657734366641029	-0.13314571744599632
Si	0.3880727433816849	10.975625463150443	5.528212835710861	14	-1.1134305286377904	-0.15226574215927752	-0.5801532033068331
Si	1.616004165425562	12.238808036449818	6.9636690907940375	14	0.9551046912389239	0.3138077752031173	-0.8344568596436354
Si	2.92896266989589	13.711310640306131	5.5250467600888395	14	-1.3394294007261462	-1.3396428024677187	-0.7571074700817685
Si	3.905990758883288	15.115057179236794	6.911461482985551	14	2.2368235761700905	-0.7092214048256065	0.8822436802344394
Si	2.7908303809021318	10.663685414494172	8.160641515647324	14	0.38934582106693977	-0.9636284195962789	0.7223270999739974
Si	4.123225978495282	11.976464399212734	9.717681602607096	14	-0.47135559613210704	1.7795013299858837	-1.6725430915571917
Si	-0.0453368973091518	13.32731789128272	8.02611594166628	14	-0.028742129263403363	2.529000899425334	-0.11306178534819164
Si	1.0914474507708618	14.898768518315919	9.453183728348844	14	0.4946125293055064	-0.45746314275575095	0.25391979031250417
Si	0.1254353465508066	10.971006909536875	10.771968464762788	14	-0.4143912151010343	-0.40743560387843764	-1.5024675599557802
Si	1.398752625836135	12.348559884687415	12.08536760862381	14	-0.4396304704762678	-1.1555791723720419	1.3630627437184155
Si	2.6301765230506953	13.587246171859704	10.7712340657783	14	1.784701390495883	1.6256286470015138	-0.4913544246438148
Si	4.055791831741712	15.227322303999088	12.258326729459805	14	-0.34013460812877355	-1.3227948635258524	-0.6441963515053376
Si	2.7857385479430046	10.909513234568955	13.415021450008199	14	-0.5752153955394886	0.4778129271436589	0.5931110598993153
Si	3.936541756638051	12.534444427650424	14.7929497846397	14	0.5629239694459888	-1.2318294144095454	0.530666367878347
Si	-0.0326562748436331	13.72067830735273	13.309708635632406	14	0.28994740361107907	-0.12439290360461623	1.6863555835580912
Si	1.3798377719911719	14.948936128945268	14.862750328121068	14	-0.9513048546862769	-1.7521337136266317	1.331036798740119
Si	5.512986296765779	0.1972922071887459	0.0200572522652799	14	-0.19838262984464555	-1.7326395930892688	0.2640638292426164
Si	7.044828338568844	1.2869771003968329	1.4242281106092038	14	-1.9832840523344364	1.5092681335275722	-1.8957793109790484
Si	8.122093728950341	2.6936612352654543	-0.0779605321979187	14	0.1332825002490282	0.4962873473110509	0.6439137870306532
Si	9.312587122762688	4.108097359414798	1.371694103252055	14	-0.37787277779684303	-0.26858794616394893	0.13965447056395122
Si	8.278112713210778	0.054835124175216	2.659291362791346	14	0.7190422558169762	-1.9365866090677788	1.9236794032501034
Si	9.637191473907047	1.3665043504283292	3.9912789609486685	14	-0.3746226435616438	1.219509706157524	-1.832131855889315
Si	5.4860583340011635	2.4291633610072028	2.692959476235831	14	-0.25569976652564264	0.6505845197837774	0.44893890017733196
Si	6.766425843537591	3.890976379644836	4.085885870128349	14	0.3816592446018251	-0.3840033213222041	0.378288782637643
Si	5.547078729623524	-0.1736608798656171	5.601881213843874	14	-0.4218088539496614	0.4848266453464909	-0.22851315598092886
Si	7.130801979686415	1.141566101467912	6.676388528039178	14	-1.1758556802583258	-0.23335480440929976	2.3490926897480806
Si	8.421206275344199	2.542815683851311	5.48377353716053	14	-1.6652588930746803	1.1850859483576575	-1.321835327020373
Si	9.563164056270505	3.9071657972584712	6.830383835097909	14	1.6350813157110382	0.9361667007823091	0.9661205919830983
Si	8.337843830615924	-0.053692725754899	8.516612863418102	14	-0.2747660551377328	1.7674587868873741	-0.060360296937924364
Si	9.782651432768267	1.6028339436370502	9.796768213247898	14	-1.6825017537937212	-0.11685853657445429	-1.2545906384772203
Si	5.42081106422363	2.5725833226892854	7.93008919444992	14	0.1131569162450371	-1.0771296068436838	-0.24332555084083396
Si	6.534470004280941	3.8225956742001466	9.452025009951095	14	0.8687286651190812	0.8425224170329398	0.7520693892069383
Si	5.406580043901967	0.15213482963135821	10.781564611493451	14	-0.1642578915935122	0.3122550847002799	0.8318240477958037
Si	6.894456066500261	1.4116943679405831	12.335144863237407	14	-0.8764450664059096	0.37434804951345196	-0.6750956381323452
Si	8.028188578800284	2.9714435711542495	11.010158535398883	14	0.9569733705856075	-1.3559598081609745	-0.5000303624361225
Si	9.394937728890111	4.34711974889998	12.287898528568583	14	-0.17101809881177754	-0.0028665253214330932	1.389877315323304
Si	8.335656953639889	0.3299736237198489	13.800123957497062	14	-1.0355095823632545	-1.0635120046260513	-0.33637230971380083
Si	9.743385567064228	1.531793081870766	15.113294621674019	14	-0.5297849929746001	-0.8379296515995593	0.8734612986818778
Si	5.339292776945295	2.8308306455906598	13.482618796536102	14	0.44622149896446744	-1.1420073358291083	0.9421401497726092
Si	6.814080177642243	4.0323237041929145	14.876491749119738	14	-1.8958340755223677	0.5273514417890801	0.8933845366971732
Si	5.145672564678997	5.4936144835526886	0.050102330719617	14	1.702520894037458	-1.1878516863505406	0.035399235158330766
Si	6.6186158079260045	6.754202180440199	1.4630370169451157	14	0.878450014334561	-1.1093108465833172	-1.0486718418286887
Si	8.084149781418384	8.022362346856667	0.0909185942798001	14	0.06538269407030162	0.7474223734513027	0.9862423193291092
Si	9.439980866605467	9.358429939372265	1.655482190836231	14	-0.27621538720670025	0.2989280173838243	-0.8218224481004276
Si	8.024092264464576	5.408815880810302	2.8260488922027616	14	-0.5523556981380522	-0.603803772704747	-0.9090507956338995
Si	9.529512262803452	6.590170087260111	4.033009143245105	14	0.7180930037327774	1.2683771623143862	0.5368035962775404
Si	5.531232031535985	8.228499981814155	2.6909357990341265	14	-1.1131294522048012	1.1476529688910895	0.5900283046204577
Si	6.90824644743123	9.660561681591245	4.029745147758486	14	0.7013872469151153	-0.9891983191156835	-0.4848328159992592
Si	5.360525067585758	5.395939418615585	5.202253926439554	14	1.129310703537153	-0.31783129791861703	1.5673131501247033
Si	6.9318451347994925	6.559863889166844	6.80585490901596	14	-0.2896612395889466	-0.2179443704519282	-0.4883860835517039
Si	8.190751874011394	8.013614838952526	5.357962831128762	14	-0.22905025988230782	0.2421035044821676	-0.03151300946692694
Si	9.40288555790003	9.626159169162271	6.58021490102592	14	-0.057976110974551055	-0.6558141480049586	0.491982545673527
Si	8.152155127382112	5.111155812407991	8.400218784365231	14	0.4254366835563904	1.4127712084254984	-1.1914113816662857
Si	9.515150682662325	6.919621471702101	9.64004746995784	14	-0.8645007395306297	-2.82396812906347	1.5319049160977518
Si	5.642681157426624	8.038502804538004	8.08728321708554	14	-1.923393239227971	-0.9130090122742675	-0.08847764760853175
Si	6.854896441202426	9.543057844072926	9.296936264404344	14	-0.06649649689498977	-0.15295402705348116	0.6037328101979111
Si	5.4379470405283845	5.3261551951116495	10.86874593094107	14	0.13473928852342412	0.13490486770604165	0.662626291550691
Si	6.723781742504901	6.9617759734117985	12.15869326723073	14	-0.1330611280809635	-0.8849032315776006	1.0594684272890544
Si	8.133566673085811	8.36815002870919	10.88816670408646	14	0.15070533834047967	0.32143624468799664	0.05976662871950216
Si	7.971998896498121	5.673999194120743	13.85507332151431	14	0.28345433423557714	-0.29317671189318506	-2.6236767106291468
Si	9.49275967362411	6.823937444011835	15.011914921859603	14	0.27183782328861605	1.4972081069128855	-0.5755771500580334
Si	5.325012796691333	8.046597513344821	13.808316586168477	14	0.6641427294685143	1.3089435478346187	-2.187416702117061
Si	6.781636062505241	9.453852847423601	15.065901407208298	14	0.2736314263599514	-0.676813136486204	-0.6587238678957702
Si	5.520036527016877	11.064944699641801	-0.287884401919884	14	-1.3916176965145122	0.2835705481960478	0.9632628084197538
Si	6.854031482398472	12.276376624500813	1.2017215382863187	14	1.1283154286677235	0.35242989088025367	-0.19601592739744927
Si	8.256048103721225	13.692363146506302	-0.2415193460324469	14	0.25042874350880706	-0.3128384684974215	1.3522327338888878
Si	9.763899778697635	15.148007213674223	1.3546560468118984	14	-2.494980805160731	-0.9173870904134156	-0.7651930820925702
Si	8.323139530948701	11.159878008370143	2.7395203718524654	14	-1.5098468893351373	-1.812978406806872	-0.7548379554156738
Si	9.590744818132444	12.360930427581703	4.106416401739189	14	0.09214661490038305	1.095610711884908	1.1001847082494516
Si	5.653044343096642	13.548078226020264	2.678402056365506	14	-1.4638770688740819	0.5745229968767728	0.0990927130332951
Si	6.834447509478752	14.997210622192378	4.083486833445683	14	0.5168096528659408	-0.06391305026930498	-0.7520171957689393
Si	5.4055355653462485	10.613583083774554	5.392251103715704	14	-0.8867264023601177	0.7520835302861991	1.0218580415553964
Si	6.676845487407305	12.125759552770733	6.725168940586714	14	-0.45210213105271013	1.6730483137526007	-1.2836276735208445
Si	8.16793654555992	13.790054531420838	5.515091573854648	14	0.1807530748854542	-1.6738983211714418	-0.17451634471037103
Si	9.48521984405002	14.923623843946531	7.093331311500017	14	-0.9633707948432001	0.030357554736052395	-0.9242321441072457
Si	8.086157138642657	10.966633155584805	7.945446293214467	14	1.3618877485871081	-0.4129555098902636	1.8842697580134058
Si	9.360731056190332	12.086656886841025	9.75149659584848	14	0.9965858760320649	1.3127793798617475	-0.7507321573299293
Si	5.442794073826016	13.545581269472999	8.121538849717616	14	-0.7658741678918775	0.20592213908544776	1.356486627641073
Si	6.8107345822684575	14.961045552200629	9.698081309709943	14	-0.581591993843988	-0.8614781481162636	-0.5516008216160566
Si	5.588629392168197	10.717133340587573	10.900863646529412	14	1.7059782593614614	0.7164318125854298	0.10950646091149087
Si	7.0841268442277485	12.107122138542133	12.392721743621383	14	-4.813023541510043	0.8768225046669073	-0.5048283020740508
Si	8.101824316978432	13.633056348514415	11.255757875789605	14	1.8146059164745254	1.1239576622606047	-2.0935561884102674
Si	9.545881200168852	15.091621691642862	12.52785115676745	14	-0.1295320289185282	-0.6299336589628802	-0.033362405523709456
Si	9.341963082142266	10.100907312691149	12.073176585481285	14	0.8804958428378029	-3.4585179505181443	0.33670295385797194
Si	9.52339227126604	11.948671477644165	14.900596355788426	14	-1.6857171781070985	-0.40426568812922703	-1.3725917742559484
Si	5.527298916974607	13.65218336206601	13.463067463571246	14	-0.49013957738004493	0.8747489082262078	0.1314662714508756
Si	6.848450050116352	15.089451134644259	14.895063883438606	14	-0.2844627217421392	0.39601372560421183	-0.20302193228432075
Si	11.089032986333056	0.20187812084744702	0.22828384433420282	14	-0.7233486001176922	0.20841122614588312	-1.1598814029042457
Si	13.27835795898342	0.0301103583640695	2.656076327237025	14	1.9385594181799286	0.42798644870238123	-0.5809718432407681
Si	13.24108313052622	2.4167601781580466	0.6228356187568284	14	0.6872672507179262	-0.0380616147173441	0.14857466336167294
Si	14.924586722615084	4.014208529242174	1.4547791083639672	14	-0.5486011130390398	0.2861830483118503	-1.4817524215018794
Si	15.145787696743321	-1.294321090241728	1.6751477636431165	14	-1.3200067569166838	0.3677655056728089	-0.4958433174222613
Si	14.855895937599167	1.378385293999626	3.8036481804003177	14	-0.5646921185746546	0.39219897664070813	1.147280158619668
Si	10.943132388081143	2.706668257279635	2.359558657255031	14	0.22180925596917475	0.3156407161858508	1.1745017361967356
Si	12.258081929798308	4.310334519765774	3.9214131375575674	14	0.056594398975503474	-1.8963614092235301	0.04575230495097104
Si	10.838178613208875	0.1105188871769532	5.292013802321605	14	0.6196728918512331	-1.3292311114737791	2.480350958778556
Si	12.543191935554566	1.2233781483400423	6.606718544377275	14	-1.282505128938068	-1.5455310029629405	1.3195778965492833
Si	13.541305435385528	2.793311017471963	5.450807182745668	14	0.7292030069316694	0.5070908747557812	-2.8966136814421266
Si	14.811521918958567	4.261929466699199	6.5630462847662985	14	0.4029140580624252	0.19587888748388535	2.136088955279349
Si	13.573472110906168	-0.2137427444413107	8.26928360541947	14	1.6946828794689868	2.895972190664749	-1.3564166935763649
Si	14.918352491235641	1.4733186027279686	9.440078786470064	14	-0.9814433512490527	-1.3307784026554441	0.6209610156166273
Si	11.16328888365366	2.4354465523189464	7.983390240746425	14	-1.451117187391251	1.5787720523155389	1.3375653493690391
Si	12.219044543778333	4.066742536599323	9.493836792134696	14	0.5367596303765659	-0.8045088819850825	-0.01524459766422199
Si	11.199143874074181	0.2560767659027721	10.954425812464848	14	-0.05557469860553275	-0.04600247349862145	-0.4675462464897756
Si	12.210672395355152	1.5892067624804118	12.489189130228437	14	0.33827107099273024	-0.7978373779003622	1.6368219540127782
Si	13.669090858686701	2.5807759513607014	11.069351093548738	14	-0.16864959659085713	1.964069153834842	-1.0427246181126544
Si	14.872623914468093	4.383056339207666	12.200586649301496	14	-0.10990626778877391	-1.0107043295660623	1.1813074519791678
Si	13.390884203384644	0.0074745496643598	13.925053384747441	14	1.6629672669028321	1.0872029403774919	-0.7960669147769083
Si	14.960849712471433	1.384113606078644	15.402060302375292	14	-2.167443584658555	-0.10237318631127203	-1.2751911056338427
Si	10.829382145372435	2.940190814369863	13.830952394868186	14	0.7088066855374667	1.1772543615524862	-1.5353558536584544
Si	12.19791017300247	4.035538739747236	15.431273061980539	14	0.32390476290587084	0.28644812927035757	-1.6612019459900187
Si	10.604835575870412	5.4212680235917565	0.057952239864938096	14	1.4541307799369965	0.4168759312824254	0.574403440479386
Si	12.173430206852817	6.839555662415312	1.1980495433638711	14	-0.33239249578874364	-0.23282567093441323	0.2344488097230227
Si	13.461957705105796	8.187161478976112	-0.1918739746809567	14	-1.1720298755419454	2.0854872885840465	2.6867204701897096
Si	14.901820354095909	9.612695187779964	1.3535952482787472	14	-0.6575277897008374	-0.5027243665905737	-1.108182388458304
Si	13.622676842866964	5.526825637629048	2.4887639185928836	14	-0.3564480142745811	0.7794827712408892	0.8656060577077613
Si	14.935227347901465	7.044730418704246	3.739265869426738	14	1.4579987507806274	-0.6278736893803774	0.29295302573033216
Si	11.004152783703502	8.079400667985352	2.8253797731280046	14	-0.6622984756223721	-0.32117424905587355	-0.13364296921491298
Si	12.118954122181131	9.659060243667401	4.120337342489623	14	0.35236329925246185	-1.0854283634855257	-0.4128058715606309
Si	10.97828561947204	5.419750265690479	5.436674082288603	14	-1.0867583962676381	0.15944426821313099	0.7224782809668221
Si	12.480033622888467	6.940429442929303	6.529704570870475	14	-0.5623133319324536	-0.08405508934734504	-0.28809235112259224
Si	13.816346015065562	8.485800746024408	5.111237412295156	14	-0.8081086865438217	-0.3953357251312888	1.1268411568771508
Si	15.10629335135522	9.713079368970963	6.589207208591558	14	-0.032832757827758956	-0.6951461458609879	1.8157636852001882
Si	13.449146522820813	5.569894058074999	8.119417252651314	14	0.3523620136998018	-0.794794217643435	0.18728959594086667
Si	14.733561386760648	6.934293131414457	9.466827229482917	14	0.6275268472726895	-0.6789278706120259	0.9796281508930282
Si	10.818937359815251	8.364282194057546	8.132326354800895	14	1.983938141527882	0.97201639359273	-1.1875259273064778
Si	12.49263264546682	9.583058108761454	9.878841379758958	14	-0.6569937711258427	1.669334609228179	-1.467612627793725
Si	10.893748136368583	5.42733905519687	10.884853748667542	14	-0.508545349035389	-0.1689789551823681	-0.8104851591912348
Si	11.896186430219315	6.946663674308747	12.20154952797005	14	0.8548228419950603	0.02076707478136805	1.2096461748178398
Si	13.544226711346052	8.189919555162305	11.173668389301112	14	1.5699217935825254	-1.3360232003980144	-0.050423231986084054
Si	15.038908164533948	9.77493208344241	12.12874610864099	14	-1.5022641855249568	0.09290586230142278	1.2274726764445545
Si	13.269545171169547	5.58585499600457	13.59116296644365	14	0.70678322565051	-0.35912659179711137	0.933785343034788
Si	14.752280400876414	7.016741657406479	14.933350550496659	14	0.945903733740242	-1.8733392179658601	-2.487260547215922
Si	10.59793222541621	8.417517960444318	13.493341021709647	14	-0.1776155550632775	0.3901444063793778	0.520424884056601
Si	12.0931032779271	9.67110438701303	14.997732861470238	14	0.2681855681813458	-0.2522421440911075	-0.8841136451337832
Si	10.733404358088373	10.744779382359244	0.2392835091241122	14	0.23575107456767774	-0.3002359386601836	-0.46863536670339034
Si	12.257608650452747	12.106697819128872	1.332705677164379	14	0.4643799302880132	0.5378276675265554	1.442994037242775
Si	13.694386823708006	13.678458525733301	0.3513038342249106	14	0.20067425601649355	-0.06393361911186617	-0.8783785376066608
Si	16.402230119362823	16.23948730439995	0.0180988549733079	14	-0.4341105644644419	-0.9825445556576723	0.3074676865941641
Si	13.660294390850261	10.791421877863044	2.9149764492357235	14	-0.1366231373914966	1.426825641437024	-0.8407149299928757
Si	14.9980103010866	12.188134506520042	4.356307896194815	14	-0.031761635351385265	-0.3279488544639317	-0.49155034286921007
Si	10.811054810715063	13.631685470410035	2.5802537120828424	14	1.6460617352017948	-1.0081208829403772	1.0450545537537725
Si	12.095991913932759	15.02048291001198	4.058370388176143	14	0.6749256880706833	-1.972083546228275	-0.05664145020286218
Si	10.874768002613886	10.918489222157161	5.474438510068797	14	0.4131182608570289	1.9502317221123364	0.524244261009681
Si	12.290052765589751	12.405663485725832	6.944950076678272	14	-0.9941309846723876	-1.3522946975271035	0.6374608268981456
Si	13.589661528519803	13.625744998624388	5.526548198012685	14	-0.2187972060866213	0.7307289579391772	-0.31031158618877996
Si	14.951318845650501	15.028349139134734	6.863692909038867	14	0.19549245035426713	-1.965305341272769	-0.17835294806909596
Si	13.685622995826431	10.863441938275315	8.309055390423936	14	-0.27720886230240543	0.012128418016202519	-1.7105676823579254
Si	14.87139991616061	12.423011621737215	9.46669666966345	14	-0.061430390972169985	-1.1043874370057656	2.022542002357245
Si	10.80020202572205	13.712355118861849	8.363825234689418	14	0.5869373218045758	-2.5603395879515545	0.3670533094991279
Si	12.217689985651386	15.042743359230727	9.518659477810441	14	-0.9160501156469385	-1.6612957913342037	2.592931433210816
Si	11.102252168053866	10.952924374541	11.036645858772806	14	-0.6563183417582397	0.8110292050769781	-0.8304701037342137
Si	12.142650729413992	12.362513465392714	12.516851491977542	14	1.3042546230622647	0.4261326817665545	0.22219620731985706
Si	13.517657788084966	13.694892743008433	11.081950116127091	14	-0.42802321550845934	-0.4736618776042799	-1.2532917160694814
Si	14.820351026749874	15.13462483217908	12.261639684878723	14	-0.37780258662160293	0.8784700689560582	0.5043521333687595
Si	13.731025173045316	11.096817615568645	13.901487337334045	14	-1.182514328816445	-0.7490876783671626	-1.5707386337427365
Si	15.045680955168686	12.576076690082262	15.036656007648181	14	0.03607595007859374	0.22767394720443254	-0.009922923872579495
Si	10.873903043809932	13.731106772932481	13.956681501012788	14	-0.19263723789624265	-0.7665020318110576	-0.8499927635406301
Si	12.233863083287588	14.973448735049784	15.335066795012414	14	0.6147757075479471	-0.3703065290607112	0.04114411288566963
H	9.395714559815925	7.895944537664389	8.529016046267257	1	-0.8209035350590067	0.6025439310978747	-1.0510480573655696
H	11.474677317072695	7.462404337154087	9.20884102622047	1	-0.30473408741778274	-0.37457070723417685	0.1361400267018408
H	10.258290647064994	12.716519887880546	15.821336842609064	1	1.7509255512366941	1.719085497173044	2.128844866039832
H	8.55175140682931	14.283420505205397	13.577509673323117	1	0.17186939178327856	0.014543200132885592	-0.10304912989993896
H	1.8289782389297737	3.5330237866136804	-0.6342171710186723	1	5.977541418638111	-5.322245605465695	6.036247466413053
H	0.15219521354786067	5.142480377093082	13.793267934977415	1	-0.1970394844254002	0.014153420566351145	-0.04345965033699499
H	8.501996691629017	13.922936683674369	7.974548076973171	1	0.0874821156285704	0.19023094042711605	-0.1904273728735754
H	10.033962765260574	3.5394603857132947	3.343798544270116	1	-0.15935556507958584	0.32905494397265944	0.35908931076996925
H	8.423812575740264	11.10663244999691	12.922642834858342	1	5.91418269867583	-2.3497583489154668	-4.12208398106335
H	12.233748843445555	1.2204372884065975	10.026302167853476	1	-0.17219232261148917	-0.2618305671615357	0.17887796777547021
H	13.528861452592789	10.54599389723537	10.828690178329271	1	-0.28434419378688036	0.10758173146882802	-0.26503647838522837
H	11.718783379528288	0.8991475246789012	4.3567354796035636	1	0.7342917385813064	0.8746329513762692	-0.7784764406185831
H	7.731406525183875	10.129687592894422	14.065292582827814	1	-0.3229238862262343	-0.9539129839230351	0.5884545310539951
H	7.878475633819999	11.308877770336602	13.326137956914309	1	-5.520958879454512	2.3358435269228255	5.199297148829937
H	11.967070620202241	1.028274450125075	1.0936000557942875	1	0.25447823438804024	-0.04611997301175221	0.43623249768516015
H	14.074696153824764	3.2960316023211753	-0.339081803125262	1	0.9759180459160547	0.9881048280230245	-0.8978096660636801
H	13.45835588608631	5.945127875210063	5.684354219802046	1	0.026756464624652997	0.07221052135848685	-0.17575716013787449
