219
config_type=vacancy dft_energy=-23088.19467331136 dft_virial="30.731139661516085 74.59991339722568 -142.89589797172954 74.59991339722568 -32.93648805096338 -33.16236172213582 -142.89589797172957 -33.16236172213582 -128.35374034224557" pbc="T T T" Lattice="16.014262683421247 -0.19789684583438225 0.48230045797593224 -0.2627568921413678 16.419621950101195 -0.22383765980943404 0.40402937936683525 0.37695095094321723 17.0208752202765" Properties=species:S:1:pos:R:3:Z:I:1:dft_force:R:3
Si	12.076621769860349	15.208743528773462	15.73579549597257	14	-0.20817031357738525	-0.4406604552675192	0.3323333603663802
Si	1.371209956251364	1.04662612224123	1.1236378135875482	14	-0.24991015156573318	0.46616453449072803	1.8500881983346968
Si	2.6613047977722157	2.6312092876490905	0.03991905122757509	14	-0.052419181046115	0.4617005814338869	-0.5482463005048595
Si	3.9812516037877668	4.050207062109591	1.4915455308015997	14	-0.14023425481364457	-0.5290946511961404	0.4120466241595912
Si	2.7692884430492164	0.0037669458712382203	2.86468142024617	14	0.06367059503761502	0.34978165240050113	-0.34730464953507045
Si	4.0910714549211855	1.3968239063566867	4.342513088983997	14	-0.17120887482653252	-0.46081766386694806	0.24638773727713034
Si	0.06837062835882864	2.592660180581408	2.6142604346393252	14	0.3063605686433084	0.46935784729835195	-0.19107940518276492
Si	1.3678115333705063	4.066462130533117	4.144992777509352	14	-0.27977482541191323	-0.44778447388858544	0.3668411933102157
Si	0.1410369529663981	0.11157434102240472	5.6443061320386265	14	0.127827128980738	0.4302119974675014	-0.27591508210530696
Si	1.4784982146682553	1.4884851877075695	7.107558710822223	14	-0.12746151780421297	-0.4496097015553586	0.27910222426016246
Si	2.759315890474743	2.7988728278074224	5.700624456338139	14	0.1192684335910291	0.4875435323382913	-0.28558860876183206
Si	4.097676027818355	4.194132914865798	7.156737302751579	14	-0.13497968687085796	-0.48604560637877314	0.2548137636323196
Si	2.865057954605907	0.14126768040385376	8.597394615403232	14	0.10771311495068758	0.4473016203094617	-0.2825786157635347
Si	4.200708646833285	1.52217299584997	10.052560517958781	14	-0.1173241637479331	-0.4342355201830012	0.27010232719751615
Si	0.1656783228318905	2.9059479837994413	8.479371122049166	14	0.13594050892899728	0.44719003433856724	-0.2847080051896813
Si	1.5045303582539666	4.285063559331405	9.933433057907445	14	-0.11984616095646636	-0.43769134284381217	0.25735941500979825
Si	0.27756190271144066	0.2389198637592279	11.387866721303848	14	0.14786323851958796	0.4288619100638916	-0.291369481963653
Si	1.618737235246786	1.602482166823259	12.857820009416885	14	-0.13563223340111155	-0.39309140729733155	0.20603089684049009
Si	2.880986159159705	2.9347905157552723	11.42758388602365	14	0.11153763411440784	0.39067611095958443	-0.24944375306065836
Si	4.246769213809247	4.325022667405761	12.835857641464074	14	-0.09077930109112829	-0.44089005497260847	0.271141310857388
Si	3.042057944611838	0.27967690422145103	14.331389629657268	14	0.08049436558947196	0.5937872605985143	-0.42840219643264915
Si	4.43016868565683	1.676326162726175	15.684408970648672	14	-0.01673712430256795	-0.4939211590849186	0.35485290053396124
Si	0.26858436221099496	2.852225343171306	14.350089768008276	14	-0.14749839867465894	0.31734921567108926	-0.22080729622591305
Si	1.6417955585275128	4.3575215883357155	15.614226170541494	14	-0.05061143689551889	-0.3675189366726067	0.254559995537221
Si	-0.07988777294515799	5.42644014694723	-0.06842670794432133	14	0.14220886369951832	0.4612172136336991	-0.2738453423225877
Si	1.2581022391342018	6.828774273147042	1.36754074908627	14	-0.14199186241049783	-0.467864035107346	0.28394001603055313
Si	2.531660012030192	8.162112884178251	-0.025588313723383403	14	0.10125424127594358	0.45324035937793977	-0.2780997502958367
Si	3.866578465098423	9.559311722620803	1.411733064728389	14	-0.1412189881512613	-0.4656706251587276	0.3016808998501069
Si	2.6491884027580497	5.464188117079302	2.835401467523496	14	0.10996643165326536	0.5263209427767647	-0.2612993768023932
Si	3.9858821752755924	6.86346991155444	4.285339150437255	14	-0.13145984368757524	-0.47734010087528367	0.27381114662182976
Si	-0.05671729049344557	8.258810112306378	2.726980401479652	14	0.14318896904755876	0.45417675593553763	-0.3100074244294064
Si	1.280609380203229	9.65515814332331	4.161425698332585	14	-0.13989666868510914	-0.45139147754222125	0.2893681335824497
Si	0.06095530488282247	5.532412938515849	5.551548895359829	14	0.262199520774977	0.4270299975232862	-0.2920971047692549
Si	1.3977163729029565	6.947118221275351	7.023623594078364	14	-0.22774336704807657	-0.44083014821864897	0.3085853460768325
Si	2.6702470882474945	8.291486885636036	5.6421446645863504	14	0.13172003954597422	0.4656289732525412	-0.2733550325380355
Si	4.0205137227281424	9.668751834846741	7.091314858315795	14	-0.1310374110834749	-0.44269779912320456	0.26640482063661114
Si	2.781946406631854	5.608839799899172	8.525523018635788	14	0.10679394479873465	0.4572008900130958	-0.27233764616285283
Si	4.13138306324721	7.000153486412733	9.95927292862861	14	-0.1317835458473819	-0.4666687282440091	0.3026790029353883
Si	0.07704053227600005	8.387064124328182	8.403447374661408	14	0.12797779575249868	0.3755942642621278	-0.2423027651444791
Si	1.421055094111147	9.790466967200098	9.867092510543452	14	-0.23407548523053723	-0.44216352343767773	0.29227733925219723
Si	0.18247656209776095	5.660258370700493	11.33281579563647	14	-0.020226885553604936	0.3604018600359048	-0.20442164202060936
Si	1.5279379772386197	7.079425986191343	12.728615848989447	14	-0.09441638667700977	-0.43196729106956655	0.276263723986719
Si	2.8048236729651332	8.410486163777675	11.327331212175284	14	0.10847879011502767	0.44362802502803417	-0.2817098392758567
Si	4.145141788979376	9.801944054939648	12.765195761469402	14	-0.14826870182857532	-0.4181743394691001	0.3016330772911521
Si	2.9037015958319907	5.709058825996241	14.202815162861219	14	0.06768691865821834	0.4228866612998675	-0.22673060866247025
Si	4.246907009362172	7.107170960545388	15.638076017114605	14	-0.13268986047273407	-0.43429902648440877	0.2577054857858902
Si	0.21268102684412915	8.509692552788135	14.082663849806174	14	0.1297924818874592	0.4549087496201838	-0.2679852790769062
Si	1.5490783786954962	9.904814844293584	15.524173572157316	14	-0.13273125526838847	-0.45273513718253056	0.27248419916610134
Si	-0.16839738159135081	10.966451068160405	-0.14394828459040485	14	0.13708696479125132	0.42594781929403586	-0.2737481545414861
Si	1.1700300512548518	12.376934359269242	1.2756423312024472	14	-0.23621824440434863	-0.4654456534432147	0.3071982347566126
Si	2.4833210116093554	13.692861060141901	-0.0880273242109556	14	0.2908233791936536	0.315851032601039	0.03614228459585356
Si	3.8760863582502423	14.9938930231077	1.3687600795022687	14	-0.08535581152880795	-0.402926913589026	0.2563813665460139
Si	2.545687919772723	10.99218679107994	2.765391712994409	14	0.17081575282308187	0.45315474157077873	-0.2867090964603526
Si	3.913332816660622	12.34738041771459	4.212208166407032	14	-0.146075548990489	-0.5011487932503869	0.3093065411191341
Si	-0.1925019897099845	13.91587515118153	2.457423459028827	14	-0.04774465446355379	0.043069870770460546	0.18541808837833088
Si	1.1935802726140436	15.133366156775788	4.03076827550395	14	-0.19833712128047892	-0.46414955925132806	0.2871950353658606
Si	-0.044395804423763764	11.11251755880856	5.472511929840289	14	0.0009636502739915	0.36312646034366575	-0.16874189927185043
Si	1.3045457495653847	12.450183911565935	6.955764091084455	14	-0.13206919564845035	-0.46907116905515545	0.272548476799105
Si	2.5687238112192525	13.76820478438828	5.540523648851965	14	0.1287560693329075	0.4755763226256621	-0.28163502011104036
Si	3.9126294184311567	15.14592317710454	6.99819230319436	14	-0.13907211520893767	-0.4687271551633197	0.3059340222706958
Si	2.6932220932869178	11.092982635770648	8.443907994457454	14	0.12146158642911539	0.44577026998078145	-0.28749842579363805
Si	4.0332982659466055	12.473932814885158	9.894816655337172	14	-0.12700128995190643	-0.45550293205967	0.3074628014940558
Si	-0.00963607506151708	13.861333748605201	8.32939027633362	14	0.1382743012280957	0.47829449517012274	-0.2853410113195018
Si	1.328924346515997	15.244935690976579	9.784165224064589	14	-0.1347534296026849	-0.4475952405370226	0.29238841100202767
Si	0.10868544123259505	11.23935836527595	11.258106571843095	14	0.2729878786983183	0.42329752393002723	-0.3398756978230346
Si	1.4411476084562458	12.667924919295377	12.746747180116174	14	-0.3744904887481882	-0.45107086070879876	0.2752949315020872
Si	2.7207347379296367	13.900494924291687	11.271963036281406	14	0.10387599737089859	0.42281569879303144	-0.30724759997875944
Si	4.075168886749328	15.268987424057462	12.711027688705066	14	-0.06102827010009883	-0.4129125724314171	0.22521854162369112
Si	2.830532157228858	11.23478707792136	14.137145968249268	14	0.1435106143231093	0.45436958883454875	-0.2981505151350115
Si	4.185038408372753	12.6171552694119	15.563031918082144	14	-0.1555261608157573	-0.47027958855562507	0.3358945983453173
Si	0.16607728902582425	14.175454734236267	14.197383454437784	14	0.3027124273045503	0.15062177741757485	-0.6065026619593067
Si	1.4944520556039926	15.68939684920978	15.767142381989116	14	-0.8089525233098944	-1.0374032014315437	-0.3469938029018646
Si	5.372169528655136	-0.07963781822124767	0.16627116416424187	14	0.12073344940244946	0.43267023126409504	-0.2660662060659477
Si	6.705766105779611	1.3057025913004054	1.6100384903999323	14	-0.13876152568626376	-0.4510104397337753	0.30752296535854734
Si	7.97050977011002	2.6353880179052322	0.20995716126305516	14	0.13799173675341142	0.4476446057591694	-0.2855585268295863
Si	9.300009332945786	4.0287494104262125	1.6509765878096032	14	-0.14684225259695716	-0.47546242265997957	0.309843902131045
Si	8.081838963230128	-0.04988679698043471	3.0968460973643346	14	0.14289971969904208	0.4534046530078972	-0.3157049938188546
Si	9.411091775889725	1.3376182845412368	4.543737857648904	14	-0.13617113707621456	-0.4467529464341421	0.29379943360172495
Si	5.381980251568617	2.719513805239767	2.9693211199539347	14	0.16903963326792357	0.480539841446208	-0.28417732905160276
Si	6.7207105141764805	4.109890161538664	4.413634821579711	14	-0.17193418363734628	-0.47732210313804263	0.2880990359964246
Si	5.469546120904661	0.038454572909280005	5.834141938026901	14	0.15686904912447064	0.4786971302632579	-0.26631174662402185
Si	6.807605030760484	1.4288004860046244	7.2891556245646845	14	-0.1436723368477466	-0.47326284205859287	0.27049493497990273
Si	8.09350511928648	2.7525174424391565	5.90395781741757	14	0.14826998738123537	0.45973985651674204	-0.3070223711527145
Si	9.459972344879032	4.130796631010343	7.330223506157924	14	-0.12827424419591177	-0.4474072927381198	0.2701398653351903
Si	8.21547501318536	0.07599264516422218	8.75738166144455	14	0.1386429977310049	0.44474517028963845	-0.2708446053034429
Si	9.581902181931133	1.4577920294304791	10.188244273921434	14	-0.14228111175901445	-0.4726874286879438	0.29735372959629763
Si	5.479262309659739	2.8419916199558237	8.647425617032077	14	0.13701163140537098	0.45059443489297535	-0.27509644217137175
Si	6.842754112673436	4.225567925945263	10.073122498548146	14	-0.14060372264814985	-0.45003804770169525	0.30697094904631156
Si	5.603307148221849	0.17653212603553475	11.523138692881597	14	0.12737667132864805	0.4450588451386965	-0.30213778526549717
Si	6.9778049704569565	1.5556557129368542	12.93389437054854	14	-0.13110914492190703	-0.42624169663212874	0.29549610600249065
Si	8.252146255275973	2.8755720757488525	11.537309202998665	14	0.12649581064596532	0.4680800079542384	-0.2770985618841711
Si	9.57980961225532	4.264796397134343	12.98971118312636	14	-0.10749611366166709	-0.48044651032308655	0.2979219438720504
Si	8.351009757677991	0.20025379069894686	14.418590180550675	14	0.1333586049665046	0.4557690414603053	-0.2650051109003226
Si	9.683351754361299	1.5863584848571721	15.868620795348965	14	-0.12841128410947567	-0.4534851286044178	0.2687131589930401
Si	5.684552047135931	2.996518116644023	14.287764518965561	14	0.11587945966854189	0.43626926449123826	-0.3331859388905413
Si	7.001201373524511	4.3747203960693914	15.752673848932	14	-0.1359196829759041	-0.4866235908547423	0.27360725796994195
Si	5.245947199902039	5.385224856157837	0.08763156256476425	14	0.10214564349043892	0.4545228267116296	-0.32459973267390685
Si	6.584158325775627	6.785296571651488	1.5326694919803323	14	-0.12784564093904308	-0.46749970948348096	0.290171346884464
Si	7.882099502443842	8.097425883449356	0.1350220168538382	14	0.1365866276959505	0.4228138990193074	-0.27631283209833385
Si	9.249023376089692	9.470970352731088	1.5744808286498182	14	-0.12092962473837675	-0.44091782291006604	0.26628449290762823
Si	7.982036528339576	5.441932533008056	3.0120072981571067	14	0.14019157446533015	0.4652078262011009	-0.2870004026931254
Si	9.347960583089787	6.8123365455021965	4.447752039119599	14	-0.1371198749393492	-0.46125063800286104	0.29161245141640696
Si	5.255538411295162	8.19920231974925	2.8911942459932476	14	0.14305835689729524	0.4643593614454521	-0.2912293567237049
Si	6.621146818092741	9.568537615571287	4.330430341721128	14	-0.15330909669819362	-0.44440501305578284	0.2988799377143376
Si	5.382819843077136	5.518266462506848	5.7663064691410595	14	0.1412238732513696	0.47418432620533385	-0.2674098657062571
Si	6.737773128631102	6.900181210491833	7.204445007267155	14	-0.1349192658958345	-0.46179674077286054	0.2809809309175947
Si	8.017518883217745	8.221914551873795	5.8055637812598215	14	0.13087466011670953	0.45480590540737786	-0.2546826372609921
Si	9.364149958284592	9.605860983127487	7.248243163536953	14	-0.12736870090215563	-0.453611112765105	0.2764439584696614
Si	8.12895062186561	5.544127162788339	8.682967256043478	14	0.14474628753997246	0.49575050052020403	-0.283573890632964
Si	9.477257675401756	6.929233640324794	10.125560115531565	14	-0.1328032462173526	-0.4557749550025416	0.2817797733405647
Si	5.413538637736166	8.318198393343145	8.565054319586528	14	0.15598227489955155	0.4563465117152106	-0.28983556052965265
Si	6.762326373433678	9.701617676493207	10.005932746032407	14	-0.13958273672551907	-0.45519748474763644	0.2928890052078605
Si	5.5235844094854265	5.647376088775884	11.436625517478943	14	0.12922915271181476	0.44538383285116323	-0.2830882088379881
Si	6.866482186432333	7.0342498743922945	12.881620185499989	14	-0.14224280228974426	-0.47130931623634437	0.2792341219630861
Si	8.152797263890976	8.348085607863013	11.48664690546456	14	0.14826741627591522	0.4512225559226875	-0.3226192102457968
Si	9.507018310285796	9.72459268153263	12.923439533538831	14	-0.12648552622468473	-0.4463461975724947	0.27441895591951276
Si	8.275392044599633	5.6931162009776015	14.354776419081595	14	0.12939344634177222	0.46260329651179094	-0.30507295909897825
Si	9.629021851935972	7.066716749844826	15.796388686960496	14	-0.14239886838267724	-0.4688811643719965	0.291229870944769
Si	5.526300263697144	8.43607607977493	14.241828929351556	14	0.14107577758492904	0.4447073750414322	-0.26991823605659354
Si	6.878039387865444	9.818556430436455	15.679115057778162	14	-0.15113908380798863	-0.43887893639118863	0.3009900438505831
Si	5.159953161233661	10.872855842246958	0.024683028986144103	14	0.16568485504619437	0.44307883693165045	-0.3004298000013228
Si	6.533931846734494	12.228334673630684	1.4622928167347362	14	-0.13156808722155347	-0.4753791188476067	0.3068207964956149
Si	7.795576713397963	13.55721736102603	0.060564350058244794	14	0.13998022960801396	0.48581754933687593	-0.28579146897159174
Si	9.129722870460265	14.948933218281267	1.5047899266211042	14	-0.1438597704255854	-0.46844561913076344	0.2972639980206245
Si	7.919839461206559	10.874953218744386	2.9383411546538962	14	0.12075787490299085	0.4836318527042181	-0.2975846148540469
Si	9.247970682156302	12.271956579774649	4.382709333591294	14	-0.09243252181198351	-0.4728257541541677	0.29527884760293815
Si	5.242435015576325	13.6412966824183	2.8449782584517775	14	0.11441495807818557	0.46978027990245236	-0.34425454729377886
Si	6.5576983750663	15.045628844135525	4.2799667261470535	14	-0.12565068832723264	-0.47162221975380636	0.27889756427667867
Si	5.301600580544995	10.990074994117672	5.693992644785159	14	0.12389025251452727	0.4626886572084199	-0.2921313004700129
Si	6.6446409598664395	12.377062541178939	7.139059415130409	14	-0.15009418660588045	-0.4830204438590869	0.2694603221990752
Si	7.943373659827038	13.693111014865812	5.756252200599154	14	0.12952431560256775	0.4671695795603739	-0.30803744353310897
Si	9.296529194097495	15.07989026632382	7.183333446739959	14	-0.12913016515698908	-0.4399197198247845	0.2679318000862472
Si	8.041291820645036	11.02424668896918	8.608496771056915	14	0.135172005548805	0.439979369468212	-0.2839263891723563
Si	9.395093071285594	12.40597076636349	10.041176362103764	14	-0.1367982296637987	-0.4738966195200094	0.2943946444833392
Si	5.302177399138634	13.791996949102026	8.483509795458527	14	0.15216341216753565	0.48056606672047353	-0.2832699859841225
Si	6.6543090804053815	15.17434431103224	9.92171242453947	14	-0.11923552344293119	-0.4442137228199639	0.28947097779525566
Si	5.430599649916916	11.115847083912957	11.36391753375072	14	0.13675092132590796	0.4478693203641504	-0.28460001876623514
Si	6.790898121105273	12.493280271880138	12.797172341117337	14	-0.17225737157608892	-0.476650273317888	0.28227779644107737
Si	8.052127998836095	13.817365751305053	11.387054368451137	14	0.1356178352113187	0.4695331966811861	-0.2788435710649556
Si	9.39385611585701	15.200732159417361	12.824422212845176	14	-0.15031247344756105	-0.47621087141867463	0.3078605514870828
Si	8.163838533137554	11.126433307380108	14.278131648451788	14	0.14985455959004265	0.48192489588217174	-0.2797437150375394
Si	9.50535515000747	12.509995192904706	15.716747664191505	14	-0.1304224026908955	-0.47388067866702455	0.2865825980786013
Si	5.475362375057189	13.91350058130438	14.163713271307966	14	0.1614376461678418	0.4766219911593663	-0.29222643136685833
Si	6.8228138143461035	15.296001761526233	15.600940115601336	14	-0.1255434732353825	-0.4692125798477636	0.27494166163109884
Si	10.659264723843977	-0.1459415132862025	0.32774351808417984	14	0.11972043390631111	0.45553481376563987	-0.2921366997911852
Si	11.959144651896368	1.2656441422460343	1.7923756546708973	14	-0.22650717961014935	-0.4986823319167688	0.2811413678895719
Si	13.280882800099944	2.5011927743689437	0.3803349533592339	14	0.33318105379043306	0.411175533677125	-0.060353097843027954
Si	14.661392353899869	3.8773825978120593	1.789677425471763	14	-0.16148803983211665	-0.4230213872186433	0.3085125837962723
Si	13.390519992012043	-0.10514121142945641	3.1858812518402875	14	0.0737359581449307	0.729787162060407	-0.18582098058199809
Si	14.771553489367857	1.2466732196107895	4.622374254700639	14	-0.08663596486770968	-0.3426198385312287	0.337832697535645
Si	10.660536929297725	2.6809534822549863	3.1503684537585674	14	0.156562573370309	0.43520456977816496	-0.2863267730992466
Si	12.054129049256161	4.0370235526971925	4.565709839244944	14	-0.15696752245823228	-0.44052624356980746	0.3194996881608611
Si	10.82861065156709	-0.013704248420544662	5.992344050975679	14	0.11608463387308973	0.4523435578422721	-0.2608394060606186
Si	12.188846634074467	1.359788948097308	7.427111404876727	14	-0.13817068568369373	-0.4324339466851734	0.28965044094660203
Si	13.464745329096312	2.676239592525857	6.014522725901106	14	0.12338245921379802	0.40808069420326276	-0.3079207153515742
Si	14.797750667162303	4.057555090083006	7.471749152655045	14	-0.1419448111831391	-0.4409093382625096	0.30290705997728545
Si	13.569779188176394	0.008977540500445661	8.918153821682763	14	0.13846970523242697	0.44829663806835895	-0.28461467406656
Si	14.910972145724324	1.3870179902648205	10.371039688519566	14	-0.13947680718632893	-0.44688921501610995	0.2933466619548469
Si	10.866438735392723	2.7762679480322503	8.794125005859366	14	0.13042137424876743	0.45544971017954294	-0.29405423013895166
Si	12.20455692938178	4.157495320526482	10.248970453640672	14	-0.1341957568587448	-0.47980116288772945	0.3026499494452707
Si	10.964179043811013	0.09861354767810612	11.681137317048728	14	0.13584075004257554	0.47724882663641843	-0.31034475344740986
Si	12.296112460657161	1.48852524455435	13.135205662002493	14	-0.11803815969533824	-0.46459513180330964	0.34192281187893653
Si	13.586716825269061	2.792957232674878	11.74147254194339	14	0.1709581920578181	0.5031905079851166	-0.2953526383256264
Si	14.937148493958444	4.09309993364215	13.262863628144203	14	-0.0073916706848937115	-0.3584534764242966	0.12837426019286555
Si	13.66233774289516	0.12705230661838993	14.649716584200288	14	0.30606797685787557	0.4429505387761751	-0.24585654691798775
Si	15.026685160156088	1.2098834092537072	16.363015216504866	14	-0.8367991365902901	1.4561714662295981	-2.253950222928661
Si	10.962100894600042	2.905757313208766	14.472003582321666	14	0.11730308068430789	0.47342919257280647	-0.2978370973964855
Si	12.31971075023249	4.266802444021111	15.913236111293084	14	-0.12779550438530018	-0.5316143344098856	0.20384134354985195
Si	10.607948698570414	5.320621173670247	0.25864065056620367	14	0.15941495761248128	0.4654327979166139	-0.26102658252792543
Si	11.968966590726946	6.694522950025261	1.692320060508693	14	-0.13695480997779572	-0.43427048721535516	0.29983561756183663
Si	13.236283506894535	8.030103142202305	0.29593037037110675	14	0.14705051212788914	0.45443643757287255	-0.28079838243986416
Si	14.577181646050159	9.425626002175562	1.7293357914816174	14	-0.13242220840890664	-0.4462353829331963	0.2953616371942469
Si	13.356213706155351	5.324823938034457	3.1641672363375144	14	0.17158014243476194	0.43923169204111284	-0.3369770336850997
Si	14.686496780914142	6.72603006342893	4.600326966232652	14	-0.15914216333801354	-0.4556847092058045	0.2892550049483632
Si	10.643990247029636	8.11882264872563	3.0507502803632063	14	0.12552521838760944	0.4404575950577595	-0.3062381840300693
Si	11.980265826066791	9.514315065495332	4.488848761642521	14	-0.0983216385477827	-0.40982596049457937	0.2632647297091143
Si	10.734933709686214	5.455436497194698	5.928575153174994	14	0.13921661132792998	0.4439789809042343	-0.28482139093429987
Si	12.083075729013622	6.838040222944308	7.3693414204498895	14	-0.13609914612725044	-0.4613061738777762	0.27078649832320756
Si	13.365684747008133	8.152153149794747	5.964131212651237	14	0.13617216551834263	0.4466313331524991	-0.28578632676095145
Si	14.703899077429465	9.562048406392847	7.385152659011089	14	-0.0038219480584001197	-0.40042317122826576	0.23573976170426908
Si	13.476151916785525	5.476612148676741	8.841457778289076	14	0.1476346672566268	0.46486689763564937	-0.29149957989285247
Si	14.816357873628782	6.846099660516543	10.304889811746248	14	-0.03891265057831311	-0.404072855230216	0.22445080957509492
Si	10.757403998456201	8.25218150530114	8.726199809636736	14	0.1045671104809544	0.4463593102096274	-0.2760341242816298
Si	12.106294279681471	9.632561274917496	10.163394608452682	14	-0.13399881019122148	-0.444216551035816	0.29583600612581423
Si	10.87569667382063	5.576223912976618	11.60199780600143	14	0.1308587192637246	0.4883860835517039	-0.31318711037883357
Si	12.228392355490048	6.952197429447119	13.044875870238595	14	-0.1330773260444804	-0.47020168406442453	0.29913139181464804
Si	13.499606001712445	8.284228584999411	11.649160737400791	14	0.14044200012351254	0.4648067337711579	-0.2911401393690958
Si	14.845256485170106	9.677314386414542	13.091654255908862	14	-0.14133211678534782	-0.47078969585114244	0.2792626612321397
Si	13.610281467093094	5.584235282332717	14.533178398724845	14	0.17114074053554862	0.49853192225554027	-0.32557443870077496
Si	14.957279462876453	6.97813824342217	15.962398680483728	14	-0.1250418505874216	-0.46439150026195386	0.2741834426721872
Si	10.91395256476988	8.384101519940296	14.400679963218177	14	0.13520208748105078	0.46626172227182966	-0.2848797550250672
Si	12.2596110595969	9.774027637281382	15.842093549137047	14	-0.13038563588481739	-0.4601815724107435	0.2721612683378907
Si	10.518229373151451	10.806994374770461	0.17046751943296706	14	0.10263338216967102	0.435639857908866	-0.27481387769668747
Si	11.851508700049424	12.203936849393617	1.616590188259351	14	-0.09045559893132166	-0.46897886637416214	0.2150449349823972
Si	13.10487621989417	13.559027930500509	0.20710511377228358	14	-0.06328904300810503	0.24585706113905173	-0.6077632748977753
Si	14.444192914738899	15.19525398505166	1.329586085624811	14	0.7302157653172757	-0.9228113513073319	1.0614101260268303
Si	13.250167209988657	10.850151621491772	3.0783606637120693	14	0.09797325377690262	0.4298772395548181	-0.267635094532302
Si	14.591622940451465	12.310760448387855	4.429175275856674	14	0.1972685699094254	-0.34855369249959844	0.20220097835559747
Si	10.520365204221786	13.596221513873138	2.980495377931823	14	0.09586031942480493	0.47660065098520904	-0.29921803806393704
Si	11.875230364712836	14.981821491761929	4.395479456344917	14	-0.13584717780587593	-0.41586805799692733	0.314462378617627
Si	10.651581820631476	10.924453867721857	5.852951031001153	14	0.1272851399792508	0.44708616168363324	-0.27746057351324793
Si	12.004319161421545	12.311926903766103	7.285744383492857	14	-0.11151269439280241	-0.44138447852567286	0.24379966266186928
Si	13.273659749488484	13.643488593074128	5.8717569194276615	14	0.12258747344880826	0.42399532191391537	-0.2676124688054847
Si	14.623388019948402	15.017475289944317	7.32097037455163	14	-0.12667167424986345	-0.45188512976368966	0.27508101553945086
Si	13.389254195653779	10.960839905063391	8.772689786010185	14	0.1362359289302823	0.4548290453552592	-0.2811881620063986
Si	14.733701371434156	12.34888014605805	10.222326241436154	14	-0.13867487943697476	-0.47019268519580404	0.3006396021954469
Si	10.691943099447508	13.726537652367204	8.658833806995162	14	0.12157497217373392	0.48278133106431304	-0.2775899001108514
Si	12.039992186890387	15.109447412426217	10.107250932005135	14	-0.13983264816263746	-0.457186748933835	0.26177091751810827
Si	10.782010118296528	11.049862241348373	11.522821442655095	14	0.14245826091557268	0.46269045698214395	-0.27629380591896474
Si	12.125004031675706	12.436971561223855	12.966011950297146	14	-0.14376181131288773	-0.5087155562075827	0.27478353865390975
Si	13.427410745623014	13.762319632459288	11.601619669367823	14	0.1522338604533077	0.48797573514260834	-0.2841133085291311
Si	14.756511342264844	15.160758630878165	13.073186447269181	14	-0.1143985030041366	-0.4247237160511133	0.28308126685362367
Si	13.535966402672038	11.110412170941778	14.449502850348123	14	0.1170146026673873	0.4783392324026932	-0.28638385163735386
Si	14.866954477934167	12.525341772043252	15.90186958045065	14	-0.08245920427512912	-0.5138145722785004	0.2411151715971027
Si	10.754276359859581	13.827001826366569	14.297184287054463	14	0.1573629584564711	0.4679550522356792	-0.2570300564182873
H	15.858878970211947	0.280303393305098	17.28563335248302	1	-1.0207591511415652	0.6295762753233795	-0.9103867419582485
H	0.4349789014633208	-0.022878868607150382	0.1646304357201126	1	1.8396407689768075	0.9591374699335761	1.3798651740961152
H	13.604620633506073	14.316546164514286	2.2154352408062126	1	-0.8510194058949652	-1.0276605120419067	1.0393497852694278
H	2.333018108845692	14.790202354954987	14.89820042069683	1	0.8785991384431295	-1.0642198299206882	-1.0491575236236645
