68
config_type=vacancy dft_energy=-6819.732808072519 dft_virial="12.895027041042628 -4.68538024605167 -0.23736765409246044 -4.685380246051671 7.966432646955334 6.845075108656469 -0.23736765409246044 6.845075108656469 14.235043452815829" pbc="T T T" Lattice="10.842360470700001 -0.0002819013722382 -0.0038056685252157007 -0.0002819013722382 10.834055222579444 0.0006505416282420001 -0.0038056685252157007 0.0006396992677713 10.841558136025169" Properties=species:S:1:pos:R:3:Z:I:1:dft_force:R:3
Si	6.909534910356025	9.41699774155665	9.542489390116625	14	0.32211398805038766	0.4497138313208246	0.5063064305226039
Si	1.3011981855049894	1.1515887903139885	1.3775739411326944	14	1.7923979942717465	1.3446749698003126	2.034377828588015
Si	2.7335607425682253	2.611886689129983	0.15593374405356034	14	-0.2689576711089862	0.04580989771014236	-0.11134968631550503
Si	4.104871052056996	4.033388453709718	1.4673215799289137	14	-0.30922529419101735	0.3030009053214709	-0.043235449953078084
Si	2.829879936045736	0.012792901119378931	2.8355808491812295	14	0.03397381436884067	0.05182602704875684	-0.45014783389886565
Si	4.1745115333603025	1.398231890537519	4.198756135608835	14	-0.10239761181181344	0.04540340595902694	0.12126926775116832
Si	0.024206653986884822	2.5933711901541683	2.7842249245757125	14	-0.18300973402494816	0.27619456125360703	0.1292643768547008
Si	1.3225077607741034	4.066103107957962	4.175219539499039	14	0.6248714096980406	-0.5332120192558255	-0.42644815638933664
Si	0.10128716304518527	-0.050737910058687725	5.479456838643966	14	-0.0619096450038456	0.25717532386887565	1.039612809343679
Si	1.333222181391249	1.4495368560488247	6.869683814445968	14	0.4439406714349641	-0.06097967620954803	-0.40750168128516545
Si	2.7826506138353664	2.800414737230561	5.5288828230856994	14	0.04785341221859604	-0.19665998928014633	0.285066931492374
Si	4.164959413785616	4.172150067249784	6.925391862544424	14	-0.013845916370061436	-0.5429565084191867	-0.31923152187596965
Si	2.633620200693501	0.09382328209715539	8.273182923700153	14	0.16017034835554075	-0.6068253356769853	-0.15942472781269784
Si	4.113148110040329	1.2705782752996857	9.69681521211238	14	0.3700725584765778	0.5909451607776226	-0.6525074494527162
Si	0.058223475727659006	2.728150404693346	8.324754611279037	14	-0.49708901794987315	-0.3493219387692587	-0.04489072755818941
Si	1.3849066295190287	4.0477394020287365	9.674097214218124	14	1.184228227622856	-0.23045254072391658	-0.5086368803847862
Si	0.09986139264328821	5.3615071360274085	0.1452475135736384	14	-0.5471317263485752	0.6186722176606315	0.06333120913535546
Si	1.4089669116395591	6.764658205510485	1.462836095402185	14	-0.022106877763697214	0.7206525390789849	-0.22689310251870357
Si	2.7313922704740854	8.242589035159979	0.10509825275063632	14	-0.1551132413013415	-0.4032940674287431	0.08783152884157854
Si	4.176504359214817	9.46408286037276	1.4351609703007233	14	0.07457208159504287	0.018194169687495865	0.8989957169478643
Si	2.703369105601514	5.398346224198706	2.809439918086372	14	0.41743411824742954	-0.09724537386076872	0.10879812139579005
Si	4.110161039730651	6.761398991952992	4.1383219025811995	14	-0.18544508498419243	-0.30537326420037153	-0.03323127915238191
Si	0.05078019526452346	8.21059756635513	2.768082818306934	14	0.3658474611039784	-0.0968633076101947	0.2859328797641999
Si	1.4951972886990834	9.510729947825851	4.1921141055844835	14	-0.02805075904281554	-0.6622879340905595	-0.4775547881695161
Si	0.10030809789468105	5.481932149539427	5.508344139646052	14	-0.48673877637308505	0.3859077390328378	0.5690894800037039
Si	1.4416522915145313	6.797198297755149	7.035439652849934	14	0.1310857478634937	0.18839825655491452	-1.2386040198176036
Si	2.8301488265854093	8.1287735245909	5.539635191964492	14	-0.4937676640973059	0.20180502813629467	0.9111318482800274
Si	4.134154099216262	9.538149193220203	6.960903845794108	14	-0.33157848384438476	0.24917147300725467	-0.5552397069756623
Si	2.7904310917091406	5.452917992919834	8.311565964002478	14	-0.0965784291407223	-0.45953648208591835	0.28022785416932333
Si	4.118047772737039	6.872436689769478	9.588764584605574	14	0.046923700534830505	-0.53495702843661	0.6146265834393785
Si	0.1765363974199845	8.180334369809312	8.408540036052418	14	-0.47286766317088613	0.7594433192651231	-0.3817734016780397
Si	1.2168489579871318	9.831960898435469	9.924442980542397	14	0.8504000266233415	-1.6379825509542933	-1.3465331076151836
Si	5.565635172373231	-0.037200138774971706	0.1476696969027928	14	0.3297486281880354	0.09195866710148022	-0.289980313759177
Si	6.816311210792899	1.4708518524981737	1.521086677031021	14	0.5825975531346979	-0.9936311617981507	-0.8270937282277951
Si	8.369335144826415	2.5211198684495177	0.09061394339782818	14	-0.27398161090455553	0.5083556014627619	-0.08530670341719311
Si	9.545387553070443	4.060883595627367	1.4491736369730561	14	0.031117316358156153	-0.7205016151966922	0.18507510292862311
Si	8.159154902865847	0.033919240496537884	2.8132228176545997	14	-0.2508077244329969	0.2556514297456239	0.11969857951108985
Si	9.514420687330077	1.2940433118303747	4.223286976173793	14	-0.06782344435071819	0.5812510652785363	-0.16855677968879978
Si	5.500644979475807	2.770355377061593	2.814611724030896	14	-0.5289527261824682	0.054550370245985746	0.579510426976796
Si	6.851245296229495	4.054259997615816	4.1997211056907275	14	0.36393095919834006	-0.19573104892797683	-0.2674988259503342
Si	5.56245293957508	0.028528418870505844	5.567313569774095	14	-0.19324890385190588	0.3045327698712151	0.541849390468331
Si	6.914829234973867	1.4209162771143178	7.012773698285936	14	-0.19807923941686809	-0.6401509743946165	0.06100204482583332
Si	8.188151711708688	2.7322173741059057	5.596476266732137	14	0.3579983907826304	-0.19209859133167165	-0.3721690377546265
Si	9.547785883206561	4.136069944311436	6.876210915449329	14	0.7333214034334825	-0.7455017577771521	-0.24667981484149915
Si	8.40893903491774	-0.02597721145175013	8.295802256114127	14	-0.8841923209565797	0.06443498464929504	-0.060033766562265556
Si	9.894404220858323	1.0090833097033902	9.799913049356173	14	-1.656694541253267	1.4482624891542906	-1.3907568904533265
Si	5.472983949442958	2.7535768242331846	8.32148997654131	14	-0.4573325306054874	-0.649066539202762	-0.21573399120819686
Si	6.941266162509575	4.004099985370217	9.561442920455455	14	0.1566219659032044	0.2671915788645765	0.730620457294667
Si	5.4765022954157	5.399933545771617	0.10613369817558817	14	0.3948346167043919	0.18139687965761928	-0.19005764792853808
Si	6.875862875678219	6.802241079610072	1.4768899630443064	14	-0.5225391039613589	-0.6086217669641727	-0.18303878751506586
Si	8.27790910862933	8.063683581977147	0.11904586526014481	14	-0.38332686351247314	0.39533443957862874	-0.4796181001889349
Si	9.538322670987736	9.61761068463787	1.3905847736975345	14	-0.25163150657757233	-0.8410198630838452	0.40317451103135626
Si	8.171586753381552	5.3784418188465954	2.7972747896382466	14	0.242249800374884	0.22675991926311992	0.10293574415532043
Si	9.516808175105725	6.807919223788577	4.112781638256418	14	0.6906824499146789	-0.4138433125573107	-0.07425249320374847
Si	5.511499266543026	8.086411337995827	2.8761258561614125	14	0.07515649383431253	0.671618475297377	-0.4615830819207562
Si	6.890322247601945	9.495293679223716	4.223027843758544	14	-0.44532649720252393	-0.11058066871424872	-0.24138642320837825
Si	5.507759736416681	5.429663298182276	5.420101420483166	14	-0.35753893426191996	0.23761641147744517	1.0478555158895417
Si	6.804535323085672	6.770798234245042	6.873492735679323	14	0.05020545936546751	0.23715592651460665	-0.6648878357902933
Si	8.23986868691788	8.104654693723827	5.506685258494034	14	-0.41610665657063706	0.03271165876717998	0.5520337957519695
Si	9.606456064185613	9.41467747641592	6.8745205914519465	14	0.4984820428123294	-0.07865114018545778	0.188840743780512
Si	8.194066219345455	5.4211737299337175	8.131118727160711	14	-0.2434073119900147	0.34628469205456774	1.1893246725884534
Si	9.589322966169814	6.711635810100621	9.586163502328652	14	0.019936864873492235	-0.0614946686051737	-0.014597193344608702
Si	5.481127646392501	8.140250163149135	8.225427747006954	14	0.17393398935535745	0.10132597511437573	0.005642547735596974
H	10.911046824281886	0.08089376723584564	10.713638882955802	1	-4.013891869191518	-0.2834327369508879	-4.930606358453183
H	0.45607196660347776	0.2152761513817956	0.4997861955492461	1	2.9031517451607307	1.082239678667478	5.435556016698344
H	2.1497354110105835	8.952887248900193	9.008586623110276	1	0.6703408930637952	-0.592964249785535	-0.3826146673387921
H	8.626102841257484	8.661275458624434	2.3454703761160367	1	0.22747160121573687	0.21821022274203147	-0.23094645005591702
H	12.321452517155908	9.41467747641592	6.8745205914519465	1	0.03302816183209021	0.03140502304348072	0.08162102394076085
