224
config_type=interstitial dft_energy=-23336.58159806466 dft_virial="44.35558274054461 -6.61302866664409 3.627786999384114 -6.613028666644091 52.44127741683968 -11.007080906822209 3.6277869993841145 -11.007080906822209 49.72742135569425" pbc="T T T" Lattice="16.3199774331 0.0 0.0 0.0 16.3199774331 0.0 0.0 0.0 16.3199774331" Properties=species:S:1:pos:R:3:Z:I:1:dft_force:R:3
Si	-3.567530746898227	-0.7609842277280199	0.883400378453703	14	-0.6197608236531822	-3.7113961860654565	-0.1569500389420553
Si	0.040065544598260505	0.0607919159382975	-0.1191684752164962	14	-0.06332401004045905	-0.7113803619629349	-0.13407697179295397
Si	1.366944989819023	1.2584987397760734	1.278523352086487	14	0.6179312251073649	0.5065378300014174	0.562442144308993
Si	2.728031107739563	2.6523880123371444	-0.0590456783529558	14	-0.3246053891056112	0.4924425164153015	-0.4697000614164637
Si	3.9917685602716615	4.02218899820696	1.4084466924313963	14	0.38764246379234174	0.46662733344835466	-0.1538783394160744
Si	2.6578388847998	0.07820533185941521	2.90611470148955	14	0.30083500619977815	-0.6527198227521605	-1.3577726945222108
Si	4.143576990354358	1.4299237827333557	4.075082045067637	14	0.04316345900411394	-0.050851321021888704	0.5503584635253611
Si	-0.0856309215914757	2.5696457267513275	2.5392416087934624	14	0.882288674577542	0.9562316067007448	0.7742631703304566
Si	1.319829214969663	4.12169190061657	3.890290940592646	14	-0.3465603145448876	-0.9992665104388512	0.6460812288155381
Si	-0.0501676106293494	-0.12396654858182761	5.538412821606548	14	-0.13810126584004973	0.4456833666209605	-0.2209998720143922
Si	1.4745589210128844	1.3083889107890603	6.734112288220053	14	-0.3872125749828129	0.3341184787901591	-0.5215132329386197
Si	2.7832905513280397	2.8749598645697625	5.432006568742736	14	-0.9081439667874832	-0.006342145493209266	-0.05740763958826631
Si	4.190447965542221	4.122426299601059	6.853117563662218	14	-0.5461968724541695	-0.08669818561645726	0.15157334349656165
Si	2.781723833494462	0.0105427054217826	8.100632958625816	14	-0.6410655165569932	0.07382183306262365	1.3192125424832901
Si	4.080353397778529	1.4211599548517813	9.527586505466346	14	-0.7050729263915476	-0.16409102685823457	-0.29284555352795
Si	0.1381322889937584	2.576908116709057	8.161114794992884	14	-0.27876129569471086	0.47396141137407705	0.31672880795733754
Si	1.414289244352446	4.065404298449809	9.581328191153544	14	-1.5156565589165438	0.6070199683497204	-0.8534341880116483
Si	-0.0187026941383326	-0.1228567901163768	10.993169438891027	14	-0.6113497097088498	1.5403155158210202	0.16582935116518668
Si	1.2517096291639038	1.4839918679692161	12.212630792647124	14	0.17296468264966164	-0.7980872893374806	0.1936209427917313
Si	2.69863882838255	2.768684171525415	10.879092796633657	14	0.7939794343674801	-0.4227928159556821	0.9079441919041077
Si	4.161496325575901	4.088333866743314	12.25687425146826	14	-0.6337219255415862	0.1620737376240464	-0.9040129718696013
Si	2.593880893239481	-0.06831542553495659	13.500277012118714	14	0.861813163139479	0.8780244964040765	0.014065745874934097
Si	4.068178694613436	1.303623477378595	14.819714547629983	14	-0.5545444800970941	0.6055580378646843	-0.008354035406225138
Si	-0.15446858640429148	2.803935322780911	13.57663818652819	14	0.581992829163399	-0.24261232622502488	0.05968178224393729
Si	1.3105268278327962	4.149827541711234	14.86913143929741	14	-0.41620153035695057	-1.0527964089832702	1.3431058242234262
Si	-0.0316117962879147	5.455670536020731	0.0908859543249339	14	0.21010738432558482	-0.8761133938196105	-0.6298339000764583
Si	1.4853464260961633	6.71193343888847	1.2505019508338544	14	-0.333336091441238	1.6825732305216212	-0.5466439876693432
Si	2.91569452824278	8.149641850857414	-0.0224236489930794	14	-0.28505047641832504	-0.6995643332431304	-0.03703188703662479
Si	4.174976626935642	9.481384649353242	1.4192341975146754	14	-0.6385815717071982	0.10086343326728107	0.6274620554186218
Si	2.66457903547967	5.553051841364039	2.7079412155194165	14	1.8440962373860919	-1.0122529063003871	0.8394283488906735
Si	4.224899437903495	6.72525054047388	4.211892415889314	14	-1.015510239630483	0.2065093795405696	-0.9312548611786982
Si	0.2206297749180789	8.150376249841903	2.59908696604064	14	-0.8606674786088209	-0.06777947844974365	1.145683502215856
Si	1.4083487725667976	9.492335354210852	4.1702764734349085	14	-0.4961109694860888	-0.6228772604117336	-0.3806577990796274
Si	0.041648582409271204	5.412667395484513	5.407020683292661	14	0.09498434384223048	0.3013852227382898	-0.6322723363620867
Si	1.3905273572098524	6.797303240841016	6.720403507176249	14	-0.5214903501012704	-1.1786522715150507	1.529355665172825
Si	2.7147792860638855	8.082795223291436	5.4790570636823634	14	1.1588017957803154	0.7893079931113031	-0.6752061956611115
Si	3.9674354739189095	9.572417483475073	6.807960186104831	14	0.733031639863902	-0.9882374970575439	-0.007733884803005422
Si	2.7592512245690832	5.399497173696001	8.220976472217494	14	-0.2526293525523218	0.6104889036476643	-0.7981145430538742
Si	4.131402287189265	6.8604125935748135	9.522315152755455	14	-0.5210933714398396	0.11885834229246547	-0.5340098332366674
Si	-0.148185395092548	8.050922307364592	8.040787601378637	14	1.9044290234970906	0.507593011624806	0.5846654931436929
Si	1.3848153651082673	9.478463373392715	9.42911176163502	14	-0.477622151128904	0.00972263476813996	-0.3991098506307341
Si	-0.27304954243319607	5.446515028680762	10.741286907188561	14	2.554046293459429	-0.9630918299159639	1.1961694691717515
Si	1.3489277347328805	6.714201915751671	12.121483718683262	14	-0.4649239761737566	0.22251759548487557	0.05974220321896077
Si	2.71517096552228	8.168507744770078	10.828598786455647	14	0.05240221175100203	-0.017576333079064282	0.31023625280289957
Si	4.163732162484236	9.55844758279234	12.152197916212355	14	-0.669189037880369	-0.42470674675600034	0.3748964662782396
Si	2.691653878041183	5.351255320403758	13.530974889670375	14	0.302551476111509	0.9162946277628847	-0.09471000690457067
Si	4.1188685445206445	6.626759476665121	14.95579051946717	14	0.6690674245987259	0.5433146633902833	-0.24390790619584748
Si	0.06808694585089321	8.222771669735137	13.518865466415015	14	1.0708584238573107	-1.4114735715704196	0.7478031541492166
Si	1.6237887946611507	9.442020863784602	14.872199595054832	14	-0.681744002269184	0.8214758631032717	-0.6019770023747819
Si	0.1664148098853207	10.793788274590844	-0.1080545705845551	14	-0.7251763988897855	-0.5740661114613825	-0.16654514688631591
Si	1.4533103103949883	12.031283203410517	1.3021057194773165	14	-1.2210019756853376	1.347635854686995	0.8366417849446971
Si	2.6902829999368025	13.55348013855062	0.149654193061527	14	0.9778651439750028	0.636806994815232	-0.8879201665602625
Si	4.094666017987357	15.013481639693179	1.3759046574297946	14	-0.7830023573136399	-0.2655321874909529	1.076925461081264
Si	2.61214294798712	10.82262567471513	2.8002959678133297	14	2.2000745107186823	-0.15026105134115805	0.04631049191597519
Si	4.005004061969906	12.190957862615967	4.244842450326743	14	0.48942095344306347	0.1883938856758703	-1.574896882377012
Si	0.012696942442951801	13.472271930843515	2.8169260248176586	14	0.4661953877545699	-0.04441224485810986	-1.292071954723807
Si	1.2810855885434838	14.924146083224391	4.117758786055193	14	0.2610600068970874	0.2795542245754445	-0.09311900693246304
Si	0.07139990126981251	10.883907189976423	5.483414497657002	14	-1.0863012537417158	-0.15864156913218072	-0.6336895296145525
Si	1.3161245800923493	12.340758935474394	6.750987144885878	14	0.5866678699670244	-0.3555517269599775	1.4318878907018637
Si	2.6881124429382	13.627915555622991	5.422606261741271	14	-0.021601655568288115	0.3767281217083131	0.46304552662685644
Si	4.041626091329782	14.924178723179256	6.85781771716295	14	0.9138631334616205	-0.48078281089896197	-0.4447575115951751
Si	2.79398013654672	10.9042092419032	8.150164090135274	14	-1.2598922576473655	1.1268743241357808	0.6569660031883849
Si	4.2199218447864	12.258522569189003	9.584314747023802	14	-0.4812381536511603	-0.8438673622259093	-0.2752239689952511
Si	0.0480296935856133	13.601787271752595	8.355812125769766	14	0.6172172291599597	0.04052421939298193	-1.227570121336188
Si	1.321249053006343	15.050560628421183	9.625555329997248	14	2.097488436886902	-0.6560943984848548	-0.693393423364243
Si	0.1673940085313067	10.907163157818589	10.877591358709813	14	-0.21070748030730738	-0.581819536664821	-0.6755152425205933
Si	1.5098263922458135	12.332207267299447	12.05852124574636	14	0.0382248799051735	-0.555603004157399	1.1673129257216015
Si	2.9339239430355524	13.683452438827828	10.932867122275722	14	-0.2958290641414498	0.8240418262127794	-0.8928721154068676
Si	4.248906124707585	14.996688382914519	12.375928486842723	14	-0.8112940289249533	-0.4113218295698414	-0.2061285988426557
Si	2.8637806800280887	11.030281067573895	13.493079902070718	14	-0.027236489987924644	-0.7930150127618925	0.5289974634150388
Si	4.179056621293918	12.176090363174414	15.128080521228407	14	-0.8687924285310208	0.49020694033943274	-0.6532898368016373
Si	0.0891560367170253	13.391961321895229	13.552419340017469	14	0.20809677996522905	1.7918796594392048	0.2803314697137253
Si	1.4329919384907785	14.947907970366984	14.975651932003252	14	-0.7986403340918444	-1.266511054073023	-0.20202665741489143
Si	5.328227832245654	0.0786786112049751	-0.0098572663695924	14	0.3741122791555944	-0.7168465318735697	-0.39774433659520353
Si	6.768759600310524	1.3294416816777592	1.2824727866252974	14	0.3622705393825884	1.1040773617041557	-0.1253336710412584
Si	8.233379655066651	2.7544205112488855	-0.035430671007260106	14	-0.6624663687997777	0.07772939892818471	0.5767773420214786
Si	9.50101758220526	4.124988536058057	1.4682757297011408	14	0.38330860866470007	-0.14498000101357392	-0.3037519251854861
Si	8.085259539883834	0.1286667020825604	2.751221795671998	14	0.034227068242875254	-0.5925019650489723	-0.2114698130347313
Si	9.493086073172774	1.4377410519238105	4.058141908492079	14	0.8058003481873929	0.18591122637873528	-0.41751407962288606
Si	5.5012359130139465	2.748773799057033	2.688063483005901	14	0.12691644347634157	0.05757861809205615	0.32619921729357093
Si	6.906712369552519	4.04688112406324	4.215923450315289	14	-0.30264249323984227	-0.4233875126162324	-0.9951257453207529
Si	5.4269963356707756	-0.0238434870297591	5.474618029820561	14	-0.500628658644121	0.9134044482725062	0.7367761976521655
Si	6.793810765670333	1.4009395028121703	6.894015427109567	14	0.19287326536463223	0.23668515713048754	-0.9270809288019699
Si	8.357329883671046	2.794371816005114	5.523659562007026	14	-1.4332264081315327	-0.7608887946761103	0.36328972553149513
Si	9.575012359886935	4.19402204060007	6.848955969416778	14	-0.7957439839486977	0.9115982467851022	-0.2036389975611563
Si	8.134676431551261	0.0923547522939129	8.226933263980577	14	0.2833450622594708	-1.2120236759073806	-0.16807495455180402
Si	9.586746423661333	1.356532844216705	9.530458821494573	14	-0.30362131303522266	0.7863422231245122	-0.8599146589710815
Si	5.454332297871217	2.7607689824703616	8.240544125159783	14	0.0906247776613874	-0.042549993274726604	-0.5194440073769646
Si	6.781505502685776	4.231035749418341	9.419988894249919	14	-0.5137610932878413	-0.20746763049338882	1.0328117215508235
Si	5.3586645901583845	0.1037460965422167	10.904943640887687	14	0.5350117929799293	-0.6746618926648361	0.24244494726868324
Si	6.813933297845344	1.367287709345118	12.162185742401412	14	0.07399769666652178	1.6137110596215634	-1.009800843156562
Si	8.201278259455744	2.8366731975117094	10.650972152073786	14	-0.4816670140185609	-0.4704248560062134	1.2771816553727013
Si	9.48396320578767	4.101928407945087	12.182308274576425	14	-0.6808590278179891	0.3774817126776485	-0.32805504111365386
Si	8.029069857581673	0.067238307024372	13.538775838883396	14	1.0342183732714763	-0.5663337693215691	0.7348717799415319
Si	9.458961000360162	1.5159463837832259	14.785148835426678	14	-0.3013173455578379	-0.6250256760172493	0.30615873687567674
Si	5.473002352054683	2.755122270278509	13.537502880643617	14	0.26705196784569246	-0.8986085084866501	0.4746137007937986
Si	6.826679200220596	4.080842997101521	14.887197654315852	14	0.006654277679075243	-0.03169247261827328	0.9055237533557202
Si	5.53805378210302	5.326644794434643	0.1195438346974575	14	-0.7564089007662843	0.2003333274510419	-0.49059389169011497
Si	6.8428849378116645	6.824639203041459	1.4347055361212542	14	-1.1353150057912949	-1.7526466491380013	0.9839005566035184
Si	8.066344686038871	7.991909268966503	0.08505972238131719	14	1.9350745420289996	1.7876203663658472	-1.2780571167342119
Si	9.49933662452965	9.41572938013988	1.4421474458307477	14	-0.2901443502786024	-0.8389539799591064	-0.6609823268089884
Si	8.146361535393362	5.518225009521804	2.8972366337659436	14	0.3145793639096937	-0.4791411601520474	-0.9321948572837443
Si	9.538553530301389	6.926312662449671	4.075587964368063	14	0.19881714664375058	-0.4229630231278759	-0.09979488189622754
Si	5.51057094010568	8.126467482902413	2.8007692471588896	14	-0.6886972994969925	0.1552885906841756	0.20496620212741673
Si	6.641871775768172	9.591691376823563	4.214209852684815	14	0.6320267958040127	0.6567649427523493	-1.2299347668991283
Si	5.583896598712598	5.377073524702921	5.5085309429265426	14	-0.2155887237576085	0.34954048272147126	0.3310568065749267
Si	6.925137624074488	6.898568700813402	6.6754582893254915	14	-1.361247029141327	0.3313164882122617	0.3562862917499438
Si	8.13302811383052	8.25901833961405	5.290430764510593	14	0.6670833026231677	0.4366909257637425	1.3576428537035434
Si	9.561238298933398	9.380102869403423	6.884957839634196	14	-0.31366559307891306	0.6099674834887381	-0.6553634332423368
Si	8.050155268425236	5.590114510114609	8.132456914620361	14	1.596154266942932	-0.4513567676203992	-0.3169085282192159
Si	9.613233747035256	6.718951029184703	9.47916513242234	14	-1.0865835611058683	0.4593781019981972	0.33229916466562226
Si	5.442337114457889	8.243808120646403	8.111306223867063	14	0.17946906488857226	-0.6191517288028392	-1.0876479987084096
Si	6.955150062573959	9.422077851361356	9.329543579315677	14	-0.03262912628640323	1.5173275202641083	0.34672280840112096
Si	5.400786451913215	5.561978869019945	10.875535041553242	14	0.9722974154042221	-0.5575099929733529	0.4426371210376491
Si	6.8666957848865575	6.952914225665625	12.178424119947348	14	0.3874012941133118	-1.4284264116093481	-0.4085383509502492
Si	8.271780561966736	8.208916008894432	10.804787939380752	14	0.8808388282875106	-0.5317524027655776	0.6331503688289174
Si	9.67053318780287	9.497133427576182	12.324194158379797	14	-2.094802660269475	-0.04430991486636796	0.19476534176972923
Si	8.155500722755898	5.462459646632901	13.5945412017723	14	0.43349247074547836	0.868537374883262	-0.49479430645164096
Si	9.561173019023666	6.854488441766598	14.989719752550586	14	-0.5250603298382961	-1.2688340477297766	0.2639093058128754
Si	5.450513423151872	8.106524470479165	13.481965997438776	14	-0.6189884636150098	0.3578680357428989	1.3977518395873214
Si	6.864198828339293	9.412008425285133	14.956018999151235	14	-0.38674103426709777	-0.1583042401141773	-0.21931708358235527
Si	5.5168378114399905	10.735770754816173	0.0066911907475709995	14	-0.08493569291949575	0.14504170754125748	0.16487572820194377
Si	6.747984269038188	12.203312085532824	1.328772562603002	14	0.19496845909002092	0.25240232395255274	-0.1329333441465521
Si	8.015393716492735	13.532280487865023	-0.19171077490662572	14	0.18364659681274886	1.0401810236194315	1.1924891890164915
Si	9.293949708534086	14.948903488990403	1.3858761636414187	14	-0.27875461082087843	-0.46601026817151914	-0.37474219995903074
Si	8.08964961381334	10.762470237896725	2.57134300440437	14	-0.5417015519124225	0.9148306403935922	1.8734271497678092
Si	9.41525610079432	12.211586314091406	4.035081780379109	14	-0.37723385812478627	0.006459645006340034	-0.08662310934110894
Si	5.418673147179894	13.574043310116327	2.7568358679089844	14	-0.2108707454951368	0.178544752525979	0.2693464222333926
Si	6.751917383599565	15.08093210642418	4.099823130856217	14	0.1265055808461819	-1.0516214138519624	-0.6314439262279351
Si	5.406302604285604	10.949937818670744	5.657728176619942	14	0.5518630743587117	-0.24080766740081294	-0.4619551208605816
Si	6.952506226229797	12.348184525206454	6.754430660124262	14	-1.5243137276400147	-0.25140936307791156	0.8154165391952787
Si	8.106899829960126	13.705974007685507	5.425201138153133	14	0.9362646598950067	0.3234231948794071	-1.3119291153323747
Si	9.527504905579182	15.15146704889004	6.5623282057592425	14	-0.655507158029733	-1.002314812906419	2.3968622839332396
Si	8.240919484640743	11.004022223884038	8.05996357486253	14	0.3966626725870172	-1.1293708674016445	0.6333575999177212
Si	9.581116031446916	12.358449791011873	9.508247332208123	14	-0.3470660509613608	-1.0756599630426873	-0.09041497546726332
Si	5.489844568765643	13.568184438217845	8.196480186090412	14	0.6354921315545082	0.7961620456737538	-0.0629100620839152
Si	6.802215554048379	14.981510803901736	9.73623741694853	14	-0.7266259880692849	0.7690579676098167	-2.147372508087351
Si	5.574153572185038	10.719613977157403	10.78208685077131	14	0.42588354166103215	0.7385787995921214	-0.05626272638920437
Si	6.861897711521226	12.126640831552121	12.251912978328598	14	-0.3792130950002362	0.5951147222753067	-0.7778948565951658
Si	8.176961493080425	13.626218277969947	10.83698725485626	14	0.47282883948055193	-0.7929587055553813	1.9408302183986836
Si	9.501751981189749	14.898540038631856	12.425916577720308	14	-0.6406862785222713	-0.09644935965365085	-0.9791486397508206
Si	8.17030294228772	10.902381404430692	13.668650219296007	14	0.4539011334452178	-1.2628264030387186	-0.6134996679775576
Si	9.510401569229293	12.238302117149392	14.927605918440207	14	0.02783889996443534	0.8577968395188754	-0.5600253053080538
Si	5.5177517301762435	13.48119895849942	13.705908727775775	14	-0.38285326591250185	0.03974054649140079	-0.8077165929824993
Si	6.672259573748604	15.040589122209559	14.886365335466763	14	0.6017376324694762	0.1006605730575214	0.8464682923677712
Si	10.680576591137429	-0.0007996788942218999	0.0034108752835179004	14	-1.889275700071734	0.7557051892401597	0.5427256231614375
Si	12.096824232781847	1.619741440257742	1.2097020072511044	14	-3.0992599752391734	4.099784013290109	-1.6060247402669807
Si	13.621975083837341	2.980174759080958	-0.058458159165364204	14	-1.064577470670721	-0.996450893002757	-0.9120492186582561
Si	14.864170166157749	4.1038215253273265	1.4677208504684154	14	0.6534675001792595	0.584179040017121	-0.2687180440931484
Si	13.811792741361726	-0.025524444705368403	2.7742329638526693	14	-0.3559381640895957	-1.9195149839630596	1.809418968601659
Si	14.948707649261205	1.3654435518951777	4.0470443238375715	14	1.018013210659647	0.6614057878552166	1.3413567012741294
Si	11.038604256064778	2.758728985291224	2.780320315435215	14	-1.8627804597476083	0.32031858520532824	0.5349174334146799
Si	12.245580827084552	4.153989135956675	4.0896231449605285	14	0.7076743707544735	-0.04548362444501556	0.8125960366590764
Si	10.902234524633792	0.0715304610892773	5.293743719929513	14	0.5618261074742855	-0.01891973560884165	-0.5008443743804815
Si	12.255748173025374	1.306250993745324	6.719424308530263	14	-0.6871016715353087	1.5056791276111772	-0.5625665858064882
Si	13.669727337806592	2.7217479164278195	5.4769028266611945	14	-0.42996080047772295	0.5854237121026047	-0.3402317959098752
Si	15.1449880178491	4.04156081142005	6.798021319848073	14	-0.4694663479428622	-0.6116602992315238	0.589058483693698
Si	13.455462354087423	0.042317701484028296	8.084508820921913	14	1.3942517939150039	-1.4606184499913262	1.0928591149712856
Si	14.949964287523555	1.211921524182006	9.533314817545364	14	0.257407494679285	0.13343573812610904	-0.5450283050861621
Si	10.844086445039657	2.7659913752489533	8.021905387488541	14	0.9225938357972474	-1.0862950830889477	1.0798632060200652
Si	12.156490070277261	3.9987045506807286	9.546370799491845	14	0.41171340891010005	-0.1508246376273345	0.06575293323640294
Si	10.689291459086704	-0.0096777466178283	10.987930726135001	14	1.2306647036995182	-0.5966740976519765	0.11157928602059425
Si	12.200994648737325	1.173895976762883	12.379192482329344	14	0.27418524244591125	0.5261031701561482	-0.6019890865697867
Si	13.496327577579905	2.4876868000822996	10.819051599657282	14	-0.1194196145838538	0.5909754998204003	0.6716724685091
Si	14.827287017158941	4.026840191775393	12.12416019498229	14	-0.7100256465697489	0.03778393534276811	0.038353692281712926
Si	13.657209915115404	-0.1673450485990074	13.765182885812793	14	-0.881071513318984	0.9072083415614813	-0.359015520047281
Si	14.893317645853264	1.3924694345243913	14.986259917334769	14	-0.11739332648104508	0.5603168686513587	0.03351487206919424
Si	10.87052480848128	2.8427115891619565	13.458106190431584	14	-0.0073297070466781435	-1.7613503548677663	-0.13803184599640575
Si	12.121189959089465	4.151524819364278	14.764944703364499	14	1.3862955085018056	0.41516074692335453	1.1340839605640078
Si	10.913299469333435	5.362254985193666	-0.014312620208828699	14	-0.7285409473117312	0.8384078771891069	0.22472771761807486
Si	12.28071773849802	6.822370726178258	1.251089470021446	14	-0.024604192361157042	0.0901264974503427	0.034303430070883656
Si	13.752306423618078	8.152987446231199	-0.0912939537607614	14	-0.4355714665073501	0.1748927545292407	0.8934670691779499
Si	15.100434479456737	9.493673592360366	1.3592909204028991	14	-0.3402014568670974	0.3775873851063066	-0.43878740504179137
Si	13.531448169015937	5.522500843609276	2.7205565580752027	14	0.7493306478199167	0.578000416822273	0.6865367996964721
Si	15.02301250651411	6.941294401733257	4.108064719459932	14	0.24987672719657128	-1.0399732783095637	-1.0466306413150233
Si	10.97112114937891	8.153166965982965	2.7585005056071608	14	0.13152283576791884	-0.14280047503368437	-0.9471180667829479
Si	12.295781077668767	9.516994840112265	4.048235682190187	14	-0.2317635473266601	0.5600633576667919	0.6918029376131994
Si	10.832711420768787	5.501643912449774	5.3673304981753605	14	0.544678891873154	-0.01620130595384909	0.7507154451453484
Si	12.331619748111857	6.628375154430998	6.836683346387086	14	0.032127503638442335	0.41565954135546335	-0.4170050007694968
Si	13.614304694443785	8.157671279754501	5.4526676601730415	14	-0.6708273461903673	-0.27339539889156184	-0.012849613058504053
Si	14.986488397018832	9.448826294374205	6.731207332236961	14	-0.6488467096978894	1.6047870101658614	0.3988625102989359
Si	13.681640921332754	5.250789539325594	8.235125892651993	14	-0.13553401717788188	0.5716197047492616	-0.18004036449070918
Si	14.90803826549792	6.890784071577813	9.534963135266107	14	-0.8706976175732505	-0.6732652682549317	-1.4595807518841144
Si	10.97724114091632	8.013990198433488	8.19790002412709	14	0.22125261166736268	0.21058972368364462	-0.9089577216213099
Si	12.264169281380854	9.497688306808907	9.420968092895905	14	-0.23533481261634573	0.8809331878527601	-0.3481078628370848
Si	10.851283555087656	5.486809052963086	10.934156400492936	14	0.5609712149553363	-0.15343765196420103	0.08082783794949516
Si	12.228379570870066	6.95909949711277	12.179305398728735	14	0.7248262143451814	-0.7384872682427241	-0.19951982972774704
Si	13.614549494105281	8.276627595264365	10.746852019493248	14	0.17213113030486962	0.016530150324296028	1.632945498521591
Si	15.14420465893231	9.519100117201134	12.166804296014979	14	-1.268283831191265	0.37561200488883684	-0.3653898043569921
Si	13.571105714178367	5.514977334012617	13.519436665625173	14	0.30392598901566015	0.10927223321682539	-0.18987767055612773
Si	15.089059455185865	6.771664556293616	14.932844631196232	14	-0.4778689772396381	0.26192801205316935	-0.800542952028754
Si	10.923613695071154	8.134072592386238	13.647581128429875	14	0.2727122562079985	0.35082140739196904	0.2964186185913598
Si	12.27667038409461	9.520324115508618	15.05243742582599	14	-0.41817896745867644	0.4794715471856864	-0.4185448357457335
Si	10.573550179131159	10.86763617247562	0.022309409151047697	14	2.0417530441988596	-0.9424877632118932	-0.022139273690731077
Si	12.039279992352736	12.141508330993675	1.33755271046201	14	0.43558175092863066	0.18965629838806297	0.269006264999537
Si	13.477396403757508	13.439534056112716	-0.0262588436898579	14	0.9960603421046266	-0.27117730633187004	0.07248151585923046
Si	15.16577966909887	14.981461843969438	1.320955293412547	14	-0.15988315589128024	-0.8337667749757075	0.02888559694026762
Si	13.606046785862636	10.912238670800283	2.671661905685635	14	-0.3766080510898622	-0.9501337162129495	-0.7918474738360133
Si	14.861053050468026	12.196930974356482	4.042491050133736	14	0.827053876095333	-0.017696660808047212	1.152419798154644
Si	10.789561400435671	13.629563873343734	2.69163755806375	14	-0.0922810837086268	-0.320401117686105	-0.2745218001323187
Si	12.21502982932979	14.886757014925157	4.01608532664698	14	1.0286285331949425	0.4604453678165907	0.5530632663221569
Si	10.744942582133575	10.83156902234847	5.4297054519246695	14	0.43187601683070126	-0.5432586132943041	-0.5158539730184418
Si	12.073584584917112	12.212108553369264	6.712423038211464	14	0.7426627432826446	0.32842348050603104	0.7754209390561192
Si	13.633040028536982	13.514197952869148	5.541970576686964	14	-0.9013752749216614	0.15022916963518823	-0.9585689985472915
Si	14.95583947939947	14.77596068813184	6.9391728046669545	14	-0.4705621530303093	1.4171641989755035	0.05639385276053192
Si	13.584553375583242	10.962895880752626	8.094349767314071	14	0.402162781087878	-0.42365593601165585	-0.06375929817116013
Si	15.08282522380642	12.230174768387707	9.570540686070267	14	-1.278355622061881	-0.7350571566351145	-0.03727485648937879
Si	10.849814757118676	13.691318667950583	8.123888926467982	14	-0.47303889878520794	-0.04641385034984514	-1.3653032048943927
Si	12.07852953807934	15.021511068590264	9.466370270114789	14	1.1468232732042776	0.24432828191569173	1.114604238216438
Si	10.763726876159073	10.67842235411626	10.78861484174455	14	1.0838998413726975	1.69876168094887	-0.5830287274968866
Si	12.223467257662703	12.050442856916977	12.106665179174007	14	0.8800271303379399	0.24958130719528626	-0.7702573882416659
Si	13.66145310924801	13.61223205730978	10.803400741298939	14	-1.0460966227400283	0.17177451799696508	0.5581566259613703
Si	14.981886163382697	14.904219390778575	12.372778731198133	14	0.021396738474272314	-1.134935253535509	-0.4712018440339622
Si	13.638735700661135	10.763645276271907	13.49804117521038	14	-0.05461799031590564	0.43569025157314095	0.7772168561222427
Si	15.047117113182798	12.178244600195583	14.92130640715103	14	-0.6002636177894353	-0.8007753799496955	0.029944892332168634
Si	11.007955338445415	13.43671070001679	13.478342962448627	14	-0.8653083237116883	0.2696770663775636	0.8404009980332856
Si	12.129203068009117	14.884700697768588	14.993310147585868	14	-0.04957451011990317	-0.5125387898186429	-1.3942613070046885
H	13.023031912042573	0.6499463652686941	1.4230530722340207	1	3.2290000065781017	-0.4579840486936129	1.6809122964848058
H	-3.567530746898227	0.28631442009081975	-0.16389826936513666	1	1.7613701523787315	0.3543152824115183	-1.0756872167590805
H	13.056393209911313	13.96656814334176	14.141996476763381	1	0.582323987528634	-0.9794936820847845	-0.6160772010610062
H	11.56960736180555	0.8777471382708771	-0.8829515790742927	1	0.3654545962110598	0.4544487788784093	-0.7264825203924207
H	6.682431815682655	9.572417483475073	6.807960186104831	1	-0.15518677491349775	0.05695872459936845	0.09299199432964773
H	17.859984359612845	4.04156081142005	6.798021319848073	1	0.17680539977689885	-0.10137662588918264	-0.10947946430562931
H	9.581692126650303	6.952914225665625	12.178424119947348	1	0.03078332977706892	0.0551658928596292	-0.07226400034914593
