227
config_type=divacancy dft_energy=-23087.624650620637 dft_virial="9.49711778666236 9.663165475043236 2.9524088982843755 9.663165475043236 1.2352328038089635 21.695547967228254 2.9524088982843755 21.695547967228254 19.516678300181624" pbc="T T T" Lattice="16.3999889955 0.0 0.0 0.0 16.3999889955 0.0 0.0 0.0 16.3999889955" Properties=species:S:1:pos:R:3:Z:I:1:dft_force:R:3
Si	1.2630779524664235	1.428307841596086	1.576957341851298	14	0.24849681497124781	-1.9526380195814632	-0.5887995733879591
Si	2.6119442473683074	2.5492306894495154	0.042311971608389995	14	-1.415507892928264	0.7982528685200982	-0.7925887234998119
Si	3.729226297664736	3.8893721902057936	1.430275840275546	14	2.722267543903949	0.8570041677486739	0.3427622777659649
Si	2.856353283368244	0.0095611935843765	2.831736899885998	14	-1.0591354691500954	-0.2905292447450286	-1.8276964421015276
Si	4.0463528848707195	1.4855602031793764	4.053716479929699	14	0.25594350730999266	-0.8655068130424035	1.3452462694024494
Si	-0.1951434690574545	2.69189419372137	2.8082029156774557	14	-0.40389287785780564	-0.4572643963145035	0.8152620157655378
Si	1.1479172297400224	4.059882875792007	4.093896452968673	14	1.4374553621621122	-0.6952713586900792	0.16118182118848703
Si	-0.0498395665573245	-0.0769323483778905	5.368667597588889	14	1.049265252936579	-0.6711320221708048	-0.6173750950266168
Si	1.3023395261216504	1.1009148612789195	6.76514306054471	14	0.8705788325074596	1.1087133217069147	0.5580715223752734
Si	2.6678354098649715	2.6259498379704644	5.51808789732689	14	-0.7354438508752648	1.073787169927491	-0.023423026577081014
Si	3.9954801190066784	4.18542479155256	6.826167419596964	14	0.7014877771331332	0.13683756757519694	0.46416601432537696
Si	2.6823002001590024	-0.1387931068689165	8.224725681155213	14	-1.0385488859622019	0.23883511539919533	0.6854978160366002
Si	4.116380837881505	1.3690874813333354	9.451592457919572	14	-0.004894356087433883	-1.9145692057692225	0.36501622275397455
Si	0.158653493542467	2.719970974881666	8.076026980933015	14	-0.7970125673136588	-0.3926985424044129	0.42686930344077684
Si	1.4917757990086709	4.136241224555055	9.454987255641642	14	-0.22721731889957425	1.7418040408924047	-0.8926949662503094
Si	-0.0202867863874335	-0.047576368075945494	10.894676689600605	14	0.8087144389572488	0.8800276445590038	-0.6179052569436313
Si	1.5525705582149896	1.4440846310097568	12.113933871471051	14	-0.6038914473961642	-0.9098496380568695	0.7322659646995618
Si	2.783373332338269	2.7595113483498164	10.655253250255301	14	-0.8442548277976556	-1.358987027564917	-0.0006209219348157611
Si	4.271787133602863	4.288072322675394	12.32808492777429	14	7.165141136667278	6.248194219484671	8.362225919333001
Si	2.867603675819157	-0.1003515326634645	13.54952330818114	14	0.47033795264639244	0.9537952272993726	-0.7323495256224666
Si	4.008682110148056	1.5363509690984398	14.974141152253239	14	0.42041711463986525	-2.166129235618895	0.0946876382882854
Si	0.073963950369705	2.7712701404595896	13.509474535054128	14	0.05713793064018277	0.36292719968135423	-0.13539132083261365
Si	1.3006339272661185	4.164596805528275	15.122167452926622	14	1.252465105709054	-1.3128187177731458	-1.5189030936042949
Si	-0.0392451736662315	5.403829173995241	-0.009085593903507	14	-0.4795823618249848	2.3454034107242	-0.4841941534377344
Si	1.3175751158984699	6.846979005632255	1.377795875489946	14	0.6943061657528956	-0.3768795598116698	-1.506506766413733
Si	2.8711296734531895	8.036814607244775	-0.22443384940341748	14	-1.4924402492072029	0.9903566020624099	2.018932684708821
Si	3.952856547607374	9.550320391672482	1.4185170481657725	14	1.1583744780761067	-0.4444662053624024	-0.7757976059855209
Si	2.557807883694162	5.402631974798569	2.710819781022177	14	0.34431856781625053	0.060428431228908286	0.761007579741901
Si	4.253353545971921	6.677370319440793	3.955218146022726	14	-1.7007632864406048	-0.06801139214962103	-0.17067845579898597
Si	0.10551752919704699	8.239944870943038	2.695288991443438	14	-1.0154343920235385	0.7336780157413871	0.18557132625541173
Si	1.38514307055993	9.636797533645755	4.099980848886005	14	-0.006407194457809013	0.46831860652794816	0.1911966475853637
Si	-0.103451130583614	5.384263987123609	5.403599574149304	14	0.06054284541565488	2.175544623301277	0.3635728042272434
Si	1.500500593154277	7.046911271476395	6.581446783806114	14	-0.009458325141228739	-1.5086857781725584	0.4506180890619207
Si	3.0897907267301905	8.27481124754747	5.246799279363328	14	-0.3157967822787839	0.6446408956151912	-0.49485164210028026
Si	4.41177743966845	9.454183656180861	6.815294226892949	14	-1.190444388955378	1.2333731060437623	0.7472094859307944
Si	2.9808947998000708	5.8621268664744886	8.323634014787073	14	-2.364359398918056	-2.3597416937630697	-2.5656352935794637
Si	4.219110368949317	6.941344542312361	9.73291786914838	14	0.5822118873366755	1.7575608027364003	1.133563825957742
Si	-0.07294715105198399	8.144414935044251	7.867353520954273	14	0.3639579558042016	0.5383120637688713	1.1763051094682875
Si	1.299108728289537	9.583349969509419	9.394963295918112	14	-1.7011180989747856	-0.7805600643700312	0.5775730991180645
Si	0.157046294620908	5.54239268101822	10.837457127995306	14	-0.8439861472917001	-0.6292327756526077	0.4487648363471579
Si	1.555079756531301	6.795532240153371	12.337006521787842	14	-1.4418910330604318	-0.7470061114999706	-0.17928445952658562
Si	2.4724459409725843	8.278976844752329	10.943187857049294	14	2.1273780504546873	0.718569429548601	-1.0799254267688125
Si	3.9210733689340946	9.836795399445878	12.091728286371145	14	0.8031945329454228	-1.6959851443136418	0.2706021500717529
Si	2.8695060745426346	5.434480753427831	13.612597665857834	14	-2.1226428457865705	-0.6788178273043236	0.9635949952271169
Si	4.181127994435738	6.653032735771471	14.953919965821786	14	0.8906036291829009	0.41461078749537483	0.6175764125731844
Si	-0.0386547740623935	7.877226314329564	13.620256460718732	14	0.21875452573830687	0.23724874341666397	0.3854896773077817
Si	1.2476947627886443	9.371544111632538	14.96021756159606	14	0.5684441325683467	-0.46775527735230366	-0.47634559733745035
Si	0.03384957728671199	10.748831587463624	-0.0390811737762765	14	-1.282835258861175	-0.08848638936662025	-0.46853689336962867
Si	1.3341555047729206	12.144946250661544	1.1130344531465939	14	0.9225213306272192	2.2813877733526216	1.0199788206769
Si	2.4351195660188263	14.062432964015402	-0.2205306520224885	14	0.3992353205703573	-1.8283983538539277	0.47814357128782986
Si	4.061211274900642	14.981225947499295	1.2077607895846019	14	-0.33385236938952373	0.6383671415234978	0.9301068626532522
Si	2.739978961456176	11.117421340137486	2.7135585791844252	14	-0.731208211970853	-1.420699725901239	-0.4684170798617098
Si	4.140882421440781	12.290594552930576	4.070608468595064	14	-0.6026318628998236	0.016229331001838706	0.5852316505351896
Si	0.025534782865993498	13.51928172847344	2.6285738362097444	14	0.10818825521385095	0.22088648626977367	-0.9319259196672569
Si	1.3655450837103076	14.986703543823792	3.936144958820959	14	-0.20817134201951334	0.12495109056962038	0.3123828686346913
Si	-0.21385585650132	10.912519877627709	5.502360307880204	14	-0.032138045170254946	-1.0682634072576849	-0.42107788870714336
Si	1.2811179403614736	12.298417347681431	6.577789586260118	14	0.25851461263014075	-0.3825192793314146	1.779665109394777
Si	2.683464599377683	13.63545925051756	5.317909631647817	14	0.4151057252695034	0.5843559320631472	0.6662656911313606
Si	4.021113301806644	15.00897472887968	6.903378567787779	14	-0.18291048935959045	0.274041260547983	-2.0750444872157328
Si	2.597495857063272	10.916144275195714	8.161388923654592	14	1.7589466285039599	0.3038925646464983	-1.3234924043992085
Si	4.039054889767722	12.221320999413585	9.631369137288244	14	-0.8770549325878486	0.21748002883110945	-1.471244828279498
Si	0.007248795136011	13.639231247986524	8.143283335803561	14	-1.6579564397443955	-2.4018736253127404	-2.5070300331330726
Si	1.183784005673181	14.720548122415822	9.488131633401547	14	2.374047837985438	3.605020817212842	2.1231208142655857
Si	-0.061926358447007994	10.915504675624888	10.95376584995139	14	1.3609055863548114	0.2718997869268317	0.09834657826938813
Si	1.3902270671485348	12.536676387808056	12.4246316629908	14	-0.3539170181974273	-1.9571091717332008	-0.24683973759241234
Si	2.7176585764333003	13.701305206334492	10.888051094046423	14	0.539068482954059	-0.08235430317806708	0.6097671943842986
Si	4.445413817098221	14.897340003787313	12.069686701161192	14	-1.5525442069447084	0.1475529061074461	0.9941494966306926
Si	2.6399226285946304	10.774218770428657	13.657796035529431	14	-1.2768641238656633	1.289245024424304	0.10757556081605966
Si	3.7805418632316554	12.233145391479342	15.01451792516016	14	1.2854670422668786	0.5770200543637006	0.7505598932734795
Si	0.14674710153173398	13.696155609789905	14.036848981182422	14	-1.3439216359415092	0.7967068628910932	-1.0838599892402352
Si	1.1157568513198468	15.661218691219712	14.978847949094947	14	0.5373113895782696	-1.3744486265181592	0.08412888007003329
Si	5.414275966985374	0.05897436042781799	-0.0058219960934024996	14	-0.3144988883131731	-0.572094330791361	-1.9071112005670696
Si	6.778640251488006	1.29133513350567	1.3222327127731919	14	-0.2109769321448589	-0.2937819500855479	1.7414435719265198
Si	7.941957070894802	2.6781346029541453	0.0148091900629365	14	1.7251900725346718	-0.20305715642720681	-1.1386996088347376
Si	9.460760051768059	3.9381457574784107	1.2796747413298695	14	0.5777312220952536	-0.323526553313277	0.9207999756153802
Si	8.18165931005303	-0.23647144132611447	2.639053429177869	14	-1.8731026762764067	0.011658162853147434	-0.08260550016784553
Si	9.449772059141072	1.1991179953839735	3.771439869339153	14	1.0738964419035975	0.9025947501750077	2.0985906697376495
Si	5.467821931055681	2.7098685816604378	2.831097300315174	14	-0.2758508044723032	0.47452422632865754	-1.5591984846237836
Si	6.73285148221257	4.193854385896246	4.102555647158297	14	-0.1455315031047457	0.7554354802920762	-0.5928711757729455
Si	5.367191598579294	0.08814994085081249	5.476628725146265	14	-0.4784857854059417	-0.3148655279318262	0.045515249040453384
Si	6.699231504771795	1.6199089130305124	6.617231559794295	14	0.5478768326703541	-1.1553567717618491	0.4825825846230657
Si	8.146366533734716	2.8411176935914244	5.180641723755481	14	0.846971457678924	-1.4253814515786967	0.5854332251922891
Si	9.510632418303373	4.03013329575417	6.6679075257903895	14	-0.038360120045013296	1.2004580728457586	0.19910922420811938
Si	7.751208798888142	-0.008724794145606	8.097281366671183	14	1.978045168134103	0.7646734617073683	-1.3526083723761615
Si	9.354488123077218	1.315410317351064	9.312307351380792	14	-0.4067756011427557	-0.29068505372742953	1.091909091555491
Si	5.449043943655835	2.6825298000049393	8.249752064362346	14	0.13653931935805977	2.022574398284279	-1.3004123632718354
Si	6.770784656759162	4.0163409050089545	9.747251459530448	14	1.2008213700274957	0.33264729232597035	-0.47184230636921104
Si	5.656815404239824	-0.09951513322469399	10.66971804054933	14	-1.3909764628476673	0.8183275446387502	0.357731252939867
Si	6.679912317735096	1.366315883193096	12.13795985534946	14	1.73627025091185	0.40588394181772824	-0.35707022176205694
Si	8.441681135576683	2.774845338060609	10.98164583124374	14	-1.4544387983543503	-0.1679654254651657	0.13559083860545715
Si	9.729244271613387	4.163088006540688	12.52663959454281	14	-1.7801988708592398	1.4532653458862346	-2.5134837645971766
Si	8.262576855756828	-0.0436075707390345	13.126255992196281	14	-0.7539118432793565	-0.09367102324469885	2.9282135942688745
Si	9.374791309453647	1.064949685411788	15.143520238598763	14	-0.6189748367568129	0.9363420501651433	-1.2285792801743463
Si	5.491323115286233	2.7088681823317122	13.662240432547211	14	-0.5582700117059888	-0.11727454141525426	-0.898764317469051
Si	6.784249047724466	4.075479265326727	14.941767573976122	14	-0.14258501640785598	-0.24180217093864628	1.1717326557669363
Si	5.4232631609549085	5.253014875192623	0.0707659525155825	14	-0.830058212661926	0.20138130997953424	-0.18522345570559567
Si	6.787365045633612	6.871021389499657	1.1146580520571485	14	-0.08232602101954545	-1.0320475890496752	1.9163502104244896
Si	8.345314800239125	8.083177376135053	0.0200243865635055	14	0.18515866385152793	0.6811909575148202	-1.3871262326307454
Si	9.534379602368858	9.4631544501614	1.545731762803866	14	-0.07307441274605661	-0.05622493114099819	-0.8173235280112325
Si	8.182544909458787	5.380573989599622	2.683415399410696	14	-0.2528257849987811	0.5054098860974684	-0.5786889588270088
Si	9.636403933909863	6.627957152597352	4.106212844704294	14	-2.0272712934831256	0.6591959228325494	0.0689935543819176
Si	5.479383923297509	8.144529734967218	2.7618729467651684	14	-0.20984050359335346	0.5044770890873186	-1.7083177080922638
Si	6.716894292919949	9.442392064093099	4.200857181197325	14	0.4969933728319636	0.7182711813314637	-0.16258333069849976
Si	5.50482030622953	5.628443423277608	5.492536714471901	14	-0.09458967917558775	-1.3550743194887156	1.6184357227578676
Si	6.762109062580542	6.832169815569318	7.2160115580089945	14	0.6947252559200797	-0.9173878617450115	-1.2679935534006201
Si	7.995765434789038	8.039701005307982	5.5890014497434315	14	1.296849068408642	-0.4318058256554612	-0.10354715300045164
Si	9.491313231266675	9.21664621557004	6.99674370513916	14	-1.1236779260017724	1.9164443128792066	-0.442097188920418
Si	8.294261634496133	5.44086034914708	8.44337033444322	14	-0.8679771310340019	-0.3382517877028291	-0.9730381508469566
Si	9.412084884429413	7.172682787082884	9.81396661476414	14	-3.234367188933911	2.7166111121996233	1.633565392014279
Si	5.7006361748358	8.379016777624878	8.498080697732208	14	-0.6475238760106732	0.269908208745845	0.5056744528349115
Si	7.086664844801486	9.722044676444364	10.008503284228762	14	-1.9480977046966135	0.9782852625843149	-2.8477248851111066
Si	5.676774190847347	5.6547982055933765	11.011231411391623	14	-0.4127490501330557	-0.4653878035735113	-0.8682383553345289
Si	6.864576193824425	7.184818778939555	12.286232155857775	14	1.395488752684527	-0.907966046299329	0.29347881676830245
Si	9.006283556724762	9.144158264209931	11.936026790847867	14	3.091172563454647	-0.6984834405665401	1.6900842004933698
Si	8.129720544904282	5.402385974963637	13.707684802053741	14	0.4987651215080777	1.680376735246619	-0.9719161204852441
Si	9.683471902326946	6.793646241418887	14.831690847838324	14	-0.1458377217483753	-0.044247179896556355	1.345322117009394
Si	5.229874490719972	8.251506863184865	13.537124916500542	14	0.6988040573999625	1.0418301305717748	0.5435206089264273
Si	6.97607971900483	9.509812418853599	14.963317159516208	14	-0.9822681618357563	0.0817400661170837	-0.1524405773210476
Si	5.469675129812173	10.908846280092718	-0.0513155655669195	14	-0.5175529594139957	0.02322762257274976	0.24893184599141688
Si	6.7994518375232955	12.316555735510454	1.3725150790333949	14	-0.7280398388848344	0.23129997703743738	-0.5799128049593991
Si	7.999553832246998	13.772579558508935	-0.210838258526148	14	0.5628476076179805	-0.95979772977979	0.3764537847706533
Si	9.48199803751723	14.79953046941815	1.354507891116336	14	0.6361670467010471	-0.3465957957983057	-0.6471130133805135
Si	8.034256208961477	10.840376326036504	2.736567763745112	14	-0.811027405303254	-1.1596322627987232	-0.832227454220535
Si	9.188487434464767	12.243149384766596	3.9679117375052426	14	1.378331766883179	-0.3826745740927516	1.522032900110511
Si	5.305052040275345	13.69169481278313	2.77079454077872	14	0.9746954853363241	-0.12069771103849938	-1.630983230941254
Si	6.619183158484759	14.97340315274844	4.149312015784468	14	0.09208567970429554	1.6849895553014964	-0.8483421139250951
Si	5.515217899252677	11.052034584012427	5.4549971396612005	14	-0.12653591988895965	-1.3816994006315089	0.238916362327312
Si	6.827479418716605	12.305551342894473	6.870086590126914	14	0.5161614772147316	0.32098938658335496	-0.40283461090803263
Si	8.071795783772176	13.725347590201896	5.287979651731029	14	0.4239379862652761	-0.544314052028225	2.273772930725939
Si	9.398013693871274	15.037264709896919	6.843485807976212	14	-0.2845434544491919	0.376222899512904	-0.2593057417371503
Si	8.214475688033026	11.0739941692774	8.36504398700071	14	1.38921705547709	-0.7194135234252056	0.012596616295001483
Si	9.853096988507403	12.589517152351556	9.564489982164595	14	-1.2970012778435949	-1.5758281367239695	0.08758136029392813
Si	5.240731283434993	13.539748914739821	8.069089785587918	14	0.43081183633869197	-0.844435062280598	0.6570613911957625
Si	6.701363503341209	14.808222463585764	9.293562163958935	14	-0.20725294319915644	0.46145735487060097	0.24606403511732372
Si	5.512905500804311	11.156568113869744	10.978956233048478	14	0.13373527189590628	-1.0425027317235254	0.38306358232769
Si	6.959745329965312	12.41384047023176	12.250398179902607	14	0.09777630710937928	-0.4282577003136569	0.4343694747701809
Si	8.09667456707835	13.77787675495448	10.750602786275138	14	1.8152708043103158	-0.5180147299294943	0.47119798737598195
Si	9.738887465142742	14.953624766019868	12.10289667887708	14	-0.5024155768416239	0.5099579142982783	-1.1966893466674855
Si	8.357188392271867	10.815415542785352	13.391329014330546	14	-1.1064548627936968	0.6356353421208405	1.314746789652725
Si	9.543924395964238	12.278835760820805	15.009286328670596	14	-0.15227988323853833	-0.5107845246587058	-0.1291396782466736
Si	5.461409535358442	13.425424591452192	13.724265190928191	14	-1.5475410931022324	-0.5783719415410344	-1.0700122730964496
Si	6.682109916260492	14.986457543988859	14.639040177108187	14	1.2903485428277117	2.291549810019974	1.6911221557111138
Si	10.909289079795595	-0.2472626340851535	-0.0410163724777455	14	-1.7081055919033516	2.2900279727809787	2.372845846248268
Si	12.497431214141825	1.1530176263176228	1.2151735846105678	14	-0.409160301327193	-1.9853350230483184	0.23833709229868266
Si	13.759754767114455	2.485369132301038	-0.025059183185124	14	1.2228200042572144	1.7636895464880373	-1.6072750687841686
Si	15.157263429376993	4.074347666086037	1.2882847355525069	14	-1.99320620487542	-1.0454967838688378	0.42513535001286906
Si	13.6185508618632	-0.130478312448198	2.930809233407814	14	0.2882849269110713	-0.3317715738539279	-1.585439699742279
Si	14.807468064091973	1.2427419661120034	4.407316642661675	14	1.3736857795696715	-0.15074493336240993	-2.8140362063222706
Si	11.10854894609092	2.2908980627923996	2.510461115464153	14	-1.9817565586637362	1.9170806614459435	0.2531291754265586
Si	12.329888926563797	3.761206276205961	3.859409410311015	14	0.5331533980545262	0.8976831676819288	0.9579848434185536
Si	10.768577174214204	-0.046280768945301	5.471823528370583	14	0.5539999199902867	0.11246040381380899	-0.4675251634261504
Si	12.297121748550786	1.2273259764562334	6.956022532463334	14	-1.0328685429783986	-0.006575858966810727	0.05821059577974856
Si	13.620978060234533	2.569943875550832	5.623851426358868	14	-1.2497662164544945	1.9478984440343023	0.39640299094968223
Si	15.037576309687832	4.0532736802268206	6.8180822250221835	14	-0.7635432038086312	0.25606923436014795	0.9582015875970422
Si	13.796621942376337	-0.104008730209461	8.307119225868606	14	0.07586971845012161	0.1493233692309001	-1.5398131218414632
Si	15.013845525611345	1.436606236027809	9.546285994379591	14	1.6824577878927467	-0.7016613267422431	-0.9365199706532975
Si	10.69738482198474	2.745128558000763	8.13603454066755	14	1.5647140197565652	-0.5846647218120969	-0.27409293976491794
Si	12.028096329068605	4.077414464028196	9.660118317997355	14	0.43466592321359393	-0.13372473036409369	-0.5086427939270226
Si	10.899957486057156	0.1823842776189555	10.728167601329293	14	-0.2808989126578819	-0.43869381680813796	0.624186467240753
Si	12.215269403474247	1.4245522441161165	12.290709352853547	14	-0.23101252746264483	-0.3363095747439892	0.5348217882967702
Si	13.671555626296657	2.6657854112405337	10.829667133222442	14	-1.4232754592109633	1.4949918141269178	1.4573114943285517
Si	14.942964773172793	4.20266117998683	12.195704216602614	14	1.5699531610674313	-0.8143179058919795	-0.7366394148491336
Si	13.390673014770728	-0.287426207135133	13.681182419837015	14	0.8594480033554747	1.2526743936821139	-0.10105858016108031
Si	15.155459430587486	1.2310159739802211	14.710068529447698	14	-1.4264554022709226	-0.26078361307517145	0.8964703773024149
Si	10.634113664440102	2.686449397374864	13.807691934948302	14	2.24274586016452	-1.9859783135994196	1.0772825876102325
Si	12.188045421741716	3.9906421222530057	15.038986708741445	14	0.7943005654219666	0.2431764267322654	0.478162854577731
Si	10.876226701980668	5.416539165466753	0.1724786842656735	14	0.3644652348838668	0.13219569403020162	-1.8432763118994968
Si	12.293989350652646	6.89914737062694	1.339091901460566	14	-0.7615487974117923	-1.8675812276013883	1.086303567736504
Si	13.558674502040628	8.185808507268892	0.07111035228448799	14	0.48215192448194083	0.8231542806562644	-1.8752901726827884
Si	14.983407146035695	9.521735210853327	1.3043403247791014	14	0.11775868054703816	0.02597073483881575	1.245018156259777
Si	13.687234015776353	5.403287974358389	2.619143842537332	14	0.11179911552546691	0.10026925082779486	0.23816508535276473
Si	14.983948345672548	7.0099620962695335	3.9961197185775026	14	0.5114884932953624	-2.144218790301657	-0.05143907569807456
Si	10.893692690260874	8.023875015927326	2.809121315061204	14	-0.3677194828875783	0.4066763564773979	-0.7477884988488918
Si	11.991507953619644	9.463712049787247	4.146868417424139	14	0.94923922867207	0.6636372501625732	0.48062365947964486
Si	11.010755811710753	5.2657084666751395	5.241862882675683	14	0.48500636560836924	-0.813442187419937	1.332980554362151
Si	12.340056919741006	6.703282302053683	6.743396675136677	14	-1.0133595100301789	-2.1695269512994706	0.6183742265540264
Si	13.417306596899419	7.968049453386643	5.337917618222327	14	1.027477449343112	2.8408512921482227	0.023497331520833296
Si	14.70134373530209	9.445327662123292	6.885781379595607	14	0.4528955741545079	0.4058116937582321	-1.2731380780357044
Si	13.515804930806391	5.446977545042402	8.351284396233488	14	0.445450167368423	-1.3899310514244951	-1.282575320113308
Si	15.098535068784106	6.75518826722444	9.358030520700245	14	0.3637962332795643	0.8136949270729077	0.6451150074362265
Si	11.005803015034111	7.940087472149316	8.159601324854084	14	-0.2728014735626076	1.1212654578798777	0.47786152103420976
Si	12.102076679427306	9.522260010501181	9.603161156215984	14	-0.19624501288147445	0.7289284128834775	-1.7989789954491975
Si	10.780663966103889	5.701718574109503	10.876456301826604	14	0.9554726164102368	-1.6440845552106007	1.7643240952810497
Si	12.414529269769572	6.835482613346409	12.116082270029464	14	-0.8934310737034679	0.6910745434760014	0.940313122332112
Si	13.513459732380035	8.17014651777819	10.571810106246195	14	0.299945917980071	-3.0580983788373266	-0.5288856203336123
Si	15.230800980032813	9.41821848031373	12.374316496752606	14	2.8778201871045037	3.033193624264244	3.552334755434495
Si	13.703929204573772	5.481696321745875	13.601265273461943	14	-2.6994772663461566	-1.8409283785211374	-0.6369442918393279
Si	14.707346131274443	6.878647384382565	14.872100420723237	14	2.2589926746825353	0.25275507960247706	2.638442825593289
Si	10.895365489138417	8.395957966257228	13.512672532908251	14	0.3051935439384932	-1.2711421289756737	-0.579613785410666
Si	12.262370171869323	9.615329948050645	15.003119932808287	14	0.745119177305514	-0.3240888540467934	-0.27987407007727094
Si	10.886247095256918	10.735268796564345	0.033062377814928	14	-0.49273407975860634	1.54826434502879	0.34470783316172093
Si	12.209775407160754	12.243411784590526	1.4627970184536223	14	0.8000467287019655	-2.3925541398587993	-1.3296352892301064
Si	13.493156546003606	13.598838075090608	0.13343031046738799	14	1.1478275469423276	0.03851155814837001	0.18995583215786022
Si	15.181650213013299	15.045841904141565	1.1742884120447865	14	-0.4589662109259095	0.5389386421353913	0.4881264019143689
Si	13.509818934823034	10.78842116089876	2.8200437077322067	14	0.5304779058583802	0.05330826926582221	-0.5469584338499972
Si	14.998544335878542	12.267929768138796	3.976160931969979	14	0.1431380611622198	-1.155840396672569	-0.1043015153013831
Si	10.793537957465357	13.260129102366546	2.72699017017174	14	-0.9655680614497985	2.760098787584608	0.7209003936318472
Si	12.117377869160107	14.849780035700363	4.025196899066525	14	-0.18876643883675973	-0.2694821765942964	0.8760930820875813
Si	10.464472178270649	10.773743170747787	5.442877547793526	14	0.6188997604814646	0.04913176578377367	0.27914053372943265
Si	12.052187912902996	12.103388678546946	6.660002731094559	14	0.9177411316159998	0.4407465872957441	1.1621686581970492
Si	13.596804476455166	13.374322225742214	5.347528011773689	14	-0.5725895256760214	1.7398065491691814	0.7653195804743215
Si	15.158755828375583	14.928844382647668	6.64760433941396	14	-2.2271058265020587	-0.7625870097400681	1.332475332166742
Si	13.596542076631238	10.902893084087351	8.34106720308929	14	-1.0799123141316798	0.2582140504182155	-0.8959463860381688
Si	15.086628676773373	12.278507761040894	9.584842368508012	14	-0.45152620346099703	-0.06395624483868347	-0.8015456831036119
Si	11.110434944825403	13.911143065531915	8.090311371348095	14	-0.7281144009391186	-1.1886595276421312	-0.8135602011541317
Si	12.303648944170996	15.139797441096784	9.610163951517062	14	1.332062412652326	-0.8026366030909506	0.5263985901574332
Si	10.815874742477227	10.768101574533334	10.999554619226828	14	-0.9908829073214445	0.6139843213304055	-0.3182318761274961
Si	12.384599289852785	11.991622753542613	12.295170149860322	14	0.0014051090574609252	1.2541067564559685	-1.0582556369095406
Si	13.830815919431956	13.608087668884071	10.983384230077263	14	-1.335026639975925	0.4439617544985894	0.06319211233753545
Si	15.105029464426325	15.136632243220651	12.339417320170181	14	-0.7175888099794965	-1.6163330728270504	1.1045453028724226
Si	13.829503920312316	10.889002293408161	13.621502859882389	14	-0.06165279158236281	-0.8562822013747764	1.2406652749527662
Si	14.9702707548503	12.256367775896969	15.243691371383276	14	0.4628033285056985	0.02315434607112554	-0.8937223799362405
Si	10.909879479399432	13.424637391980408	13.39419901240476	14	0.27188230341065467	0.30113711107489555	1.9017782139120183
Si	12.040806320540117	14.788755676648105	15.241805372648793	14	1.783602757192584	-1.7801783020166786	-3.913472465813026
H	10.1665335781894	6.277500867755814	9.138961107697256	1	2.9167104690665315	-3.320003765163679	-2.9022958241996535
H	7.9565366611118025	8.9562143903215	10.931739024731536	1	-1.780342595646636	-0.7412967150260499	-1.6591134371384622
H	14.372756835786051	9.02881222160788	11.383038841906403	1	-1.9586235527667681	-0.3908967117960531	-2.354046695478942
H	16.195451612745924	0.23237308407613905	15.595523615301536	1	-0.933939866464529	0.8514382389516174	-0.5590788814397073
H	16.222983914271566	10.251900440907676	13.315579105159232	1	0.36567751104231666	0.42098352914189385	0.45912536234522666
H	5.701134734501263	6.057706575239223	13.239099396477616	1	-0.31134285653269134	-0.8855115550963478	0.4840514570924663
H	9.896607799311365	10.123099847333718	12.831892589716052	1	1.038190473880573	0.8746152107495602	1.361993678126298
H	14.376500953273725	14.123327763154593	2.0911101168514192	1	-0.5754460236867059	-0.6847177426824673	0.6444254369893626
H	3.7191304644391057	3.6459881535180756	11.531406262350892	1	-5.695198573232435	-6.719546216069331	-8.477560818894737
H	2.0997939110245363	14.474080887796951	14.130807798135441	1	0.22646141393545072	0.07678760304941447	-0.024833277845182234
H	5.207752545563943	5.2082117452558165	13.41606347773356	1	0.96229761548257	1.139139010733951	0.7115881072728029
H	0.3603159582256327	0.39372929580506444	0.7141112808266548	1	0.7463036855265063	0.8110240628663378	0.8697589070208644
H	4.1001415687781595	9.636797533645755	4.099980848886005	1	-0.2333378351141867	-0.4003727775639909	0.2514193903886601
