222
config_type=divacancy dft_energy=-23049.467009754644 dft_virial="-6.872754321520692 7.581494454853705 7.5247952441870645 7.581494454853704 -7.9338395497106875 5.034079918473908 7.5247952441870645 5.034079918473908 -6.650007422473175" pbc="T T T" Lattice="16.3999889955 0.0 0.0 0.0 16.3999889955 0.0 0.0 0.0 16.3999889955" Properties=species:S:1:pos:R:3:Z:I:1:dft_force:R:3
Si	1.3600018874298285	1.3600018874298285	1.3600018874298285	14	0.34572727642115963	0.04767137796192956	0.35268288764375627
Si	2.720003774859657	2.720003774859657	0.0	14	-0.034618904693665825	-0.02754373707368234	-0.5710419773838243
Si	4.07998926230049	4.07998926230049	1.3600018874298285	14	-0.01860066143861128	-0.029688553131749867	-0.09328947121518887
Si	2.720003774859657	0.0	2.720003774859657	14	0.002193409948618326	-0.48658142472749194	0.0016365085362742523
Si	4.07998926230049	1.3600018874298285	4.07998926230049	14	-0.013555895689948732	-0.1282976412543251	-0.009294545732335305
Si	0.0	2.720003774859657	2.720003774859657	14	-0.5668752441019923	-0.03216658443930858	-0.03990355456869819
Si	1.3600018874298285	4.07998926230049	4.07998926230049	14	-0.09271097251815555	-0.02298645289371987	-0.004291174779327144
Si	0.0	0.0	5.439991149730318	14	-0.5069389224313604	-0.5097247150457408	-0.04713067451310242
Si	1.3600018874298285	1.3600018874298285	6.799993037160147	14	-0.09927988950060188	-0.09836277623290506	-0.008886254207495791
Si	2.720003774859657	2.720003774859657	5.439991149730318	14	0.025283478386740162	0.018795808332410516	0.006356029461938066
Si	4.07998926230049	4.07998926230049	6.799993037160147	14	-0.0037985509999867717	-0.004036892463164498	-0.005102615618365877
Si	2.720003774859657	0.0	8.159994924589975	14	0.01800236523061282	-0.538723697730627	0.0023091096880249896
Si	4.07998926230049	1.3600018874298285	9.519996812019803	14	0.0005491880963836296	-0.09698594933396576	-2.0054621497155018e-05
Si	0.0	2.720003774859657	8.159994924589975	14	-0.54162339031069	0.016122373020520546	0.013849773028041657
Si	1.3600018874298285	4.07998926230049	9.519996812019803	14	-0.10135991370460169	-0.00907008823788638	-0.009696666604406465
Si	0.0	0.0	10.879998699449631	14	-0.4960322936632922	-0.5116594717991523	-0.04058592592066549
Si	1.3600018874298285	1.3600018874298285	12.239984186890466	14	-0.08401395166222266	-0.05908477158859891	-0.04344576636826619
Si	2.720003774859657	2.720003774859657	10.879998699449631	14	0.0027649666612872444	-0.017014032345547898	0.015092902450333253
Si	4.07998926230049	4.07998926230049	12.239984186890466	14	-0.056560460385277525	-0.06639133868739572	-0.10533947051912686
Si	2.720003774859657	0.0	13.599986074320293	14	0.010347927581999974	-0.19963321547236557	0.07356497964114087
Si	4.07998926230049	1.3600018874298285	14.959987961750121	14	-0.004123024491389459	-0.05260455773969769	0.5418892426007933
Si	0.0	2.720003774859657	13.599986074320293	14	-0.4652499923283514	-0.054476065302233465	0.15118870614066748
Si	1.3600018874298285	4.07998926230049	14.959987961750121	14	-0.07833900799959181	0.004400703865965452	0.5520703054475157
Si	0.0	5.439991149730318	0.0	14	-0.5055381842529437	-0.04434025390914571	-0.5080825500777623
Si	1.3600018874298285	6.799993037160147	1.3600018874298285	14	-0.10273596927194492	0.008656140281342537	-0.09411659579668051
Si	2.720003774859657	8.159994924589975	0.0	14	0.006325690419160319	-0.01296377013471863	-0.5267914550503517
Si	4.07998926230049	9.519996812019803	1.3600018874298285	14	0.0023237649883498337	-0.004735975999712762	-0.10155223238254876
Si	2.720003774859657	5.439991149730318	2.720003774859657	14	0.013505244915141814	0.0193146573860164	0.015489624001232102
Si	4.07998926230049	6.799993037160147	4.07998926230049	14	0.005289534975140643	0.00040186376153914476	-0.0022134645701154814
Si	0.0	8.159994924589975	2.720003774859657	14	-0.5317526598761095	-0.0045498279745340405	0.01968258255732959
Si	1.3600018874298285	9.519996812019803	4.07998926230049	14	-0.10096216371157478	-0.0038489446642616743	0.012182154117393615
Si	0.0	5.439991149730318	5.439991149730318	14	-0.5413225709882327	0.012800504946889227	-0.008272274257044429
Si	1.3600018874298285	6.799993037160147	6.799993037160147	14	-0.11070279621695576	0.0005137068429655862	-0.00023757013158168247
Si	2.720003774859657	8.159994924589975	5.439991149730318	14	0.016457388043735838	-0.005247625958422229	-0.0020054621497155017
Si	4.07998926230049	9.519996812019803	6.799993037160147	14	0.019453497073304394	0.0184985885574014	0.018583949254030317
Si	2.720003774859657	5.439991149730318	8.159994924589975	14	0.015999474186217468	-0.0035419546890359936	0.01871096185684563
Si	4.07998926230049	6.799993037160147	9.519996812019803	14	-0.007304767325072708	-0.013725845751610519	-0.02456279756550266
Si	0.0	8.159994924589975	8.159994924589975	14	-0.5374448299443854	-0.007797905325477109	-0.002928488959648662
Si	1.3600018874298285	9.519996812019803	9.519996812019803	14	-0.11245757559795683	-0.005321673791642494	-0.006232359296038944
Si	0.0	5.439991149730318	10.879998699449631	14	-0.5389874931364742	-0.003046502693843459	0.007289854914215848
Si	1.3600018874298285	6.799993037160147	12.239984186890466	14	-0.09982959181804953	0.01121259030116577	-0.016840482736437904
Si	2.720003774859657	8.159994924589975	10.879998699449631	14	-0.00036304007120490874	-0.003604946769379621	-0.0016748180055444588
Si	4.07998926230049	9.519996812019803	12.239984186890466	14	0.004252093978460892	0.033391201903295115	-0.012436950654620287
Si	2.720003774859657	5.439991149730318	13.599986074320293	14	0.035375580989385404	0.026511952508706915	0.07163742198262586
Si	4.07998926230049	6.799993037160147	14.959987961750121	14	-0.06061046548557477	0.08609500430835051	0.6084538737867671
Si	0.0	8.159994924589975	13.599986074320293	14	-0.543568688595914	-0.007555450093787146	0.09663679323148966
Si	1.3600018874298285	9.519996812019803	14.959987961750121	14	-0.1024472341444923	0.004378849470744193	0.5517440321823889
Si	0.0	10.879998699449631	0.0	14	-0.5078652916782098	-0.06466998367555657	-0.5095822758110047
Si	1.3600018874298285	12.239984186890466	1.3600018874298285	14	-0.05554230267849887	-0.019096370544335828	-0.04956011193011034
Si	2.720003774859657	13.599986074320293	0.0	14	0.03411908181942904	0.06794042964278493	-0.20009035799828792
Si	4.07998926230049	14.959987961750121	1.3600018874298285	14	0.0013788837831954148	0.5325820984523892	-0.0508009273576138
Si	2.720003774859657	10.879998699449631	2.720003774859657	14	0.010874232841034285	0.0035838637057544072	0.002398327042634128
Si	4.07998926230049	12.239984186890466	4.07998926230049	14	0.0027420838239379263	-0.015476511364099348	0.008627858122820908
Si	0.0	13.599986074320293	2.720003774859657	14	-0.15584523498598765	0.09285238331076369	0.004198872098333828
Si	1.3600018874298285	14.959987961750121	4.07998926230049	14	-0.05070656779236437	0.527089960378021	0.00584180839790845
Si	0.0	10.879998699449631	5.439991149730318	14	-0.5440875376495199	-0.010632806051472382	0.009393276176628992
Si	1.3600018874298285	12.239984186890466	6.799993037160147	14	-0.0908176105603985	-0.020742649280826645	0.004999771405559955
Si	2.720003774859657	13.599986074320293	5.439991149730318	14	-0.009067774243098245	0.09803676007831028	-0.006853538341386719
Si	4.07998926230049	14.959987961750121	6.799993037160147	14	-0.0027292282973371863	0.542680885928867	0.0009387105523860637
Si	2.720003774859657	10.879998699449631	8.159994924589975	14	-0.009191187298465355	0.0021962381644704894	-0.003465592861027596
Si	4.07998926230049	12.239984186890466	9.519996812019803	14	0.027988538294067958	-0.04549159487150802	-0.011373541494207043
Si	0.0	13.599986074320293	8.159994924589975	14	-0.5407983226134545	0.09596702029559108	-0.0060744934293818515
Si	1.3600018874298285	14.959987961750121	9.519996812019803	14	-0.10116785213718661	0.5430009885412254	-0.0006885420047356557
Si	0.0	10.879998699449631	10.879998699449631	14	-0.519417267881635	-0.01650083972364634	-0.015996131749301274
Si	1.3600018874298285	12.239984186890466	12.239984186890466	14	-0.21585380471611576	-0.07509812974354517	-0.06430385827796749
Si	2.720003774859657	13.599986074320293	10.879998699449631	14	-0.01922312603661913	0.12752965209519687	0.03199791993030687
Si	4.07998926230049	14.959987961750121	12.239984186890466	14	0.034076915692178605	0.6260317495290234	-0.04722503407835186
Si	2.720003774859657	10.879998699449631	13.599986074320293	14	-0.021434276611946475	0.011541434671612713	0.13161025334880389
Si	4.07998926230049	12.239984186890466	14.959987961750121	14	0.02779493406346081	-0.054269862655557596	0.6294708600052535
Si	0.0	13.599986074320293	13.599986074320293	14	-0.781372533651198	0.061910673445973646	0.042221406014811676
Si	1.3600018874298285	14.959987961750121	14.959987961750121	14	0.956636555788668	-0.6433604851657574	-0.6886600184698504
Si	5.439991149730318	0.0	0.0	14	-0.03641482175978926	-0.5090210035196163	-0.5109760720050569
Si	6.799993037160147	1.3600018874298285	1.3600018874298285	14	0.0046665561560687635	-0.10445912405750817	-0.09073019297951349
Si	8.159994924589975	2.720003774859657	0.0	14	-0.015248454322202213	0.006674075190040383	-0.5298875800768741
Si	9.519996812019803	4.07998926230049	1.3600018874298285	14	-0.011117716514852308	-0.011017186296834519	-0.09520468756816718
Si	8.159994924589975	0.0	2.720003774859657	14	0.0061194877724844434	-0.5446349259721794	0.02027342255989962
Si	9.519996812019803	1.3600018874298285	4.07998926230049	14	-0.011544777108528905	-0.09676200606058086	0.0026659791064615433
Si	5.439991149730318	2.720003774859657	2.720003774859657	14	0.01537983780406178	0.016329604109324478	0.01997234612691028
Si	6.799993037160147	4.07998926230049	4.07998926230049	14	-0.005863662793129709	-0.008525528131079015	-0.0014760715642970124
Si	5.439991149730318	0.0	5.439991149730318	14	0.004454697077688562	-0.5256455134091617	0.006413622221109383
Si	6.799993037160147	1.3600018874298285	6.799993037160147	14	0.0018933619577570454	-0.10997697318507796	-0.010734621822150245
Si	8.159994924589975	2.720003774859657	5.439991149730318	14	0.010478025511199467	-0.0018159716876205885	-0.016404166163608774
Si	9.519996812019803	4.07998926230049	6.799993037160147	14	-0.08411216788545232	-0.07163665065102981	-0.06126661156327655
Si	8.159994924589975	0.0	8.159994924589975	14	-0.001789746413355078	-0.5422042030025115	-0.003124921406107975
Si	9.519996812019803	1.3600018874298285	9.519996812019803	14	-0.0005856977919297323	-0.11429308768601054	0.00532630178121876
Si	5.439991149730318	2.720003774859657	8.159994924589975	14	0.0014359623213027022	0.012427180454403726	0.005385951424646196
Si	6.799993037160147	4.07998926230049	9.519996812019803	14	-0.031567516899714085	-0.0075351383617579745	-0.03181819966842852
Si	5.439991149730318	0.0	10.879998699449631	14	0.013403686254995965	-0.5427965856682736	-0.017461404671253664
Si	6.799993037160147	1.3600018874298285	12.239984186890466	14	0.00876746914170495	-0.10195101081770372	-0.030160350957997042
Si	8.159994924589975	2.720003774859657	10.879998699449631	14	-0.004059518189981802	0.007280598935063316	0.0029428871494414912
Si	9.519996812019803	4.07998926230049	12.239984186890466	14	0.026034755361287434	-0.004989744094811377	0.007542594567186404
Si	8.159994924589975	0.0	13.599986074320293	14	-0.007551593435806922	-0.5403064701657102	0.0982992699314974
Si	9.519996812019803	1.3600018874298285	14.959987961750121	14	0.003463535976771477	-0.10200037603985056	0.5486131972340447
Si	5.439991149730318	2.720003774859657	13.599986074320293	14	0.0266662188279158	0.024259921358789214	0.06342865402698908
Si	6.799993037160147	4.07998926230049	14.959987961750121	14	0.09311437894288678	-0.07069074100374734	0.6159270485103094
Si	5.439991149730318	5.439991149730318	0.0	14	0.025234370275125338	0.031918215665382284	-0.569141673441703
Si	6.799993037160147	6.799993037160147	1.3600018874298285	14	0.0007384214479465282	0.0023739015420927213	-0.09703968543515686
Si	8.159994924589975	8.159994924589975	0.0	14	-0.0008530927452251325	-0.007944715439257564	-0.5361821601216605
Si	9.519996812019803	9.519996812019803	1.3600018874298285	14	-0.007744169224286014	-0.006851738567662615	-0.10203045797209628
Si	8.159994924589975	5.439991149730318	2.720003774859657	14	0.0016907588585293766	0.0003756384872736344	0.012672721012477866
Si	9.519996812019803	6.799993037160147	4.07998926230049	14	-0.001671989789692296	0.008776210899793453	-0.0008186399339351484
Si	5.439991149730318	8.159994924589975	2.720003774859657	14	-0.006001216927757631	-0.00010927197610629336	0.012289369209243787
Si	6.799993037160147	9.519996812019803	4.07998926230049	14	0.004192187224501443	0.0028462135894039235	0.007326107499229937
Si	5.439991149730318	5.439991149730318	5.439991149730318	14	0.017118676332077924	-0.003417770302072841	0.0012516140698480848
Si	6.799993037160147	6.799993037160147	6.799993037160147	14	-0.026075893046409806	-0.012617956469158713	-0.011937642001447531
Si	8.159994924589975	8.159994924589975	5.439991149730318	14	-0.000597010655338384	-0.006683074058660902	-0.0030506164623556957
Si	9.519996812019803	9.519996812019803	6.799993037160147	14	0.01453497259586112	0.029927665926523645	-0.009430300093239124
Si	8.159994924589975	5.439991149730318	8.159994924589975	14	-0.3114559851667778	-0.0027968483672570804	-0.010231970732061295
Si	9.519996812019803	6.799993037160147	9.519996812019803	14	0.1265883704374907	-0.12373932863223458	-0.13510335703675708
Si	5.439991149730318	8.159994924589975	8.159994924589975	14	0.036930328376478944	-0.051528035942151676	0.0361204302006323
Si	6.799993037160147	9.519996812019803	9.519996812019803	14	-0.20056009894027896	0.21174852085143536	-0.21210487604880784
Si	5.439991149730318	5.439991149730318	10.879998699449631	14	-0.009816994333389395	-0.0009248265836572641	-0.3212405835731334
Si	6.799993037160147	6.799993037160147	12.239984186890466	14	0.11688064808020757	0.12911216741974801	-0.14665893278763062
Si	9.519996812019803	9.519996812019803	12.239984186890466	14	0.42551150272120664	0.4400976403129388	0.4065753120383161
Si	8.159994924589975	5.439991149730318	13.599986074320293	14	0.31321924919533545	-0.019990600974683328	0.12281733026442948
Si	9.519996812019803	6.799993037160147	14.959987961750121	14	0.028096781828046192	-0.026647192648546706	0.5510706596990421
Si	5.439991149730318	8.159994924589975	13.599986074320293	14	-0.003522671399134883	0.31777936159115	0.11157491514154999
Si	6.799993037160147	9.519996812019803	14.959987961750121	14	-0.02753499531559384	0.02818728473531541	0.5543776153618166
Si	5.439991149730318	10.879998699449631	0.0	14	0.020307104039593557	-0.023666767361431054	-0.5440610552647225
Si	6.799993037160147	12.239984186890466	1.3600018874298285	14	0.00932848432256126	-0.01231456604138124	-0.09347201969291939
Si	8.159994924589975	13.599986074320293	0.0	14	0.009428757430047036	0.112304594831408	-0.5216297040096225
Si	9.519996812019803	14.959987961750121	1.3600018874298285	14	-0.012834700647647196	0.5475582727211878	-0.09749245708203494
Si	8.159994924589975	10.879998699449631	2.720003774859657	14	-0.0023301927516502043	0.0023307069727142335	0.0013889110939439922
Si	9.519996812019803	12.239984186890466	4.07998926230049	14	0.001784347092182767	-0.034149420862206785	0.008498274414685444
Si	5.439991149730318	13.599986074320293	2.720003774859657	14	-0.005376695445493663	0.09112280076190009	-0.01053124739132653
Si	6.799993037160147	14.959987961750121	4.07998926230049	14	0.004300687869011692	0.5445310533172454	0.0005846693498016731
Si	5.439991149730318	10.879998699449631	5.439991149730318	14	-0.008030076135886481	0.005605266708454827	-0.016424477895637942
Si	6.799993037160147	12.239984186890466	6.799993037160147	14	-0.013262789683451851	-0.037747425647222006	0.01571253883248894
Si	8.159994924589975	13.599986074320293	5.439991149730318	14	0.0028325867312071385	0.10772854158260847	0.0019080172580818895
Si	9.519996812019803	14.959987961750121	6.799993037160147	14	-0.002219378112351822	0.5525138211152412	0.007478574044714717
Si	8.159994924589975	10.879998699449631	8.159994924589975	14	0.04332415308662319	-0.039346138935290084	0.03621427554481771
Si	9.519996812019803	12.239984186890466	9.519996812019803	14	0.017501771024779986	-0.00880063640033486	-0.02536035443581259
Si	5.439991149730318	13.599986074320293	8.159994924589975	14	-0.0007206808212375066	0.1220187449519915	-0.0029781112923275197
Si	6.799993037160147	14.959987961750121	9.519996812019803	14	0.0060657516712933485	0.546485093360558	-0.002393441942525847
Si	5.439991149730318	10.879998699449631	10.879998699449631	14	0.03207942396895557	-0.03370461964182117	0.051439589919138586
Si	6.799993037160147	12.239984186890466	12.239984186890466	14	-0.029841019677234647	-0.020831609524903767	-0.014483036268394128
Si	8.159994924589975	13.599986074320293	10.879998699449631	14	-0.0014632160376962717	0.11165616206966668	-0.0014030521732048067
Si	9.519996812019803	14.959987961750121	12.239984186890466	14	-0.0051846338780786	0.5536685045145197	-0.020232541985309264
Si	8.159994924589975	10.879998699449631	13.599986074320293	14	-0.29191018541248015	0.020043822854810395	0.12335649105006453
Si	9.519996812019803	12.239984186890466	14.959987961750121	14	-0.09355943727380442	0.03756282028523538	0.6102112242730883
Si	5.439991149730318	13.599986074320293	13.599986074320293	14	-0.004775828132175057	0.13333726479234737	0.13479405306674325
Si	6.799993037160147	14.959987961750121	14.959987961750121	14	0.054610019889413185	0.5138557099636227	0.5202719032900522
Si	10.879998699449631	0.0	0.0	14	-0.06057986933226501	-0.5082879813928421	-0.5052093398824968
Si	12.239984186890466	1.3600018874298285	1.3600018874298285	14	-0.018469277956751712	-0.0554073196491911	-0.07066400150841778
Si	13.599986074320293	2.720003774859657	0.0	14	0.16117359365146255	-0.053700362827144785	-0.4641701280938892
Si	14.959987961750121	4.07998926230049	1.3600018874298285	14	0.5304095144568641	0.01291029114405955	-0.07799165167083982
Si	13.599986074320293	0.0	2.720003774859657	14	0.1107328781492015	-0.15212741669305355	-0.014237238599787974
Si	14.959987961750121	1.3600018874298285	4.07998926230049	14	0.5140192322619842	-0.05583309469020762	0.006563003440209986
Si	10.879998699449631	2.720003774859657	2.720003774859657	14	-0.00964293050321537	-0.0034589079871952108	0.012135617111098933
Si	12.239984186890466	4.07998926230049	4.07998926230049	14	0.0026176423264427594	-0.015456970963666222	0.00687385007341589
Si	10.879998699449631	0.0	5.439991149730318	14	-0.023662653592918817	-0.5417048943493387	0.0007535909693354019
Si	12.239984186890466	1.3600018874298285	6.799993037160147	14	5.8364090767361386e-05	-0.09157942906675838	-0.010548988018035553
Si	13.599986074320293	2.720003774859657	5.439991149730318	14	0.09455136970631756	0.0005134497324335714	0.0026027299155859007
Si	14.959987961750121	4.07998926230049	6.799993037160147	14	0.5388373405857776	-0.022357560532411648	-0.012205294065274945
Si	13.599986074320293	0.0	8.159994924589975	14	0.09728959687227524	-0.5403013279550698	0.0051499239562566015
Si	14.959987961750121	1.3600018874298285	9.519996812019803	14	0.5447956200546887	-0.10481830747073287	0.014696180899434403
Si	10.879998699449631	2.720003774859657	8.159994924589975	14	-0.03612737218499671	0.04313054885601604	0.030409748174051406
Si	12.239984186890466	4.07998926230049	9.519996812019803	14	0.06009650153207717	-0.074452782308188	0.09521908575796
Si	10.879998699449631	0.0	10.879998699449631	14	-0.004894870308497913	-0.5302189955526412	-0.0013444309719054305
Si	12.239984186890466	1.3600018874298285	12.239984186890466	14	-0.0018715075625357867	-0.12258515945402013	-0.018671109724383336
Si	13.599986074320293	2.720003774859657	10.879998699449631	14	0.1072919678992473	-0.003757927535928432	-0.01568297112130724
Si	14.959987961750121	4.07998926230049	12.239984186890466	14	0.5160653178757579	-0.020932653963985585	-0.014094028033455724
Si	13.599986074320293	0.0	13.599986074320293	14	0.08326961667203979	-0.4955319565679914	0.07016160752886086
Si	14.959987961750121	1.3600018874298285	14.959987961750121	14	0.8155492082297984	-0.7952652441380861	0.8141240445508403
Si	10.879998699449631	2.720003774859657	13.599986074320293	14	-0.005410119814655588	0.015538732112846931	0.09167018908455961
Si	12.239984186890466	4.07998926230049	14.959987961750121	14	-0.0028282158521628874	-0.015053307428402975	0.5154798771943603
Si	10.879998699449631	5.439991149730318	0.0	14	0.005442258631157439	-0.0038648855172465925	-0.5416866395015656
Si	12.239984186890466	6.799993037160147	1.3600018874298285	14	0.0002694518375515187	0.014519803074472247	-0.08981179415915658
Si	13.599986074320293	8.159994924589975	0.0	14	0.10987412897227204	0.012409439827694704	-0.5262042145952299
Si	14.959987961750121	9.519996812019803	1.3600018874298285	14	0.5481030899385272	-0.00871501859317393	-0.09265749352749647
Si	13.599986074320293	5.439991149730318	2.720003774859657	14	0.10409736953896334	0.005305218717593547	0.006825513293397105
Si	14.959987961750121	6.799993037160147	4.07998926230049	14	0.5395798758022362	0.013672880982015469	-0.007552107656870954
Si	10.879998699449631	8.159994924589975	2.720003774859657	14	-0.0034113425387724714	-0.0038299184848925786	0.0009590222844152334
Si	12.239984186890466	9.519996812019803	4.07998926230049	14	-0.019189958777989218	0.008306212847270384	0.012808475373381686
Si	10.879998699449631	5.439991149730318	5.439991149730318	14	-0.03364985509850201	0.030124869704578998	0.026174880601235503
Si	12.239984186890466	6.799993037160147	6.799993037160147	14	0.054186558843184796	0.0894423263246513	-0.06338777345239874
Si	13.599986074320293	8.159994924589975	5.439991149730318	14	0.12549205112897951	-0.012653694833108771	-0.013000022719732718
Si	14.959987961750121	9.519996812019803	6.799993037160147	14	0.5466038784263488	-0.004922895356487527	-0.005292106080460791
Si	13.599986074320293	5.439991149730318	8.159994924589975	14	0.06953888582032099	0.03747103182530609	0.030881031779234548
Si	14.959987961750121	6.799993037160147	9.519996812019803	14	0.5530259852950148	0.0017020717219380283	0.007204494217586932
Si	10.879998699449631	8.159994924589975	8.159994924589975	14	0.0011431134253378358	0.30379074887582036	-0.01017283530969789
Si	12.239984186890466	9.519996812019803	9.519996812019803	14	-0.006914473537474229	0.035092502293637105	-0.03255687822690707
Si	10.879998699449631	5.439991149730318	10.879998699449631	14	0.02559612479367017	-0.0259630215228553	0.3020408545949276
Si	12.239984186890466	6.799993037160147	12.239984186890466	14	-0.009643187613747384	-0.02381100636989136	0.0027721657561836587
Si	13.599986074320293	8.159994924589975	10.879998699449631	14	0.10409017044406693	-0.00042834614633666996	0.00446369594630908
Si	14.959987961750121	9.519996812019803	12.239984186890466	14	0.5512449806397481	-0.0037445577882636617	-0.03235761756459559
Si	13.599986074320293	5.439991149730318	13.599986074320293	14	0.09272974158699264	0.010199317694495415	0.09603078370753075
Si	14.959987961750121	6.799993037160147	14.959987961750121	14	0.509969998493283	0.05455628378822209	0.5170292252602815
Si	10.879998699449631	8.159994924589975	13.599986074320293	14	0.035679228527694895	-0.2887636667216829	0.1352146858971195
Si	12.239984186890466	9.519996812019803	14.959987961750121	14	0.0486270578094286	-0.10079838430268133	0.619045799263649
Si	10.879998699449631	10.879998699449631	0.0	14	-0.04824190623247042	-0.04344113837868993	-0.5548000479659169
Si	12.239984186890466	12.239984186890466	1.3600018874298285	14	-0.035290991624352536	-0.05173115326244338	-0.1926850604551974
Si	13.599986074320293	13.599986074320293	0.0	14	0.08064168992431645	0.08001125489981613	-0.8441327002949487
Si	14.959987961750121	14.959987961750121	1.3600018874298285	14	0.29989063921568776	0.35220183383835657	-0.06434473885255784
Si	13.599986074320293	10.879998699449631	2.720003774859657	14	0.12172846716134679	0.01172475448093927	-0.01578427267092107
Si	14.959987961750121	12.239984186890466	4.07998926230049	14	0.6096399246709514	-0.053634542530949	0.031087491536442437
Si	10.879998699449631	13.599986074320293	2.720003774859657	14	0.007711516186720134	0.12819042616247495	-0.014802110438624505
Si	12.239984186890466	14.959987961750121	4.07998926230049	14	-0.03373341602140683	0.6067662002546218	0.032687747487702604
Si	10.879998699449631	10.879998699449631	5.439991149730318	14	0.007424837943523621	-0.013099010274558419	-0.0032958999098978226
Si	12.239984186890466	12.239984186890466	6.799993037160147	14	-0.02368913597771634	-0.029118281971741024	-0.004656528845320186
Si	13.599986074320293	13.599986074320293	5.439991149730318	14	0.12147444195571613	0.12478191183955463	-0.017843470921827666
Si	14.959987961750121	14.959987961750121	6.799993037160147	14	0.5088538816738067	0.5121826917318024	0.05063534817499627
Si	13.599986074320293	10.879998699449631	8.159994924589975	14	0.10869502007245213	-0.0024677468862781262	0.00420967074067845
Si	14.959987961750121	12.239984186890466	9.519996812019803	14	0.5395171408324247	-0.012726714224200976	0.0037188467350621817
Si	10.879998699449631	13.599986074320293	8.159994924589975	14	0.001389168204476007	0.10711996095332942	0.015483967569527779
Si	12.239984186890466	14.959987961750121	9.519996812019803	14	-0.004637759776483105	0.5485787444227546	-0.004819794033149589
Si	10.879998699449631	10.879998699449631	10.879998699449631	14	0.010528933396538398	0.020364182577700847	-0.2909786739549905
Si	12.239984186890466	12.239984186890466	12.239984186890466	14	0.061954639346948184	0.05106215165814085	-0.1127141719089076
Si	13.599986074320293	13.599986074320293	10.879998699449631	14	0.1320128884419391	0.10930077248587901	0.012707430934299864
Si	14.959987961750121	14.959987961750121	12.239984186890466	14	0.4668330218739665	0.49746105688969855	0.02388479709257961
Si	13.599986074320293	10.879998699449631	13.599986074320293	14	0.07539869195547048	-0.04410294088809604	0.06398864076571734
Si	14.959987961750121	12.239984186890466	14.959987961750121	14	0.44284023835794073	0.058355606119804906	0.4779448248465825
Si	10.879998699449631	13.599986074320293	13.599986074320293	14	-0.03982359319324158	0.06394081820676258	0.07500736972574394
Si	12.239984186890466	14.959987961750121	14.959987961750121	14	0.05912462372106119	0.4843751592522729	0.48743066081473685
H	2.3399766698603326	14.008011240532735	14.008011240532735	1	-0.45069676488471727	0.417443888447646	0.45388262148691266
H	7.671782012184035	8.648207836995915	10.391785787043693	1	0.03467469767911304	-0.022705945303291716	0.03727202827352663
H	15.967834525478478	0.3225123435921057	15.967834525478478	1	-1.4639030370378152	1.0620719285362366	-1.4947542439953363
H	10.424064245384635	5.895925603795314	8.615929378654972	1	0.12234116155913805	-0.1193224268027522	-0.07896815747143204
H	5.917854029081198	5.917854029081198	13.122128114966113	1	-0.36257033026291774	-0.4046886349543914	0.407962680469068
H	10.45696098331071	10.45696098331071	13.176953278178068	1	-0.21361540042439484	-0.2515435747756233	-0.21089619943780624
H	14.107032734088666	14.107032734088666	2.2380441782577023	1	-0.6444724882167214	-0.6924148606793946	0.6927102806806796
H	0.4790305585673586	0.4790305585673586	0.4790305585673586	1	0.35663107697337565	0.09728676865642309	0.3449209777927612
