219
config_type=vacancy dft_energy=-23085.672717320485 dft_virial="151.18447435423423 -43.72984288869368 -90.58653048446536 -43.72984288869369 151.14998709643555 -13.511341222006125 -90.58653048446536 -13.511341222006125 56.915471120379195" pbc="T T T" Lattice="15.946625638352312 0.6060759228597677 0.16844751733377702 -0.34543311347130307 15.857287011916076 0.26560606641270024 0.3078176896574032 -0.19728547695690682 16.49055711474143" Properties=species:S:1:pos:R:3:Z:I:1:dft_force:R:3
Si	11.954701952298482	14.833847454492934	15.549236320481972	14	-0.6227733877567997	-0.36546462352180836	-0.06250434166439585
Si	1.3518571575849914	1.1591056398582622	0.9919667626402	14	0.08188019135703177	0.8815268560711823	1.736985532411915
Si	2.7989896992043404	2.7388672613027265	0.09294377036477347	14	-0.37411253626612645	0.1213610562110976	-0.08584406442910406
Si	4.095761087430639	4.0907403779135185	1.5971186579060668	14	-0.1825171102456078	-0.42050607488394237	-0.35771094120783786
Si	2.687337162892586	0.14616712141244245	2.674694422652717	14	0.15375621191336736	0.5429953321095211	0.15536778072803617
Si	4.021888352898539	1.370458998059103	4.320170524639606	14	-0.059169360953631775	-0.6349771391588825	-0.7813907884989711
Si	-0.06867647573116463	2.485629439886111	2.568844588122351	14	0.811568622973145	-0.1105523865557271	-0.2973640140175782
Si	1.2371580432477494	3.8592164070022883	4.085234514012036	14	0.24949029006695303	-0.5971731491946173	-0.11785766810186384
Si	0.08703254720793491	-0.07162570369926334	5.313841711235395	14	0.5226686876694943	0.5980594091984723	0.905867767247556
Si	1.4829158692712483	1.1678049048226053	6.868857267272209	14	-0.4138350850202862	-0.39579415320987116	-0.3052089705704141
Si	2.630752841011142	2.6588439182267667	5.576737935067018	14	0.2349206075492699	0.6163985892260245	0.017374501311432658
Si	4.122720669716944	3.9731718307371855	6.88209527917447	14	-0.46427785740680344	-0.5617883122260794	0.2979569109044044
Si	2.8292639711495964	-0.05969792781529699	8.312266568172092	14	0.12418644384740833	0.40940429922207505	0.3257112215038069
Si	4.187348340602294	1.3973467647293019	9.707224266738924	14	-0.39098001560842593	-0.8295686742089697	-0.6979972445505
Si	0.16194581022228666	2.3927415261116423	8.285201656315497	14	-0.08463255960225029	1.0111141637540937	0.12543163015395603
Si	1.4393908182030903	3.900767326578814	9.622078076380713	14	-0.364085482628081	-0.20460161939301974	-0.05103566927334332
Si	0.1667558605988286	-0.16490620950844634	11.040487563362703	14	0.16408151376855004	0.6670437076012374	-0.43476233966309946
Si	1.4457089965178644	1.2819023638871345	12.421359825757222	14	0.14003756525665326	-0.6498170448457132	0.10745651863973679
Si	2.71827213850602	2.570801164685603	10.96499339180918	14	0.3586874470084301	0.44813208732786947	1.009433432206313
Si	4.144637199850007	3.85752475026734	12.41222328348592	14	-0.5517640868038861	-0.3399114361869847	0.18765880666483992
Si	2.9169332834870074	-0.09026105812755812	13.677075024206838	14	0.11529324765554815	0.8155684915196993	0.4013207440955295
Si	4.318009672546096	1.2878391214852551	15.067690271853108	14	-0.4278311539410443	-0.3756788536271607	0.16105866524365192
Si	0.11737225115897645	2.3746248400218937	14.009713786693156	14	0.17108854709754961	-0.20361148673423068	0.2710875747561969
Si	1.6005562320636884	3.7724551632329777	15.291814042500231	14	-0.3444016145180913	-0.3935138399014318	-0.22713941440837376
Si	-0.1307124008263667	5.21507130055053	0.1254219837732026	14	0.3445980469645506	0.45702219819334555	0.0240061532636906
Si	1.165864287285155	6.61968580562979	1.5392959156224342	14	0.14837077470978519	-0.7018744713732834	-0.5161496501302589
Si	2.412556252546661	7.9618622181636525	0.13875415392769216	14	0.44253556237750313	0.1154071476212307	-0.051648877892198644
Si	3.718670054477099	9.290682522004323	1.5861978965501689	14	0.2598137921484116	-0.11864288366663707	-0.2837147872045081
Si	2.5549458725519116	5.297199639129696	2.870385592932064	14	0.5676823140619869	0.26610400131415385	-0.09645038809577891
Si	3.9487098359887995	6.630664019478573	4.254036321718605	14	0.08357943486311763	-0.026792717209667086	-0.14984967448993436
Si	-0.0932565672704809	7.8999108759051975	2.910160272936893	14	-0.39350124148536314	0.32756524555016564	0.46551738728164677
Si	1.2076434209306401	9.199890028317578	4.371789993594234	14	-0.008916850360805553	-0.3335111837135401	0.03790117774536687
Si	0.09217773712630627	5.228462519100486	5.535309899989164	14	-0.4384328496181429	0.36792260020787	0.21213290109679747
Si	1.4692996284574937	6.513717874308494	7.044049068909657	14	-0.39218252156665917	-0.107355988421719	-0.42189318620416233
Si	2.6867498707430943	7.935418112410732	5.698607439696828	14	-0.03568925583844347	0.3632146492561468	-0.011438590458806788
Si	3.973098419218499	9.392202672834769	7.045948192980024	14	-0.30017783167994827	-0.5213723363670756	0.15103906781103488
Si	2.8656856598335514	5.213681269403228	8.365467576583638	14	-0.23757141713434257	0.16171686820560985	-0.09086543311935326
Si	4.042411660079139	6.62048216101728	9.798588093549359	14	-0.03386865616124662	-0.3086012869298174	-0.020268537459791337
Si	0.09960187592911755	7.803871054534953	8.407174894613018	14	-0.3134218522945631	0.31923640697607797	-0.030768674476744074
Si	1.3710016049363507	9.240978136145863	9.783040810613635	14	0.1215083805459421	0.05938944756903644	-0.3990471156609225
Si	0.16564351650047102	5.125831620074262	11.16297149048587	14	-0.3488701955645087	-0.05755727791789893	-0.12948086392265723
Si	1.461755796961172	6.434940931147623	12.619909257557596	14	0.035321330667130287	-0.5856427702758812	-0.5672115446778677
Si	2.606699397323272	7.760237482091344	11.135453342296515	14	0.17587800208792143	0.9862415479975133	0.11020374467431503
Si	3.974911364549538	9.147317805522606	12.47129242568464	14	-0.10534024185072292	-0.16507627441691533	0.2995170576126702
Si	2.8688535264551294	5.083353481098676	13.897963900324015	14	-0.22470149234380937	0.38804535599600887	-0.2501477216973149
Si	4.1190197716335994	6.530621674437337	15.213469588938578	14	0.08696275235390048	-0.35775619266147246	0.519103850143109
Si	0.07580377665406986	7.6857487291633095	13.89619085255748	14	-0.20150446592436938	0.3674610868029034	0.17514343729795515
Si	1.3679917326702067	9.063378117514983	15.245561593922613	14	0.3893833592046139	-0.14784832610873114	-0.19953525635966793
Si	-0.27150771415405794	10.4531698794299	0.16584460022556868	14	0.09905543200615295	0.9850444413604521	-0.01936710793454742
Si	1.0502156109127299	11.871660757443477	1.5199280419098553	14	0.34542748554083036	-0.22620713161928807	0.13588934393312635
Si	2.3937676914706727	13.338336722059223	0.26553425079659393	14	-0.23646172807816665	0.04838717368305879	0.40018971486519633
Si	3.730888284630651	14.67659200195368	1.6992979165021105	14	-0.18401503620512608	-0.38142450268609557	-0.3700992979719074
Si	2.446426093004972	10.548306419939788	3.011101111130748	14	-0.1427382542849368	0.9888144530913854	-0.3259295083454874
Si	3.859652088406667	11.94007869695666	4.324000690831942	14	-0.7144335495306108	-0.46639876218539356	0.029057603886185532
Si	-0.3808940688020138	13.348362182067662	2.584503584238685	14	0.27930225625407	0.08095510766284247	0.5895428799360138
Si	0.9583921641592147	14.608467708515244	4.086322919571692	14	0.44186244700468846	-0.7843817553178993	-0.07945923858758035
Si	-0.057296094432186286	10.609943369389955	5.680337546959386	14	-0.34057632402277505	-0.3019333823925454	0.07668321617341646
Si	1.2847622213107455	12.077798706012421	6.8729108598257636	14	-0.03887459821957493	-0.8576335743310461	0.7620347363173002
Si	2.4769158117985466	13.406430693348636	5.447587922866608	14	0.1611378552875125	0.24811552005226983	0.6054186839563322
Si	3.7693080433449415	14.5455109476313	7.164204574168398	14	0.08050285023702845	-0.7493306478199167	-0.13986247298435117
Si	2.6102949658363275	10.759396454214906	8.348131286855576	14	-0.06620673332540906	-0.4227069410379892	0.5142665725937824
Si	3.939198256611165	11.886769167169662	9.9762072630112	14	-0.10760744252202949	-0.26754999094620513	-0.6293209645650888
Si	-0.17645096877317912	13.065242680740505	8.348562180552214	14	0.41332960571434507	0.7551426313961113	0.44616596308955225
Si	1.1291234180851721	14.398823561977732	9.858303576293038	14	0.03932557009272889	0.03983362050399016	-0.04069596922836782
Si	0.05722587471866013	10.523997631839094	11.213454676803437	14	0.2161669653441098	-0.010605295224546797	0.23036718002728768
Si	1.3277973302868005	11.960533380326314	12.660757979998861	14	-0.6768038805070515	-0.6316994940967579	0.03572242309707338
Si	2.611760004404896	13.215937377772804	11.256327003716319	14	-0.19108840405138547	0.4852537059401674	-0.009579167091275698
Si	4.006117643601596	14.481207244969719	12.644186127606687	14	-0.46276399059430023	0.3116200216862033	-0.2520405694340079
Si	2.654389754125596	10.468784190273992	13.861361874648503	14	0.07153432065928791	0.2536986752549714	0.5885622603669094
Si	3.9644119214747966	11.82814049408306	15.335963091477224	14	0.136022012967646	-0.5324437729861653	0.15828932770332044
Si	-0.08381839941153295	13.195441200936067	14.108433128495458	14	0.6192291190729756	0.20544211372217613	-0.19587040283632887
Si	1.30362259800284	14.62074019935652	15.543973033772671	14	-0.4058572023223987	-0.5940978501211881	-0.4882089343951457
Si	5.2923656502144505	0.24322512862881684	0.07952222966579607	14	0.18595802049556198	0.22477785417181778	0.3498888674923513
Si	6.694777809733117	1.4790665522479507	1.5791982678336747	14	-0.22891913351098025	-0.6235750583956219	-0.49097878615654117
Si	7.922429061310973	2.7953877470809645	0.15868538125106063	14	-0.12857300663411297	0.8670551326661967	0.2598022221744709
Si	9.134097348548726	4.299256221326871	1.4878950853212851	14	0.6188226273218601	-0.796652098347774	-0.04033318626769493
Si	8.056159313916385	0.2850345844233246	3.0533382688167334	14	0.1473060799967119	0.09735721694219514	-0.1676319531051425
Si	9.433084909230216	1.7162767240522199	4.392865483067562	14	-0.3878301544807125	-1.0325332708446513	-0.568503525101242
Si	5.3968094945717136	2.659397696422075	2.9996489142156633	14	-0.5367737714558266	1.0955163523196585	-0.12894710245819452
Si	6.750529070467729	4.048155313465063	4.308723115432262	14	-0.0747376607776604	-0.06354923886650403	-0.4293103108317255
Si	5.454718415594674	0.0453475718146781	5.644378670023671	14	0.0035036452197657873	0.553603198439388	0.18320539513981143
Si	6.818583144192639	1.387886254234232	7.057371663648666	14	-0.1816663314951708	-0.05147147162510842	-0.1605840392015526
Si	8.057499872083703	2.8388824760001	5.764634717144961	14	-0.10193558418578283	0.4343293655271865	0.5413516244783504
Si	9.320993499708921	4.247082974176934	7.159242913046742	14	-0.3450544181588769	-0.12283712777539463	-0.4745687064506961
Si	8.295145725292349	0.229513133660254	8.430586785463671	14	-0.3293840454536384	0.040371495736965135	-0.0967262676966308
Si	9.565409171662523	1.69951974696075	9.754740670160013	14	-0.10719992232878603	-0.7516945220512607	0.05454805625119762
Si	5.485058119545715	2.753962903808271	8.355437328867458	14	-0.11944429719492723	0.35745408778635507	0.17111862902979533
Si	6.6407868295444015	4.2557902186541785	9.83508159784942	14	0.08286929557369274	-1.035622453886809	-0.7660852556386616
Si	5.545118317246704	0.10168452879620024	11.052064240679039	14	0.16436433535376632	0.3319572076580426	0.33551973118963974
Si	6.93316735354411	1.4721419309527233	12.402840972217275	14	-0.09426623412631313	-0.4721575238814612	-0.5725591866332437
Si	8.09976575601613	2.959114584582687	11.039664077631352	14	0.35826835684124597	-0.3806038058679043	0.5543966415411856
Si	9.428049836589873	4.211034726696732	12.519171098991421	14	0.12359277562898613	-0.42574881574225637	-0.19537006574102805
Si	8.189302274372304	0.09482214770159825	13.775152813171921	14	0.045819925020890925	0.2875819867165429	0.28623601308144536
Si	9.475160880755606	1.429004684211539	15.179264608938436	14	0.610502016284797	-0.5754264832862728	0.03702571638385644
Si	5.596282953965993	2.669247607146699	13.794182355537512	14	0.39960838795231085	0.6164379271374228	0.20420104118414065
Si	7.009485010828985	3.9917896302370988	15.235079705776252	14	-0.58332903259828	-0.6618577881704987	-0.5195093134520964
Si	5.2869699035909985	5.402304187155136	0.011485710869267581	14	-0.576887642439713	0.6367375749715879	1.010239473724179
Si	6.573348774215425	6.790619739183425	1.4482337143996458	14	-0.5633417740605129	-0.3920295408001104	0.38896529747955794
Si	7.819721558960903	8.24158085109253	0.20690717361257085	14	0.1747400308732239	-0.40278704545960997	-0.08722294821229948
Si	9.11795479395061	9.539956121411869	1.550293280302179	14	0.6495434792396495	0.0351290119891832	0.4575862987005859
Si	7.880158389670805	5.494494691502084	2.889180537618372	14	-0.29195672241877485	0.7324690820198535	0.6972853054873512
Si	9.219042455181837	6.82019021809084	4.358566344815194	14	-0.13226562809490966	-0.1096771823047487	-0.3829489110304114
Si	5.21575275095225	8.041615853703568	2.871303236915644	14	0.07533364299087073	0.13006656171458697	0.31891733280584755
Si	6.61969538104527	9.423972305497616	4.264096891583806	14	-0.48373418269595997	-0.8324200300090141	0.09927603284262165
Si	5.3900604225603015	5.34000334223163	5.582226244040119	14	-0.23026999224618605	0.8834909234252433	0.37348235835215815
Si	6.5453694101804105	6.744107158485245	7.138556823802968	14	-0.02937153584577561	-0.13092145423353624	-0.48176548735232255
Si	7.860571877304746	8.055647029188158	5.758870317025496	14	0.0592583211977089	0.6370556206996904	-0.19727885433070597
Si	9.226136242150561	9.436878369663209	7.119897530835971	14	0.35159556720386564	-0.4859327348552186	-0.44424868985231786
Si	7.9686495918369875	5.531987230817313	8.50523512864972	14	0.4486105700279491	0.6158193191973952	0.09613928435204101
Si	9.31959389314614	6.928141856319249	9.898660760739618	14	-0.4166149640924303	-0.4832166191950142	-0.5592346904221083
Si	5.257940435658251	8.088958303743421	8.525391378236888	14	0.22721551912585014	0.40447960409186345	-0.28823427613626446
Si	6.663759847185516	9.47052637966288	9.843255810864896	14	-0.6213052866189951	-0.7219069813646852	-0.2743559638391691
Si	5.354403171212233	5.405398642258026	11.278411103620297	14	0.203945987536382	0.7237550918688076	0.049221754469978854
Si	6.77653430301111	6.782630650867245	12.58173526784065	14	-0.24790031853697347	-0.5118404776136907	0.08396587199273589
Si	7.959418891313457	8.200381030083637	11.19845000074496	14	0.5796898901281423	0.1184469654412418	0.9203749719059596
Si	9.281373622254366	9.568644066192467	12.668753451925364	14	0.17461584648626075	-0.8960790550726883	-0.07710282056166462
Si	8.189996491994664	5.481325303410768	13.93814713138936	14	-0.16236272986203104	0.456302031593172	-0.002833615173335198
Si	9.510668117261142	6.8583275020484455	15.291170893760432	14	-0.23726596982230902	-0.25370073213922756	-0.2790333186375825
Si	5.370400498675557	7.983443608754886	13.948163015982319	14	0.040801384546493895	0.2463394004971116	0.09964652911925499
Si	6.644348884103273	9.255622138221227	15.483114884781612	14	-0.31721886063135774	0.16092471065647224	-0.718378910644378
Si	5.023795992710431	10.755602993781913	0.3408257427224389	14	-0.38783786779667295	0.3437331271348528	-0.20406322993898074
Si	6.405514083472422	12.10558496583524	1.6698056368211232	14	-0.26488658294506373	-0.08163979300959792	-0.4272986780292416
Si	7.603202264108149	13.52433118826164	0.3038981529205794	14	0.5348251307336864	0.5549604849378942	0.23119353327718326
Si	8.925551182986352	14.889108773135444	1.8036491985097247	14	-0.17515423594029975	-0.3132508737907732	-0.6574987362107196
Si	7.833945838657691	10.817779358304167	2.9142250368085096	14	-0.11511327028313777	0.03464230175207917	0.3601995140472092
Si	9.096090928602692	12.073971731625246	4.3824793490760126	14	0.29040068947902126	0.4497048324522041	-0.0076791202596862675
Si	5.059960741078983	13.345910875704567	3.0416754127610703	14	0.7439621799114474	0.7045129396528194	0.00386051463820234
Si	6.420526739043798	14.630843858591387	4.526152074755696	14	-0.005533789980554711	-0.17201003124429068	-0.2884286516984676
Si	5.273902653264812	10.674743397753959	5.652846529113895	14	0.06710687729799292	0.269978399921085	0.37848624352623034
Si	6.508603006539145	11.95613826462061	7.199191546432807	14	0.04929323119787897	0.12186782106969879	-0.4296175579174832
Si	7.827329226560431	13.311037212523347	5.853159433265327	14	-0.05136991296496257	0.7641998641073969	0.3714213603275275
Si	9.172201118552149	14.777167378456683	7.244314095983685	14	0.061177137098135416	-0.4554378830950702	-0.3171381279243051
Si	7.961351529338008	10.70222962789171	8.471143457732769	14	0.01282801577381481	1.0495699289170164	0.5984736142655482
Si	9.131566247056625	12.146650731027401	9.984967172273588	14	0.2650372497168244	-0.10957382387087874	-0.4648584129880929
Si	5.190855074799486	13.238043820312903	8.59541160394053	14	-0.13458682197793934	0.6731840213268151	-0.3901981424805689
Si	6.500200579454708	14.723256193396972	9.900701920139616	14	0.3471678667320386	-0.7341593266573189	0.19786892300167996
Si	5.328961292279642	10.587846502265336	11.30503235455961	14	-0.37207082153139687	0.34692052640024035	0.015862948493717603
Si	6.559662313688144	11.88900981439218	12.793872214208339	14	0.25902497703619015	-0.13064865995906852	-0.8189479523525022
Si	7.727302840544996	13.333022366467356	11.419209608753146	14	0.5607860953722856	0.49309069206651085	-0.4034190231473024
Si	9.20596084173243	14.659779168271905	12.753388953457929	14	0.3411694780201332	-0.36291717237060567	-0.5867925685750515
Si	7.910547566601831	10.66882419508422	14.168273091640387	14	0.7588583928047893	0.23503605017814458	0.11569845385400349
Si	9.328063348138942	12.128296255453213	15.396610581327703	14	0.23022705478733957	-0.27570862234809906	0.029752316543689542
Si	5.298529025978952	13.219378143735586	14.066079469921123	14	-0.515127892876032	0.46926168795937845	0.6170987012047008
Si	6.538716092323807	14.652351837663934	15.43614108823777	14	0.3522563412711437	-0.5891338170795782	-0.08674575106488
Si	10.55780523209678	0.3974978392457904	0.15164425906748294	14	0.13330975396542177	0.4095901901367217	0.26670666840119656
Si	11.80601649661458	1.822246251276096	1.6625267251531046	14	-0.31851366927058433	-0.8196850882477886	-0.32789614680486867
Si	13.056604060074207	3.0374350996056383	0.20335629037175937	14	0.5018969848985501	0.45967712154693047	0.49256027303896427
Si	14.457682045035877	4.4331364887748155	1.4990009713764794	14	-0.300953019933973	-0.29807980973870746	0.1721355011839139
Si	13.321137679953052	0.38027805040607976	2.7216985413455803	14	-0.023064100274388342	0.851135619855436	0.31575384481993735
Si	14.642865792727582	1.7814517895225574	4.153309334470488	14	-0.27982933284470035	-0.38364619479323553	-0.39254144786935186
Si	10.516444224927291	3.1574086719702428	3.01579944832668	14	0.3702342810012151	0.03753299546352166	-0.3216938694410755
Si	11.970707259274707	4.353800979710895	4.408640980072247	14	0.08422581074060285	-0.08439036148109234	-0.352487226528893
Si	10.805655286402843	0.2892174450858715	5.583906729457007	14	-0.11412185207168868	0.2383406918461309	0.21903220511288285
Si	12.106871263314833	1.6974626285349494	6.905671547990878	14	-0.004768371926746628	-0.26423994995704647	0.1845464836748007
Si	13.464864666320462	3.056332182057076	5.650103172578634	14	-0.11333432251212731	0.5421293838376952	0.03455231306587399
Si	14.828371912740476	4.398131961582024	7.073996180825984	14	-0.6091920381241815	-0.09946680885737665	0.03915741980479121
Si	13.456913879666205	0.4863975924724891	8.331916916641356	14	-0.05447246575478527	-0.030624435468283768	0.7565837359280543
Si	14.716848644537711	1.7942413527997993	9.828844810566233	14	0.3597433999634149	-0.8176588001449797	-0.1552307408144723
Si	10.81965294793325	2.975059247260866	8.30907955071955	14	0.022707745077015815	0.03922632542737118	0.4650430183500795
Si	11.995887410184157	4.342632853455076	9.781042740583299	14	0.692803354693269	-0.4162519240212254	-0.18168355790081578
Si	10.828724058198766	0.22049787998504314	11.107191503504815	14	0.06982479273192145	0.2658795438197049	0.21100932807189277
Si	12.09214906201304	1.6138006275762702	12.557286040312905	14	0.1817637763868044	-0.2955737533831591	-0.24355026544581493
Si	13.348505813299875	3.0051547781171464	11.17210324504943	14	0.07080875473794213	0.6665850224121229	0.6205660938394526
Si	14.760190166809155	4.296085162900133	12.645266553653443	14	0.03380720674409508	-0.5915707107020146	-0.24075444552068592
Si	13.515320722294168	0.35653421181875683	13.928854190665204	14	0.05432874096738898	0.5161643054305837	0.48064268565901397
Si	14.802955568249166	1.3885964308823944	15.666019683588877	14	0.1825086255980513	0.9397695906674325	-2.293171663255924
Si	10.749803483805684	2.871127687631829	13.908796887038006	14	-0.07554215963233472	0.4366775560160778	0.13289220646142974
Si	12.017832666563661	4.196071544105339	15.390890866480483	14	0.23649463822626457	-0.36451794254292985	-0.8721356367788092
Si	10.415401248968308	5.714748398392365	0.23437265701678028	14	0.34589979758814154	0.3838842791458812	0.12183311114787679
Si	11.770853975066354	7.075351102116523	1.5795142565445424	14	0.09988692746668884	-0.5832974080028422	0.3528376681840292
Si	13.183360218404406	8.376919773498724	0.3186985534487977	14	-0.0877947620355004	0.19498517127460185	0.06226317198536596
Si	14.420096943370998	9.774630404016298	1.7528883251432117	14	-0.07374932789259549	-0.1874484902496518	0.10018080480478177
Si	13.127126995090594	5.695259236083695	2.910819380702491	14	0.40883634205685426	0.5790265449555442	0.4572461414667304
Si	14.52065795675078	7.073965858676962	4.324803429829752	14	-0.08265357983733232	-0.41469846218679196	0.25085528988141964
Si	10.46227131184444	8.287646579068271	3.0399470502667785	14	0.20759592864886417	0.5530465541375759	0.08519794566215085
Si	11.835559845178132	9.682103164224939	4.454128991313977	14	0.1452060011712149	-0.42217600778937864	-0.30825393060106543
Si	10.583398721774486	5.571674136180233	5.758097900176708	14	0.2042084973895691	0.5265441147185536	0.2659278805997237
Si	11.885478081982331	6.963388960704221	7.169381682138372	14	0.5818761009818643	-0.47812480221899295	-0.3987527241017656
Si	13.200473081771248	8.320008291588351	5.800485072705226	14	0.2846108174085798	0.4090849679413126	0.03742423770847939
Si	14.608011280377323	9.704094701779269	7.196542348149775	14	-0.05575056220943087	-0.1116461347589181	-0.35792177184408996
Si	13.378044374155685	5.6610813864274165	8.454743962819249	14	0.3388889076011618	0.32841628141113466	0.1840582307745046
Si	14.716341147517227	7.042673400885577	9.930760745236554	14	-0.16674183644330726	-0.2750169950169792	-0.2345418837356121
Si	10.614143784980882	8.237445867507388	8.554235721470338	14	0.26690901438989223	0.6987973725261303	0.2368353096811842
Si	11.948138004986367	9.667157536561929	9.939223816619036	14	0.06807978355113695	-0.8690688223529367	-0.2818273387889874
Si	10.667296916315024	5.580051028823388	11.150343113369221	14	0.500037818641551	0.32879294834053635	0.6785509465720921
Si	12.117970765759706	6.828592645175276	12.57467339892353	14	-0.27760352696904816	0.34058917954937573	-0.10107066435608503
Si	13.389407200526282	8.360525066292944	11.314915779238417	14	-0.10399375399456137	0.05625835551016012	-0.040100501236221525
Si	14.741131898197121	9.709171267886694	12.740557896713602	14	-0.08172772481154698	-0.5808723414648784	-0.6069127532578702
Si	13.379475898770071	5.487536556252672	14.023923703266725	14	0.02312606391260391	0.6924793954229304	0.1446532135273831
Si	14.763516027786165	6.866157000106612	15.377322502744132	14	-0.28095547697492523	-0.04450891841814743	-0.08472254828845548
Si	10.782682268761727	8.204677199829373	13.918110574495703	14	0.16220357844271388	0.366274521697655	0.2098708426361312
Si	12.101319118238525	9.481099234256305	15.493255249775821	14	-0.5258000368389026	-0.026366427947586535	-0.5875430742180027
Si	10.392897426685755	11.015519667496413	0.3137735980864857	14	0.35076355752226573	0.04819948299468798	-0.003774125499445365
Si	11.739513640197567	12.30018294284719	1.823749591506588	14	0.03749365755212339	-0.6375963241485173	-0.592080303776468
Si	12.940901123014056	13.5966239792394	0.32218081287866324	14	-0.2901217245517851	0.3975638450017291	0.036396052690952176
Si	14.217498706724806	15.30287045557544	1.237986316686842	14	0.31923383587075777	-0.8132208152518723	1.274970761907906
Si	13.227839619215489	11.134334614587837	3.2297892375899124	14	-0.5345181407584608	-0.22963390078998142	-0.3249594303081956
Si	14.587435308411578	12.601157402240954	4.4489199652924	14	-0.13125852614100766	-0.4512755206922826	-0.2910840892731166
Si	10.333528254801966	13.567832300791094	3.066063995990769	14	-0.0750204823628767	0.07350173045026523	0.557596125001578
Si	11.720444200267472	14.88771555018298	4.404692717088981	14	0.10072767890637725	-0.1422122061364345	-0.04760041545509348
Si	10.46466676161723	10.908927738266282	5.8280431184590835	14	0.4951033533111227	0.18614956784191303	0.19295142696636475
Si	11.866659198757318	12.342565327667968	7.1442605796243885	14	-0.17526247947427798	-0.4328388957730967	0.17171949634311393
Si	13.18521625310511	13.78346108200413	5.833376624881912	14	-0.3414584702581178	-0.14808178247180054	0.25401826364626584
Si	14.488299436035861	15.148690307308113	7.237065506464689	14	-0.27346918961425004	-0.8182041315833832	-0.059125652163189255
Si	13.22636979293918	11.003942990180079	8.540435951859868	14	-0.06829009996632507	-0.0031377769327087155	-0.0472137212149432
Si	14.593755082628933	12.276411973916005	9.94784009464921	14	0.13272611305774817	-0.15893570358080567	-0.45840159619760495
Si	10.53774154485926	13.513332227679314	8.677634100771924	14	0.18883483023827566	0.25090054133505424	0.006336746172036956
Si	11.986318378313637	14.862238561393625	10.043437851004757	14	-0.83238634852932	0.003092525479074109	-0.5360050109651024
Si	10.59108139679528	10.896269039000613	11.304572734616531	14	-0.06009187354250091	0.39282066990711995	0.3625633882785533
Si	12.063475480355665	12.13696360236595	12.685845568558662	14	-0.623872021060099	-0.05441718699040208	0.13613154205428427
Si	13.337561113405274	13.522170336168129	11.367934854755829	14	-0.1576015570301808	0.6685699157192773	0.34153766030197835
Si	14.480781138980824	14.98801164373446	12.81747401746603	14	0.23281050141302437	-0.7844126085817411	-0.10807924034827666
Si	13.365947432598224	10.865937314562471	14.142229557435083	14	-0.2461635368932134	0.14695666678370375	-0.21960041938863553
Si	14.647955126055649	12.254158708338533	15.45060156151642	14	0.43992563336702084	-0.4775036231736451	0.28521528426934656
Si	10.764125113559858	13.478381961174247	14.085828764350355	14	-0.9009032199848821	-0.200577839566988	-0.1296780677007126
H	15.753256506327071	0.3741354213751209	16.62908305460016	1	-1.1292099162086031	0.9092361723274821	-0.9142369721751701
H	2.130024043368996	13.71018361913442	14.655870802853142	1	0.589875580964441	-0.8035933113805778	-0.8175359013106769
H	0.5352130605938115	0.1495871406416825	-0.057152463199973684	1	1.6543633200594885	0.9280908589717239	0.8071419509434461
H	13.458897586573318	14.34372023769066	2.1983382492144687	1	-0.5564908068244463	-0.9626305736215293	0.8390480824138238
