223
config_type=divacancy dft_energy=-23032.707432181254 dft_virial="-4.418488488378949 0.4535936853331277 9.958811359233579 0.45359368533312766 -5.5484227580927215 -3.3047539931413583 9.958811359233579 -3.3047539931413583 -3.4100525272365494" pbc="T T T" Lattice="16.3999889955 0.0 0.0 0.0 16.3999889955 0.0 0.0 0.0 16.3999889955" Properties=species:S:1:pos:R:3:Z:I:1:dft_force:R:3
Si	1.407184655769882	1.450382226784029	1.407250255725864	14	-0.2366622742931382	-0.8748769492711511	-1.5531718137533566
Si	2.9137368448634984	2.4096667830978107	-0.14756710098150902	14	-1.0333850780372162	1.7351353650235368	0.7079643914345861
Si	4.065458872050477	3.983655726940923	1.282183939646181	14	1.474265105699076	-0.6339965195897781	0.14507950278946363
Si	2.870194874080446	0.1420075047120345	2.5353890987373138	14	1.2358246549665235	-0.6061059404084078	0.7610728858170328
Si	4.160283608422458	1.2404787676306244	4.276723530290508	14	0.17132894544498345	1.0575424122937316	-1.4466136393124795
Si	0.24068623849795798	2.559447882593712	2.986011596366667	14	-1.1895038786292678	2.0566561990765657	-0.7522431959265803
Si	1.520705379596733	4.176371997627044	4.096700851086904	14	-0.4850135647032656	-0.5064689243788373	1.9575845691068963
Si	0.052250364939663	-0.154848696095511	5.037814219593672	14	0.9719012080743872	-0.8546750034391518	1.7177181833637891
Si	1.403445458278908	1.1919512001929398	6.679567917966191	14	-0.2251349807007863	-0.5161756182939924	-0.06929643058863103
Si	2.9618872125542866	2.6784626027340552	5.717429763567192	14	-2.1509656277722575	-0.8308354578002068	-2.284198505688607
Si	4.255567544486313	4.038054490438996	6.803289434948242	14	0.5066316753456027	1.7588134452483764	1.6070117875993855
Si	2.697568589913813	-0.24842703330383398	8.195320500886282	14	-1.0853368321361285	-0.33383874253132695	-1.8404365260733933
Si	4.037546090780136	1.1248588452123494	9.303943356993086	14	1.4821393728525618	0.6304543077902102	1.5432365485752406
Si	0.126640715023251	2.630853434680119	8.000587031553716	14	0.0254074056631713	0.600831060733592	-0.27028641833843875
Si	1.7248360426237215	3.8646574067895747	9.269880579849433	14	-1.7702566636967594	0.27548982128535443	1.0645003375111164
Si	0.12150751846765949	-0.030372779619665998	10.612564078900014	14	-0.4194961447141883	-0.05518414770740226	1.3305218063444935
Si	1.1767812103721025	1.4278322419152165	12.179829027254971	14	0.9159956082141513	-0.5760039535411781	0.39264634896641387
Si	2.846939689684827	2.466017145286348	10.769643173498913	14	-0.25272114101225107	0.9066414128383888	1.1318550693619716
Si	4.173255999717898	3.981359728481553	12.266486569107192	14	-1.2042054588498743	0.69785686220002	-0.5565748819684151
Si	2.2710868760858354	-0.2950194020400495	13.804247937259246	14	-0.4320320829236342	-0.8635676854099479	0.17761066996316924
Si	4.02604969849429	0.9673697508885629	14.810600461990113	14	-0.3972398857313904	-0.7464738926987	1.2097623887783104
Si	-0.006822395422127999	2.948160421765053	13.646578443056509	14	0.4255698668119741	-1.6542998137580809	1.4245728389555103
Si	1.3736630782630799	4.106491644517218	15.180026614102745	14	0.597585554487969	-0.06571539509872878	-0.5597118875695278
Si	-0.0581379609890475	5.457539137955503	0.192273470983242	14	-1.1312344045376879	-1.6814717690024699	-1.343367305634485
Si	1.111361654269053	6.805241033638707	1.4600090203243876	14	2.707561335693766	0.5531092891073874	0.3976990851415689
Si	2.627425836980059	8.205816493843402	0.0312091790584365	14	-1.0223660919666577	-1.4916488629896614	0.435708249310382
Si	4.08720525745851	9.3971936944215	1.2310159739802211	14	1.0982604930278528	0.3401199528284487	0.7701614860132243
Si	2.8147793112646515	5.4199339631888215	2.665916611152498	14	-0.8535465453141388	0.324030489956026	-0.7720260515913957
Si	4.185523191486533	6.676632319935996	4.028919696568503	14	-0.791010579054305	1.343313569533294	-0.39966700915361025
Si	-0.139596706329696	8.186972906487572	2.746768556900313	14	-0.2958609458474197	0.3384317650752395	0.6494864007015422
Si	1.5230505780230894	9.239376600317803	4.141062821319732	14	-1.6381121346624286	0.8991268433191919	-0.9052105927277262
Si	-0.0548907631679385	5.574815459262324	5.677233390539222	14	-0.3913726233908125	-1.1661456439062545	-1.1929933827697727
Si	1.1971499967045136	6.812473428785722	7.183473979841923	14	1.411808072372571	0.4404048873986965	-1.1331606766435427
Si	2.807727315996586	8.013395422959201	5.495373912568121	14	0.5737902318605306	-0.5945261962675248	1.8489389142565908
Si	4.18676959065019	9.560193185047774	7.013028894211692	14	-0.917670683330228	-0.05704099996961319	-0.90319356060407
Si	2.8984192551417016	5.540801882085656	8.28647163972327	14	0.34763580790030557	0.04787269550849716	-0.8924507112448953
Si	4.120202035317456	6.919188157179441	9.817951812090048	14	0.06807592689315672	0.39153974523662216	-2.124870194325415
Si	-0.1466979015647475	8.41257115510967	8.198764498575338	14	0.18622335856460126	-0.014800053554368389	0.5970415086022257
Si	1.3974594622955503	9.929520937226433	9.740445464097315	14	-0.605482447368272	-1.200634450670721	-1.0312022096204105
Si	0.0382283743485105	5.303313641441822	10.544405724634714	14	-1.1701218582838635	-1.5467211676156372	-0.7625792964241076
Si	1.1948211982671526	6.602553569643322	11.923693999123252	14	2.0084808844718873	0.7907084741791877	1.3904756115313024
Si	2.706293384059419	8.302625628883838	10.953175450347555	14	-0.4932071631375135	0.5018085388755369	0.889856208866334
Si	4.263439539204152	9.630631137783448	12.391159285450984	14	-2.5585269587008503	0.3000215084764833	-0.45666327189065287
Si	2.6457610246770282	5.472397527985426	13.622831258991024	14	0.00822625147181378	-0.6710356057212992	-0.6494298363844989
Si	3.9169569716962243	6.8095050307775375	15.11998625439022	14	0.5790864517095036	-1.506731223908182	0.33028007565771
Si	-0.046641568703202	7.712800024660681	13.482873752903428	14	-0.14859806042008628	1.7822225878567286	1.5801925880049208
Si	1.3072267228423096	9.389994099252474	15.029113915366153	14	-0.8731118854688696	0.7233432007965199	-1.536955081167587
Si	-0.0972355347543195	11.009279812701157	-0.182466277563933	14	0.6133793402485747	-0.15795585534329723	-0.7749743380620095
Si	1.4114322529197165	12.114409471151921	1.1892288020196868	14	-0.4087003305854185	0.16232056373478063	1.0316485535039883
Si	2.4886819300781293	13.729234387593829	-0.107846327634408	14	1.8284492617392671	-1.288444125117078	1.589953018021267
Si	4.008124510522209	14.954247965601697	1.1817668070267344	14	0.1834563350190579	0.12075710357139482	0.466979831987747
Si	2.7316149670684706	10.603511284974498	2.670869407829139	14	-0.31369156124264663	1.3236654397872545	-0.5354239411627489
Si	3.840467423021212	12.266010969426324	3.9259933656327446	14	0.5100903262222659	-1.0326217168676644	0.3723204758579832
Si	0.12600111545242648	13.509261335197188	2.713984978898308	14	-0.23209110614444695	0.47662559070681454	-0.3141751861533664
Si	1.7818424043720793	15.009073128813654	3.839795023472397	14	-2.9191751306264258	-0.16161222421907984	-0.25553932955366543
Si	-0.0425907714213135	10.605659683532908	5.348446411157437	14	-0.045618607474323336	-0.3065364322472065	0.7227999262423725
Si	1.2472355630967704	12.095418283895134	6.708235098730324	14	-0.380615890062909	-0.3227691056859614	-0.18268397498088543
Si	2.4447955595261717	13.459159368815936	5.326404825947485	14	1.5173352335800687	0.8680619775095667	0.15468103849702464
Si	3.8853705928908915	15.052254299838804	6.452034470642624	14	-0.4167597173219546	-1.6883067953855517	1.9851769000711292
Si	2.734042165439805	11.170311304647973	8.178215312363976	14	0.07640476546724442	-2.146348436838336	-0.2616457046890171
Si	4.06621327154427	12.178730227992272	9.661627116984942	14	0.723205132440828	2.0606396125490716	-0.6096160133914739
Si	0.0375723747886905	13.563512498794301	7.9631294566879935	14	-0.7453577758792238	0.28527853346022225	-0.6804558785037899
Si	1.230753574156293	14.773880886629188	9.460924051658013	14	1.7847489559443062	0.5638593375614587	-0.18851832717336545
Si	-0.09380793705426001	11.080209765106696	11.162472109908125	14	0.10726625684604586	-0.027072196357967183	-0.25332380809929383
Si	1.344011898159216	12.342090518376448	12.481933224541077	14	0.02198217915567003	1.6469976175383283	-0.8120851580319628
Si	2.7170517768404667	13.686676416150506	10.88795269411245	14	-0.009995943263671701	-0.9821419205645369	0.768472784038951
Si	4.063802473161932	15.061913893357154	12.273505764397266	14	-0.7212693472452885	-0.29202768492561093	0.08341771233848032
Si	2.613207046520961	10.9894522260056	13.71480239727779	14	1.6203514533319099	-1.230133256229844	0.86419580643966
Si	4.027197697723976	12.347387714821993	15.202691398894526	14	-0.16867787874937876	-0.4825612444489084	-1.3029325607066446
Si	0.0642715568733645	13.974266623175595	13.704536004166606	14	-1.055950383879496	-1.5178394273333495	-1.657702414538765
Si	-0.046903968527130004	16.36546701866447	16.384720605745187	14	-0.3722274018453939	1.5712621107859186	0.9587895993837601
Si	5.518481497062781	-0.34987736522999696	-0.198964666493406	14	-0.7521606634458036	2.0371661923077156	1.0317076889263515
Si	6.856015399568775	1.251811160026515	1.204119992027601	14	-1.3369084319597413	0.21182359712678367	-0.10203997106178084
Si	8.121192550626622	2.8353120974870176	0.0425907714213135	14	0.634533109270093	-1.1818101030692567	-0.7701982528193024
Si	9.39886649329904	4.189934788526322	1.3642002846126766	14	0.43177908616013166	1.165461215670031	-0.17816371471753306
Si	8.05564179461161	-0.09762913449021149	2.594445459110109	14	0.5625678713591483	-0.016007701723241938	-0.16215472744163106
Si	9.519291612492998	1.379435874389496	3.7341298943743904	14	-0.26498402783669733	-0.021186679169616217	1.6572468146760344
Si	5.6210634282296335	2.594904658801983	2.8352136975530446	14	-0.8539180700329001	0.14223714585803993	-0.45609120095691985
Si	6.986362512105009	3.906034579025221	4.3198063013816865	14	-0.26969454989374064	0.74195903175652	-1.3752289569828244
Si	5.501376308540475	-0.1774970808982965	5.472053128216521	14	0.7898420116862978	0.5300297622010782	-0.6411465063745779
Si	6.827200618903682	1.1862440040225057	6.915170159875543	14	-0.31381934517705795	1.080974437739433	-0.8240641948290648
Si	8.371800782466858	2.5728138736250443	5.643137813417577	14	-0.0039767285986730344	0.2199498326016437	-0.06494226372896025
Si	9.649556725084254	4.177044397175859	7.139948409047866	14	-0.18625575449163512	-0.6010902281498629	-1.6140699859242562
Si	8.291522836333884	-0.0990395335438245	8.024350615608194	14	-0.16413422142761308	-0.5709892697247613	1.889379058505604
Si	9.426467674778467	1.378025475335883	9.569114779061326	14	-0.017160842459328352	-0.05532530138947838	-0.722597323143145
Si	5.490552315803445	2.7038169857210987	8.294294434474125	14	0.5586446217511343	-0.07741083897901836	-0.2798527299031137
Si	6.8241338209615225	4.180324394974959	9.736525866727389	14	0.46971728782210864	-0.1699096953082617	-1.920581478449857
Si	5.490404715902486	-0.113356723936896	10.799786353272642	14	0.5253513789605369	0.324758626982692	0.0068725645207558155
Si	6.806799032593279	1.3860122699766915	12.365493302673027	14	0.10471777725271507	-1.045257928184596	-0.6928722603158489
Si	8.154222128463559	2.816730909955116	10.952634250710702	14	0.4531943365927091	-0.6379151412082158	0.8171684903604277
Si	9.785709433724895	4.003106113889586	12.228389394670646	14	-1.4572857832753503	0.9819226052807283	0.014208956441266343
Si	8.24988326427431	-0.044804769935706	13.770398359972535	14	0.0010796071239301784	0.3559978137330232	-0.6807677535791238
Si	9.633435535901677	1.4154010502566277	15.15344223194104	14	-0.34712878593117236	0.05423412429160754	-1.0389054982701063
Si	5.194434114500697	2.4923555276131215	13.666930829399925	14	2.4075868784446417	1.3654261037286957	-0.28686593388488163
Si	7.023541287157808	3.9886905235625414	14.799448469473173	14	-1.409377349402903	0.26949426078930117	-0.23782878477688935
Si	5.701160974483655	5.234925687330587	-0.045001569803652	14	-1.6323302330184795	0.48560311915317567	-0.6135500616418326
Si	6.8290538176601725	6.798861437919458	1.238691168830115	14	0.6360120090502422	0.7395141677075913	0.11367242286172681
Si	8.274942447459434	8.45124232916106	0.009036393936520499	14	-1.0051088330578237	-2.015629328593495	-1.0703686282938225
Si	9.668088712649169	9.513371216465622	1.428242241640104	14	-0.363790833958392	0.9361345619658074	-0.7770283941022759
Si	8.107580559760358	5.563302666987483	2.7714505403385403	14	-1.394669084308464	-2.001993985749154	-0.9219834553942443
Si	9.337924134191761	6.707595499159499	4.122334033886871	14	0.6049402012562526	2.6877411990018083	0.5907317590360502
Si	5.491175515385274	8.096772967012322	2.657159017028901	14	-0.5223025622719052	0.07154769040695269	-0.26968657946724817
Si	6.65890393183186	9.6187739457397	3.9793753298130974	14	0.7101680858044851	0.22721140535733791	0.1264114783914645
Si	5.43579275254747	5.37594919270289	5.312973234960171	14	1.6148909398529794	-0.5195630495532875	1.6463882655774533
Si	6.76437226106192	6.860705796421487	6.855523399898909	14	-0.29587637247934057	-1.3124165969010746	0.029777770486359007
Si	7.9674754537718	8.20279889586823	5.477579924508004	14	0.11686136479030647	-0.12588877267987839	-1.369910625628098
Si	9.181091039427795	9.519390012426971	6.886043779419535	14	1.3164977123757458	0.9006882755801178	-1.435889816132674
Si	8.312596822193104	5.722956559858676	8.355531993383323	14	-0.3589723254779025	-0.8103591750305474	-1.2562644280406368
Si	8.008852626007446	8.119257351925153	10.704535217186777	14	0.34316902662761234	1.7710776176254825	2.0187899883635536
Si	5.658078203392478	8.2298752776998	8.340329203584494	14	-1.5014388607171891	0.07449854798288663	-0.011415450510925455
Si	6.978539717354155	9.791433029884324	9.437882067119336	14	-0.12169247168686469	-0.6219740311127656	0.042853897923568106
Si	5.508149503995616	5.540933081997621	10.901859884780635	14	-0.7010918269138304	-0.6702514185986541	2.0347200427061267
Si	6.60660436692521	7.023032887498947	12.31343973760131	14	1.4421553426873428	-0.8294447469325387	0.5690383150078329
Si	9.580627571336166	9.671877110107129	12.121149866629072	14	0.13557489775247222	-2.0899581836252517	-0.36736852701137807
Si	8.4168351522485	5.552331074349493	13.56293849917946	14	-0.9632172998555871	-0.21889979318889521	-0.32272359712179477
Si	9.676255907168928	6.818508624736066	15.122807052497446	14	-0.662748161942866	1.3131617032228535	-0.8579207667953066
Si	5.16286413568436	8.193221302294859	13.84501830990206	14	2.4193406864156985	0.419109193363506	-0.26582760749223794
Si	6.851341402705057	9.732934269137376	14.876052818071154	14	0.2644687783305397	-1.9162262831480583	0.22932074016198742
Si	5.483861120293281	10.802738351291831	-0.0962187354365985	14	-0.8794499171935667	1.3945014482415905	1.1317658520073623
Si	6.696361506697582	12.32411613043738	1.3504898938124386	14	0.8045399923594564	-2.0049011345346455	-1.6742960711644688
Si	8.084177775463779	13.317889863608698	-0.214118256325248	14	-0.8431811342159616	2.2988787457350566	1.150908759557993
Si	9.31570214910286	14.850796835018084	1.2219139800877186	14	0.559680777195154	-0.038272188243064234	-0.26724942873427987
Si	8.172196516402627	10.928280267052385	2.44458235966923	14	-0.27816299948671236	0.01594496675343033	2.1927183212872063
Si	9.590434764755477	12.247560981806386	3.9165469719713366	14	0.26472588886255455	0.6154927888217363	0.27934956459196075
Si	5.3013128427843705	13.480118554752185	2.5842446659549076	14	-1.1037729428342502	1.6775112383673139	0.691327540239504
Si	6.648801538610632	14.947737169970484	3.8467158188284976	14	0.690789922117061	-0.11256684757406311	1.1806358792695448
Si	5.240304883721111	11.014626209113692	5.389233183789246	14	0.7169154374961496	-0.552943195703706	-0.04275748147406255
Si	6.699493904595722	12.460154039155054	6.615066761246888	14	1.2492897906386708	-0.8095153382644747	-0.19590331298442676
Si	8.272876048846001	13.787749548329774	5.299623643917833	14	-1.5182806290062871	-1.554341409563492	-1.4524595614789004
Si	9.557159187083606	14.825606451920995	6.789087044478139	14	0.7191049907867878	1.7602648342016	-0.5601800858483268
Si	8.268316851905253	11.17975769830938	8.097379766605156	14	-1.285527720352434	0.8526667130735841	0.4454969614852497
Si	9.503875622837228	12.433979656718234	9.695837494029554	14	0.25730722157179925	0.0549558335549731	-1.4677776927552786
Si	5.389101983877282	13.741944379065341	7.9237366831208025	14	-1.566372125577529	-0.5513383117628695	0.8013173689511827
Si	6.845339006732704	14.795397672191285	9.30896175362571	14	0.07211204802472519	1.8563588671000064	0.883832623322291
Si	5.52500869268299	10.856185915428165	10.88058909905347	14	-0.9608518829610507	-1.076718487102992	-1.001102279637437
Si	6.654393934858097	12.128169061919147	12.215236603496257	14	2.225743654903445	1.6039344316417004	1.9142910121735826
Si	8.006130227834193	13.693876011319531	10.996832221053573	14	0.1662664390696119	-0.6571683491770807	-0.06208987948678798
Si	9.557683986731464	14.907868796722422	12.290414153051627	14	0.2602040859360101	0.8611385051034719	0.7956341977515274
Si	8.429610743675996	10.839818726410657	13.619452861257953	14	-1.782957923978291	1.520329028614849	-0.5170251114917693
Si	9.61706834688417	12.318802534002838	14.965990357722474	14	1.0973354093336634	-0.7251098072619937	-1.054616751549935
Si	5.3458224129181575	13.559789701292324	13.605020870941912	14	-0.21035601021004313	-0.27617810617955807	-0.17062909057683912
Si	6.802502235476458	14.85347003322435	14.8784308164755	14	1.3207114968849363	-0.8053306072454017	-0.6964430113844706
Si	10.805772349255998	-0.1806786787634235	-0.039851973259065	14	0.5655904627735143	-0.2581906533598021	-0.2749753431107928
Si	12.027030329783898	1.2620283531707113	1.334073504827943	14	0.6053245815016147	0.0053530412765483	0.2287424985754861
Si	13.480889354234973	2.578340669916528	0.055300762892826	14	-0.02138208317394747	1.2893632952690308	-0.033007335878997006
Si	14.953641166008863	3.9300605629036287	1.4514482260687365	14	0.6932769522932403	-0.16058326786995655	0.37520191359027316
Si	13.688480414940011	0.18003907919259898	2.714772178370092	14	-1.0945192776765051	-0.4424419741438498	-0.09779610462034441
Si	15.05307429928858	1.349620694395677	4.111378841237876	14	-0.3133948556887015	0.583521351276227	0.1563180612543629
Si	10.84527992274616	2.9241180378976495	2.529632702599893	14	0.8255459228250661	-1.2214074389943252	1.0306347666762539
Si	12.335333722910303	4.053486880083762	4.042662887346732	14	-1.4797736988474934	-0.33161962152950714	0.6556665665595821
Si	10.69854922120342	0.07906434694730549	5.35444880712979	14	0.9049575959642238	-1.3205896264927615	-0.7213050856092384
Si	12.204281410847262	1.302454326044619	6.627661952795433	14	0.1662790374856806	-0.768505951297581	0.9576485428426784
Si	13.651268839909221	2.663259812935227	5.517005498053186	14	-0.36440584235097145	-0.020815925782450864	-1.529596320630791
Si	14.89679880415046	3.938342557346356	6.865281393351233	14	1.7064986510782592	1.2773040399859406	-0.00319896923932824
Si	13.651400039821185	-0.18818987372336252	7.929296279390276	14	-0.09896698598313987	0.05875155633910771	-0.20012275392532178
Si	15.261485359443395	1.1368308371790645	9.162362251994935	14	-2.033371497965709	0.29396938366338676	0.6150649568964638
Si	11.007951413592522	2.5493946893394703	8.2152956874828	14	-0.6624828238738267	0.5163795069458801	-0.013777010747481467
Si	12.383467690612095	3.845239819818903	9.526934007364899	14	-0.06237475795626037	0.6016137051930451	0.9927451589048276
Si	10.760278779782482	0.0609587590962735	10.909748279487468	14	-0.12892524806297326	-0.471874445185713	0.8097482804064803
Si	12.377465294639741	1.2056779909821735	12.200886613125192	14	-1.4118852055321753	-0.8367330591835626	1.1932209255906059
Si	13.685708816799771	2.2546212871343534	10.824287936831919	14	1.938934028225074	1.9877230656696718	-2.094021558473214
Si	15.085907077257572	3.753678681257026	12.074754297760801	14	-0.9235343461233576	2.1565485258644275	-1.0420723286929325
Si	13.96032663252942	0.1140619234637025	13.506571737001925	14	-0.9476127474465443	-1.783450033536567	0.035245740170717924
Si	14.91105039458755	1.4784426079553294	15.08936747493562	14	1.7097842665668765	-0.21254736327440535	-0.8768106775824346
Si	11.031928197503944	2.6265074375963113	13.492894146179678	14	0.30500456769746226	-0.17225094381278855	1.956282561372773
Si	12.340237319619956	4.108459643196678	14.986818343746759	14	-0.21694369626132656	-0.03194495516071182	-0.4422704814189959
Si	10.96604944170902	5.489273116661796	0.068978353715073	14	0.24622292942610882	-0.4523736397745178	-0.4459283929579706
Si	12.259975773475979	7.02495168621142	1.3091947215217694	14	0.3832584721109572	-1.2829561008112218	0.9252099354604982
Si	13.6874308156443	8.397696365090752	0.045296769605571004	14	-0.13675117843643997	-0.651411387254737	-0.5031802235638358
Si	15.10799786243451	9.730933470479926	1.2748203445872013	14	-0.9750474696546524	-0.2960100699559882	1.5266701456659304
Si	13.610482067277413	5.39151278225962	2.769531741626067	14	0.2927565932838729	1.0499892761947325	-1.2151156871653908
Si	14.827820450435388	6.823248221555765	4.166450004284766	14	1.324106127239128	-0.08672749621710694	-0.2984261376253314
Si	10.790618759424158	8.121061350714658	2.788998528563725	14	0.38393698680494426	-0.46853663625909664	0.5215016629646791
Si	12.066701903164011	9.620364744672264	4.056471678080943	14	-0.31484598753139303	-0.19280384552098825	0.003797265447326697
Si	10.714539210474031	5.44938834342474	5.309398037359151	14	1.1325893770414057	-1.4055628575499313	1.8925949970400453
Si	12.223764597773915	6.791038643168604	6.619642358176634	14	-1.300824254344123	-2.2933187304802365	1.047078527861793
Si	13.283039886993262	8.10666216037661	5.274794060578646	14	1.7410388799491285	1.7090260476079648	-0.2987698944066352
Si	14.698818136996785	9.393487296908516	6.680584717283912	14	1.0878788839661586	0.7729267097850436	0.48515446127480966
Si	13.48822014931596	5.324322027345056	8.08963897179928	14	0.05549216612475599	0.5263384262929417	0.10679240213554254
Si	14.87034562190072	6.778869851333942	9.300499359304032	14	0.5790154892026675	0.47434630584050325	1.0766341548484912
Si	9.672811909479874	6.926748552106366	9.79144942987332	14	0.37856337668583484	-1.531093989479777	0.017052856035882136
Si	11.895978017720857	9.203542624362637	9.169643847108937	14	0.612064991208915	1.5306137070059733	0.005789872070441459
Si	11.146252520791574	5.399893176636321	11.014757409025655	14	0.18213607243716187	0.24133345843878323	-0.9403259778587127
Si	12.51930879946182	6.9763585188177535	12.188094621708702	14	-1.1382280681190227	-0.9911202203424941	0.7000806111914162
Si	13.53891251530105	8.402124362119539	10.760852779397325	14	1.356126158675188	-0.42272776699108244	-0.37492500554729324
Si	15.131007046995196	9.469599645836633	12.480621225421435	14	-1.1765686477636028	0.3095536243404003	-0.9792707672535277
Si	13.788782747636489	5.437973951083872	13.442742979831438	14	0.05326636024910379	-0.3965528863898469	1.0418347585613508
Si	14.942407173546947	6.810325030227312	15.213580991587538	14	0.30000222518658215	-0.8035814842961051	-1.2941522360383386
Si	10.960227445615617	8.215836887119654	13.526153323862552	14	-0.18774596713519295	-0.431940551574237	0.10782598647424209
Si	12.305584142872465	9.536380401026308	14.931763580688866	14	-0.9835907384124404	-0.29100052835021173	0.582861091430013
Si	10.824812736479775	10.824369936776897	-0.1615562915946705	14	0.7807068744838116	-0.14173320921529092	0.47813277264548537
Si	12.321065732484216	12.172924631887867	1.046811297582765	14	-0.05760741447164181	1.3144356859089872	1.0210388874003973
Si	13.890003479716716	13.771956358927106	0.119195120019294	14	-1.3462595420091197	-1.0511647855471042	-0.8395445628511443
Si	15.019454321847805	15.144077838224609	1.527429375084888	14	1.265435303607073	-0.8843036498169422	0.14466581194345182
Si	13.426441390769913	10.950502252141288	2.722660573076928	14	1.4358260527207343	-0.24971449045086996	-0.8085000087735484
Si	15.094107071755321	12.05569751054803	4.066147671588288	14	-0.012182154117393615	0.6368974977225011	-1.2367967898880714
Si	11.024187402698068	13.78079595299568	2.4479771573912985	14	-0.16256430451913065	-1.2205636022282527	0.7097240559156954
Si	12.415611669043274	15.056813496779554	3.998907716706738	14	-1.6299205931124368	0.5335760877691585	-0.26887822395459365
Si	10.779991566555074	10.842852724374826	5.576373458216897	14	0.16229228157625897	0.4649070068786436	-0.2215822273694057
Si	12.552649977089674	12.166249836366697	6.710973896892573	14	-1.9072713804285146	-0.27810283562222093	0.6918924120783405
Si	13.623897258275733	13.474575358471705	5.1540081416267896	14	0.4164249594092714	-0.0407754163827604	0.41976019723056746
Si	15.048547902325822	14.74409850661336	6.432797283550902	14	0.1752195420154315	1.405241469384913	0.9216060171332465
Si	13.710702400028913	10.90354908364717	8.330686010055139	14	0.07594453761493791	-0.2734614762982896	-0.5144596626033257
Si	15.222600985535063	12.507172807605151	9.55856958613722	14	-1.8739346859580066	-1.4066566057531225	0.3167604325527753
Si	10.958423446826114	13.516854530102105	8.0148550219798	14	0.5496501240096603	-0.02592188383773293	1.1762968819312631
Si	11.986013957306152	15.166119423434562	9.490624431728863	14	1.222153573758232	-0.5474600564979581	-1.7336747200911604
Si	10.904729882854847	11.030402998527363	10.8207127392309	14	1.0928087213070108	-0.4388298282795738	0.00991186811970286
Si	12.535479188611385	12.394750883040997	12.168398234925107	14	-1.1658157710936794	-0.505943390451399	-0.216049208720447
Si	13.578174088956278	13.922573857861778	10.637557662129156	14	0.4067023246411314	-1.2099390237138046	0.5274095487693153
Si	15.16951422115663	14.978667549215997	11.931303594017164	14	-0.08838791603285857	1.2682385797376303	1.6180055768378065
Si	13.552081706464438	10.887509894409572	13.662912832096026	14	1.9412215406284101	1.1924974165535163	-0.7665092309059539
Si	15.023455919162707	12.525606395236093	14.8784308164755	14	-0.12311249315518247	-0.7760999679711703	0.38694158048206934
Si	11.190926090815317	13.68382281806529	13.728201188287112	14	-1.3058736480823618	-0.7594551463495958	-1.43790427715101
Si	12.500235612260056	14.980963547675367	15.016682723707566	14	0.4636949878307259	1.666892573395102	0.47181145310536926
H	1.6355774625168131	14.507038305682306	-0.9669646711603741	1	-0.24482733345833244	0.19990652396789732	0.006202277363793211
H	12.804360288190404	10.09168238841504	10.148039310599176	1	0.7784293893912245	0.7021755478062728	0.5225357615244427
H	10.550150640779838	7.845031495932498	8.968122422331133	1	-0.26793051453358707	-0.11159574109464318	-0.10304578746302279
H	13.135497385995244	5.8973966828082105	5.669861595485744	1	0.03716764139752862	-0.12320916671522003	0.20366445150382573
H	-0.9745923060421812	17.365423547687094	17.38357505550731	1	0.5608025504463346	-0.36057515253448275	-0.511478980205678
H	8.275808366878397	10.522577339281705	5.850046634580402	1	0.5229607652338631	-0.49027841706733283	0.527037252718958
H	3.1093395136128272	0.5542245081117262	13.045017006708171	1	2.002853249147147	2.323055877502537	-2.0561779734870185
H	0.8684761772467984	14.934833658628824	14.543926800929885	1	-0.9721488055167173	0.18105286576578347	-0.3943509917936721
H	9.479370759280151	6.860705796421487	6.855523399898909	1	-0.1279567126888735	-0.18247957210793364	0.2584446785654328
