225
config_type=interstitial dft_energy=-23349.506432378264 dft_virial="22.88928609099068 -9.515997534916895 3.82901768382904 -9.515997534916895 20.17100665932724 1.1107382521655969 3.8290176838290395 1.1107382521655969 16.03502131308153" pbc="T T T" Lattice="16.3852778749 0.0 0.0 0.0 16.3852778749 0.0 0.0 0.0 16.3852778749" Properties=species:S:1:pos:R:3:Z:I:1:dft_force:R:3
Si	-0.646890770501052	-0.6505283021892799	-2.0412615323771672	14	1.5311670088708693	6.997807688889805	0.48825418584878033
Si	0.0761260010067854	-0.21887454185291422	0.27900851165379725	14	0.4472247442603893	1.4436147020670587	0.50380731615142
Si	1.490404875500904	1.465990811467303	1.4773785795903587	14	-0.5701135512527188	-0.07926589146750519	-0.968058948283958
Si	2.816891431141309	2.8025215424450214	-0.07294725709905481	14	-0.9744705136208112	-0.3020354552737553	0.5439021609559371
Si	3.9528008198187514	4.315914962804411	1.1848849842455187	14	0.7122964467885037	0.291300319230541	0.8461921556563873
Si	2.6787963092116516	0.13199979856019442	2.9233957373281587	14	0.12978939656107505	-1.4561786653244946	-0.9421836014525196
Si	4.1287295483615525	1.4086914947387776	4.041805649235208	14	0.7344331493739146	1.3898179227904086	0.4558921974051404
Si	-0.06672085150659281	2.7033086849125016	2.721971516412013	14	-0.31077567069906664	0.49648300842591425	-0.03348273325269238
Si	1.2727100736549828	4.149571621818425	4.024437254687814	14	0.1655706979699798	-0.7187694615425084	-0.9514658058793183
Si	-0.12143129433088391	-0.023004930136359604	5.563965193257669	14	0.5048432144849078	-1.235258240464495	-0.3436179416165102
Si	1.3620589939068126	1.2854086640080302	6.720143170666363	14	0.9136631014677131	0.25460704676457974	0.2128201575488731
Si	2.6307710597603196	2.813860154734452	5.2801721804644	14	0.6728834591148897	-0.9874587092560713	1.1519238319383875
Si	3.9613703201473243	4.122896389438089	6.753028423361287	14	0.5335064108149825	0.10908788496537077	0.3182557874069735
Si	2.8575269202710607	0.057266546172775504	8.178711451256335	14	-0.3701028975193555	-0.8245308504446717	-0.23673400813157033
Si	4.1421163203853455	1.4380211421348488	9.563562366687133	14	-0.3341020237161101	-0.023257704504995494	0.6224769393133867
Si	0.003932466689976001	2.500245936208866	8.131292457086374	14	0.028221480436073376	0.7689934328662811	1.0888003681129
Si	1.3662863955985367	4.040986385341463	9.47557342449892	14	-0.7181431402865204	-0.7733422004047794	1.2887701412716728
Si	0.16178823373676263	0.048565963621203606	10.965503126941453	14	0.3144474662067701	-0.2774063231909928	-0.30525062247660045
Si	1.3725783423024982	1.4346457748926194	12.507128381079294	14	-0.5432329022411027	-0.7653568615014636	0.8463109407221779
Si	2.6888732551047148	2.627133528072092	11.105023768046227	14	0.11304121650563043	0.9533812793428286	-2.054454304480391
Si	3.8991062642227043	4.221732385579485	12.23916354671318	14	0.38636256756397197	-0.6292805982115625	1.2312038644851533
Si	2.922560088156539	0.14058568416664202	13.90561184770201	14	-0.8397263399972789	0.12595587852873424	-0.9819899682401162
Si	4.315062928354915	1.509297100890664	15.121792712688586	14	-0.44808195077412666	0.3815180909197489	-0.6706735940922225
Si	-0.0012452811184924001	2.895131132993956	13.876740988086436	14	-0.015447200763449657	-0.809082878349626	0.09378903697889364
Si	1.402415933312691	4.291828604328307	15.17393066688652	14	-0.8030880891851686	-0.6302198229850126	-0.08449963345719863
Si	-0.16921076461409232	5.583447288650925	0.028887244893448703	14	0.6325021931777081	-0.39493488981187774	0.7766026190612593
Si	1.2636981708237878	7.0008229806634	1.3628454872448077	14	0.14287683686169278	-1.3589294348057457	-0.5305774076342699
Si	2.78054888481478	8.117676291172334	0.020645450122374003	14	-0.28014660724120666	0.17918032976111964	-0.645490903034032
Si	4.123977817777832	9.494645887945305	1.2545224152138437	14	-0.10812577735457134	1.0154379915709866	0.35181025449809794
Si	2.527265259424576	5.546187166763402	2.681614577006134	14	0.9435516865933705	0.39377994930206717	-0.28535155285131436
Si	3.978312697469971	6.981684976105516	4.020160697162465	14	0.11928488866507803	-0.9847395082694825	-0.44083709020301337
Si	0.12493774379611251	8.147431955793152	2.9016197030324165	14	-0.5611457930065743	1.4994606522838672	0.14342113985796814
Si	1.4153439175559872	9.684338249903021	4.231448855359301	14	-0.09824759071456243	-0.6243900987821088	0.029146049909198623
Si	0.0100769458930635	5.362819522065396	5.397949557829182	14	-0.4078109852551793	0.6240753954909227	1.7103326833316643
Si	1.4291239362487782	6.8720183112888105	6.751439051407421	14	-0.22426157622353202	-0.9895348768020908	-0.09502830974320502
Si	2.848957419942488	8.276253010445615	5.54805508844114	14	-0.45783543880610833	0.9853689148518547	0.2632053371762189
Si	4.114621824111263	9.750534772517618	7.044817451757506	14	0.40997791281900003	-1.331364357557906	-1.4424250516354264
Si	2.66100189743951	5.47438687911559	8.24115574523758	14	0.7673741507356517	0.2884960146578555	-0.6608352595846758
Si	4.173477742237905	6.773723029317286	9.578325502052419	14	-1.0390561650418668	0.8553630312228234	-0.13767729057275732
Si	-0.059544099797386604	8.056460893031707	8.054216109962846	14	-0.31691932686156055	0.04073916379774631	0.6391418155564585
Si	1.1361223972898162	9.470231823911705	9.50375610244375	14	1.1353846827454708	-0.012451091733881103	0.16155591701256858
Si	-0.0102735692275623	5.4665055604577635	10.973400830877154	14	-0.21021048564892275	-1.194683370296706	-0.1896372722086939
Si	1.2069395682651343	6.8488822989294516	12.382075940338058	14	0.8416428419029173	0.045689569981159424	-0.557978962583748
Si	2.6196454560832625	8.184479069068301	10.96506072443883	14	0.45856588982756247	-0.6369664033450811	-0.39001559400283836
Si	4.155666945187888	9.44303226263937	12.252304539568849	14	0.0772082358797907	0.6064923775380261	-0.702909084154111
Si	2.652629020445436	5.607746655739402	13.739006342270027	14	0.3670517668359358	-0.35712292942112	-1.1251365140498926
Si	4.1408710392668535	6.774345669876531	15.013420484823998	14	0.6042400892775763	1.240989491333637	-0.44494468806248194
Si	-0.0370471132751489	8.152609703601621	13.769302721060717	14	-1.3024767037333822	0.6449026341367823	-0.8248388688620254
Si	1.3964680774441023	9.46838028751184	15.02620100156642	14	0.6682428711225544	-0.18163882066824522	-0.2090794564185896
Si	0.056201503110907006	10.786969139216541	-0.052908062258052106	14	0.49960998671627826	0.19685076529490134	1.5167616199831435
Si	1.362468625853685	12.17599830050544	1.4582078044767257	14	0.38755478910092467	-0.051434961929562324	-0.9529557614123442
Si	2.76416360693988	13.620491627400876	0.0763226243412842	14	0.16680739962897104	-0.28370604544641964	0.8949462260686311
Si	4.088307067844174	15.182238002769093	1.4220127256510715	14	-1.1053078927103785	-0.19928225959616536	0.006131314856957124
Si	2.8334569470728326	10.873729185564137	2.7561675913369292	14	-0.18945240973617522	0.012021974255948387	-0.2187622390542673
Si	4.142050779273846	12.353778565448104	4.027648769151295	14	-0.008741758088503469	0.3882263618105473	0.14214021518747036
Si	0.0363589316044031	13.535386494118644	2.782597044549143	14	0.15758458773506787	0.4621446113226765	0.818147310155808
Si	1.3688424989470211	15.014321675107118	4.192025876792291	14	-0.2901947439428773	-0.3557946964127315	0.2801255241775814
Si	-0.1311969199443243	10.873843882509263	5.616774943848471	14	1.1799481085964052	-0.19274753831447702	0.16636876906135378
Si	1.4068727288946639	12.25728566404282	6.855813271470534	14	-0.5202065972149205	-0.5213229711449289	0.9557526097796011
Si	2.788659597362856	13.572646616006166	5.581956228364309	14	-0.10384283011226868	0.5846714066859293	-1.3155561736075074
Si	4.204052670752468	14.923498079846548	6.83941160831776	14	-0.02379660818009853	1.5321445431135896	-0.4663972195222014
Si	2.7221845250243866	10.907171537706809	8.39411231419977	14	-1.2152164744939404	0.39886019630414776	-0.13061420714777852
Si	4.1414936798261	12.224171017457646	9.670804010378355	14	0.5716325602758623	0.5105366701058437	0.2343521361629852
Si	0.1259044751907316	13.766074821319362	8.251199920574892	14	1.13064510719831	-1.7891506882523995	0.340716706373255
Si	1.5447220716561976	14.911880917833244	9.62648183372675	14	0.18624778406514267	1.2170738409772155	0.4002755897828893
Si	-0.16581901209398803	10.825523698056182	10.868829987479542	14	0.1015792289884103	0.44500690881122956	0.23047722333499002
Si	1.3293375939906371	12.024909653220988	12.330036297807377	14	-0.3787685508903826	0.0493387397620456	-0.30350432774315583
Si	2.6789273914346508	13.445005301360696	11.127258590122466	14	0.687176490700125	0.8614832903269038	-0.7427619879480023
Si	3.9484259506261528	15.009619100357023	12.443422420701683	14	0.2484204531432394	-0.9222091984413533	0.32196075017330683
Si	2.8224951961745246	10.764750702418178	13.650755235635817	14	-0.3317499765692386	0.26541083131984194	0.34703982568709524
Si	4.048720236498416	12.243964433130525	15.03513097800824	14	-0.2862195580073964	-0.4673636980120451	0.46048804816490513
Si	0.255774187627189	13.63110928746381	13.764288826030997	14	4.24984760374268	-5.138686940454895	-0.2633423770897828
Si	1.5932388794437766	15.073718307403631	15.103588668969573	14	0.9568070200713938	0.0672261765848478	0.30875452480689825
Si	5.44653190672826	0.0468291241664642	0.033212958252422306	14	0.9789660912730901	0.3358166938541169	0.8515500820330437
Si	6.742853165800974	1.6227159943407217	1.3871776248890342	14	0.8085707141698525	-1.0342438272141457	-1.0986081064671367
Si	8.255853339491365	2.721430802242141	-0.14140494806038703	14	-1.1264495775368923	0.4414094182472783	0.6950872675491565
Si	9.587452101828738	4.0832767875365805	1.2225055822462891	14	-0.748521006754602	-0.5996007868379011	1.0514910588122313
Si	8.197931382203594	0.23906120419479104	2.6574626774185317	14	0.33978416647363735	-0.6886289080954766	0.551572539457535
Si	9.67095147787923	1.4122307147597564	4.192632132073663	14	-1.0892677950601026	-0.09090040015170726	-0.24646049955769056
Si	5.314106090943318	2.963785447289787	2.532098916397672	14	-0.3058365773790622	-0.20846984734718252	1.197162944267457
Si	6.753978769478031	4.227713012003823	3.947049587284661	14	0.314878640568959	-0.6809096785927959	0.40747005668972763
Si	5.607156785735905	0.10924064759195831	5.367276317647369	14	-1.3285289426108464	-0.4188765083320326	1.1135205173239955
Si	6.809705099530566	1.4301725940327719	6.887223849156717	14	-0.6258779974308786	-0.018895052997768235	0.6837134689444175
Si	8.047252366866013	2.6985897248845307	5.460950951258172	14	1.146989880829023	0.8928227501847208	-0.9342394002343263
Si	9.61755185728493	3.9686945393574042	6.787748827178199	14	-0.3984393063632395	-0.013768526099924978	-0.5897855922782358
Si	8.14512163161279	0.1294109246559602	8.338336828313611	14	-0.5216713559158088	-0.14475168686114476	0.2075560765164019
Si	9.683011042395155	1.4200628775839583	9.563709834188009	14	-0.135119297889742	0.5004489383822426	0.47658342457956415
Si	5.476303956626953	2.9188078595231866	8.287542466901423	14	-0.18712735919516532	-0.3549338903515459	-0.8338305383876472
Si	6.964644287115621	4.241280022084241	9.564660180304752	14	-0.7556730504236578	-0.29198860412474464	0.16726685614968148
Si	5.2402576435611445	-0.07768260240490091	11.045774603250587	14	0.7856300269508312	-0.0638230615830998	-1.3683173116612022
Si	6.662270369212216	1.3214071194991854	12.212291690998343	14	0.6100500159695149	0.3472676256184604	0.1039718995993401
Si	8.15033214997701	2.768030532518357	11.000305457147741	14	0.09175863510757272	-0.7789636650767512	-1.0061838121921778
Si	9.46761017945172	4.136692793408755	12.292399314528732	14	0.0924842010289185	-0.29418818472613134	0.47977313783973985
Si	7.997277269347568	-0.0603142078575069	13.592816893070168	14	-0.15925014976145976	-0.008266874935872118	-0.3125821292970027
Si	9.340099947029248	1.170269316381108	14.998886743348962	14	0.7910002946330245	0.28099918576536775	-0.3695159141747657
Si	5.422019531027409	2.7921824321059594	13.520787211532108	14	-0.089853960286407	0.595398315192119	0.12463818705215837
Si	6.889321164724705	4.087029016169932	14.86546142561365	14	-0.27529390305995916	-0.45792568460284555	0.2455644693536189
Si	5.571567962191621	5.456576082065574	-0.16057572317402002	14	0.0850321093690013	0.07518477599283416	0.9841502109301047
Si	6.973852813281314	6.854633531463542	1.2586023494046938	14	-0.9997177394225373	0.3285489504456543	-0.7172715355829902
Si	8.230865790732143	8.284445649383066	-0.17804242938866344	14	0.3858334340890855	-0.19098247451219535	0.11430028678090697
Si	9.492138940430445	9.80093588726081	1.1986813882161844	14	-0.708569115405885	-1.5371556273825582	0.8654114250350261
Si	8.245284835262055	5.515120679912592	2.6279691772437115	14	-0.006266812107328928	-1.3378011197268966	-0.011059609534616963
Si	9.488812729021841	6.8614334217816255	3.947360907564285	14	0.7886384772859364	0.7534912104489803	0.7075751260891158
Si	5.419184877955052	8.136027802392222	2.5729146435840478	14	0.4966735273301372	-0.6598718664212163	0.2984953003584434
Si	6.603430836363449	9.531217828162083	3.9750847977286154	14	0.8809385871739324	0.8151411738154908	-0.09002776700604902
Si	5.333276866056951	5.513826242960475	5.281925405197015	14	0.44358688734291174	0.5313880771417124	0.8775406143828247
Si	6.84586740780047	6.8585987687092675	6.761614308967734	14	-0.9724984758402576	-0.5239005042283773	-0.35545402495781186
Si	8.020331355317552	8.198242702483215	5.292657762205074	14	0.06802450478675376	-0.4572667103092916	-0.9361751854298657
Si	9.536543043471424	9.484372318717742	6.4633694810888045	14	0.5597136873432519	0.1430904957137971	1.1627394435781222
Si	8.249577778065278	5.407240010384251	7.956707321329316	14	-0.05613957044436927	0.4909088520918332	1.1623663761961687
Si	9.62802204984699	6.74187004912848	9.388239893425705	14	-0.808372996170733	-0.03813694810322444	0.37487641165674246
Si	5.50799308403701	8.214562439246617	8.185822661854042	14	-0.21856529238674394	-0.3539728111828745	0.1992606623114761
Si	6.93113639386145	9.496530194900918	9.514472074173932	14	0.22823033439571258	0.15214412887763454	-0.13917084565323135
Si	5.3959669392063185	5.466620257402887	11.042858023788856	14	0.44589136904136045	-0.1410210130416099	-1.062199712470648
Si	6.878326643270647	6.762449958139354	12.195578707565947	14	-0.4315021781171517	0.4881387432199056	0.8136255072292636
Si	8.188313224091027	8.039354662930311	10.848495857636792	14	1.0572991857304455	0.43862542540662197	-0.5733703703617504
Si	9.573475459801449	9.440476159290885	12.226006168579636	14	0.24170883981552488	0.2708147804817292	0.17336063286896447
Si	8.167864397303152	5.557411082107708	13.660143999858132	14	0.9880480065954492	-0.12026473690258647	-0.13180334335834704
Si	9.730085945729742	6.796039777782899	14.958234868941336	14	-0.7412836023889172	0.6282950935423497	0.18656891511962914
Si	5.582169236976682	8.194523244405614	13.554114866729655	14	-0.995633024400418	-1.0054708446869005	0.26381906001613825
Si	6.810131116755313	9.6184858181238	14.855105929996716	14	0.5663358262058252	0.5317200068385437	0.9107541529084977
Si	5.487855577528758	10.963389426095592	-0.0012616663963673001	14	0.06903752028289212	-0.33182633839724707	-0.3415844544188051
Si	6.847751714756083	12.396314746811345	1.3183103019808295	14	-1.0277085917113935	1.5400774314683743	-1.3997156498308505
Si	8.284167099659191	13.764993392979619	-0.11766268041965691	14	-0.872076758466978	-0.29433268084512365	1.122917135937541
Si	9.54214680850464	14.975783501545353	1.4703984512156512	14	0.046183993534223894	0.4743697028989166	0.037206979308926885
Si	8.020478822818427	11.063454318077605	2.568998562171947	14	1.5470852361289702	-1.4715315065226946	2.3626120757424833
Si	9.57886621622229	12.219026040204927	4.171003565278795	14	-0.4132465590125043	0.7923336698520533	-0.8008185745190739
Si	5.488838694201252	13.852703785443957	2.6675887791452197	14	0.05902100817665923	-1.0233762792469439	0.320209570339754
Si	6.861285954280751	15.155497229277257	4.019931303272217	14	1.1765370231681649	-0.4722184590775488	0.09489538359815336
Si	5.4012593839599115	10.962930638315093	5.427459443281876	14	-0.04562220702177155	-0.24051738961016822	0.01437813517133209
Si	6.86141703650375	12.147897548949988	6.775328786549026	14	0.26154491736046726	1.202411341557475	0.34895915580858583
Si	8.241581762462326	13.730240218606955	5.524148968021662	14	-0.7144217224461381	-0.5041829546386937	-0.6109396184102862
Si	9.39541664513491	15.180402851647106	6.9429174086535035	14	0.5370252255561372	-0.6719758589368775	-0.4024168062935086
Si	8.330209730487661	10.77853072111097	8.034947023181964	14	-0.6113887905097161	0.17258210217802358	0.3413188592392337
Si	9.4667745302801	12.25481148708371	9.500069414921896	14	0.03352438515887879	-0.20960447612496383	0.48712007129206303
Si	5.523460786350915	13.639760714181756	8.193490971899497	14	-0.006988778481226508	-1.3425607498955547	0.1425922155027524
Si	6.746081065542329	14.972145969857126	9.62467945316051	14	-0.06880560658301477	1.1813701869489792	0.05549088057209592
Si	5.661162661611575	10.870157194987412	10.942399885137846	14	-0.46910227942952926	0.48918698285893	0.42959570352226195
Si	6.980423309709149	12.392398665399245	12.387679705371273	14	-0.5435409206584565	-0.570305355709602	-0.3162950624898285
Si	8.22698247987579	13.758308199606658	10.89781554404024	14	-0.21656085867915653	-0.9065105435775932	-0.037990137989443985
Si	9.52068209448852	15.190135706704796	12.163529104042642	14	-0.03856529424956111	-1.3258305675773512	1.4358659048531965
Si	8.368977297939676	10.9332896706394	13.652688698425054	14	-0.09686382183125873	0.3368721325880376	0.2013286023204712
Si	9.72970908433862	12.411847990236751	15.10829124371967	14	-0.7599752809558616	-0.550532784466067	-1.4045976646127478
Si	5.399424232837923	13.571565187666423	13.791570313692706	14	0.1911585952266255	0.4220952750823259	-1.4384609214528221
Si	6.679229131812737	14.998870358071088	15.040964136931706	14	0.8423797206876716	0.2222831106796781	0.08582426691813892
Si	10.75796719737797	-0.1275921588118463	-0.09275705804980891	14	1.0887929119074715	0.22504344935138904	0.9182748930804627
Si	12.180946654423659	1.2667622177863942	1.4485241052526596	14	0.5120577360132432	-0.7434705845742351	-0.9775365567150879
Si	13.545823916124956	2.7538736524344434	0.1273463796437228	14	-1.2780635444975121	0.6233683415278819	0.647049764189638
Si	14.87003291814075	4.2037249651949695	1.4761496837497412	14	0.30429031463952516	-0.1513797392659545	-0.2446036472954796
Si	13.671597309092688	-0.07773175823852561	2.855380448869449	14	-0.5164931498010307	0.13027276436126287	-1.3054797547473151
Si	15.035737233289613	1.2314027881323597	4.077476399168865	14	0.12943895490593885	1.0972963285327972	0.2809073973054384
Si	10.882413382837836	2.6965907209837927	2.6625093430040008	14	-0.24849964318709994	0.8248375833093653	0.6258944525049275
Si	12.221664069942788	4.075329927767253	4.065777310766187	14	0.4261990162838143	-0.3110916595429129	-0.03972254875415976
Si	10.915839349702631	-0.049893171129070504	5.576467160276217	14	0.12603712545685092	0.35102632448598486	-0.00024631188967018597
Si	12.343308372886044	1.2291580050634985	6.955271908171177	14	0.17789246310625745	-0.028721560420842177	-0.5164684671899572
Si	13.591620767785301	2.535687292252275	5.409484793453111	14	0.1399514332284283	0.8041664107564387	0.05047156876610284
Si	15.077323068536108	3.855685277854219	6.783865516321849	14	-0.27633005850397885	0.4401819725674397	-0.6939264134971096
Si	13.71220002766669	-0.21726878462117402	8.277023118505735	14	-0.6753545484380841	0.6239085307556451	0.4386285107330061
Si	14.953122662244368	1.2552433674403392	9.637705749071056	14	0.451387363773709	0.2640707712269808	0.17254507826141346
Si	11.126324629283596	2.8086496363702342	8.155657365286352	14	-1.0106811896181807	-1.0214134974455429	0.3461440525935557
Si	12.408275999660024	4.038839913939851	9.58635428821112	14	0.40094690538197997	0.4644148973203673	-0.3141888130115632
Si	11.017509998916385	-0.07976353269501321	10.930192853121042	14	0.10647127108105606	1.8770745197749714	-0.15895858641815497
Si	12.238016577261936	1.4738393595693802	12.389826176772887	14	-0.5522230291035325	-0.7488557646672852	0.09278090658286357
Si	13.607235937600082	2.7138608038639376	11.09774870466977	14	0.733608081676679	0.5510812012308547	-0.7260554597987441
Si	14.951811840014374	4.107264834345433	12.459119516905837	14	1.1339901152198224	-0.33744086108485444	-1.1467309705232842
Si	13.64354571337086	0.1758304168755519	13.829141755859853	14	-1.5491632034487137	0.459184240657058	-0.3492610035731712
Si	15.051417944215892	1.4853090540818101	15.469750473639964	14	1.5654210737196061	-0.41665018823531635	-1.3183674201645574
Si	10.693556670051738	2.6336712539441764	13.688130054468463	14	0.16931294176345535	0.6923922349525773	-0.014649129672075696
Si	12.170722241029722	4.020586714387213	14.95102534667638	14	0.5811698183504197	0.20749462709925034	0.2317884870482655
Si	10.941875556245847	5.419266804344426	0.054972607270289506	14	0.715758182991551	0.5555173863502383	-0.9542107179191083
Si	12.181257974703282	6.867479589317464	1.4483602524739108	14	0.21752887983219224	0.4933573156882101	-1.962233127525724
Si	13.690014361424076	8.192180149669504	0.045452760824972606	14	-0.5942397751348604	0.0041081120805326	1.3731592172001053
Si	15.137735588060865	9.485797837892859	1.4338592815546243	14	-0.10751848227795237	-0.08570522474181606	0.1756864547415704
Si	13.472827503192276	5.651675585722009	2.7668180219556144	14	1.5789075495659108	-1.4275712619798668	1.3239030099188362
Si	15.087907958043294	6.823108256832234	4.17175728806104	14	-0.7880275826618692	-0.25654900261288754	-0.6989254135710735
Si	10.868027108863673	8.308958025083916	2.564164905198851	14	-0.9466082165979626	0.7833988217540068	0.8961937263699671
Si	12.36944289109651	9.5606457872254	3.9612720084800745	14	-0.8424807651267534	-0.24472860301403876	-0.578155197362546
Si	10.795571410100866	5.39811341060793	5.357428765644554	14	0.049364707925779086	0.25867119294413776	-0.1961048876415264
Si	12.311619245475988	6.737675417992505	6.7422796810753525	14	-0.08716689811632025	0.12107643485215722	-0.17282789984662977
Si	13.605236933699343	8.219805728166586	5.288889148293847	14	-0.19134088659382398	-1.3867513654750678	0.9813042544512327
Si	14.862495690318294	9.364104379115975	6.794892808331656	14	0.38839939719859323	1.3576508241300358	0.6126090370946583
Si	13.789145292567222	5.329147776032476	8.07810584510445	14	-1.01344769894266	-0.16341225505371546	-0.04036069709462052
Si	15.012060506760383	6.654094115552641	9.485207967889362	14	0.11214595763315488	1.1718283008848456	0.299634557125801
Si	10.801158789856206	8.157885763077338	7.992820473765595	14	0.8225392722636848	0.0038013792158389345	-0.39214292654472893
Si	12.163299710152392	9.5404755101614	9.358549769916385	14	-0.06648595536317717	0.3124039516983164	0.3921316136813202
Si	10.865995334407184	5.277353912669918	10.801945283194202	14	0.5871237269402865	0.7172481385245769	0.6555680932258204
Si	12.24925687788412	6.77126523763605	12.136771945272931	14	0.24289926157875344	-0.6834638146178311	0.11907817179733814
Si	13.481659167966848	8.136535746006343	10.695457362285227	14	0.8148092441186596	-0.2180189325062125	0.2799776856216729
Si	14.826267840936891	9.492630498766692	12.20552457123601	14	1.0320984969350142	-1.1984274138639057	-0.19399478150528085
Si	13.666632569896594	5.492050208664732	13.661127116530627	14	-2.08582975981269	-0.22250525417933886	-0.2885636347277754
Si	14.84879759801488	6.846801368639339	15.043389158057192	14	1.0940636778137751	0.1469371263832706	-0.18523579701113238
Si	11.097224375777774	8.168388726195149	13.578430619096007	14	-0.5886440215160901	0.3533287493001775	0.4304868486262252
Si	12.394708989579605	9.5485042963201	15.116680505991619	14	-0.8251348030843744	0.5220210262393491	-0.6499206603901152
Si	10.952165510751284	11.029471251765063	0.0404552510731281	14	1.6622450434184026	0.08281375969877754	-0.08790531956426677
Si	12.330462315032124	12.307342687950639	1.547294560282557	14	0.31082889257919377	-0.367385496306491	-0.5752717027459999
Si	13.604466825639221	13.685164319173106	0.07017814513819672	14	0.34780190130398714	-1.1287789989569463	-0.21227971121057795
Si	14.974407138203862	14.85843214140532	1.5184237006669832	14	0.07945743881385624	0.2666377627786166	0.09112434342509217
Si	13.817885069959797	10.891408900391156	2.810828878327596	14	0.15934013844766495	0.922536500148608	-0.527646861790365
Si	15.084139344132069	12.319828269691312	4.301086286327625	14	-0.4300389620794554	-0.35421295241977635	-1.0567420272075696
Si	11.043562590737476	13.69266877643981	2.907092385842633	14	-0.7932276431718688	-0.004090885674887609	0.06090999925537202
Si	12.445503350991794	15.047682100860415	4.313965114737297	14	-1.203625417489649	-0.30938238872607843	-0.26409236851167
Si	11.071286480901808	10.860440725207594	5.343714288063262	14	-0.6387988301067506	0.19327590045776744	0.33002759311527147
Si	12.224252943847022	12.263430143245907	6.827745290470831	14	-0.20889253706181488	-0.03114868384306196	0.6249259171308277
Si	13.663109735153489	13.599928103667876	5.610663235201133	14	0.3204234863023903	-0.00976968599549867	0.11244163474497192
Si	15.091217784174026	14.8410801321358	7.001691400390769	14	-0.9555304662799404	1.4467776758319049	-1.6191381487313319
Si	13.671548153259064	10.94135122735385	8.208909518379777	14	-0.32982216180019164	-0.2884384218986842	-0.6408960807163955
Si	15.085204387193937	12.360693152711313	9.45192946852544	14	-0.3598932954035795	-0.2960347525670617	0.9766163581210068
Si	10.699799460922074	13.649641036740322	8.158229853912712	14	1.2502752953078837	0.0577912485020324	-0.04057024217821258
Si	12.209162102924237	14.895167934400845	9.598970952174794	14	0.49821053409052163	-0.5369763745550543	-0.4561752761008887
Si	10.896078704585502	10.907958031044805	10.869714792484787	14	-0.11473454646947995	-0.4557309891015672	-0.31135031273811975
Si	12.33118326725862	12.136575321938432	12.281224555018047	14	-0.3139286171531643	0.09408754230656283	0.6019834301380823
Si	13.625194202150972	13.547134738354949	10.995602882397645	14	0.35752864984063937	0.08780787467263317	-0.9212702307784352
Si	15.043372772779316	15.094625921972003	12.146144324217374	14	-1.038380992784796	0.9064069280331912	-1.9318945989690406
Si	13.771957136076452	10.834666683110378	13.673317763269553	14	-0.8059512720696855	0.8453292927109455	0.6948234721433093
Si	15.113616459029013	12.179324511914045	15.162313504873216	14	-0.8773318406308286	0.8175150753575835	-0.9869249477916086
Si	10.930471402844917	13.62385060936523	13.52737409323782	14	0.0630609859662079	0.5479655358038993	-0.3039092768310792
Si	12.260267784616053	14.925316845690661	15.000558041692203	14	-0.29645821361329006	0.5436491641924347	-0.046923957645362516
H	15.503386172061559	14.461506977524804	13.522691180821171	1	-2.203919598724964	-1.2534133293511245	-2.350882179050904
H	-1.6634284942764859	-1.6670660259647136	-2.0412615323771672	1	-3.3904425378460514	-0.5810268648946194	1.5296269167841006
H	-0.32334215799991417	14.449879984344776	14.89981316067838	1	-0.23076981512042286	-1.9659532598134462	2.8094588675208105
H	12.77416580871769	-0.6327896003619131	12.816043301910359	1	-0.22174729233095922	-0.5105109590526422	-0.6211697893686233
H	9.468978350154273	4.227713012003823	3.947049587284661	1	0.06610003245462294	0.19142830417470905	0.05087317541710997
H	6.693312278146214	6.981684976105516	4.020160697162465	1	-0.031245100292567517	0.044853703641579284	0.0570826518757996
H	12.182609760127963	4.136692793408755	12.292399314528732	1	0.02806952811165262	-0.279631357735049	-0.0896906950985776
H	3.921939148941377	6.8488822989294516	12.382075940338058	1	-0.03890905103086491	-0.03598878960824072	-0.06669807155208937
