68
config_type=vacancy dft_energy=-6821.238570942669 dft_virial="14.598109508779064 4.972969540988104 4.613674533100622 4.972969540988104 13.621713659422493 -2.4345736411077112 4.613674533100622 -2.4345736411077112 14.747426914654376" pbc="T T T" Lattice="10.834211144900001 0.0025027027744719 -0.004864560804060101 0.0025027027744719 10.823474441655407 -0.00035752896778170007 -0.004864560804060101 -0.00035752896778170007 10.834698684401522" Properties=species:S:1:pos:R:3:Z:I:1:dft_force:R:3
Si	6.822139161355243	9.380202587935353	9.607518422229843	14	-0.16287232293648438	0.39005107525625643	0.17399672432516908
Si	1.414686871035348	1.3321529339546143	1.387461581849329	14	0.3255317583524605	0.3907131348761945	0.5024965666592086
Si	2.7751658500283036	2.778429114425147	0.13888483608758762	14	0.5116615286834083	-0.13198383495182142	0.1895678523650499
Si	4.177265534555507	4.110956912085375	1.5711426307577345	14	-0.042957513467970075	-0.16334026410475133	-0.7453899146957257
Si	2.7254519887688153	0.01563810036654866	2.7619145263769767	14	0.5417925690407557	0.10151957934498286	-0.004164162176511829
Si	4.158622024017363	1.3705071248286749	4.039438117475661	14	0.08946186672508441	-0.29636411115857264	0.6582415285377105
Si	0.16809278591312352	2.747743378199447	2.864006381416483	14	-0.7120555342200057	-0.09807147000013229	0.04652132255222732
Si	1.4969889559975809	4.137524564654899	4.195423672434359	14	-0.043983384490709154	-0.12007061845091528	0.502938539663742
Si	0.0014972879802251802	-0.00050704108158132	5.4983123186654845	14	0.7124789952662341	0.07046474084610631	0.06920978433934204
Si	1.4473140978982144	1.2632495179152794	6.866715439689819	14	-0.2255443006677539	0.25776590676091365	0.05812189264620344
Si	2.798660920317134	2.607115317538645	5.491705616709324	14	0.06525979523599854	0.7172206276976513	0.07787775170515725
Si	4.19906505080016	3.9779496355438955	6.857881223922268	14	-0.4266376468514315	0.3893406788562995	-0.32335608903055124
Si	2.7678885104022743	-0.014918708746527301	8.298283095110037	14	-0.37211170210598726	-0.1089845265315008	-0.2477149418433908
Si	4.087211571519098	1.4151375742189758	9.546666991913398	14	0.14243177853077515	-0.18206073905128153	0.7953729734510003
Si	0.11303224145362722	2.4981838250033626	8.407489776608399	14	0.3815903389792451	0.630695991690304	-0.7030121854774489
Si	1.4894136755650667	4.0736590567979425	9.548710324135326	14	-0.42221354592705274	-0.4751420629370891	0.09749991328746337
Si	0.11463028759749998	5.378848889476244	0.0581374604246479	14	0.3586365391230911	0.3252677058360813	0.21053161670340928
Si	1.452122320804321	6.809772992754454	1.3787584600366307	14	-0.01283932863722346	-0.3257330758990281	0.47459878838294184
Si	2.676922306787465	8.200205315299714	-0.014463671878441503	14	0.3209863012569707	0.5087973173567634	0.47388813487245285
Si	4.1077835716410345	9.4501536721924	1.5027170034298896	14	-0.3108564034061193	0.17310146545269353	-1.0528375466683926
Si	2.8468016541183823	5.5074520591873215	2.8498731529779615	14	-0.5045148843355247	0.07259978670395728	-0.18139405144176712
Si	4.150095499846326	6.803655997142044	4.256184095377187	14	0.18860368786999435	0.01823145071463801	0.0741871871286167
Si	0.12391195628533581	8.17571999811224	2.7842665873900194	14	-0.557319988290194	-0.6474426290825566	-0.1385537803763958
Si	1.400666318392733	9.53621197815857	4.118471520935478	14	0.0937936649684699	-0.15812426274176694	0.6157920654810016
Si	0.13341139261718413	5.44820625896255	5.7047018741336	14	0.07522591367795652	-0.7531626231890654	-1.0120274203638102
Si	1.4636520883047237	6.7861446616685415	6.983378225298102	14	0.10110948804641925	0.5479195130186686	0.6855705783171604
Si	2.705604797372473	8.156960561514847	5.528564686445389	14	0.3033012104228642	0.14831678149806207	0.28188158911124256
Si	4.141300287238897	9.473792837489457	6.905702348494742	14	-0.339187670039363	-0.04922355424370296	-0.14884102987284029
Si	2.8935545254719695	5.37525734848171	8.275892030936872	14	-0.09909142748063503	0.22510361321588052	-0.7224865085038465
Si	4.164363072503045	6.79390195684829	9.612644087522495	14	-0.055487023914115696	0.040348870010147836	0.10362120083367192
Si	-0.08294347026201093	8.156579197282547	8.320703411653293	14	0.8208248592362102	-0.08912325215442092	-0.4764489557713204
Si	1.097779694520336	9.763367466128116	9.703937484313881	14	0.05103284105749117	0.09968098193054498	1.0126758531255515
Si	5.444524794015514	0.00359587467899231	0.07460112768043793	14	0.010218343873864512	-0.13899575338092923	0.10312600594901139
Si	6.908104293105566	1.305478022694756	1.401898168199908	14	-0.5460307790504879	0.4122816231858528	0.13961847508946912
Si	8.312354568545032	2.6640740157907277	0.10770072614922192	14	0.1152891338870359	-0.5455391837132755	0.05568628457642717
Si	9.67203289933438	4.030322212218342	1.400241617315853	14	-0.6168953267738773	0.21879669186555725	0.9011101939631542
Si	8.192454520646653	-0.017993457869449923	2.799776844065058	14	0.5461279668315894	0.27644113025380923	0.413397740005329
Si	9.544767754699697	1.410733467388574	4.2151950243526874	14	-0.2091020821454069	0.06685619452927848	-0.7672363394904919
Si	5.586552634756236	2.7341388592647964	2.802502731589115	14	0.04362162997216432	-0.46096190287540845	-0.28701171555653404
Si	6.948834426483703	4.021904030158756	4.166802936852877	14	-0.4515657984829273	0.30552393097213215	0.370927708106059
Si	5.4653568152049266	0.03231628500300772	5.549284031838895	14	0.03331561140688276	-0.2820728793470616	-0.6013424535817695
Si	6.867863866071179	1.2933577906869564	6.903101054398852	14	0.24830989561447306	0.42692663908941625	0.3831211750868613
Si	8.233305997189612	2.7514985157822696	5.611334809329081	14	0.21726174198942888	-0.260515703900812	-0.05593002536077721
Si	9.660971169755436	4.015598519272423	6.966310009060426	14	-0.6017206631743632	-0.2597286885623147	1.0320684150027686
Si	8.193176079108902	-0.03892623722251121	8.350779181791536	14	0.5659776712347286	-0.09326864526209568	-0.4024872545792807
Si	9.749500759283759	1.0600647221038249	9.82855691458698	14	-2.9351200973798557	2.2399032461225636	-2.656928044403026
Si	5.499522500050369	2.672709965494328	8.224017827975091	14	0.5490736821968831	0.04115773974386642	0.21567459867530148
Si	6.860385010117854	4.002651636954267	9.65719328032921	14	-0.38539994573210856	-0.030828838341235537	-0.017913404986535694
Si	5.536539749269149	5.477553970111856	0.19081971063178024	14	-0.08103018393819081	-0.5359211929316656	-0.14708650760237124
Si	6.901932043016317	6.739278031097933	1.5888153959772953	14	-0.35615722226287233	0.6798928064386774	-0.22741298001443755
Si	8.19986620449088	8.177945345081403	0.2375975006710005	14	0.09441484401381768	-0.6149590273572737	-0.4543770450399772
Si	9.68510654192293	9.638187907138827	1.3258333385937942	14	-0.29065548601624785	-0.5568600175484195	0.8237901150019371
Si	8.279694839048732	5.403027598488317	2.8831049288227133	14	0.8922985018099426	-0.6602235936290126	-0.3629547105082798
Si	9.644377491965907	6.713815468065189	4.2437735065107045	14	-0.03967266931094889	0.7217647992404809	-0.19010032827685255
Si	5.452055654182334	8.15707973783744	2.847771316015851	14	0.37888707884564143	-0.5691658418317121	0.077612927857182
Si	6.858128243936372	9.438480893104884	4.186471363765328	14	-0.30228279560555354	0.5229869905081286	0.14789563444662182
Si	5.5629600565671025	5.383012476819229	5.533223397237696	14	-0.39254993251690834	-0.1813773392571862	-0.26831206656309703
Si	6.873188880848897	6.726972534079556	6.889950488911172	14	0.11265272249175606	-0.4000333916617313	0.5465429432302613
Si	8.16085112673698	8.069567480735625	5.542564654086828	14	0.7325117623681678	0.13526225134554223	-0.3341889270759311
Si	9.540267223390105	9.488206671996632	6.816296271284798	14	-0.7847730775476259	-0.29147104062379886	0.7425053916370515
Si	8.190423106056985	5.382043898342875	8.368424861483232	14	0.20258767259574775	-0.19909765423417874	-1.1507269824118584
Si	9.513405963698554	6.727350648048512	9.675274495308933	14	-0.25295099782787234	0.6848308713165538	0.31104075165757394
Si	5.50083994012559	8.082976983869667	8.195506517926171	14	-0.052928002788972306	-0.0396711266477568	0.11666673211757124
H	1.8892903244488375	8.904394370242551	8.846394504299443	1	1.3884300401385925	-1.595651872963375	-1.6092548198806829
H	10.50926173345213	0.21892582118387982	10.672216936440341	1	-0.43683850720911904	-1.2180259212772664	0.25655954414470017
H	8.79556038560757	8.695270259881461	2.2912352242401695	1	0.09916727508757939	-0.05365742536829831	0.0725200824390327
H	0.4716988014055417	0.48354709471360435	0.4757670476904517	1	1.6524496463697025	0.836953660020031	1.5409449224033926
H	9.663830318076576	4.021904030158756	4.166802936852877	1	0.057029172885140506	-0.08986373048662356	-0.0659120846557201
