220
config_type=vacancy dft_energy=-23096.21064974722 dft_virial="-23.22829142620856 -25.60313323319291 -59.43555700637743 -25.60313323319291 -10.100133661283186 -113.1335929748283 -59.43555700637742 -113.1335929748283 39.91266391738214" pbc="T T T" Lattice="16.568782582420706 0.0930687131397199 0.048066999611594705 0.10905790811565541 16.444613642369244 0.18946781818634453 0.39681371034060037 0.5577660833936962 16.12519426335776" Properties=species:S:1:pos:R:3:Z:I:1:dft_force:R:3
Si	12.742308089590097	15.56174497387417	14.919587422324069	14	-0.5472643953830949	-0.03355549553325258	-0.029704493984734785
Si	1.3749895792720261	1.0910894098666668	1.0422734863038678	14	1.3036576124069261	2.0655751063216274	2.3381485228423387
Si	2.6506075544521606	2.7333553665032686	-0.1072137657313843	14	0.8773377541730649	0.1966152520475758	0.384418040610344
Si	4.1956873731288145	4.103448772598726	1.4267299514495948	14	-1.0302976947687823	0.09636297051489388	-0.8186571603407934
Si	2.8067515706327004	-0.02404012745138323	2.6575864652540924	14	0.6532283873844856	0.5973664963146924	-0.8173430684116657
Si	4.247684566572836	1.5003548093517391	3.9201363802502676	14	-0.01892770603533411	-0.47329678064881886	0.6837481788662395
Si	0.2016643429757602	2.7237419665809495	2.5449811098385946	14	-0.18634137229879608	-0.24935839236402946	0.027919118450423958
Si	1.6802953870083812	4.0582482297030245	3.953075778812091	14	-1.8076551903520373	0.16607900549177307	0.25562314758710225
Si	0.0822490817207708	0.14850565464281318	5.353371365842403	14	-0.028285243848013047	-0.35472665926274194	-0.8194742576115362
Si	1.407221476667557	1.5792204780009182	6.592434561793616	14	0.686639386798746	0.5952674459313236	0.26033341253361353
Si	2.989338235789505	2.9028110088430483	5.36328632363888	14	0.1851977446523942	-0.7362180106871614	0.7547531089401089
Si	4.124662209207732	4.335553891750433	6.948701993351199	14	0.9900305859078152	0.05321416681110479	-1.2189139810548455
Si	2.8156359295405724	0.3608438208346331	7.979057315980258	14	1.5595869786376582	-0.19948820513230925	-0.3757076500067463
Si	4.3657013946092045	1.598838308935123	9.406035804139325	14	-0.3741351619929438	0.27318276848158557	0.581213012919798
Si	0.24228849659441165	3.0508792388771937	8.028763000962963	14	-0.009135137202486125	-0.6849619976878814	0.5351187509612474
Si	1.6265932317373921	4.3413597092836635	9.491399879285458	14	0.07204674194959343	-0.5866275036134979	0.32039700391759285
Si	0.25455626857387553	0.37293098947188175	10.837714949930174	14	0.8270693027272538	0.17495574660958435	0.07960964824880899
Si	1.7946752945294981	1.7339262950893222	12.291595051522327	14	-1.1326806512802712	0.5477441636358346	-0.9943847527674862
Si	3.1695770574975115	3.1519292942137094	10.9361321730577	14	-0.7467086346144296	-1.0162697441420545	-1.0990783616301916
Si	4.425290556071852	4.601360588706339	12.20327504644489	14	1.3955882544604168	-0.4126055824561914	-0.40711164460809895
Si	3.1917515027164693	0.4865719145101732	13.567947038451097	14	-0.09057027022860027	-0.373288754121551	0.4135306661503807
Si	4.600321705260753	1.9212086471437229	14.7876757353169	14	0.04972697666538795	-0.07183642553440532	0.23814888738924783
Si	0.2882661309350577	2.940280403162821	13.722372837513499	14	0.09527847829085542	0.4669240390022998	-0.36214378389030516
Si	1.5728844488208171	4.7122377855353195	14.75794080339585	14	0.8528783150414323	-1.0536865256451056	-0.2879403987981715
Si	-0.03825974105588877	5.509500469820375	0.02951290579392364	14	-0.4162154143256793	0.08659688406684342	0.4092490044607381
Si	1.3928941638222807	6.74408503426693	1.4128417201243832	14	-0.42270745525905323	0.5190652835633068	0.5154639363413754
Si	2.715394446965534	8.085679564343103	0.14049945877507014	14	0.5996241838963144	1.4154657268010136	0.3856151472474049
Si	4.2810580759205346	9.666611631816574	1.3861637897298198	14	-1.033626504826778	-0.9136908694051707	0.6893323625110691
Si	2.8394788845357755	5.526455644140452	2.7401702430769497	14	1.1922068816523395	0.6776135215723661	-0.20341942516681566
Si	4.255266593123083	6.979871810541593	4.121169439983973	14	-0.13494034895945967	-0.18376486765747566	0.052236118347320455
Si	0.13934127770893762	8.292303043128497	2.7815897141659067	14	1.4361368993539403	-0.4790385730497736	0.34486621324944206
Si	1.5364423395668558	9.79406457025584	4.1031803529524975	14	0.012398126964286051	-0.6112815754178659	-0.5416840683962455
Si	0.27897748564644687	5.488881864402702	5.365826368809668	14	0.4072630827114557	0.2683624602273719	-0.3028165570700163
Si	1.643137492031145	7.034806707891556	6.668201806131397	14	-1.4704817242204784	-0.4094793754974234	0.17561806334005445
Si	2.877152078957314	8.409935467720885	5.412935673634103	14	1.5179474137567959	0.7624445705053318	-0.17588263007749771
Si	4.3861195137479045	9.80105342252615	6.852519943697512	14	0.06246243264767744	-0.17816525738072514	-0.38754759000602823
Si	2.8020939926972233	5.778259782884792	8.162954598051671	14	1.3171692850853685	0.5837159839489623	0.6733611704833733
Si	4.412938281611168	7.184114307650261	9.454280093270341	14	-0.2684203100970753	0.23708367845511047	-0.456631647295215
Si	0.33553118543076094	8.50293624749335	7.979173299778012	14	0.17356349307872412	0.054715435207539256	1.1738522749928664
Si	1.7588396148466452	9.928125271344227	9.538709670388865	14	-0.8644346621239019	-0.1009680772538111	-0.6535934843399468
Si	0.31306678071742067	5.678536913576847	10.833503081160348	14	-0.04833832268197597	0.8363815890862982	-0.0026814057383824316
Si	1.6550871370224867	7.2670559783347555	12.048431705710579	14	-0.031196506402016717	0.31753510658573597	-0.24003736424689662
Si	3.182830691757875	8.676201129133615	10.851333104697762	14	-0.10585703402007267	-0.4959083663868611	0.34249256881788137
Si	4.489724526457777	10.065405351275958	12.33063188402316	14	-0.5041479876063396	-0.30459447639889864	0.023762669589872575
Si	3.051593367689072	5.994115571971317	13.342795976430375	14	0.007235090370896695	0.23820288060097092	1.9662332531828102
Si	4.450989251831101	7.319545274463529	15.006784041474699	14	0.36968843534174767	-0.49861162652046476	-1.344128867030313
Si	0.28898854430391857	8.6252328776668	13.456950544001572	14	1.0623316101735716	0.734059567770897	-0.44861082713848105
Si	1.6900396829310214	9.937407288987252	14.923978237524713	14	-0.22216304006122717	0.10535746825636791	0.04885177241440955
Si	0.00861262543885106	10.905721221286889	0.09713145988386435	14	0.6704565928032019	0.34157391288699246	0.5272180014229643
Si	1.368231037685825	12.426946486588564	1.5831440441877593	14	-0.3143531066415207	-0.17956368156435373	-1.3993263844853803
Si	2.805139395843935	13.686157725120852	0.21187754482360127	14	0.4148861528751628	0.40403763108733	-0.5749181757644796
Si	4.37115760383778	15.088877373524202	1.4437282054659804	14	-1.2272114521440274	-0.19082615130873037	0.6308829110470787
Si	2.8669935551855565	11.160545909506993	2.7169552575010085	14	0.8960538582405508	-1.0178337475083008	0.5367755712295508
Si	4.24973416597027	12.47004275201075	4.1445086939146485	14	1.1224821049173717	-0.20206728087894976	-0.21665418980227788
Si	0.16969920831506094	13.989253213054317	2.82531560591875	14	-0.45514451997804134	-0.1259954735506645	-0.3451030120494277
Si	1.6689488577653546	15.107380103088582	4.2683893313831245	14	-1.0016432401967963	0.7834782689083992	0.010245597590258079
Si	0.14241153452659652	11.149666629277771	5.325480576305623	14	0.5705619520205527	1.0227941810024623	0.7927836132830792
Si	1.5246103352846636	12.458257141247659	6.952461525309791	14	0.4266337901934514	0.5738941045154645	-0.6843148504788001
Si	3.0431746008836082	13.78953574096941	5.54394600084159	14	-0.764460317076328	-0.11388068239265879	0.9451208321702568
Si	4.400087276820146	15.271417645161906	6.782543604690395	14	-0.6495295952709207	0.586453439783324	0.7362789458832488
Si	3.150911950616277	11.233438412571898	8.213588153416397	14	-0.4846754643536662	0.4554844201013649	0.14748220071114201
Si	4.467752224429188	12.700588717538377	9.613080138419422	14	-0.2763591119940965	0.3599647721314796	-0.928679384979506
Si	0.2825531004400291	14.120061397071433	8.255547777620604	14	0.9876327730862453	-0.45931151037040535	-0.6756119160806309
Si	1.7184374873551205	15.48879447891039	9.55133367831857	14	-0.7311462483326373	-0.36835480301218687	0.7255461238348228
Si	0.2816235731466094	11.392129101568813	10.764679952485173	14	1.1614536338075163	0.26050336259527535	0.0766145676613685
Si	1.6291415614651628	12.759730512923978	12.269375869695663	14	0.8071982581499574	-0.36236078517932563	-0.4374437454014819
Si	3.070545120241896	14.146434455769047	10.905151243766504	14	0.3158078380316605	-0.3384608185653572	0.4509518185324759
Si	4.511333964890539	15.572973862408048	12.28782889191815	14	-0.7779051410164463	-1.0482748631672578	0.287827270164085
Si	3.0174096286684997	11.350345109972631	13.69821341244157	14	0.8893340173758119	1.0421450909734928	-0.6978882296849258
Si	4.645863571904128	12.876937111287473	14.870450057950354	14	-2.007917298185711	-0.6911370213352811	0.6353144681768861
Si	0.43837898963244676	14.254016055830448	13.590328597594613	14	0.9675683813888737	-0.07894681729727483	1.1386877817502652
Si	1.6641189610446445	15.874279886033325	15.219080784881607	14	1.1544453149258567	-1.9430544816111435	-1.501520107645306
Si	5.646068077851623	-0.07914071594099309	-0.020356813417030422	14	-0.6641617556478834	1.0350570678269086	-0.4137399541234408
Si	6.897432184010229	1.4008489954367334	1.2995238928084034	14	-0.2481569148479242	0.41325221544420865	0.7721854601212449
Si	8.301772291759324	2.8361020991097696	0.14948654618952342	14	0.5502273371540335	-0.19787020855434007	-0.735622799805547
Si	9.76064466738904	4.1114997050741735	1.4849289642506036	14	-0.9000241590759236	0.7318551020694022	0.18435185100206547
Si	8.288354623270711	0.17110261226787105	2.6967160847931275	14	0.45259886860056275	-0.12249208544143075	-0.0006479185406773159
Si	9.662437872008868	1.4883769968666576	4.123818841306928	14	0.20029990308187998	0.712405204543546	0.03338528836105877
Si	5.62595151658708	2.9279082457653796	2.727339121222686	14	0.9530256954770521	-0.6733210612403789	0.2260911747693494
Si	7.091517814258535	4.3248535579520295	4.145946893006784	14	-1.146813760114593	-0.6999183744457148	1.1281192533317963
Si	5.684538246654863	0.23549018913469524	5.394678166956401	14	-0.07787518059983711	0.6201639729673815	-0.39818708093133304
Si	7.05404510611597	1.705987455122045	6.812280193522842	14	-0.7211029967310748	-0.30082112223104934	-0.1395351712770963
Si	8.51158698189432	3.0406759784977315	5.62271722554117	14	-0.06679500222265897	-0.11779081936353998	-1.2463219637676242
Si	9.95077193631118	4.471997231426945	6.85820977743299	14	-0.2144579516378074	-0.7333769393083978	0.29741929278196144
Si	8.446245024063128	0.3085649524532117	8.033800011608232	14	1.03466677403931	-0.27120841670624385	0.6497879913555955
Si	10.022468149347834	1.7397022882174167	9.389385501516196	14	-0.7938115411900744	-0.6384309049354375	0.06643221926198606
Si	5.66513084346801	3.0907992051523454	8.18310098372135	14	0.37828081221115056	-0.38562903121613373	-0.24798207968615413
Si	7.230973418853829	4.3710979550275075	9.408479748449118	14	0.044953462528001024	0.604166041444356	0.7796102980647686
Si	5.798141062731035	0.261157403577412	10.77019249670123	14	0.5752341646083258	0.6449360585059442	-1.2369238024908868
Si	7.146616745836749	1.7941218861230774	11.979003804375694	14	0.13486912934209158	-0.9194465457748542	0.5197214296410085
Si	8.667066576604876	3.002981244228039	10.8141868081003	14	0.29721334724581755	1.3266229822370208	-0.6215927361937877
Si	10.032808933373202	4.54529733469538	12.17760948891357	14	-0.6602865857093562	0.20490783803664936	-0.6976509166638761
Si	8.471277641440997	0.47241029280454405	13.456055811847477	14	1.2249403948147406	0.15310906470428612	-0.1715662584660331
Si	10.001796522765474	1.94266067899382	14.90083449913882	14	-1.0781007133231035	-0.178353719400692	-0.7065916783041591
Si	6.00322030009492	3.194503632546006	13.396506416258346	14	-1.0460223177962762	0.577927140320649	0.33057780965378314
Si	7.321485517708795	4.544064592616407	14.811652900135218	14	-0.5529563083408388	0.8702690143163818	0.5766930097669778
Si	5.571034845262478	5.51142248704028	0.18658644926788318	14	0.38154663018880264	-0.5317218066122678	-0.787154435295147
Si	7.0285286706103305	6.859904797791579	1.5700892392949721	14	-0.06745166252142477	-0.020356212151208385	-0.45806760961651766
Si	8.3844886224939	8.214067000809978	0.23920664139697748	14	0.08918752978742461	0.990652536284759	-0.3341544742646411
Si	9.81842613851814	9.814020411114925	1.6816573681762796	14	-0.7733951651743746	-0.9896264081514881	-1.9435807868701775
Si	8.469393733183212	5.614851867142128	2.9315633923059923	14	0.9837732868901709	0.42813608703201383	-0.5854890181777364
Si	9.843289750933568	7.116157743635441	4.2874951766958205	14	0.2203565814632911	-0.30147803964034725	-0.6549499995068568
Si	5.713731368549267	8.28767860342095	2.8439889973569668	14	-0.6517769984312621	0.6765881647706911	-0.23225719954812854
Si	7.022504140772766	9.801066677817321	4.152650756516903	14	-0.5768537038494871	-0.17349921544572044	0.33388399398496155
Si	5.636714813018549	5.7107489280356205	5.599324950445807	14	0.4660190099296077	-0.0275933594063612	-0.11394470291513047
Si	7.266365046282428	7.205047726233263	6.861677692985802	14	-0.5525081646835368	-0.6033273468889238	-0.3493527920331005
Si	8.519661111129318	8.658651123622205	5.470319486028049	14	0.18969126542041698	-1.0538801298757128	0.5227432497237786
Si	9.910151096515321	9.874037055717862	6.935044072710097	14	-1.0157341829038675	0.4863312561798416	-0.21889567942038296
Si	8.704532657101854	5.842707008561889	8.206224839170485	14	-1.4705637424801912	-0.06325664708107118	-0.18683656718345656
Si	9.878727771881268	7.27850689299576	9.552599558625474	14	1.2064706026369247	0.019758430164273956	0.7908735391407412
Si	5.927095162895503	8.592556928017016	8.194116130685083	14	-0.8811388762783718	-0.6118639307728795	0.10132751777756781
Si	7.102418634335911	9.924075779891256	9.707659954752723	14	0.8333607974456562	-0.14121821681966523	0.12740006838706142
Si	5.83210774635867	5.8765560514803745	10.744024895016778	14	0.36270119952371327	-0.4827363367212105	0.4097321151503939
Si	7.116356573003017	7.22748064963007	12.27479894069631	14	0.3769911457825642	0.4771087013964703	-0.6980350397987063
Si	8.694710486343581	8.619842944894085	11.065724184109808	14	-1.1581495063605938	0.21173952198281484	-0.32898449568688737
Si	10.030056803543665	10.091617689568112	12.368921449484185	14	0.35249339718166134	-0.12021305768565148	-0.22153646169470706
Si	8.627264251038872	5.947899342389579	13.496381721414766	14	0.754738967860848	-0.1571253883248894	0.6020693050557754
Si	10.0517258907867	7.264650142987081	15.016621124435542	14	-0.23229910856484692	0.48617184764999233	-0.4808234343630203
Si	5.866848207608457	8.671899787148378	13.644879091500595	14	-0.06051353481500519	0.26558463803948396	0.3008923418484175
Si	7.3096999069457045	10.170388914267692	14.909957453287785	14	-0.04851778583332231	-1.3795409577152447	0.7209631286016588
Si	5.58606800236265	11.021183091949903	0.10110970414678881	14	0.5889440695069514	0.22828612738115983	0.22889085135245862
Si	6.91912612492421	12.407406530489995	1.5875398301225943	14	0.5016162201975899	-0.5122171445430924	-0.6787774609507972
Si	8.3282099700014	13.713006317389253	0.24657989711126896	14	0.31492594890684966	-0.43642635902629934	-0.22169072801391596
Si	9.679429498379667	15.120890558615399	1.56586577214537	14	1.0191051590891138	-0.050416804222783676	0.48842465013150604
Si	8.389719491772556	11.085534216766003	2.866723478627932	14	0.2047332599854113	1.3892677062518968	0.4828888032666952
Si	9.855443196026673	12.532695542645468	4.252852473218426	14	-0.5400236485804939	-0.7145873016287556	-0.020926740421749246
Si	5.743850703914299	13.889573423442682	2.878240669744795	14	-0.7804641621415896	-0.40769554262630464	0.5520571928103829
Si	7.083395634593039	15.287675259784066	4.213176072918555	14	-0.1286624810992541	-0.25336674555814026	0.32571147861433886
Si	5.77310181770758	11.238364410153604	5.579882752119628	14	-0.3258978837500496	-0.1981681996609452	-0.6726065510719097
Si	7.29661527764778	12.567525477110665	6.862390164886285	14	-0.9042816523755568	0.0787830378883814	-0.2821944926287046
Si	8.527657365528682	13.993595977824466	5.520843685240609	14	0.756925950046166	0.2015049801454334	0.16266046385810418
Si	10.036422657128904	15.347029139828416	6.875715046336696	14	-0.528775834136442	0.1227828774531395	0.06592005508221258
Si	8.471708438404079	11.228388146635456	8.30661378685981	14	1.1312475171748206	-0.20170346947614878	0.1869149858957211
Si	10.101154871566193	12.54608172981755	9.515584158028334	14	-0.635417569500224	0.4577590769780999	0.5655346697880671
Si	5.832861641044064	13.946098955733255	8.04507529366121	14	0.15211404694538877	0.15740383903106145	1.5686925481289624
Si	7.282505020195442	15.258415861433804	9.58619012336611	14	-1.0478233770730399	0.9487412055715575	-1.0789748891319542
Si	5.80466266598754	11.40291559475983	10.961951823348892	14	0.5880320984498949	0.18433436748588847	0.32381811665658183
Si	7.328800781524211	12.853521639432559	12.169187408285312	14	-1.0974379964359373	-0.9386295625684791	0.8065901917417423
Si	8.687120175236352	14.048689938668488	10.856209394937572	14	1.7131071630826358	-0.07967958231351703	-0.2939161617832597
Si	10.046937416850904	15.486836009639761	12.231392832842985	14	-0.7982613531676547	0.7223530681377309	-0.08649455407510154
Si	8.602592840345435	11.502539049383987	13.61824424080234	14	0.5808895678705235	0.23833529252495855	-0.47208039072185676
Si	10.012694029020055	12.815959458074584	14.973036070151396	14	0.37888887861936554	-0.3517200087013608	0.8375285591696161
Si	5.906098781679434	14.183496249885287	13.5505792931933	14	0.694713428835607	0.37182245275747056	-0.5184723866764805
Si	7.329854577172366	15.458287426278583	14.957073385757806	14	0.03528533519264821	0.2772230033816663	-0.35969069230435186
Si	10.960054659799933	0.04558660325107911	0.01708607032039864	14	0.6984214769283246	-0.7245919866505158	0.3864397007235764
Si	12.421848170221626	1.4404856298630888	1.358311109155159	14	0.10916578945657124	-0.14964758561177074	-0.6906636808458418
Si	13.835239984929638	2.8733395258340364	0.06374469524499385	14	0.07471117839286288	-0.7306397405845682	0.24849758630284385
Si	15.208440099893478	4.255704017731751	1.5138039591568861	14	0.14120767528785266	-0.3210104696469801	-0.5838982753161608
Si	13.892181401980727	0.21255853540755046	2.685894796462782	14	0.48163821763897524	0.2198477597204338	-0.1721007912620919
Si	15.280195961740402	1.6363540967739967	4.0192975565948075	14	0.34589902625654556	-0.5074940240699805	-0.18377695185248039
Si	11.084604689472584	2.720600462573243	2.6781885015577997	14	0.19036926589334005	0.5993976695176094	1.6459223812934425
Si	12.483339465967422	4.26828825978794	4.125482380348984	14	-0.525457822720791	-0.044666527174272504	-0.30289574711387685
Si	11.27003461458573	0.37042408252902265	5.384332412196842	14	0.16329784086696889	-0.45019308535250024	0.5715788241746713
Si	12.673218198180091	1.7766265586877508	6.838263878042285	14	-1.0305931147700675	-0.8401197191112615	-0.11165899028551883
Si	13.910505185114287	2.9534959284610656	5.387621381318835	14	0.989242285016658	0.6651524025277364	-0.21376323898030336
Si	15.392113698926366	4.311290081260526	6.691647102391448	14	-0.7406459682695203	0.7345025692175585	0.36090502534705776
Si	14.051823158119214	0.31950056766991364	8.013686764166481	14	0.6278173821738663	0.5229296548594894	0.18257136056786294
Si	15.48955003050718	1.7164773611730968	9.438131834800343	14	-0.6282783813577687	0.6149883379579234	0.3910738609526113
Si	11.362771945446157	3.190633087523852	8.200390854143514	14	0.6053217532857627	-0.020024025343845255	0.19860811578122253
Si	12.895844127232591	4.487651730300793	9.587094796988584	14	-1.6044393967265773	0.25781218665667627	0.07694161225809133
Si	11.380689785287583	0.43097093877882936	10.7874790533006	14	0.23416367414301828	0.2576903162645013	0.25495208909854356
Si	12.80955880935002	1.8635282476098092	12.282337887550248	14	-0.9981352240979862	-0.09071733745291273	-0.6755844052537052
Si	14.159182732053488	3.251663761901428	11.04018455184462	14	0.4072887937646572	-1.1720884967432448	-1.316951512464752
Si	15.521904539346048	4.547602098447871	12.331702248785279	14	0.42231716147145476	-0.09280430364127693	0.8172505086201404
Si	14.115302747540772	0.4714724809541421	13.54416207535477	14	0.12781041679615707	-0.33646255551053805	0.5048745819698135
Si	15.490133263318738	1.5213843287957365	15.156525752019277	14	-0.47644664177653234	2.3939741613271175	-1.3993279271485721
Si	11.349925911389324	3.284513687247842	13.558441337769548	14	0.522386380305342	0.17558823851834074	0.5068695025877163
Si	12.806346058152265	4.7796359704095295	14.778922272409352	14	-0.1998872406779962	-1.311677404121532	0.5930226138763023
Si	11.120079162471006	5.420116727626405	0.16505654258215202	14	0.21664493382312536	0.5471134715008021	0.11083058015136713
Si	12.540034003220436	6.900340063511033	1.509562265981923	14	-0.7262863450564934	0.3726403213598097	-0.6625455588436384
Si	13.846516923894013	8.3015486087208	0.14708733848743485	14	0.09298685211900745	0.6279058281968792	0.15059040993266903
Si	15.360675462089743	9.606462434301921	1.550315658689499	14	-1.28906838948881	0.3275835003979387	-1.275385224085514
Si	13.898134684628243	5.662415165689195	2.891739526891836	14	0.6247788499065152	-0.07144433197308274	0.2446126461641001
Si	15.480687211447462	7.0026444007746775	4.161647785399734	14	-1.3082511491719027	0.15363794106864057	0.6694039822851333
Si	11.155886674660119	8.395758933812688	2.7393335028217325	14	1.0168140471383298	-0.9340671361778762	1.7075268360957865
Si	12.575670853535712	9.827161375400328	4.152017816363451	14	0.010375181298393543	-0.7455176986301371	0.041167767054614994
Si	11.306837930524122	5.747341816226661	5.611296135285302	14	0.434007206030572	0.8418690991710901	-1.0695235059750896
Si	12.67830657307865	7.2118244938448255	6.951324884091812	14	-0.1772990519983673	0.08995834716240501	-0.5061004849864601
Si	14.089787968946531	8.553876331466425	5.555860850693606	14	0.011986235891998329	-0.222212662393906	-0.13226022877373736
Si	15.4693108577993	10.08979840085479	6.9065982178555	14	-0.22498997036072996	-1.5248464606623493	-0.6381295713919162
Si	14.08446596954107	5.8042815763663524	8.158858713079598	14	0.8766587252580139	0.0002977339960731476	-0.5165294023860448
Si	15.564659481020561	7.140868920202394	9.434864405526504	14	-0.01273185643484127	0.4055355570468483	0.10778227768379957
Si	11.289002936252519	8.67133643727358	8.25616414866009	14	0.32521448395595426	-1.28993613753436	5.19363274669912e-05
Si	12.790935125253696	9.929700994082271	9.480593503157682	14	0.026402680532600625	0.6768499032922822	0.8118362750369724
Si	11.426524925248133	5.958548311934692	10.876864452405968	14	0.16919801335564472	0.09301487716699706	-0.16033052821698598
Si	12.800681078087734	7.456868434091566	12.240128069725177	14	-0.18316785700213728	-0.6643527887731705	0.055318873626178
Si	14.220622663545992	8.619819748134534	10.762749650708287	14	0.2634817309981348	0.051779232931930146	0.49387487918915596
Si	15.593776384990727	10.139005355507154	12.139225479502946	14	-0.651792425063183	-0.8813373656090874	-0.27542528654181875
Si	14.241256181166232	6.0824372339601505	13.624063313626744	14	0.009844762270846994	0.504812618331598	-1.0087392337698728
Si	15.551200389747036	7.553781181671097	14.900703603138501	14	-0.31423226469147375	-1.0108711943013395	0.5181363432111373
Si	11.412934937974285	8.73443825089674	13.737079583068565	14	0.4900421324884113	0.28821730684115143	-0.30893655906356476
Si	12.950901636025893	10.292852892492187	14.847420646450816	14	-0.35151637716000506	-0.9308779371387645	0.42215338206256126
Si	11.222872288596609	10.942622294997673	0.24076579502105572	14	-0.24743520558455867	1.4439420037743136	-0.9455900588911839
Si	12.66845457791524	12.505835351997295	1.420286223028723	14	-1.083712664905391	-0.12785052603915134	0.39173077836190917
Si	13.957501819963761	13.940770328682209	0.1316300120697662	14	0.3752769898656215	-0.09731402237281665	-0.2364540147622062
Si	15.42649295349172	15.563226252662615	1.2807096639014866	14	-1.215589541875894	-2.8055289330389646	2.6558579503687803
Si	13.924961737048488	11.028833051867403	2.6662289150980794	14	0.5029912473228051	0.7875452433038095	1.1343881223233814
Si	15.305460546713777	12.57672796300666	4.0422656623726745	14	0.10136968390481824	-0.4149406603079499	-0.5449496292633655
Si	11.280466528737907	13.773263214144677	2.9779005764196724	14	0.28691169955958024	1.0834907785162622	-1.076734427955977
Si	12.719295247204524	15.302047309237048	4.3051595090935875	14	-0.8834191895868112	-0.1851306388035383	-0.5904803049357398
Si	11.239701537650554	11.155172545848242	5.58234160863199	14	0.6239190722874578	0.7634267327376284	-0.054318713656640406
Si	12.771355403281612	12.536604196629742	6.922239461438177	14	-0.778995032561657	0.08879080823652578	-0.6114299281948384
Si	14.060293289177968	13.848833286026277	5.4952195504942	14	0.01576550360208399	0.3242492910187707	0.5404321972158653
Si	15.40241471707822	15.263282210205237	6.8547849415764865	14	-0.028060272132500088	0.5223257022197865	-0.11301627678402501
Si	14.206626732980009	11.376310568466714	8.29579415544086	14	-0.20553287373997736	0.5079524521485628	0.46445886322134183
Si	15.510660738609603	12.955580753809524	9.599526603196297	14	-0.8639446094498816	-0.9950408988451881	0.5458628858730822
Si	11.448250347478647	13.980592537184968	8.22961711426585	14	-0.21757978771753117	0.3490303754259539	-0.015561872060728264
Si	12.764081562251109	15.548557616069667	9.51392890354326	14	-0.16759235808321224	-0.9670793571569815	0.96208704195685
Si	11.537927362989793	11.348512565968136	10.980133112102358	14	-0.3175736731655382	-0.2917101534185726	-0.3444455804190658
Si	12.853372517406877	12.851650986465945	12.273624190516212	14	-1.0084708103744493	-0.009817251443921409	-0.44271451130778544
Si	14.14633007035107	14.267609356927089	11.031358184835623	14	0.12185136599564986	0.30685679197009696	-0.9458885642188529
Si	15.57087952640291	15.54823120452456	12.416549367575715	14	-0.527211316549132	0.6378192389797742	-0.9237320641224771
Si	14.328714592317505	11.594119856089677	13.421027048014706	14	0.26895432867207003	-0.13849773028041656	1.5882213785881472
Si	15.688052986538475	12.987774542242937	14.960049198625866	14	-0.7034410458448496	-0.28005636144446944	-0.22987764157433146
Si	11.298225305085271	14.083079134702224	13.534979472395534	14	1.0687748001058623	0.4546110156241106	0.8516385280560568
H	2.6832371105828443	14.848865473188539	14.18994991977454	1	-0.5057888670216582	0.32836743041005184	0.4633373470806932
H	14.566676893255734	14.648480265810853	2.2000552367898485	1	-0.6121058717835053	-0.8195817298139186	0.8133835662186376
H	0.5010301233557704	0.22931653727144802	0.2321664248733764	1	0.5419764030711464	0.16917590184989142	-0.05758761696067668
H	16.295397172737346	0.5685459489391299	16.187252222801146	1	-0.0675146546017684	1.491697971101276	-2.1500731971156344
H	10.03648064902778	4.544064592616407	14.811652900135218	1	0.07631323411784714	-0.11558969609896122	-0.03712547527027819
