223
config_type=interstitial dft_energy=-23319.684292051268 dft_virial="44.3196640573824 -1.9635546795346366 6.948269709491468 -1.9635546795346366 40.98321748809183 -15.12176561129418 6.948269709491468 -15.12176561129418 47.88758658482947" pbc="T T T" Lattice="16.3199774331 0.0 0.0 0.0 16.3199774331 0.0 0.0 0.0 16.3199774331" Properties=species:S:1:pos:R:3:Z:I:1:dft_force:R:3
Si	-1.98124526037834	-0.6182986650304266	-0.44044355096450283	14	-0.030909828158820204	0.9444484881290383	-5.742399438920777
Si	0.2895327196406271	0.0246105259691148	-0.16182889622661958	14	-0.21129574920455726	-0.19235750163741056	-0.2694019581083078
Si	1.3274996043632201	1.4297442629815917	1.2915956540104003	14	0.3107026513079745	0.19463190140361353	1.273877270815247
Si	2.7390634124843385	2.816583305291563	0.063484712214759	14	0.39347167377418146	-0.3912258132770321	-0.3036246554721388
Si	4.094698657942223	4.101340888757495	1.4913521777915444	14	-0.3193706186737897	0.5621161281543983	-1.280905387207872
Si	2.8143311484057953	0.1090337692305411	2.644032183891397	14	-0.5293597321546477	0.1846714393933599	0.14165581894515444
Si	3.9670274744830816	1.5002628854700166	4.141243233581425	14	0.20986261509910673	-0.8931839904822015	-0.2607036516997148
Si	-0.1578631417103763	2.6969089107746416	2.7384269333644475	14	0.918316544986649	-1.0676345148963768	-0.444946487836206
Si	1.185319960966053	3.984506170313932	4.095792096430241	14	0.7340742230712219	0.8445209371982909	0.0892548927468125
Si	0.030224598206101197	-0.0758062951767495	5.423536500454957	14	0.4469452651120891	-0.1869962328238378	0.7831417112219919
Si	1.2428968413500299	1.417243160267837	6.961041574427308	14	-0.6560409194941956	-0.42323453184968357	-0.7153954000308782
Si	2.524896348629767	2.653252971141099	5.472969712099817	14	0.39425637511789063	0.6648366707944223	0.6246037576342132
Si	4.196208917576105	3.88436678878443	6.711851839001305	14	-1.1801630530011697	0.7660286913216182	0.6260695447772295
Si	2.5241456296678444	-0.0318565959494112	8.163595431562715	14	1.3620420149063168	-0.08094559457315793	0.1930619844951311
Si	4.042784809727532	1.2836641449779136	9.469471065827078	14	-0.14174632185242367	0.6037127555764139	-0.3003547237259745
Si	-0.0916040333319903	2.763641298498587	8.358815001617458	14	-0.12336600413974907	-0.8018819836794873	-0.016812457688448287
Si	1.3167284192573743	4.146775705931245	9.656889686668798	14	-0.046681245303140544	-0.053495445733128984	-0.6358939953160474
Si	-0.1541585068330626	0.0694578239552736	11.033953062496343	14	1.215866449918874	-0.6820862163872957	-0.4519404085280729
Si	1.3808006506597248	1.5200916580512334	12.199591130678078	14	-0.19193506903331023	-0.961167871804897	-0.006177851863251804
Si	2.7989740496412483	2.792984617923301	10.817958161169264	14	-0.02495206291097308	-0.2519400392159901	0.2670110872711021
Si	4.199734032701654	4.089133545637536	12.215943748066044	14	0.6023287295825783	0.07318445605375895	-0.7214215566802412
Si	2.680295173747745	0.062374953749308196	13.55421453753511	14	-0.07969809427182209	-0.18395255834584648	0.3399700573882841
Si	4.044547367290306	1.4630206969676827	14.951841084928361	14	-0.28126041006589475	-0.6287396376522033	0.19705928193636535
Si	-0.0027907161410601	2.792543978532607	13.562146046567596	14	0.8819621442018833	0.3169784622839239	-0.10139822317387188
Si	1.5252161309652266	4.029630907916453	14.864268086022346	14	-0.917029963884447	0.6801668862658052	0.3884407919942477
Si	0.0842274035322291	5.3010713897969755	-0.0050102330719617	14	0.13961718953680904	0.7709695844153468	-0.569960313375638
Si	1.409425891077382	6.740134359892867	1.435652094812374	14	-0.10609666103591048	-0.4499346892678253	-0.766214068015201
Si	2.770299849291292	8.01942475091871	0.0117340637743989	14	-0.2822135188080736	0.9077418459154121	0.14663579283974928
Si	4.084335472272205	9.52034043548605	1.3918492753819336	14	-0.1398511601209425	-0.4195023153669566	-0.4626958563033163
Si	2.7339389395703453	5.3558901939947585	2.813417229669542	14	-1.046750711933474	0.40566719763923975	0.4907065061031376
Si	3.99302519853401	6.84838477020662	4.096020576114304	14	-0.011830426909597356	0.1658416924707234	0.13566591488080545
Si	0.0618200745165828	8.171494300640335	2.649368816512021	14	-0.5282909236730622	0.3507833550332309	0.3415327752018701
Si	1.2156587990141858	9.641793707543181	4.046505764582279	14	0.71969865900521	-0.23730453640211122	0.22119630446085148
Si	-0.2454198206389578	5.311924174789986	5.43261040790776	14	0.2607008234838627	-0.15582029526438226	0.10972706174795957
Si	1.2534395467718125	6.502238048850568	6.78721749478736	14	0.512592525919834	1.2890131107244267	-0.4572872791518528
Si	2.5255654677045243	8.195272507760363	5.425576497634095	14	-0.246139368503204	-0.6955456956277389	0.0324254947450475
Si	3.954004132491468	9.413444583299245	6.825895841303808	14	0.5991842677760371	0.14884051565177625	-0.22825681678051013
Si	2.718761360557562	5.297072995325865	8.172114459782794	14	0.3430258160612801	-0.3651522342254104	-0.4403496086343133
Si	3.966586835092388	6.6580285534269406	9.625408450200348	14	0.7865057454228737	-0.4210781458176754	0.06979162547329155
Si	0.15902186010812638	8.173664857638938	8.066948525203896	14	-0.1579895368229912	0.06018109089711004	0.1304643117076139
Si	1.4685042093852043	9.574832840135173	9.403913716478314	14	-0.24317334140588123	-0.33272056882759454	0.9753863413358478
Si	-0.055390003407941396	5.596316101539187	10.85699554718924	14	0.28923983542697435	0.2272857103010902	0.5423379004791592
Si	1.3071159525492784	6.888172875188517	12.424513059661061	14	-0.024816822771133288	-0.2418538501555812	-0.9564468082160411
Si	2.6781246167491433	8.175003095788453	10.924919293265802	14	-0.21289986181379764	0.22806424099203101	0.2259927014355877
Si	4.11452743052344	9.570165326589306	12.192720420178743	14	0.0421818109928814	-0.1284416231522534	-0.5676869420515631
Si	2.8433807082367135	5.419684985780746	13.53647472206533	14	-0.6755288693787901	0.34042282903516213	-0.06168827283578085
Si	4.122246779849296	6.721562225573999	14.964309547687249	14	-0.1613983082564435	0.13311357862949447	0.02082595309319944
Si	-0.1601316185735772	8.210645926502343	13.727304218190568	14	0.902551298495097	0.18004602092241348	-0.8654255661142869
Si	1.4207356354385203	9.464281313003353	14.915170095636185	14	-0.182989679403451	-0.9792697388113997	0.7109612717957507
Si	0.08354196448003891	10.720152536412696	-0.0180498950410086	14	-0.1582831570505521	1.3308370238567435	0.939566987568205
Si	1.5200263781415009	12.310713857020055	1.3137255434096837	14	0.17218126685861251	-1.176071653105218	-0.35213575643162875
Si	2.937285858386771	13.70788344504518	-0.027287002268143203	14	-0.16594453668352935	-0.42953605387883453	-0.000592896886826147
Si	4.234675104385921	15.067027485651181	1.4796344339945784	14	0.1168222839894402	-0.7970279939455797	-0.7774883648440503
Si	2.8586398871366625	10.862005780261201	2.818476422673803	14	-1.1219005208939543	0.46604394965121315	-0.43454919503205924
Si	4.231949668154594	12.172238848500202	4.160631366771947	14	-0.19644324510165787	-0.1727350829445724	0.6976239200580147
Si	0.23144991995622421	13.495821658279478	2.8089292358754396	14	-0.9422553352909517	0.15417890162799971	-0.6397701936967025
Si	1.5712874272588682	14.967459303331838	3.9657545162433	14	-1.1982456367177712	1.1280071531398381	0.49080215122104703
Si	-0.10230993852810391	11.054597833949215	5.401781970536636	14	1.7979816636955122	-0.3047114616909654	1.2588013376600269
Si	1.5480477793941336	12.351954439993499	6.916096356576552	14	-0.997405030187064	0.09055870025465959	-1.5478110591608478
Si	2.8068239587865698	13.693897224385012	5.358403470519455	14	0.4406242026825051	-1.355383623458729	0.5532663836424485
Si	4.022368517958724	15.086056579338175	6.71382655627071	14	-0.21248745652044587	0.7840202579098865	0.39222031681486536
Si	2.8840337720225655	10.973520186061574	8.18730835877301	14	-0.6022950481028844	-0.8527351044751	-0.4364021906362899
Si	4.286686872465212	12.21755942583192	9.430972239062395	14	-0.41218983472592347	1.0235603703878664	0.797504676871935
Si	0.099715062116241	13.633676507656874	8.256668262863686	14	-0.07636157089786594	0.1260438103306833	-0.40164676025012425
Si	1.4003519836245786	14.972224736742303	9.697493790522351	14	-0.9231790193681132	0.22322387811632027	0.09699829063950247
Si	-0.0274012421101749	10.831862781942267	10.83298886038515	14	0.5427204809507972	-0.158004192123316	-0.03370024876277692
Si	1.4069778944624172	12.112670930869388	12.232051565792514	14	-0.5183420316367491	0.18081683829739387	-0.7550860670790681
Si	2.7557097894661005	13.458416270002813	10.86926817021893	14	0.6809873259734645	0.5907885804636255	0.0735534096672002
Si	4.070708291115566	14.955431479963643	12.283165735112982	14	-1.013616877672726	0.5818899849505932	-1.112886482752047
Si	2.682351490904316	10.784126847950448	13.551309581552017	14	0.7145363937434166	0.21789012012967307	0.13328867090179655
Si	4.1858783718609525	12.20445448395314	14.843623314569475	14	-0.7909956666434482	-0.15487927071720803	0.7104030848307467
Si	0.0089433476333388	13.37748550191207	13.560399808982254	14	-0.7681400830105238	0.46456967786064024	0.8705736902968193
Si	1.3951622308008527	14.826781097858516	14.883754139077467	14	0.6472971045214362	0.04828304391759279	-0.6098888076659417
Si	5.419636025848447	0.16700232907291232	0.0154386986517126	14	-0.14284675492944707	-0.1285053865641931	0.44761735204277586
Si	6.7780946274022575	1.5385985124603687	1.4012006224510998	14	-0.49172414958885213	-0.7503020114098685	0.02279439132630481
Si	8.13403995243137	2.79724413203334	0.022113569421850502	14	1.16832208455976	-0.34782195592548426	0.5603117264407182
Si	9.437647109832533	4.16975423415705	1.4855259458479275	14	-0.09677383314505356	0.0786336566692808	-1.1010550274003215
Si	7.963349308458579	0.007115510160831601	2.7754732821375847	14	0.6899607406513133	0.975143114772562	0.44904842926397026
Si	9.593127534837675	1.250093951398027	4.107868879730734	14	-1.1505418628288078	0.6968384473827094	-0.23725799939581652
Si	5.3183379259211945	2.78981854230128	2.8068892386963022	14	1.6023881689021633	-0.3372966220763941	0.2824708864506205
Si	6.841775179346214	4.112209993727939	4.080010678252433	14	-0.16038477853924113	0.6479337101987048	-0.34886325358014425
Si	5.3998398932220955	0.1792749521026035	5.436608802378871	14	0.8721420645421096	-0.6622457679633091	-0.0671534143042876
Si	6.997255604351357	1.4577330242793582	6.763422967689901	14	-1.225207275546972	-0.9635011498829313	0.35949528830002064
Si	8.272808720545019	2.8201084204171134	5.469787316500363	14	0.5549160048158555	-0.12928854524471017	-0.9077966104587313
Si	9.689758121219063	4.101585688418991	6.8186497713235115	14	0.985422136731982	-0.5300228202167139	-0.7435811421030014
Si	8.128670679855881	-0.04732793455599	8.202077938349964	14	0.28438507436147076	1.0152477297772955	-0.5697047455068153
Si	9.612711507757396	1.3131543441995255	9.4493158936972	14	-0.9415043154269365	-0.3093271099616952	0.5485322074164599
Si	5.551387203665863	2.655749927688363	8.18858131701279	14	0.03740289753432216	-0.16877455230941632	-0.021101575583519317
Si	7.121874952030509	3.8974554106857764	9.493298232879404	14	-0.5435280651318557	0.7585447179557313	-0.15220840651063822
Si	5.351728599749318	0.1323060570501417	10.985270569813405	14	0.5237513801198087	-0.5825399603755265	-0.15517829026594127
Si	6.832995031487205	1.426202827878609	12.300791310740731	14	-0.09825967490956712	-1.137121207278699	0.22364811049414465
Si	8.332066558604607	2.5597395004494357	11.002814545553989	14	0.2244279267377456	0.5691925813270418	-0.9151476576795666
Si	9.627693247040982	4.066301897208629	12.239183395930779	14	-0.4984540177643397	-0.2300637895995102	0.4373167327986666
Si	8.006825728340356	-0.057446320564512	13.772200476109028	14	0.47610082811097226	0.6091030778801044	-0.8269895984623292
Si	9.503791978368888	1.4044156580054206	14.931392153204687	14	-0.5270490798034305	0.01202634513499264	0.23319436743732247
Si	5.479399783208459	2.712217049606889	13.62365604151295	14	-0.11090565642671545	0.7970575616567613	0.39093707814957945
Si	6.8310692741501	4.082083315386437	15.03897344444368	14	-0.6416244748535934	0.7120655615307544	-1.055175966957067
Si	5.426735216031846	5.436804642108068	0.0568261614220542	14	0.35542934234673845	-0.1556233485968589	0.004040492010612707
Si	6.737131484045176	6.9396624039899475	1.2905511754546817	14	0.16773274043369232	0.425742387978956	-0.5719089540977783
Si	8.238716287687275	8.272204881379995	-0.103795056474516	14	-0.8340948480145585	-1.4324375930193112	-0.4331003771841558
Si	9.5682395692522	9.35397458553303	1.3647254728881213	14	-1.0063151956740373	0.2966461614121929	1.7434647178186884
Si	8.07391715556783	5.695133564896608	2.63241235995903	14	0.2942660892173318	-1.4693380965740763	0.9289480654854613
Si	9.615371664078992	6.8277399987537475	3.9722009073293747	14	-0.22045068391800854	0.31959739016302674	0.5985792866942062
Si	5.414691072686217	8.190294914643268	2.7612259418384886	14	0.19415907513523828	0.11482402093462112	0.2947494570175197
Si	6.8264344005591004	9.46579907090463	4.222924720634089	14	-0.34468263632958346	-0.4022910792433534	0.1737678959516759
Si	5.345804447941102	5.430292971112261	5.386604391523853	14	0.5520831609741165	-0.40380288917160045	0.009272691337114046
Si	6.769134959791486	6.596290078797524	6.811501621207814	14	0.537994532261833	0.5608187484098516	-0.15719943615810966
Si	8.246974196268422	8.059637175313869	5.498738956466682	14	-0.5736861020950647	-0.09800307859861633	0.09055587203880743
Si	9.475036178131765	9.522413072620054	6.888531914692045	14	0.3111518234074043	0.5037664355768297	-0.36421018123610815
Si	8.416342922069136	5.423291700793461	8.090432972730127	14	-1.7808506460578974	0.037674920477193834	0.8784451292344528
Si	9.545799600281686	6.901767416390289	9.469552665714243	14	0.45289403149131574	0.06038909331751002	0.31050107665087484
Si	5.212486552290108	7.861675849050365	8.070114600825919	14	0.990249129860028	0.9779055103285291	0.44884274083835846
Si	6.687290272964489	9.43268583669287	9.321514150418594	14	0.2859735032282582	-0.38979190783998546	-0.407668288909911
Si	5.735851908592192	5.34063101509481	10.776195338917962	14	-1.3263324473358442	0.18691781411157324	0.2515518023126478
Si	6.864884267391483	6.855369720547986	12.187889706858545	14	-0.8386097089567385	-0.03447183746935335	-0.03596744943408349
Si	8.106312310772534	8.269610004968133	10.78646060472338	14	0.34650195045412024	-0.27494500406801503	0.418484157660178
Si	9.343317640269214	9.382436626176355	12.533497868959303	14	1.6270964910287864	0.060723594119661294	-1.9357412296385141
Si	8.135394510558319	5.395613019066924	13.48198231741621	14	0.15163453580318118	0.16048248054140674	0.7105403818548426
Si	9.537427451858505	6.779481825484071	14.81532447370048	14	-0.29066397066380434	-0.0207210519961374	0.2540524593470238
Si	5.308284819822406	8.161930793864538	13.585075614861102	14	1.590143794036022	-0.158837487357576	-0.17043728611995607
Si	6.741896917455642	9.561727898256393	14.942750857498122	14	0.056624738018281225	-0.6080538097989518	-0.47690455563405054
Si	5.447053587936055	10.826999428667202	-0.0071971100479971	14	-0.17652797751285487	0.7236334785871646	0.3129834788374778
Si	6.926541142133735	12.153829913955665	1.292705412475851	14	-0.11769028914552218	-0.23921769587083339	0.6340937073708798
Si	8.117426215404475	13.770193118884755	0.0258508442540304	14	-0.7742343739508709	-0.7689353258860457	-0.29125635332956645
Si	9.34245268146526	14.96894442127825	1.569965509086787	14	0.4589487274097325	0.7516760100929557	-1.6057102940863266
Si	8.202159538237131	10.691184576468943	2.8561102906345317	14	0.09100298725398118	0.8007280716118047	-1.3679419302844604
Si	9.61752590110016	12.18038251723932	3.992356079459253	14	-0.682749818670426	-0.2575080248973028	0.48819864997386514
Si	5.531656350949245	13.431080307802372	2.7262522301993553	14	-0.3221975489732925	0.32766114777860716	-0.7571192971662412
Si	6.719261108755932	14.866161203404586	4.04224625047224	14	-0.7597608507721613	1.2697300779338483	0.6389248142674379
Si	5.556903356038251	10.815102165118473	5.7098705045186975	14	-0.6789926624660936	0.08034909813888359	-0.9660897387192565
Si	6.8022645139806786	12.463664685523069	6.8021992340709465	14	0.39767594519368754	-0.7680619214087914	0.5128815181578187
Si	8.195696827173622	13.64196705619289	5.270308232335582	14	0.9527968671035588	-0.13008198834650786	0.1818936172054719
Si	9.417475617725222	14.95657387838396	6.80748690675927	14	-0.1972546859406966	0.0792381235300476	-0.5275270482824461
Si	8.128589079968716	11.037788257193123	8.266688729007608	14	0.10817411413459012	-0.22594333621344087	-0.5770010281843315
Si	9.645726822104557	12.32331287959841	9.619223178753204	14	-0.6006611106719303	0.07995366214064481	-0.8115069164454615
Si	5.355172114987702	13.819038811342024	8.08917633446778	14	0.669641038195651	-0.5151877996299915	0.3515045500755324
Si	6.691239707503299	15.115807898198717	9.540152888089834	14	0.060100101079525375	-0.5094184964021112	0.6615376855581403
Si	5.577238047919893	10.811071130692497	10.732180359780891	14	-0.015826181687639485	0.7125250180514648	1.3661868937929276
Si	7.028149321632216	12.336450461432054	12.044208625537532	14	-1.5304949219401824	-1.1489400642143557	0.8935830260278885
Si	8.273771599213573	13.786676296092187	10.850222756554503	14	-0.670473819208847	-0.27210753223669965	-1.3181267647065917
Si	9.408630189956481	14.91903793028783	12.399347654459222	14	1.1033142576451358	0.9815919611365573	0.49304004129170387
Si	8.141677701870062	10.93658807713047	13.674427491307323	14	-1.0927809533695532	0.332502539096446	-0.6926760849799216
Si	9.365806569172026	12.249775061284861	15.04796575200932	14	0.7207551261812589	0.2307237923351922	0.6430658364960684
Si	5.383470955856697	13.558457731667716	13.410957775627358	14	1.6537323708139242	-0.5590796527713033	0.6865743378341462
Si	6.5211529026955315	14.975260252544858	14.991661829865125	14	0.8471532348250584	-0.6154771050792835	0.023188798882415523
Si	10.7105890296369	-0.0090575874753705	0.0105916653540819	14	0.13868105008974313	-0.11089305801064671	0.6245780465810117
Si	12.156490070277261	1.3773734553987738	1.2751777567127016	14	-0.3854372267592507	-0.38852178181183233	0.31257287331785016
Si	13.493079902070718	2.7101444124728853	-0.0428889006941868	14	1.7826452775713606	-0.2555136185004639	0.5891901242860896
Si	15.007998127275657	4.008202777546793	1.3317754384506924	14	-0.9399822210774089	0.3779925913047619	-0.7044327211668309
Si	13.524136819125907	0.1028974577156955	2.757407067119143	14	0.4649676849641991	0.10050142163820423	0.9196494059846138
Si	15.025721622768005	1.373978900092689	4.230807269734277	14	-1.1216079291085213	-0.6637622058811324	-0.5707820386359573
Si	10.782919169620397	2.7406464502953494	2.6946077939565742	14	0.9719431170911056	-0.38288566183953576	0.5997805070997795
Si	12.407556603108072	3.948651179893411	4.077056762337042	14	-1.1667331414719082	1.1436849820505046	-1.027023906364638
Si	10.874931202388217	-0.1353089328978321	5.445062550689216	14	-1.0845858122721133	-1.1428262328735754	-1.2177844944877045
Si	12.114123408860932	1.1867071590478666	6.6836672379743405	14	1.4462274592933935	0.21743734848279497	2.0237941306481573
Si	13.488428708502283	2.569270367270366	5.513818615614867	14	0.8045731596180862	0.0017334392068438348	0.10870607582532876
Si	14.796523859697547	3.88578662682111	6.9103517245201	14	0.3877676766214329	1.09803937797032	-0.07421932594511856
Si	13.579396262714384	-0.23734143180957332	8.131428756042075	14	-0.6197654516427585	2.0048463699913266	-0.1604747672254463
Si	14.793455703940126	1.188926675978768	9.553894309088504	14	0.4828008714647462	0.9603939691035326	-0.5698129890407936
Si	11.009179336752897	2.611979748212789	8.200478580561521	14	0.09945138222545577	1.1528046926210702	-0.6819478909210718
Si	12.264397761064918	4.214634172098075	9.520422035373215	14	-0.3836767909465453	-0.26085508980307154	-0.3759030540110776
Si	10.792319476621865	-0.0216076501214244	10.891381739640781	14	0.019607249171449247	-0.2896594398152225	0.8725832662150471
Si	12.162985421295634	1.4357173747221061	12.113813329289703	14	0.08410419745895986	-0.008093839547826153	0.4042410055181537
Si	13.567042039797528	2.7856895880107055	10.776048459121064	14	0.08257824645145197	-0.6278045266472655	0.3672998784993301
Si	14.979340246903135	4.051205918083012	12.135225139681932	14	-0.1862033039431041	0.6687894881136179	0.006614939767676977
Si	13.647630088362174	0.0043900739295039	13.343768428535284	14	0.5935301500664995	0.2626039556418363	0.17326987285116324
Si	15.012404521182596	1.4474677584739382	14.881812061762929	14	-0.8163156547257345	-2.4682611073421554e-05	-0.027203836950358766
Si	10.961786122287176	2.7723398464704294	13.657944314099893	14	0.09391245003426074	-0.19884285769695206	-0.05853892592913146
Si	12.357731712004815	4.164401281558994	14.986276237312202	14	-0.9657243846532634	0.4085254954236484	-1.210949468104623
Si	10.745383221524268	5.35600443383679	-0.1170305581727601	14	0.6314128158535613	0.40364862285239156	0.9213501921538918
Si	12.240799073696655	6.717008951870164	1.2386210072625576	14	-0.43172817827479276	-0.08547125415768259	0.8271479785500503
Si	13.727418458032599	8.053027584453462	0.0728360592839253	14	-0.9650574399332171	0.4129002311258804	-0.7835698002577965
Si	14.899421317413243	9.556521825455233	1.4005804633086418	14	1.086143902096123	-0.743746978396151	-0.3572208885338176
Si	13.708960563555763	5.450056463783746	2.6558804875078277	14	-0.6816750966466041	-0.11612294334235992	0.2677081139233943
Si	15.004489332127543	6.896218624063036	4.0380846562268	14	-0.5061740185986163	0.06569456914563558	0.6172827923456234
Si	11.015397248154908	8.22337550890016	2.7269050292966788	14	0.9783773081547763	-0.7360447181885834	0.13278010626947126
Si	12.440098638109673	9.623792772434472	4.182304296803104	14	-1.210712926415169	-0.8812823439552362	-0.45961850034563106
Si	10.96602931641978	5.458281732410027	5.305771543297707	14	0.8226971381303421	-0.5672917631638563	0.3965865678695408
Si	12.492583685534521	6.778992226161079	6.670905015621656	14	-1.4654140756344665	0.2474403477951989	0.004630046460522661
Si	13.760319532537729	8.389480239214253	5.601783293979276	14	0.9696543191351097	-0.7640296569352031	-0.7216807240965121
Si	15.141430262768683	9.779256877462181	6.998495922636272	14	-0.49714995314596055	-1.0999401961335056	-1.0476210310843441
Si	13.697193859826498	5.546719690119996	8.208981288804166	14	-0.45167841289594973	-0.8910345464345578	-0.584579618226
Si	14.955627319692839	7.013249182235795	9.415011301132823	14	0.5673928076029382	-0.012370873247892484	1.068697409835726
Si	10.99682511383604	8.110180145424179	8.010546683195104	14	0.1313881098491431	0.3218918445507269	0.6973981770109057
Si	12.262390403840646	9.591479217116932	9.471706902735413	14	-0.8057234721383204	-0.35560160640318833	-0.38158725365286095
Si	10.820716237355459	5.4763805873833356	10.888134064131595	14	0.35165470262622905	0.4455800081870906	-0.6667678280003856
Si	12.32401463862803	6.8432113373603265	12.08189145343056	14	-1.1337623152884575	-0.3954457684389911	0.18224817262912033
Si	13.551929740694476	8.270997203049946	10.866575373942469	14	1.012839632534445	0.4148840959909067	-0.7287654048061801
Si	14.895161803303205	9.60451887908598	12.26415296140342	14	0.40068182442347267	-0.7155949178037216	0.031071036462393488
Si	13.586201693303986	5.495213841341132	13.393887079232336	14	0.41833554777267346	-0.9694979959316449	1.0151083758689436
Si	14.930347674648967	6.680550122284619	14.895765642468229	14	0.314497345649981	-0.17330998209415754	0.9642169456040607
Si	11.085540511162373	8.071338599133401	13.603141829879544	14	-1.2294184889508426	0.39699768761023246	0.06217138352543667
Si	12.176579962497406	9.488793919107868	15.09619128532413	14	1.0947193096704129	-0.6543961834208969	-0.548151683829078
Si	10.658267181986382	10.690890816875148	0.014361580141128	14	0.6733035777242019	1.6313149035275532	-1.0672215953819613
Si	12.075232902637856	12.051993254773121	1.2721096009552788	14	-0.14503759377274522	0.35358971649017246	0.19435062248158932
Si	13.386575729342306	13.490648225433185	0.009775666482426901	14	0.025258795775666743	-1.8845764908780993	-1.3908831317245458
Si	15.037716806181333	14.980482645323452	1.5434945056902987	14	7.245171160635931	-0.7973082444254758	7.543376697424793
Si	13.5339451255632	10.905335320346083	2.664464795637638	14	0.8830335237887891	0.7535410898921912	0.35721986009168955
Si	14.943501576460047	12.29958363241068	4.062629902286181	14	-0.9456131988390651	0.5941371880325864	-0.8299306858380466
Si	10.771576785304395	13.518147387407959	2.5100614891430792	14	0.6856232859762235	-0.15518831757668983	1.250714954317629
Si	12.15949294612495	14.815193913881014	3.949124459238971	14	-0.5526824856242429	1.2605345197563387	-0.4857087915818337
Si	10.903735962557638	10.823996552819512	5.406580043901967	14	-0.4292570889515985	0.5354730492743638	0.7231393121446322
Si	12.215013509352357	12.380742880185487	6.686914913483528	14	-0.9690704211169041	-0.8579978999549112	0.5508307755726722
Si	13.480839918995892	13.661420469293144	5.334804783151193	14	1.8121795643839018	-0.23344093643752467	0.3558949695202172
Si	14.945051974316192	14.858327614236698	6.854912761179859	14	0.8962173805389122	-0.4172510555486349	-1.3495047911442106
Si	13.49877557419487	10.98207185423652	8.056307899917515	14	0.35001742275835873	0.3602121124632779	0.6247449113162893
Si	15.00721476835887	12.21276135246659	9.390270215344245	14	-0.969188434851099	0.17586514656132068	0.9578712005634031
Si	10.826444549434477	13.739087241897266	8.090204493046064	14	0.901369361379425	-0.9758285714509134	0.9621790875273113
Si	12.233716203490689	15.025134103580413	9.610296151097298	14	-0.8709768396110187	-1.016692948077751	-0.4506594838575751
Si	10.783833088356653	10.767219351329757	10.890990060182386	14	-0.8552591585678893	-1.015096034563407	0.2610528078021909
Si	12.094621035828379	12.074090504217539	12.135502579298294	14	0.6294266369937469	0.988201501583062	1.9355368267655626
Si	13.417534726532898	13.469709694386518	10.830491903837885	14	1.1666225839431419	-0.29733161809054437	-0.3960916300954124
Si	14.960229553328974	14.685368493400704	12.11479252793569	14	-0.17792383059116326	0.711693779701461	0.8224742232990851
Si	13.527661934251457	10.842030127883087	13.65024128475147	14	-1.2698753453844367	-0.02416144802502754	-0.34639936335184635
Si	14.840261399218257	12.038659833210279	15.06244157199248	14	1.4133903305865902	1.3030176642927414	-0.11772062818829995
Si	10.82435559232304	13.491757983898637	13.738646602506572	14	-0.48026858983493226	-0.28945477983173873	-1.4066077547520395
Si	12.206837200658374	15.019976990711553	14.854835139066015	14	-2.282980315987921	0.9642174598251245	1.685378563536435
H	13.059998292926286	14.283882360566755	14.013372206622149	1	1.8425093511824966	-1.5885569078324269	-1.655764829569501
H	14.571419146967314	16.217238279165407	0.8700245249495343	1	-1.015250557993148	4.024127182360496	1.1605768868933457
H	14.029307032587827	14.800337838423664	0.787365471248626	1	-5.949176984746238	-2.4423914169424217	-1.9925464592502697
H	9.434257450519677	14.866161203404586	4.04224625047224	1	-0.15369836204366405	-0.18202345802413938	0.056836597096661425
H	14.871486412041007	1.3773734553987738	1.2751777567127016	1	0.004978174120870711	-0.20637362517966576	0.09978973968558724
H	17.61015814506695	9.60451887908598	12.26415296140342	1	0.09437087811284316	0.0722909969550075	-0.037537623453097926
