222
config_type=interstitial dft_energy=-23308.715183354016 dft_virial="12.230237918390646 -3.114106154253365 -2.59710798597265 -3.1141061542533652 13.03804755632926 0.5937400838848826 -2.59710798597265 0.5937400838848826 13.825661953319411" pbc="T T T" Lattice="16.3852778749 0.0 0.0 0.0 16.3852778749 0.0 0.0 0.0 16.3852778749" Properties=species:S:1:pos:R:3:Z:I:1:dft_force:R:3
Si	-1.3228817945079265	-0.9096287012250737	-1.6118853256654129	14	-0.07324127748133423	-2.232487149937129	-0.9262036676667355
Si	-0.013026295910545502	0.13304845634418802	0.08256541521162111	14	4.6542834990441	-0.03344802333087039	1.9935170515086256
Si	1.5329574421420196	1.3444120496355452	1.4438215305025635	14	1.0909647245714005	-0.7265979630212953	-0.6273556116583675
Si	2.658314711868026	2.538767724492756	-0.22713272190186382	14	0.8490854204731498	0.22138322381762626	1.104083275246392
Si	3.9084786431671468	3.989831547816025	1.2513928271397379	14	0.9708807363728204	-0.32086057420681546	-0.2321073041079639
Si	2.7931983193342034	-0.11312395844830962	2.838077595433554	14	-0.2906768261904051	0.4654045157580923	0.130326757572986
Si	4.085734579217815	1.3536533463569889	4.238035737065011	14	0.4332973238516792	-0.791998140607774	-1.5636958620497865
Si	0.0922654997135619	2.67089860527595	2.5324430072330446	14	-0.5393417914495906	0.6658131765950145	1.9534384046676254
Si	1.3935842685381201	4.098433169570862	4.076952070276869	14	-0.9303184646211005	-0.98392755320938	0.236883903571735
Si	-0.045682154715221204	0.06105154536187741	5.520527821611308	14	-0.7668735565298189	-0.6100099067265207	-0.691519858917451
Si	1.3291409706561383	1.3290098884331392	6.8213550320996195	14	-0.11498805745404657	1.0067872506108164	0.6221923179544463
Si	2.7255762775444907	2.63722685924303	5.406748452048003	14	-1.1464252661007186	1.280944468008738	1.1142787362829072
Si	4.085963973108064	4.0492773359461625	6.777639110729386	14	0.2925138809416509	0.26977399704813326	0.204484376990421
Si	2.8404862312811647	0.031852980188805606	8.031653582329108	14	-0.1606274908814631	-0.3774076648444282	0.07078432923740072
Si	4.170577548054047	1.2663034300058968	9.471919507532819	14	-0.036814885747604296	0.8783718527328285	0.4366922113164027
Si	-0.1630171295773801	2.6753717861357975	8.295309088614124	14	0.8083426571279553	0.22511646874248126	-0.9476975939221094
Si	1.4432480457769419	3.949064976463274	9.52158328477164	14	-0.41264697725184574	1.1184786368233692	-0.5340255169791205
Si	0.0036375316882278005	-0.0092740672771934	10.765078407975677	14	-0.5647034314380632	-1.109658202912069	-0.6052119670885923
Si	1.2106098705091117	1.2772324103484551	12.11447158208519	14	0.5541503296515154	1.5491449486009408	0.8190181435277422
Si	2.7153518641505534	2.6365550628501593	10.883314573120956	14	0.1364547299930269	-1.1101410564911929	-0.5645627919770512
Si	4.0273538341495465	3.896877866431718	12.25143611984148	14	0.2141609889733303	1.9683734412513016	-0.05136065698581004
Si	2.7020306332382598	0.09295368138430771	13.378562999577976	14	0.3790634566706036	-0.6560779434108058	1.1387438318462442
Si	4.157239931863878	1.262174339981422	14.899985206096067	14	-0.27730476453084696	-0.8304600764234651	0.3335458936353621
Si	-0.037440359944146503	2.765228650001749	13.524195349330087	14	0.517611066394231	0.20414473397762942	-0.4615329453670133
Si	1.3651066555915439	3.982114081936947	14.973473177364992	14	-0.6910004956427811	0.6239488971091715	-0.23047619489286192
Si	0.0130590664662953	5.426459941331507	-0.06065829869287981	14	-0.08402243630977915	0.17632614574522323	0.029454839658148407
Si	1.3796076265108304	6.73531593797852	1.3875381010022818	14	0.17830538262067325	0.24779953120842366	-0.7188519940232853
Si	2.814073163346826	8.209581314772647	0.093232231108181	14	-0.7088336821433282	-0.030146724099800255	0.39813077372482175
Si	4.14139536815885	9.557172108315923	1.527615841554802	14	-0.6790620823097375	-0.2550878434594474	-0.6982870081200808
Si	2.6803365253318923	5.320447193480905	2.6781408980966557	14	0.66892884202197	0.9925728948483777	0.3182915257709235
Si	4.080130814184599	6.739805504116243	4.077967957505113	14	-0.07837577480566994	0.5484715293309045	-0.3900587885722169
Si	0.05066327918919081	8.068258293101636	2.735554911770305	14	0.32364096750002364	0.762965990664258	0.39884631233541895
Si	1.374413493424487	9.637722134348932	4.054602551255505	14	0.15384748615223262	-0.5565494280257456	-0.1600474495212377
Si	0.009175755609944	5.410254901513231	5.520970224113931	14	0.059420043722346216	-0.022579704032072444	-0.18872890069908554
Si	1.4035465174860593	6.845556087520848	6.769348160124687	14	0.2811100004046661	-0.41697826127416726	0.015660345394489933
Si	2.7810076725952775	8.257115005887732	5.464785106280899	14	-0.3967488046152422	-0.37944912246862583	-0.6416219037482733
Si	3.908921045669769	9.659776718368546	6.9309725410827	14	0.866332137850171	0.489551822703859	-0.29824950268983724
Si	2.8121560858354626	5.497637588420074	8.192245690781002	14	-0.6834062218586597	-0.5046357262855717	-0.1132571893525229
Si	4.072233110248898	6.872214934623309	9.623581639542893	14	1.8612133710549779	-1.378681437206719	-0.7095685040438265
Si	-0.0338683693674183	8.15351089388474	8.018201269193815	14	0.20773245434136403	0.30857917542406416	1.0357648931215453
Si	1.271858039205488	9.4584180385639	9.557909445820295	14	0.6585348916547393	0.16251159686006764	-0.001336974766477001
Si	0.27453533079394954	5.439551778353553	10.96746936028644	14	-0.3658127511821565	0.570030247440346	0.04427289094975783
Si	1.5433129377589563	6.882504889128747	12.388826674822516	14	-0.6208167766081669	0.1461346844128524	-0.02638416857429556
Si	2.911909657537854	8.177564481805094	10.945300079321703	14	-1.89886258047897	1.2822781003382988	0.7367782545364217
Si	4.193435010689533	9.617945103953927	12.303557688761536	14	-0.022221291950443804	-0.1176658636449808	0.19612185693663933
Si	2.74954793907547	5.355872164246438	13.696093299515663	14	0.6716783820513362	0.4238706233058882	0.1577869337237635
Si	4.0906173920245354	6.864546624577856	15.113813082363512	14	0.23694355321516244	-1.8995927743898924	0.47478287952386444
Si	0.0630997050962399	8.362816433458713	13.726733769141727	14	0.26447854853075625	-0.9932683788374778	-0.5497421695801216
Si	1.4729709398420106	9.622778760927023	15.108815572611668	14	0.020371638783129274	-0.6289797788891051	-0.2533927137218738
Si	0.055103689493288706	10.886362234805686	-0.011141988954932002	14	-0.7120213385192479	0.3682393603833122	-0.11236681558015561
Si	1.3389557521032034	12.314617751327093	1.2559643196668349	14	0.009558084027650484	-0.4100324202517872	0.6115638827820181
Si	2.573045725807047	13.779559905010405	0.048795357511452205	14	0.803406906244867	0.09133183162442812	-0.8405128411147121
Si	4.0966799448382485	14.961724933128691	1.3913886413028835	14	-0.33551433186846746	0.27362936947569527	-0.03434842441398625
Si	2.770488324199592	11.04856010048932	2.6531697346153083	14	-0.6645574487566542	-0.47756352992760454	0.47196032010340583
Si	4.158894844929244	12.36041460298744	3.9536692395461213	14	-0.382578414753778	0.011215418517017935	0.987228338219386
Si	-0.0632635578749889	13.59994448894575	2.549958869281313	14	0.1849843429108219	0.5630052163741055	1.2019310590836714
Si	1.1807231236652942	15.027610135463663	4.084784233101071	14	0.8006745926211457	-0.6913938747567637	-0.14921846813383802
Si	-0.171553859350203	10.830635904753152	5.366162118751875	14	-0.974988334232289	0.01522659992698095	0.02918410226793681
Si	1.061274447957273	12.204869160121014	6.706658086975319	14	1.5345762945253856	0.9272539641900158	0.5167348337011246
Si	2.671472090001571	13.552246945051916	5.392820965854337	14	-0.505665453966291	0.535147547340833	-0.03643410504969037
Si	4.140166472318233	15.043602166669563	6.626353840110435	14	-0.9424589668323076	-1.6952680630398524	1.2100462388056548
Si	2.4924629292182887	11.058161873324014	8.240926351347332	14	-0.11569382586442722	-1.0396886569506234	-0.5604863044919564
Si	4.030155716666154	12.325694199170526	9.408606793824205	14	0.6083808543956748	-0.6939343839236021	1.0726569120287541
Si	0.0061772497588373	13.734565931965928	8.175041149012358	14	-0.41064845708649467	0.11485127465101468	-0.8029191675656349
Si	1.5011208472310889	15.071391597945395	9.419044215830517	14	-0.8954419351743557	0.26781867145216065	-0.33570973587279873
Si	-0.0016385277874900002	10.889475437601916	10.929717680062671	14	-0.22552501737785277	0.3498413020439286	-0.35749651102413754
Si	1.4300251265318977	12.242293134787287	12.217911841309435	14	0.40049207685084576	-0.3592970560798372	-0.015241255227305798
Si	2.6620669405013784	13.6119876681838	10.732832181117873	14	0.43221437429083276	0.05321519525323285	1.0691697218830372
Si	3.990028171150524	14.975603263488729	12.130463613291093	14	0.7591800380803398	-0.32627300801625925	0.4834649879689405
Si	2.782678970938518	10.912939155518773	13.713691087953306	14	0.21763095271340213	0.5469381221179681	-0.42470571831387227
Si	4.014769940741623	12.330757250033871	15.1770766402385	14	0.152256743290657	0.5501522608786852	-1.1006161397221723
Si	-0.0014746750087410003	13.604843687030344	13.533207252161283	14	-0.18744154826528744	0.040653288880053366	-0.20848887352655163
Si	1.4044477077691788	15.083598629962195	14.81827182533394	14	-0.29211535961702795	0.45668846872279034	0.18058312482379243
Si	5.488281594753506	-0.16513083042324223	0.021415558182494302	14	-0.0636651957164427	0.55843224845169	-0.6691335020054537
Si	6.82617230379484	1.2118223810718542	1.3841299632043027	14	-0.7140483979536526	1.1045828410100968	0.10717626815984067
Si	8.194146383014491	2.6999988587817723	0.1450260944707399	14	-0.737166491439764	-1.085265869629292	-0.7800085622788594
Si	9.548258517151977	3.9623698220976933	1.4389223324179683	14	1.1388811288703402	0.6286766455718596	-0.05391273612658902
Si	8.397372984496878	0.0481071758407064	2.594379357600167	14	0.047304995453808465	-0.026072293498961598	0.8723546949520861
Si	9.646062240787256	1.462762911725948	4.113163534380397	14	-0.2567048115952886	-0.2698932963349881	-0.9112488335720941
Si	5.295672653334056	2.6659666366356047	2.7135658688621893	14	1.2338803851234275	0.059802109972920216	0.1919594945338516
Si	6.801496075315241	4.065892007711311	4.187569081210318	14	0.007879666474657817	-0.6824451426899883	-0.7607430130044579
Si	5.478712592474563	-0.015008914533408402	5.433063208315092	14	1.7976893290206115	0.4166213918557307	-0.8235278622592819
Si	6.849472168932948	1.2349256228754635	6.8858638710931	14	0.013599347369859236	0.3108474045374988	0.3482569869456533
Si	8.19042692493689	2.6032929487641123	5.5175948568717015	14	-0.3571877212751877	0.22315651515693238	-0.07891339292811289
Si	9.568576261716853	4.102447562650212	6.829138039090197	14	-0.30131143201560157	0.08748031585484631	-0.21031538674598482
Si	8.352346240896651	-0.0437159213702332	8.231603128236513	14	-0.1518376531234729	0.9744987957793328	-0.4141562160747727
Si	9.759825225072687	1.4727579312296368	9.508294824415097	14	-0.8711334199250157	-0.9088427932134994	0.6921011858303365
Si	5.515710549916087	2.741896014307891	8.178727836534211	14	0.19430074303837847	0.00449094966270265	0.33228090981784925
Si	6.916143864605917	4.061730147131087	9.687484223255002	14	0.5138649659427753	-0.421835593444991	-0.31591633867617075
Si	5.4867905344668895	-0.0812218224258793	10.87905440087348	14	0.24416784494371452	0.07788057992100941	-0.2213847664808183
Si	6.9656274037881145	1.2308129181288634	12.195349313675697	14	-1.549740930814151	-0.13509050151015634	1.2163449326189537
Si	8.402436035360221	2.5928882973135505	11.12249047426087	14	-0.15270154451104262	1.3282042120089117	-1.3964171788156328
Si	9.471624572531072	4.232005954807047	12.474390595885245	14	1.0238393353151025	-0.7575957229820647	-0.8245131098179627
Si	8.169748704258765	-0.1180723123665294	13.72858530554159	14	-0.5377435923825866	0.5333845404228075	0.28669058450204754
Si	9.429530793670452	1.304464742176539	15.0705395634959	14	0.5772028599519632	0.29378272141714395	0.8131704215875973
Si	5.3663751273642495	2.6395207981455164	13.539171493307746	14	2.269165767102765	-0.47381357281816866	0.5758663994065503
Si	6.8410173655495	3.9057095312062886	15.088088196099918	14	-0.736664354570739	1.0434833512926298	-0.5531478556871897
Si	5.5796459041839475	5.354512186182822	0.1718979501855759	14	-0.7268828414907678	0.3417886001812248	-0.6482098469100888
Si	7.01042475349809	6.7252553773633315	1.5602717003594777	14	-1.008066118397058	-0.6886674746752789	-0.14616450923456611
Si	7.993918287383213	8.065554722252276	-0.0012288958406175001	14	0.8982066447251108	0.8409751258512747	-0.19553975869215784
Si	9.422829215019618	9.407656447707462	1.360174686951199	14	0.6162054992164815	0.45052552927039535	-0.27351495528894865
Si	8.379185326055737	5.308600637577352	2.908845610575247	14	-0.6609774417088801	0.7599783662822459	0.15353561107689867
Si	9.660382973649918	6.892123047241312	4.137872533415747	14	-0.6833139191776665	-0.3991713000478857	0.9931742763827605
Si	5.497998064533321	8.150741781923882	2.7097644843952122	14	0.1908248657560703	-0.8057754084657874	0.9838715031134005
Si	6.72301059429447	9.511178633321078	4.1797696889418665	14	0.4554772210064685	0.31945186560190636	0.010964735748303497
Si	5.478040796081693	5.476484194683577	5.456658008454948	14	-0.08816320142787763	0.1125959010641808	0.533740381399116
Si	6.774050734874783	6.922616049366502	6.874181167968297	14	0.027819359564002215	-0.6833077485248981	0.6660594884846847
Si	8.148644466355895	8.271402968194645	5.575910060828471	14	1.161551592920214	-0.08227125647622628	-0.2629083745117418
Si	9.724236401528403	9.722384865128541	6.890500904731698	14	-1.506607553742283	-0.26480610734854315	-0.6892009790292095
Si	8.294833915555753	5.46050854875555	8.247414921385792	14	-0.8975240162626115	0.7234187912929323	0.1340659160400773
Si	9.591958053244335	6.964070802389998	9.61645404366731	14	-0.07404963299398878	-0.5253922595351272	0.6385010961106775
Si	5.385332893865509	8.342678926950459	8.270337925132777	14	0.2995286275866109	-0.5179571371703229	-0.18533761278181024
Si	6.967610022410977	9.512964628609442	9.596529545771432	14	-1.0092375139809175	0.8763185680241582	0.3154018605016091
Si	5.539616670335567	5.404552824812766	11.042726941565858	14	-1.052844231542225	0.033038189142838785	-0.4250013954256893
Si	6.754437557258528	6.7897150605231875	12.5101924280419	14	-0.9644270049087167	0.11100824352898936	-1.056174327152881
Si	8.070060673667873	8.102732917750425	11.168844425368961	14	0.47113885195361854	0.021448674801739304	-1.5787609965626623
Si	9.272510675795285	9.538558432650037	12.468115034459158	14	1.4942739615215326	-0.26089442771446986	0.369607188413631
Si	8.077647057323952	5.5159563290842115	13.738350931155031	14	0.49527870269395685	-1.0446557753186174	1.4397701282818416
Si	9.519158263646155	6.830498017153814	15.058594695925098	14	-0.5181569120536984	-0.4906597119863108	0.47181428132122144
Si	5.390559797507602	8.13728946878859	13.76981066467484	14	-0.21949886072848973	0.8384197042735796	-0.8238857601198465
Si	6.650325501641413	9.55201074578533	15.063067876784947	14	-0.07364776923244964	0.026578287025966738	1.118320256735648
Si	5.311566372872709	10.945889949325197	0.1441740600212451	14	0.7371279248599618	-0.3145359122297832	-0.855912476429739
Si	6.824058602948978	12.1946939025607	1.3594209641689534	14	0.2811858480116105	-0.3382283906444158	1.300805485275286
Si	8.275581214052744	13.429242664045042	0.10067114726338561	14	-0.7901767695989811	1.627748523337976	0.27622824273330093
Si	9.641720142150408	14.859988742803436	1.3731354417502448	14	0.16062414844454692	0.09787529466420498	0.08887848292794283
Si	8.228031137659785	10.802502382641949	2.8540040855279574	14	-0.7212282095601661	0.2973056499268109	-0.7068981540583208
Si	9.634264840717329	12.185174056115386	4.128385457526179	14	0.22917187316395082	0.400600320384824	-0.46142290205931097
Si	5.542107232572552	13.7021394670515	2.6827943170131268	14	0.7359143631488518	0.011701357422525921	0.007150758116395837
Si	7.007622870981483	15.147796148676054	3.9543410359389917	14	-0.6580996035240383	-0.6878076970562212	0.7178559478222599
Si	5.3785166182695505	10.984477278720586	5.434603424435333	14	-0.2154300865593554	-0.38558609375728725	0.5552890721978091
Si	6.774394825710156	12.336377400344961	6.813408172330293	14	0.2133328359497106	-0.13420295595364123	-0.6332580981418315
Si	8.261883121749328	13.606646067596584	5.389167048888235	14	-0.963786028352404	0.05398884084406541	-0.03465927104719215
Si	9.516716857242795	15.010405593695017	6.71879957788062	14	0.407511708595914	-0.19491909386787407	0.5416424164900591
Si	8.180612143489824	11.041645513226115	8.168142947027025	14	0.4539379002512959	-0.5071649225890014	0.45814834232357043
Si	9.590516148791345	12.290383925350117	9.63895103018955	14	-0.3483940268592172	0.18398186894649618	-0.3795607084395202
Si	5.430720113578982	13.640366969463129	8.176548594576849	14	0.24966769633404326	1.1444915377894354	-0.7409670993240068
Si	6.8829636769092435	15.014403601496493	9.497496926295538	14	-0.15986695792776331	-0.6677327638270371	0.5543678451616
Si	5.526737841925896	11.067812801992329	11.002484699105104	14	-0.18789354858056947	-0.8345221657187671	-1.403331909463639
Si	6.888338048052211	12.342013935933927	12.352369431550866	14	-0.0744391554499912	0.30538766239016435	0.15080484011636938
Si	8.261031087299834	13.724931388575488	10.995897817399394	14	-0.09503756572235755	0.01106706574004539	-0.14092639636582846
Si	9.595431732153816	15.099541505334473	12.419565456115828	14	0.45883688432830605	0.28953011321761907	-2.1129484931769524
Si	8.046859120197016	10.93476434564814	13.866401877747375	14	0.4373036201615339	0.5193542758012915	-0.5072245722324289
Si	9.557614510818544	12.278471828335066	15.123660634366326	14	1.2659826919297323	-1.0791960041894866	-1.3782263515650528
Si	5.446138660059263	13.67059780714232	13.64411919809648	14	-0.6156465409198812	-0.0690408627198083	0.4735981141923401
Si	6.913538605423807	14.839376063236811	15.120563816847971	14	-0.42462781382267184	0.10456916736521049	-0.260428286319927
Si	10.876531068080746	0.0109289803425583	0.09095467748356992	14	-0.14335017735113204	-0.15288049344132493	-0.7329539924832333
Si	12.29654478983108	1.343281465462177	1.3985490077342146	14	0.17406434439508897	0.9331626213262482	-1.2106118819760874
Si	13.530847772147297	2.9569200158602045	-0.047124059168212405	14	0.949067221726152	-1.5880892237746917	0.8007787223866116
Si	15.066049997358178	4.0881759856211755	1.380623513739074	14	-0.09791514679666728	0.07752473894470091	-0.8329100826830341
Si	13.692767088107058	0.13444120496355452	2.706897060767105	14	0.7692957948519304	-0.7502174220448357	0.3559615611480091
Si	15.042127491660825	1.4722827581712647	4.092042911199651	14	0.28262463854876535	0.23828155642376747	-0.14057878292654444
Si	11.08811416127933	2.7507440643603376	2.7511700815850846	14	-0.8275385294481808	0.2882571589736137	0.4201396923758213
Si	12.276456439156453	4.2576161441255165	4.121896887487719	14	0.007660608301381202	-0.4741051361614734	-0.3663943352055739
Si	10.852690488772767	0.008946361719695402	5.412073667357346	14	0.08157422982393416	0.26169301302690784	0.5757378441405427
Si	12.284223060869156	1.3028753702226736	6.730596977950548	14	-0.7972722489509938	1.2075458388818106	0.6834686997179394
Si	13.526948076013072	2.812532947226585	5.393410835857835	14	1.1656990429121448	-0.1911046020149024	0.7703247512010537
Si	14.915108817574598	4.173903759462652	6.925188537992861	14	0.336131911366367	-0.8292688833286406	-0.4917251780309802
Si	13.49681555000113	0.0095690022789416	8.212284885622005	14	1.2373153818311453	-0.22070625178683126	-0.2580962937945527
Si	14.877373522628705	1.3636811364164274	9.672213144275597	14	-0.21202311489962714	-0.21285538169175908	-0.8271307521444055
Si	10.94633235182782	2.907420091400131	8.23293033574438	14	1.1770540724480467	-0.4661403661007187	-1.0175059315799817
Si	12.285894359212394	4.3281711506548355	9.597283268553678	14	0.8798535807288299	-1.0383573386158507	-0.6558136337838946
Si	11.143807720776115	0.0722754607061839	10.808302771009663	14	-0.9928886265816921	-1.2291724341717045	0.48119727307656984
Si	12.145800233382	1.577263233515749	12.265806008537767	14	-0.1381562874939009	1.5628911060845803	-0.7816589547838625
Si	13.707186132636972	2.9461712735742696	10.91469238025139	14	-1.0505919432817754	-0.4409257933365585	0.3705258443445199
Si	15.039260068032716	4.291058496268187	12.250715167614986	14	0.4649849113698441	-0.5051728301869507	-0.0666605334144152
Si	13.51139844730979	0.305585432366885	13.468649257334176	14	0.7151061506823615	-1.5183850158822851	0.18835840442245222
Si	15.024546088501056	1.5470651663923083	14.943127642740679	14	-1.1854333046864092	1.5394917336764447	-0.22049927780855932
Si	10.796128509548613	2.8007355471566573	13.873873564458329	14	-0.02007878988716441	-0.21369639024197953	-1.1917191429731073
Si	12.308030869621385	4.214014919700407	14.897609340804205	14	-0.7367790258680177	0.13842651066304848	0.42993920319303375
Si	10.835092700335125	5.376337376312189	-0.0300014437889419	14	0.42122881258943606	0.3476221810421088	0.4880644382761533
Si	12.322204134983172	6.756289093658392	1.3180972933684558	14	-0.04324804836914681	-0.3389845527190713	-0.006648107026306888
Si	13.718557515482152	8.130784513472253	-0.0433718305348603	14	-0.5306712529784553	0.4877551343061395	0.6485872851710864
Si	15.15908560513186	9.44142650540763	1.3364488045883436	14	-0.027731684872585163	-0.3615097493183566	-0.5135556619727615
Si	13.746183093979232	5.410467910125606	2.748810601571099	14	-0.20235267356948622	0.9803948544994965	0.04723814671548461
Si	15.061085258162084	6.828712021865449	4.164629692185458	14	0.11373078695249415	-0.662210800930955	-0.29749848282582203
Si	10.932306553966905	8.123706073430297	2.6658355544126056	14	-0.08337863153761407	-0.09359774674307463	-0.5489332998464029
Si	12.352533284329613	9.446653409049722	3.908740807613145	14	-0.19392253344578467	0.32528853178917455	0.5517831129832551
Si	10.968763797238559	5.491525879772736	5.570896165798751	14	-0.17032570014906168	0.998340655413066	0.3586008007591411
Si	12.306326800722394	6.967200390464105	7.023713213854634	14	-0.0969815784549215	-0.3945857337094016	-0.3627253679137226
Si	13.598256805324635	8.135372391277224	5.377009172705059	14	-0.37111282768910975	0.02288746533889417	0.8242698832546765
Si	14.764413416959144	9.471837581143443	6.917831548227031	14	1.216821615545309	0.18551707593315658	-1.3328286020377302
Si	13.835384546730188	5.63419249422949	8.369288618219299	14	-1.1194744259138623	0.23934008048407246	-0.3547580267476478
Si	15.257757748494507	6.909638909289582	9.698052727484313	14	-0.3069894610046166	0.024100255718408018	-0.14165581894515444
Si	10.942842287640467	8.493898656457912	8.368207189879556	14	0.6557375290664182	-1.3480202349323571	0.004180874361092791
Si	12.388023796206646	9.776833143506833	9.740572523569679	14	-1.225798886881138	-0.6669465198201358	-0.5398678395980929
Si	10.988802992079561	5.483677331670658	11.01621556196427	14	-1.4983450496854551	0.7994204074459773	0.2203668658845717
Si	12.315518941610215	6.938182063347656	12.231298613333227	14	-0.1718318536456044	0.5504032007579317	0.19896267120487096
Si	13.725177167743611	8.378333291606243	10.871681025829774	14	0.524868525381413	-1.7333661874527426	0.8938447645494796
Si	15.018221371241346	9.614569736711697	12.328856557800382	14	-0.23003062234088026	0.6573195301699053	0.6965054892437502
Si	13.631666386911556	5.560671752404813	13.5630284578936	14	0.6039456977184193	0.7912687180284479	0.3789978934849398
Si	15.062871253450448	6.9182247948960285	14.98296025325456	14	0.3965009500623799	-1.0883452824712336	-0.49753484761238675
Si	10.848282849024418	8.135896720169223	13.748395106492344	14	0.5059372197986307	0.8992597694642435	-0.9935851390129202
Si	12.314716062994345	9.52582707174124	15.039145371087592	14	-0.3622491992084312	-0.8199136595107498	0.004815937375169366
Si	10.936206250101131	10.783511845584938	-0.018711987333135803	14	-0.924740708739571	0.2856251184573782	0.6730539233976155
Si	12.379962239492196	12.11884645127779	1.2914384462659934	14	-1.5157365202920006	-0.06452214511964806	0.9577071640439777
Si	13.489343863290175	13.548461945862815	-0.026675232380337203	14	1.1710826803420027	2.1266123752903474	-0.835146687201031
Si	14.993676224984746	15.059577812597592	1.33215586178512	14	-1.1819509996408006	-0.924721168339138	0.0072942257932601005
Si	13.72463645357374	10.719707573540079	2.546534346205459	14	0.16172252463731415	1.1660250590667396	0.9078418619123657
Si	14.900935552212811	12.339261209250944	3.935137490269609	14	-0.07933633975327725	-0.7499862796765543	0.4053707491958267
Si	11.05617925470115	13.602795527295983	2.7808765903722787	14	0.21650429436211324	-0.2387199298808527	-0.07838837322173865
Si	12.35215642293849	15.206324361245196	4.115064226613885	14	-0.7009565867739905	-0.7165423701141962	-1.1249153989923597
Si	11.074399683698038	10.825458156944682	5.3498259967106	14	-0.1220413706788088	0.21098027458177512	0.14426729061882887
Si	12.207785739582746	12.31771456884545	6.744458923032714	14	1.076717458660864	-0.360926108410683	0.3594304964459529
Si	13.560914757047739	13.758472052385407	5.371503719339093	14	0.38043385580624256	-1.2433801050603106	0.20959881969325955
Si	14.897478258581206	15.002180184201817	6.762810434252603	14	0.7230045862258564	0.7870639323878779	0.9231581934150199
Si	13.670581421864444	10.926506165599191	8.297095083902489	14	-0.5455715796403094	1.6202938605727386	-1.2571046652592612
Si	15.048714373366535	12.357547179359333	9.487862382905096	14	0.6912167256002056	-0.6653046119626892	0.6505395254406748
Si	10.86109613632259	13.655195645939912	8.120347091465941	14	-0.47576761286148117	-0.6421145275276137	-0.08988584199237684
Si	12.332969262546982	14.807097065823259	9.429792958116451	14	-0.6286799880087759	1.570503634716475	0.4852346797607984
Si	10.73637140113885	10.738550643096213	11.01772300752876	14	0.06993766425547594	1.058436385613547	0.39567819635993245
Si	12.192137799212217	12.1907122800371	12.23578817947095	14	-0.17441092939224492	0.22919989821194045	0.18313031886446313
Si	13.585722067750337	13.548232551972566	10.841515729262085	14	0.06550867823098888	-0.5999512284930373	0.42092310816687045
Si	14.969884801510391	14.972391749025249	12.032414110487691	14	0.019938664647216338	0.8003406060400584	1.0724273123236647
Si	13.515314528721893	10.965683364998076	13.735237728358799	14	1.4184003864134307	0.07966389857106412	-0.6987081551715211
Si	15.028986498805153	12.335672833396343	15.05662846258011	14	-0.31077027137789437	-0.5479351967611216	-0.048846115982705225
Si	10.87109115582628	13.628209093279953	13.556359649798518	14	0.347851523636666	-0.29051741766055594	0.9939312097890121
Si	12.146046012550123	15.188890425586303	14.875997159287213	14	0.7266337013852454	-0.8776948807020335	0.5712762050784899
H	-0.8495619110634777	0.979765883168583	1.0560753992875673	1	-0.5765361723424487	0.7557630391098631	0.5749701120919465
H	-0.9013000644812619	12.658403820531522	12.710733482480588	1	-0.5297829360903441	-0.529158157497548	-0.49324367283305964
H	-1.3489868192182173	0.23808628016123448	-0.35996489257810316	1	-3.825777976885012	0.04443152814801096	-0.5745895885045647
H	9.56447174960919	1.2349256228754635	6.8858638710931	1	-0.054594593257492295	-0.04370210556868495	0.015736193001434303
H	6.800734159894058	1.3536533463569889	4.238035737065011	1	0.031294465514714355	0.037635582565795564	0.12987861391568417
