67
config_type=vacancy dft_energy=-6803.0256374709115 dft_virial="8.781954425698526 -4.222767391447216 2.4320336677712597 -4.222767391447216 10.733889228218109 0.49878884540745816 2.4320336677712593 0.49878884540745816 11.94640169082453" pbc="T T T" Lattice="10.840389105608137 -0.048836490122156004 -0.0110898400432776 -0.049140024355989596 10.845917764867249 -0.03957869599023121 -0.0112307666518432 -0.039351045314856004 10.821190565318162" Properties=species:S:1:pos:R:3:Z:I:1:dft_force:R:3
Si	6.955715703023154	9.405475461244032	9.875042920984612	14	0.5789926063653182	-0.16871207445013672	0.3290752557046886
Si	0.6484271751286983	0.608233822314954	0.7653854197297951	14	-2.9899453187845655	-2.3489741617928215	-3.118112862109691
Si	2.5918148637058382	2.529377871806267	0.36161550947765936	14	0.6691185895945969	0.7792333740248347	-0.3102100275286341
Si	4.089452773440821	3.8385383671439457	1.7373909286334621	14	0.0963632276254259	0.11620958959164891	-0.4106744252502282
Si	2.5944014089984346	0.022252311492508243	2.8494612256888088	14	3.0766280777691017	-2.7448253935408005	3.124548338726022
Si	4.1482993889744755	1.2150074281550014	4.295432188571137	14	0.8037756027477762	-0.3886562506200761	-0.47764760507157344
Si	0.16565055596218184	2.5686432771051484	2.8495967320431985	14	0.05790514846771496	0.7491146749730241	0.7048659524132758
Si	1.4210746514029622	3.929956374069615	4.404196092909562	14	0.650489645997464	0.21875092619085865	-0.1357409911561538
Si	0.1636266330530128	-0.00240550880313128	5.780726011446608	14	0.2982572160057977	-0.1317472932623678	0.1499715448821094
Si	1.5871805087158943	1.341990974879288	7.162195949639296	14	-0.07484924674855482	-0.6501482032109482	-0.4840195753864964
Si	2.8956819011458204	2.543672166118159	5.62684824755383	14	-0.3796861783791435	0.7815481401445641	0.8477057653583585
Si	4.272396108324838	3.9264863273463964	6.996983350214502	14	-0.4573698116326295	0.8112986569145295	-0.5108662858078866
Si	2.9150972516028193	-0.09388530662640271	8.517510993333044	14	-0.15562874791803122	0.11913242211959327	-0.30301787461658386
Si	4.164078832930482	1.3815458217511465	9.841526237264372	14	0.6586349076516931	-0.43131731564463305	-0.18509130089214007
Si	0.19730375629685074	2.6920147664468153	8.42383707661949	14	-0.35398309560415514	0.025282964165676134	0.2806356314730988
Si	1.4974579572963524	4.06844061610369	9.74600835008028	14	0.023849315839161566	-0.2667449778704668	0.3756983940275938
Si	0.13092407150994775	5.446552164809176	0.23599895085645914	14	0.21285949546027133	-0.05297042602675476	0.6893609017801228
Si	1.6012102946240176	6.731936173180167	1.6552708257206168	14	0.2804813651538899	-0.20672458105586602	-0.5595730478822398
Si	3.027073198565705	8.119435602117793	0.23057869668085912	14	-0.5184158223594374	-0.04321925198956115	1.3658068844266096
Si	4.2527444347857815	9.561180934844824	1.7232473173876517	14	-0.5073117327027818	-0.35013903604000174	-0.38648572350880706
Si	2.897474921227109	5.258446579848319	3.0681402963525555	14	-0.5910955704388513	0.9712625455128624	0.303800776186569
Si	4.340348750873499	6.757927376003006	4.314313101966422	14	-1.0507708922120576	-0.3598210473440834	0.052588102665648735
Si	0.17255379168022603	8.08425164821314	2.8809214649748265	14	0.07165619105146294	0.8693966382812557	0.6492642572018814
Si	1.4651955203923464	9.391931330110044	4.467384332037871	14	-0.33761209669917625	0.5807111331613052	-1.2719887939575982
Si	0.20544606211943703	5.417503938631301	5.801088822333502	14	-1.0542588536893707	-0.6696469517378874	-0.599443178081776
Si	1.3703291477601598	6.753001449008219	7.161672353085932	14	1.900269489310155	0.6758736546022219	0.5157776111904335
Si	2.828882688685726	8.021559904367313	5.707601362363589	14	0.5803028416364657	-0.35340459690712184	0.47327415492200153
Si	4.214240033173154	9.362864675067971	7.097779480914796	14	-0.27421815259400917	0.16087611676592142	0.18623878519652215
Si	2.9044442840460953	5.308729193784525	8.381400822627882	14	-0.17477911167409016	0.4713759078641362	-0.4516640147061569
Si	4.25788283574425	6.609454689574134	9.797794542524796	14	-0.2240715715403731	-0.17956599555914185	-0.17636111277757727
Si	0.2087502490648828	8.290038102294803	8.551077543391699	14	-0.5074330888738928	-0.46736035557512895	-0.3039866671012157
Si	1.544664034962488	9.538722653693643	10.023084155181104	14	0.16866913699129024	0.9119654006248193	-0.03263761093395971
Si	5.619870212328162	0.03657912732945416	0.35103083712354766	14	-0.4193308226421027	-0.297307192590003	-0.3800019101124576
Si	6.945496355800478	1.3462512946613094	1.653400838030035	14	0.8277478174212409	-0.09113745606222494	0.37307380971678666
Si	8.286101913712484	2.672163627554098	0.22532105013052714	14	0.06705057009148169	0.33330678084058835	0.5503330095826916
Si	9.644497829879642	3.9732175907467493	1.6677016366469377	14	-0.26718566532234017	0.7150400732756337	-0.8468045929436465
Si	8.298005875932935	-0.1077058707233476	3.059020176676691	14	-0.0747114355033949	0.7252077663746913	-1.0800804644196178
Si	9.71187809358736	1.226666394886717	4.268568324826028	14	-0.3744994876168087	0.32024839403008826	1.3456252503266393
Si	5.612112744552043	2.6618369592987445	3.006926113794999	14	-0.37813220232364597	-0.6386121678605079	0.6356988484222481
Si	6.950594646878048	3.9117790096663234	4.464176625616751	14	0.9471070110300712	0.19650109497136117	-0.8953781717624159
Si	5.588141128435035	-0.022020324613792563	5.8440443366751325	14	0.20599798669239217	-0.2123609581386946	-0.45097547270142124
Si	6.971438776335735	1.3372764377973512	7.24913465851425	14	0.07595713603100662	0.04005730666684304	0.07159448452377938
Si	8.375360491374593	2.624779765551003	5.833466168626031	14	0.13279013358021985	-0.24467795223923186	-0.2672121477071377
Si	9.64083048590443	4.104124317443335	7.233002898036829	14	-0.09302284759348951	-0.6053749751658897	-0.9060634283624193
Si	8.421908550183812	-0.03354378499111816	8.618227988322372	14	-0.40571116354021436	-0.3160294673102573	-0.27787169325393957
Si	9.868297956688496	1.3008740107540215	9.97471380691805	14	-0.23182293985955552	0.18029593235953187	-0.5683207195129797
Si	5.570089513928616	2.8125265296854356	8.521065596021403	14	0.41768351546348387	-0.823131397818915	0.22308786664488442
Si	6.897288615162692	4.201500267758824	9.923108650962998	14	-0.27568522528968564	-1.291065366990969	-0.0766073685664721
Si	5.437513348945946	5.327626367942337	0.4956746560027742	14	0.6928997711427746	0.7461522474231495	0.35146598349573016
Si	7.01452654487925	6.766627968005679	1.761925167133898	14	-0.3885960867555846	-0.02341299926633244	-0.6275702989526
Si	8.572422504335211	8.026603992903128	0.4030295035317487	14	-1.9413554952155896	1.0918496990225957	-0.12191770051290966
Si	9.747834975737456	9.669778979405475	1.5781406088018286	14	0.9344674572762232	-0.18791771697057885	0.6199261457252677
Si	8.335538967997296	5.379538310283729	3.050346685944896	14	-0.27292282973371856	-0.8705492647962779	0.4460502633501456
Si	9.744720497688157	6.712275827234431	4.336453756222913	14	0.18646452824363113	-0.38093753533845953	-0.24766866194762813
Si	5.680543453518993	8.188884234818921	3.061140580110186	14	-0.5900563296684475	-0.0956669723047298	-0.556644301812059
Si	6.996147547020626	9.464052148119743	4.404019392623437	14	-0.6143422191909702	0.35760861121609594	0.9442188884239489
Si	5.6465031732453905	5.351471150111636	5.611336564154097	14	-0.6216469865160429	0.23849033017576352	1.1990758466256468
Si	6.907667317858131	6.777532435356151	6.994971351864519	14	-0.07743192204264357	0.04531110327803362	0.4071846639991912
Si	8.366438753001555	8.035891056407602	5.592596577367377	14	-0.1752889618590755	0.35120218808988296	1.3596241474632493
Si	9.611762746811523	9.431937142129312	7.107724563276187	14	-0.044980973354926616	0.17621533110592486	-0.1681842265279103
Si	8.149006340798197	5.399184563568608	8.459545711128342	14	0.5677676747586158	0.8475345297440364	-0.45899295042123905
Si	9.635796153826133	6.745203871351202	9.695400520893536	14	0.5350914972448538	-0.3490388600735103	-0.2597058057249653
Si	5.537412969605594	8.067442355963768	8.565243919705049	14	0.868030867135193	-0.04331541132853469	-1.1498448361765157
H	1.5584672542460711	1.514763744828208	1.7215973920165988	1	-1.3063050795550828	6.160532383594223	-2.1022249271076787
H	-0.8127085748861236	3.4628616342839447	3.8192498506346553	1	0.13792771623093975	-0.10689010413770818	-0.05302879011752212
H	3.603487960768217	3.503733602920474	-0.47339849539189327	1	0.04722966206792812	0.018030647389134447	-0.025855806431005126
H	1.6960896758662252	0.8404516038585146	1.9874023205846825	1	1.4319920204673295	-4.394213624805803	2.662904064498646
