67
config_type=vacancy dft_energy=-6803.845619419355 dft_virial="4.329421826683196 4.998203876603253 2.8682272422627855 4.998203876603253 5.351433832546945 12.717455847159421 2.868227242262785 12.717455847159421 13.962002725267698" pbc="T T T" Lattice="10.88010067286297 -0.0828768761464908 -0.0448494792537528 -0.0832250525987276 10.857926185061139 -0.0848027271479256 -0.045023567479871206 -0.0845089532663508 10.856729328506573" Properties=species:S:1:pos:R:3:Z:I:1:dft_force:R:3
Si	6.9419649537769965	9.338477619191263	9.735750215347691	14	0.686552997659989	1.0106973875816976	-0.0019977488337550578
Si	1.1717095103011972	1.078798624021807	1.6205046050287792	14	2.047969462641914	0.7729171966953591	1.5335650788029713
Si	2.76652848561762	2.479405862331956	0.3937233724464396	14	-0.6690463415351008	-0.10891176425094061	-0.13755259196473013
Si	4.0387423930112085	4.021399941535576	1.5593419709363192	14	1.8862875614686578	-0.5747081164598234	0.8775475563671891
Si	2.867148216159815	-0.0071158562425896	3.0438989040864133	14	-0.7137619768209881	-0.8411988120141276	-1.0174480817102785
Si	4.095552821450709	1.2862813241153692	4.405253599612516	14	1.7930299719594387	0.7317733409202214	0.7062867452131896
Si	0.16138196171458327	2.7384393503334157	3.052637044986144	14	-0.3346090456852433	-0.2698925250033921	0.2153817497793366
Si	1.5569874276780677	4.152314287576613	4.416929479327995	14	-0.7922467664922322	0.07601035791113371	-0.4221441260834088
Si	0.1360912946652327	-0.12064858095711739	5.842512937829068	14	-0.09873250117794236	-0.36946937716847106	-0.36485655711359344
Si	1.385076392437561	1.3733613428712061	7.047208902825462	14	1.1427933227254774	-0.1878238716263934	-0.3831198895342012
Si	2.7751512930675464	2.7418155738686996	5.707635908541011	14	0.5980216139502662	-0.39147109672457414	0.6981468828801327
Si	4.090987357720754	4.146890351281613	7.145227102438601	14	0.7163927317845636	-2.044306666002831	-0.08701288890764337
Si	2.7917027311657536	0.06993668068882748	8.387527212327983	14	-0.283486473052079	-0.001710556369494517	0.7938498506593445
Si	4.178612490234624	1.2178537707367054	9.87184695026999	14	0.5318004824350643	0.8490954477838984	-0.8315903343222022
Si	0.19971401300302846	2.6439497014534146	8.453889644124317	14	-0.42292317099541366	1.013062804476234	0.8212094965921043
Si	1.470836604829138	3.9254795050471647	9.980656443799644	14	0.46867161928840445	0.1601587783816001	-0.8178305499803658
Si	0.195332429961911	5.500682001434283	0.3339610605228194	14	-0.6165160887391553	0.3423596426728297	0.35911219360731855
Si	1.478213593410905	6.844206798451622	1.8098538402692834	14	0.2831170052175737	0.2555095047319517	-0.9635410020153938
Si	2.802429830048887	8.280573934509317	0.35504967301423707	14	-0.9744437741254817	-0.8185170351008452	-0.7611998984198483
Si	4.248913668146887	9.503207515104386	1.5321374214510795	14	0.05957353870995905	1.2312018076008973	0.7375747829646035
Si	2.9426611603414976	5.410046230659978	3.0019588743116645	14	-0.8980824603381476	0.31824370321196876	0.34499579695757754
Si	4.28206333055407	6.711113085429866	4.373613064515497	14	0.46671757924509194	-0.4571913769234113	-0.14364739712614116
Si	0.05534699928869232	8.279579455517617	2.979197926798097	14	0.5070111704908565	-0.5412212694386188	0.7808498279396119
Si	1.5459904920444512	9.434246816533236	4.397037723391141	14	-0.1691280792909367	0.10855309505877996	0.10882794621750377
Si	0.10955372069630911	5.46053399233714	5.845156902763241	14	1.4438278466980992	0.773577713652105	-0.7506102869377543
Si	1.5462810017717865	6.769360829786256	7.306500259011861	14	0.43797622131328456	-0.4695033718594724	-1.061006205381035
Si	2.9567079040864264	8.005240348286108	5.68245948689005	14	-1.1989475484701717	0.7224651683296893	1.276170439650287
Si	4.104521629250047	9.499472234602733	7.180000137554337	14	0.4506317159201175	-0.5921772344470375	-1.2013929267401644
Si	2.9362166318208773	5.334331996966847	8.657744780806135	14	-1.6264460013827888	0.22524502400848867	0.14156505892735322
Si	4.2027519988887665	6.719834905558397	9.939046093603107	14	-0.360421914657402	1.016104422069969	0.08533987067582302
Si	0.19937780511633735	8.175973023846076	8.553208065176277	14	-1.025013816225346	0.20079278397175238	0.08574276287949022
Si	1.262338752767023	9.80752787902772	9.935410913831472	14	1.1048229822469986	-1.1134654956701444	-0.4612478097870089
Si	5.704855937180183	-0.00534450854183488	0.1981776844075336	14	0.4688487684449626	0.05350367327015347	1.4305354893034656
Si	7.099021911123951	1.3921944247829774	1.7509315040366846	14	-0.571889156586813	0.03025805296016267	-1.118302516108939
Si	8.485232053134109	2.73124406633766	0.2742564153241009	14	-0.7179821890934791	-0.25022176953053515	-0.27957556474960177
Si	9.68842324302599	4.094633418006521	1.7006939941845676	14	-0.04218078255075334	0.12903169182322738	0.2909041119007062
Si	8.420534340000032	0.032410875497593125	3.102588397316579	14	-1.0857939746620506	-0.07149961073746591	0.7070189960083677
Si	9.732872319359672	1.3323287479750991	4.550518255742776	14	-0.14617556498744277	0.12629475020992975	-0.3854930197446979
Si	5.642530176126969	2.6821979727830403	3.1004384077240172	14	-1.079943938727118	0.11117407982213891	-0.35279267384092655
Si	6.9593498392577455	4.037196271952995	4.5251742741741765	14	-0.9535414592042738	-0.2311678222239818	0.08201337461261544
Si	5.635527477231356	-0.18735918920568828	5.7852781693384046	14	-0.6443845564147724	1.0013174811527332	0.012143330427059377
Si	6.958473957870087	1.2919348392585641	7.191872954575613	14	-0.03710259243292886	-0.9679892713297819	-0.45339771102353277
Si	8.237133481835711	2.635197415885312	5.846645357096554	14	1.3146305756922543	0.4804907333345932	0.128452164684066
Si	9.784577610568249	4.0785792194041655	7.147291135969517	14	-1.3895906370801074	-1.523472719089794	-0.043187627394123324
Si	8.470236528556834	-0.02003973092905432	8.491195662930076	14	-1.3045261317840722	-1.236320878293312	-0.3428658933103668
Si	9.8441614820601	1.1814171050101243	9.801260702887458	14	-0.4392586886469745	0.7583667974675771	0.4926741730046468
Si	5.631960844698757	2.6549194358017	8.46097285882451	14	-1.560279891521438	0.2754255436523507	0.187451832686568
Si	6.981674478154603	4.094462593934643	9.659920648204757	14	-0.3691197068449309	-0.9415279695958819	1.8323226319040697
Si	5.5663382878634255	5.440897928482398	0.3469360736257064	14	0.8859249888318277	-0.6797513956460692	-0.22793208617857544
Si	7.031094861395377	6.83723456499558	1.6106925573841808	14	-0.17858203355312116	-0.8704502772414522	0.5585728879127022
Si	8.426198735657358	8.265983165057769	0.34875529558864365	14	-0.266609994841159	0.20420078407360864	0.037116733512189685
Si	9.821217741909106	9.794246035426301	1.6715298641040826	14	-0.8189443528050538	-1.7233116229877716	-0.04374838546444763
Si	8.214920912234415	5.351195705820653	3.1462616929926197	14	0.9773858899433272	0.8964768050657153	-1.0349740211250678
Si	9.715357955760748	6.7481024812743735	4.381443770536586	14	-0.636321055909724	-0.03580367002519006	-0.04987147278438027
Si	5.453489947487825	8.026498696797992	2.8509503947709116	14	0.3742871143173645	0.03858637731318632	0.0017306109909916722
Si	6.747955594333586	9.363698650950166	4.170552205365342	14	1.5757414904746807	0.646444268886743	1.0241460681797963
Si	5.526368719198054	5.378240311748147	5.884583533773405	14	0.13470920659117838	-0.1762317861799738	-1.366055253200536
Si	6.79755441800613	6.716768776675886	7.165223311311125	14	0.919429062258677	1.0391888340763866	-0.35571524925833886
Si	8.2486624746104	8.0623869846123	5.691460936231786	14	-1.443705204974328	-0.6357155606068291	-0.7364144431336207
Si	9.541769145241023	9.260333766692366	7.074245892393063	14	1.06696114241303	1.1447486483214502	0.5430724652691254
Si	8.292075725998677	5.370174586621799	8.346322705308584	14	0.44775824861432	0.9803136075713796	0.41906702723625555
Si	9.56793786978086	6.768533910712193	9.81273964529714	14	1.0048442663203805	-0.5835619747402854	-0.17436002150690602
Si	5.440671613788445	8.109259151443267	8.505998602407207	14	0.19674560708730726	-0.4243588762061843	-0.07259361605118891
H	0.15329665166279685	0.07801111022648152	0.7201834065263826	1	1.0229494757637991	-0.8978160938269804	3.942304583762635
H	2.2077564181939784	8.863372353240123	9.032883147063023	1	0.2417373790845785	-0.1415732864643777	0.012372930132148602
H	8.807908932450216	8.787231603393002	2.6279379368561746	1	0.26433199552750775	0.2926498924130867	-0.30324181788996873
H	10.852392355573398	0.19417474325822365	10.810060627289884	1	-1.6517456777330457	2.1561024390913817	-4.5213465553501
