67
config_type=vacancy dft_energy=-6805.899547018222 dft_virial="10.139581370011308 -6.611640334022755 1.7911448796244633 -6.611640334022756 0.4950459792629618 -2.6878988134206163 1.7911448796244636 -2.6878988134206163 5.673534110789361" pbc="T T T" Lattice="10.8658030118 0.0012712989523806 -0.008203681273909 0.0011191777102154 10.894325744705977 0.010539828921446 -0.0082797418949916 0.0106267553455404 10.870551367716157" Properties=species:S:1:pos:R:3:Z:I:1:dft_force:R:3
Si	7.023714828744085	9.460190781810239	9.693476312732683	14	-0.9667512841181306	0.30179917069483364	0.050101329600001514
Si	1.4212622460676567	1.0473525791467997	1.3613873251514341	14	0.5988387112210092	-0.05036023990574042	2.1970665746046407
Si	2.9138248049184434	2.47387604703277	0.37923717013754243	14	0.09916110443481103	0.04625855558850819	-1.298758885440448
Si	4.213912702378808	3.928522386273881	1.6084908977639825	14	0.5333829977596154	0.006713927322502679	0.31241243634587296
Si	2.9200596026866146	-0.16105075908029726	2.891505358951905	14	-0.9682412396511564	0.23195766577833127	-0.14278479129123148
Si	4.106255412718195	1.3191791133520967	4.24863002958181	14	0.5426029814376664	0.21363776904068013	0.9018879533224988
Si	0.1583201827834319	2.4801630006553976	2.838925738177805	14	0.630938189811462	0.5505960336569428	0.26056738311774696
Si	1.4868721378135075	3.9662267227248265	4.362778549961672	14	-0.8436657875688096	1.1011252185755616	-1.633085109540475
Si	0.29930832318274164	-0.07228366795569832	5.623380119277155	14	-0.8172229977932148	0.23140359258183937	0.7226065791222974
Si	1.55089996864084	1.3293375525878286	7.133816924082353	14	-0.3640464018272147	-0.14135988472280542	-0.8245326502183956
Si	2.766644243382709	2.7683490878752606	5.698935480519707	14	1.7571422267902799	-1.1578443161590923	0.9108683099847121
Si	4.2747166494525395	4.121998874701991	7.097339336791439	14	-0.7850610413434824	-0.1416326789972731	-0.9839848888580192
Si	2.8570357720575723	-0.0726759234444243	8.42391480225367	14	0.2262804081209123	-0.3887225851373359	-0.031100604173575193
Si	4.247352211147622	1.1562920335628053	9.795731125135829	14	0.18632414589315108	1.70786673621911	-0.6055827204757577
Si	0.04873964598973009	2.5076197982859147	8.458547376193179	14	1.0016195860278507	0.3215889683440134	0.9140389970655188
Si	1.6347437644207925	3.8641924861228203	9.839731107851811	14	-1.261200950255321	0.18730322279906345	-0.38048810612849765
Si	0.2875297927179504	5.425188958922225	0.2359563453027429	14	-1.1275551528245558	-1.3877155299701234	-0.1986425685925125
Si	1.520824512484479	6.697128993680521	1.6417945839951493	14	0.030600267078274377	0.9825525260841648	0.41564282917088236
Si	2.7403435671926473	8.121351084488591	0.1997308446417029	14	0.14528853365199168	0.20731979193748026	0.30517400353806007
Si	4.1951887506288745	9.42785306546682	1.4856301765292586	14	0.5211494215358188	-0.5859389616087622	0.759805845115264
Si	2.935934540886854	5.335609105732343	2.907433539586903	14	-0.6436417640877815	-0.260532673195925	0.7857467551323659
Si	4.324013711136775	6.682135272104539	4.221696963656461	14	-0.14188541865024368	0.44605720533451	0.46685770448504
Si	0.1459342539302811	8.173878549408235	2.980142060440363	14	0.10176897656103724	-0.7534084208576715	-0.19308872399046065
Si	1.5662337898510923	9.383915017828006	4.328817482648292	14	0.6765794230126027	0.10786481016457632	0.06882951786249213
Si	0.16634240514704385	5.448524357470367	5.730963521477288	14	-0.16731519292970026	-0.6314331275855904	-0.18157685703002965
Si	1.5160174812320586	6.715051049168183	7.169558896509368	14	-0.6027357355547577	0.8486843280432068	-0.39478807969809726
Si	2.9142996405100594	7.955058662035402	5.703278541983524	14	0.10061223627750261	0.4316888403633945	-0.10766040729162454
Si	4.241943214408349	9.42015464403296	7.075565354136094	14	-0.1514823263682284	-0.22420938278553298	-0.07812586336855155
Si	2.7775426438035447	5.324516207437596	8.427187582120823	14	0.9509222742146389	-0.16854238149900697	0.6858495432443965
Si	4.116523596564345	6.7180652229236575	9.82741037381673	14	0.7412756319624246	-0.32807226751929885	-0.43410542225380166
Si	0.15321542852848827	8.203670408105989	8.544978319670241	14	-0.01663325164763397	0.07341354153778415	-0.19117710718493056
Si	1.373206059087369	9.82652481087127	10.017454355073415	14	0.249993712488638	-1.641693427262863	-1.0487561740831897
Si	5.58412957905763	-0.0893723163523562	0.26977398401636804	14	1.1524807333507316	-0.5950378462262343	-0.30430239883452986
Si	6.926077982620954	1.2728060392583367	1.6649094067421515	14	0.17813594678007547	0.29216035396013057	-0.4679488815829108
Si	8.26045944096686	2.6198570239160017	0.16837539689055164	14	0.5775497020596512	-0.58485781182164	0.9663288515140303
Si	9.70070315831583	3.9071765162571994	1.591116478748114	14	-0.22483853225737324	0.8984969225157556	-0.6575871822337327
Si	8.325704241731515	-0.03501287704492314	3.0229576706280596	14	-0.40851418256023975	0.5335514051580851	0.14799333644878745
Si	9.696519824156288	1.3287290676191679	4.308540807647971	14	0.7160410045767673	-1.0519960238971082	-0.07677191930696156
Si	5.609002488731942	2.6645133011338973	2.9934678812540336	14	-0.14795039898994097	0.03455925505023839	0.549158271561916
Si	6.9852270678959885	4.063290941029236	4.400645873457796	14	-0.4099064360911	-0.6077558186923468	-0.8240204860386222
Si	5.539295102670342	-0.020532021371097282	5.743809073797839	14	-0.6019577190848809	0.5600319901818862	-0.28839317044504953
Si	6.910194351778305	1.4006802420027051	7.054515033961334	14	-0.26944026757757805	0.2549145509608694	-0.5229255410909772
Si	8.325025129043278	2.5922546245251263	5.567379943714941	14	-0.1978226431059173	0.7384217050570603	1.3404071920793987
Si	9.708121242031986	3.925752693086173	7.01701606118731	14	-0.45222940076605744	0.3507615006380096	0.05390965080020485
Si	8.238329059972727	-0.024193796986073882	8.2480659060516	14	0.9276337164458017	-0.17216275490030747	1.3240698746541137
Si	9.710245506520794	1.0801759968848452	9.933684446753942	14	-1.6759307799270187	0.6231130307695912	-1.7321505688573764
Si	5.57150460253822	2.7869469963102573	8.41555465341639	14	-0.12351795646416983	-1.24392492227765	0.6383830823764828
Si	6.93450875917781	4.078239026232569	9.788300002456058	14	0.1716788728790556	-0.05930125865655537	-0.42914833119655615
Si	5.5898917143947875	5.316141933056402	0.32762460583149244	14	-0.3795972181350663	1.0157910043314429	-0.298592488139545
Si	6.975176200110074	6.822507321473079	1.5952041938411534	14	0.23773133988525574	-0.49884791109938637	-0.15728376841261052
Si	8.385329249178465	8.287013290367097	0.2942329065959299	14	-0.34458339166422575	-0.9352411028670559	-0.1638570562741011
Si	9.705920916922096	9.661202704627033	1.6410774409963707	14	0.5412780908661942	-0.5415598840092823	-0.13215635611880333
Si	8.25937286066568	5.295047063089294	2.911981964727642	14	1.0080733174919545	0.9529904713341659	0.1817236671438101
Si	9.661296150532936	6.798083169463155	4.359789367553127	14	-0.569005919080799	-0.3796051885615588	-0.45951848434867726
Si	5.659914208743731	8.167271054596759	2.946782958613835	14	-0.4054157435389294	0.3758254066304091	0.2628818921269443
Si	6.953246836471659	9.598391843737023	4.439606296736906	14	-0.38623709762434877	-0.6368067377047	-0.6579826182319715
Si	5.6515334148807295	5.421402226572612	5.689192114959026	14	-0.5657169611552656	-0.22595516329791354	-0.0661933635777443
Si	6.998501819435504	6.703561549063506	7.015686086898666	14	0.1138097198858227	0.34318136793314896	0.6767915392015148
Si	8.266203104438897	8.178297671493135	5.732932404983027	14	0.4937229268647353	-0.4709815003080255	-0.3773834964544189
Si	9.674443772177213	9.488875415181091	7.035318419780387	14	0.679540050788753	0.286369196337029	-0.1228278717962421
Si	8.363655231910828	5.3491511560259495	8.405283209829335	14	0.03608417761561822	0.19305787072661887	-0.008503159514793726
Si	9.615642392598556	6.794958164516961	9.859181981823234	14	0.7175731262370436	-0.20100644282385666	-0.40664267499770396
Si	5.603026297075451	8.006804875718498	8.408734188865884	14	-0.1857219930271724	0.17454231287410452	0.4992631446085904
H	8.805312094029958	8.740965895174378	2.4859870710697223	1	-0.35174957641254245	-0.43520225578337685	0.4145837908895133
H	10.56390971408075	0.10450512020689004	10.857510230941395	1	-2.7757110533096108	0.4745867041879371	-1.3768482391134536
H	2.2623438537399507	8.868376128130143	9.082265114096222	1	0.21784872533401867	-0.35629374795537216	-0.3261447098607838
H	0.5320701224000154	0.09780309290921181	0.36768356179509554	1	2.4696243073828983	0.7578142669342772	1.772471670930067
