67
config_type=vacancy dft_energy=-6807.651807992575 dft_virial="3.8122087510419256 2.68147892230151 4.395964339436768 2.68147892230151 0.30611573537778297 3.067089829269648 4.395964339436768 3.067089829269648 3.811022255943562" pbc="T T T" Lattice="10.8931614627 -0.0011655682765089 -0.0002505427136421 -0.0011655682765089 10.89074318085528 0.0016121878964796 -0.0002505427136421 0.0016121878964796 10.892703949918566" Properties=species:S:1:pos:R:3:Z:I:1:dft_force:R:3
Si	6.894879924307133	9.481987253323895	9.527721102408895	14	0.035650432148109236	0.41685896198731237	-0.11418073038352007
Si	1.2736632963355647	1.252728818636548	1.2133642010587888	14	2.0227536043250938	0.8728285496625894	2.454878504150785
Si	2.702326476440034	2.6899017364756785	0.02906077615019106	14	0.024890099272757506	-0.38204722439463545	-0.8455120982992079
Si	4.036389085137832	4.0480621969612605	1.3499393915296827	14	0.33019317229788897	0.32229756497024625	0.5542017517579184
Si	2.770376056097521	-0.02092467385370043	2.7167261465775767	14	-0.16191098665728104	0.6598561826787634	-0.3686404528132553
Si	4.11347998880936	1.442057411439005	4.02895994902027	14	0.28548859276487826	-0.42862845370082214	0.10267272008106927
Si	0.04566957943236975	2.7508086701620726	2.631767112381541	14	-0.2727837329358986	-0.4881233165879847	0.10711944673226537
Si	1.3684610339647114	4.042133049177113	4.0953189100187455	14	0.1059943310441686	0.3529286853123624	-0.16679094455492208
Si	0.1327614946428025	-0.0109258409470881	5.525765300654658	14	-0.6253349799872632	0.3296218726957521	-0.27409293976491794
Si	1.4677620045425381	1.3267326003495465	6.8805390772414885	14	-0.012290654761903863	0.8958746521997365	-0.7245187101488916
Si	2.790114464667933	2.762198559787472	5.413822816199369	14	-0.26938370326053473	-0.47740386428722337	0.6277759873782118
Si	4.13770746921855	4.098182722167289	6.798964548311912	14	0.3263863937608777	0.08581372538632631	0.3727418800199555
Si	2.78982034930844	0.03474373848528165	8.216852213097479	14	0.3064641841877104	-0.31166784424515803	0.30277027717425364
Si	4.190551284790255	1.3811417632234406	9.503273580138158	14	-0.37068988086394533	0.33592056650905083	0.6401100938200261
Si	0.06019234229444139	2.6578954494659732	8.209111532562083	14	-0.1285434389229313	-0.19956970917095793	0.26342233846523944
Si	1.3273415280753114	4.079996589105312	9.564606436437744	14	0.49248391121095597	0.01155043354023323	0.00031676017544224333
Si	-0.04640159988266319	5.468198210272727	-0.02176998318320595	14	0.4498963797985551	-0.0926196982792903	0.5332410727459432
Si	1.3564774670395952	6.754155528635096	1.4335335125944424	14	-0.5341412167185271	0.6986670174863988	-0.5094645191873419
Si	2.592585499916355	8.212355516045676	0.018443211672497368	14	0.9061284773270191	-0.07738152837836867	0.40699465931603224
Si	4.126010392439903	9.507562217806024	1.3729882318686095	14	-0.11942269991023798	-0.2775958136530877	-0.2233118099182693
Si	2.7182533678146474	5.46071242971556	2.7595308245452568	14	0.20451934402277497	-0.7152439619275214	-0.021498554244950178
Si	4.043296438821329	6.805635520391671	4.109436447274405	14	0.25939907286027175	-0.10878835119557351	0.4746111296884785
Si	0.0740484436749958	8.29402699411227	2.765413131735115	14	0.42606891835461486	-0.6564211859710456	-0.2068824469225231
Si	1.4717554375347643	9.574125970239997	4.159629956662234	14	-0.05525202488785416	-0.3000775585724625	-0.14729373869117515
Si	0.0823631938194747	5.444421706748093	5.496390801454343	14	-0.2539367596076171	0.14207953710191487	-0.14429145900883827
Si	1.43401607964724	6.805693254147423	6.880043438394935	14	-0.22361879989349495	-0.5479825050990123	0.485401287385544
Si	2.7215104230919946	8.121239666990922	5.5242958131733415	14	0.7069968845026144	0.84509892167426	-0.08074273436339825
Si	4.162609236322282	9.579027892898212	6.849423850839431	14	-0.2963592260584644	-0.18522962635836404	-0.5755653229735608
Si	2.800800656062842	5.415060279341532	8.276425823820839	14	-0.1968679917005463	0.1647633708994533	-0.447064564398944
Si	4.0989038494561205	6.881652358342976	9.58919448049135	14	0.120030509207921	-0.05130409266876679	-0.04205274150580997
Si	0.12382038771421836	8.241488187061522	8.235272549130904	14	-0.7118614157683346	-0.33683665133461965	0.1388592276884294
Si	1.2725282289111515	9.7512629367334	9.670311496639492	14	0.49835682998323816	-0.6872605658440938	-0.6379184836451319
Si	5.498895139274618	-0.03858139926859086	-0.04059772345533663	14	-0.06837031845231369	-0.15657337201265362	0.26679845686112585
Si	6.823547145784787	1.2838298839287026	1.3839086262349665	14	0.5128182689669429	0.3489334447553843	0.014185045161788966
Si	8.27439860647263	2.5769570811658196	-0.03963041071744887	14	-0.39583143423701334	0.49171515072023164	0.6328428646326276
Si	9.505817133339699	4.109781760492773	1.3373730404663118	14	0.4444266103404721	-0.9166265574597158	-0.4868783873919691
Si	8.299805816268233	0.00465464789301171	2.795260394142913	14	-0.6364056452747568	0.20874906938495055	-0.316441872603609
Si	9.648647177122474	1.3894750317424058	4.118070367049741	14	0.14298070951662675	0.14042014572829128	0.1749138375928659
Si	5.521483198883672	2.77565052487776	2.6972862106312427	14	-0.36574667377542863	-0.40295930951605985	-0.42626380813788206
Si	6.8370165399334155	4.125408000611015	4.031397838555622	14	0.34618416183654993	0.11950034729090646	0.7393138786031517
Si	5.4879181004686535	0.08090786744805797	5.441772489880364	14	0.16558715304402877	-0.3037688944805992	-0.08229079687665942
Si	6.921865553198679	1.3835545984874285	6.8159273793416295	14	-0.2306543724915482	0.009764543784858375	0.44725688307689104
Si	8.220714928152153	2.7628630426366967	5.44485198662587	14	0.11500888340713976	0.10488618465118477	-0.14055795697345122
Si	9.592467875510891	4.09413482336775	6.865568605443299	14	-0.015120413277258838	-0.2906953381487102	-0.19027362077543053
Si	8.32874785695848	-0.00930602783758461	8.198452574070831	14	-0.582546645249359	-0.02845313702541872	0.09487275787133606
Si	9.743578900637612	1.1472296391864445	9.690151211611507	14	-0.6043961553705093	0.334759712457004	-1.1419656839229217
Si	5.556988369355196	2.7792659651672302	8.23497298719068	14	0.00010490109706204162	-0.0961513685470457	-0.8683216591469017
Si	6.920744646884167	4.1381965721682255	9.560489910720989	14	-0.23391813358494418	-0.195594780346009	0.4126549476783382
Si	5.42117896813513	5.466887762948765	0.08125862724715692	14	0.5799737401554867	-0.11888276779300687	-0.37750768084138203
Si	6.874092504287862	6.7501283268423355	1.4672837947543258	14	-0.5388864486973924	0.3622705393825884	-0.30761938180805287
Si	8.203990657358469	8.199996135050096	0.10847301252942033	14	-0.46471597375335666	-0.29804484270635345	-0.25853826679908615
Si	9.628617921141007	9.590988584184258	1.3251759675765267	14	-0.2050942431723601	-0.02555293022429168	0.4548732683667658
Si	8.306557397742813	5.4306734476660194	2.7386050613754103	14	-0.5395173979429567	0.4076549191622463	0.4434850715722339
Si	9.644099282211798	6.848722331241233	4.062726570922347	14	0.07976905677865818	-0.2672293741127827	0.5168358781402064
Si	5.426443633070053	8.107369404500467	2.80728753371388	14	0.7117495726869082	0.60912930315437	-0.5323589265106003
Si	6.888757967565096	9.506639567030133	4.120685815116936	14	-0.7060769430190654	0.4986203682785533	-0.13544351427061266
Si	5.499024767896023	5.510888510045049	5.448088344896438	14	-0.12246020373546093	-0.5161913020364453	-0.14211887501331313
Si	6.9213971472557825	6.775123775134647	6.805484105447339	14	-0.35917338591393805	0.610242591757994	-0.11965127117319914
Si	8.258662345423614	8.189462447915666	5.434728971678583	14	0.05746883189488582	-0.4719577489980857	0.28153500411408655
Si	9.611377314493993	9.502587310966007	6.826305294267144	14	0.24119847540947548	0.07455099853141767	-0.08315083160624895
Si	8.270848525151937	5.501436513843865	8.195827322158323	14	-0.042302910053460374	-0.2291559323109659	0.2517621187278359
Si	9.529938950082702	6.889079315828245	9.61463763771978	14	0.4904275411759015	0.2829534829192123	-0.6965859648402708
Si	5.514168440961469	8.181411312278586	8.138740620196895	14	0.07391644973840512	-0.40428779963498035	0.36047925030604133
H	2.2247092762110747	8.800317173943348	8.782135398145956	1	0.05596010729302294	-0.070407148086935	0.01430125912225966
H	8.749038705673833	8.67755669083945	2.2719529174748048	1	-0.02479008327580375	-0.07664722069893438	0.07055601508497157
H	10.725711784695376	0.1765846832072446	10.65659031794996	1	-3.097566388164792	0.009780998858907323	-2.961418133925927
H	0.40979419832989633	0.3771168925740889	0.352078960952073	1	1.9466964522971333	0.44526993288548067	2.1554259812816507
