225
config_type=interstitial dft_energy=-23349.7458397369 dft_virial="78.4591342491719 1.8927669718853348 -0.10252487764378897 1.8927669718853346 80.982823545019 -12.519864866116539 -0.10252487764378898 -12.519864866116539 80.67524891208764" pbc="T T T" Lattice="16.254729908999998 0.0 0.0 0.0 16.254729908999998 0.0 0.0 0.0 16.254729908999998" Properties=species:S:1:pos:R:3:Z:I:1:dft_force:R:3
Si	-0.4730451498117179	-2.2486793356110595	-0.25414270212721496	14	-0.1593008005362667	-2.042257495062673	-0.7068529026046861
Si	-0.3661703006600429	-0.10838653903321199	0.155216415901041	14	1.4444042885108763	4.336665088645992	-0.05943469902267105
Si	1.2548651489748	1.2337014906332817	1.3041007258691608	14	-0.4417248928700605	-0.10872175956778167	0.9636207062803184
Si	2.6016507955849946	2.621985462701154	0.08242773536853899	14	0.6135402914416159	-0.6667238620994109	-0.7722991029763954
Si	3.9517036429068986	3.9291258230632975	1.373248346902047	14	0.283227048525276	0.6356813649060711	0.5656861078914238
Si	2.6041702787208894	-0.00390113517816	2.7695296460851466	14	0.08515757930862453	0.0230720707008808	-0.1928462687587707
Si	4.082554218674349	1.300232100150819	4.021046320698693	14	-0.03892550610491386	0.4181599412793072	0.388151028424667
Si	-0.131143160905812	2.6362246061014374	2.66935174565598	14	0.26540208956175343	0.7433543706137644	-0.30532698430460886
Si	1.1376197821411829	4.11065864668701	4.122719656279488	14	-0.09901403721049858	0.4257390455420398	-0.4094431229124093
Si	-0.014531728538645998	0.057427960768496995	5.397805689261083	14	-0.226987462083953	-0.4012238134249599	-0.28780053066875544
Si	1.4034496350729688	1.208311602515424	6.773784830787842	14	0.20965229868391863	1.2552663249553553	-0.4872396276894498
Si	2.5790892304713027	2.7489023938306256	5.310436516000209	14	0.35417412872944215	-0.7121190405214135	0.8194094657574686
Si	3.9518174260162615	4.016917619301807	6.744965194659185	14	0.3278190136452643	0.35251448024528653	0.20956410977143755
Si	2.85741897070311	-0.07361767175786099	8.028129828405554	14	-1.2247964129168123	0.5976452041313965	2.413853176330906
Si	4.2085446301990075	1.2816529438648319	9.476214951808636	14	-1.358658954526066	-0.3814425004233366	0.05072250864534928
Si	0.147121560406359	2.72933169902019	8.050057459052795	14	0.27368079158209824	0.2138971935674831	-0.3730085036416549
Si	1.4774899298084638	4.04466444325647	9.473337864614745	14	-0.9708758512727121	-0.49149120744684666	0.8437871437399207
Si	0.022870404981962997	-0.003267200711709	10.849804648038774	14	-0.47294093967251033	-0.8987519761635142	-1.1412696857127576
Si	1.367624210353533	1.1887246529750788	12.190494770933093	14	0.6145509929429662	1.3647115935602265	0.19470646345789783
Si	2.762800187902821	2.596725612422568	10.777958741840994	14	-0.19226777006173737	-0.32331418001383283	0.2663778240307496
Si	4.029515034981282	4.003393684017519	12.140170127134828	14	-0.23128840706349674	0.4582506723153123	0.29652017725150565
Si	2.68284317148045	-0.08366309484162299	13.615335630566305	14	0.4771652657135136	0.2673286187781404	-0.27395204319337385
Si	4.066283234035439	1.2565393861554268	14.940697543156437	14	-0.3910116402038637	1.0691218993240825	-0.22892916082172882
Si	0.059768641875393	2.656136650239963	13.498789217118775	14	0.6432368149998583	0.6070266532235529	0.5538569665344866
Si	1.3215745605213358	4.031888225547996	15.079577955498934	14	-0.26794439850231583	-0.1298253920355571	-1.3320750110683948
Si	0.15713447403030298	5.662270144880513	-0.019944553598342997	14	-1.149695969178479	-1.2125548662665235	0.23859857370974172
Si	1.4346749712281577	6.878497800861621	1.4047825229255069	14	1.5387404567018974	-1.0548160122122465	-0.27591713898956305
Si	2.6838997289245348	8.275266741941989	0.022724112412781997	14	1.1105501193476286	0.08585897683996091	0.01193918466463962
Si	4.241249146775916	9.647572314509315	1.3521659622100737	14	-0.6825194476337407	-0.8213416514055599	-0.3967945702899408
Si	2.7264546118262967	5.382802573555076	2.8000397741243397	14	-0.24648055417918766	0.45249679571935286	-0.054827535399497716
Si	4.126181913750104	6.967850051171393	4.03474905801198	14	-2.0669226226199173	-0.9844597720106506	0.4335683183524227
Si	0.15724825713966598	8.131347363327706	2.6773815822310256	14	-2.419076633899319	0.10337180361761754	0.43134045559251444
Si	1.3010448366462688	9.464170196946068	4.0017194468368915	14	0.9946732307844067	1.1523475500951479	1.4621030062031797
Si	-0.214009773981894	5.585157706192217	5.583646016310681	14	0.7393251914665604	-0.5529920467047887	-1.166866838948556
Si	1.456976460663306	6.712520753760821	6.765299861775344	14	-1.7011620648757597	-0.22735075926568993	0.9781862750294893
Si	2.5584619782167817	8.123154979453568	5.504371698544487	14	1.9882830524084003	1.2101647667609137	-1.6880041762893698
Si	4.157065900577204	9.543021891734625	6.6123753627914725	14	-0.9812350917181207	0.10565185981552487	0.5690149179494196
Si	2.689280044524414	5.46433629877862	8.203518364123665	14	0.7893583867755779	-0.5719002123396898	-0.8562888862486085
Si	3.9517036429068986	6.899466402444229	9.468607738211224	14	1.2156790163410354	-0.32618970420388643	0.11997060245396154
Si	0.21295321653780896	8.186873520696848	8.203274543175029	14	-0.9416416124510324	-0.9155834600313317	-0.825231733754944
Si	1.5291799709190839	9.59563845245006	9.426134128959008	14	0.33879171982006023	-1.292250132322493	0.9752045641897135
Si	0.06857870548607099	5.238623119262246	10.975453710235344	14	-0.3666804992277064	0.23557212563739544	-0.7129003994282065
Si	1.3808230510396409	6.623883711567045	12.29554909033496	14	-0.5430549817529485	1.0534600112664005	-0.22867179317918201
Si	2.7253492901924847	8.077479188409278	10.97925731703405	14	-0.9696280938608444	0.5578565779705089	-0.39701260002108935
Si	4.078734357145733	9.423744683662385	12.250621016866484	14	-0.049865816352675944	0.8391738094639789	0.4832243325109746
Si	2.648204342044371	5.289402895497963	13.628875820580502	14	1.0783233710438285	-0.04402760750221571	0.18122692959595751
Si	4.0019957772453445	6.806489347364749	14.89594827171696	14	0.25367193575964186	-0.4753423520415286	0.20027522047080654
Si	0.017360051542811998	8.102430198819594	13.638904988934355	14	0.4717335486141688	0.2584760460503386	-1.2966258964668533
Si	1.2744358437852359	9.556513317559096	14.914121059755225	14	0.8059134768214795	0.3465636569818038	0.09312080670618715
Si	-0.05388442964833499	10.827178064005444	0.079583157634464	14	0.44524705004813137	-0.49112765315457774	0.5821285835243029
Si	1.2637402315051138	12.391793346126148	1.3946558261922	14	5.054654991055432	-5.075635467578372	4.362764635861347
Si	2.8394249846938466	13.460769403861624	0.005282787220424999	14	0.2646898933880724	0.8166236731430881	1.168221554341742
Si	4.009342915164212	15.01202329799713	1.4239143400283998	14	0.43213749824176034	-1.1123367804345994	-0.5180031599555537
Si	2.74428605053647	10.805250433358204	2.7180509164633437	14	-0.45323547427783145	0.1738527424272408	-0.3073422166545409
Si	4.061861947500192	12.20078401496549	3.958319317979862	14	0.501045691927049	-0.026510666956046845	0.762915082778919
Si	-0.146828975267997	13.67182081700008	2.8857834743943145	14	1.3047426188520288	0.07246120412720129	-0.7913594780462493
Si	1.3356674113524387	14.854726276667737	4.115161206871802	14	0.33522251141463066	0.45477325236981203	0.6261358792944893
Si	0.05097483299462399	10.906192306093093	5.446065982360904	14	-0.6674028910144622	-0.16032821422219787	-0.6732819804395127
Si	1.3067827563041456	12.27490558335053	6.839047571372477	14	0.5197612817734709	-0.1051924032948144	-0.6299210605468114
Si	2.7764541610263804	13.513646040255601	5.427373042965554	14	-0.14033401370006635	0.33930979754207	0.23986175775353047
Si	4.12512535630602	14.972686851617349	6.763804426623716	14	1.1188306211416974	-1.4241491207987498	-1.7684849150206452
Si	2.7437984086391998	10.906289834472549	8.028780017601914	14	0.6729019710731948	-0.08260112928880128	-0.611437384400267
Si	3.9617328112607515	12.300653075526386	9.396566775254536	14	0.1358885726015303	0.17224760137587233	0.43335363105819036
Si	-0.08613381378779099	13.590904771513078	8.128258964644994	14	0.5662401810879157	0.3591060229545502	-0.054639073379530854
Si	1.3618212717760196	14.852027991502844	9.474979592335554	14	0.3469675776275991	0.4839524695376406	-0.07643330473629806
Si	-0.010565574440849998	10.736964313010494	10.64098013289785	14	-0.9909147890274143	-0.17860671616419457	0.6687810034660615
Si	1.2468840765894809	11.958539775131664	12.0686005513455	14	0.19691915669641727	1.0338435061157987	1.1675669509272324
Si	2.5638260390867518	13.429771633925162	10.914791058214954	14	0.9064125844648954	1.065605141467184	-0.47250667998393736
Si	4.05488866836923	14.836667271738838	12.260731458869882	14	0.059243923007916074	-0.6539894345592496	-0.21986961411565506
Si	2.7007558838401677	10.989367759037448	13.585410672803837	14	-0.6454358813801809	-2.4233287278777795	-0.849590642668559
Si	4.0445181506872885	12.245240701266603	14.819648569524116	14	1.3690989276785273	-0.11266197847090859	0.8830093553987796
Si	-0.025991313124490996	13.490759380543729	13.476406454034082	14	0.38406117119190747	-0.7205568939610755	-0.04761764186073847
Si	1.499141230047252	14.74024421391865	14.938291843129907	14	0.47039246007917956	-0.06562849173890777	-0.3707518445021609
Si	5.424333408472571	-0.019001779263620996	0.039141389620872	14	0.1736894772394114	0.32973448710877457	0.5086070555630725
Si	6.840250421385743	1.3465580803914687	1.3976141870356378	14	0.4530464980368006	-0.6035029533822899	-0.7710906834759258
Si	8.193619233609082	2.6772027802020264	-0.019814515759071	14	-0.7391742675842676	-0.23194892402024278	0.017412810780702864
Si	9.40854651119747	4.146532835596173	1.2095957261782349	14	1.240571943829645	0.04578032999896065	1.081249546008689
Si	8.189978174109466	-0.09624425579118899	2.691019300624677	14	0.4973078190126177	1.2067786210542788	-0.22596904726664233
Si	9.492859795235454	1.408699912833576	4.049459588579625	14	-0.7772865330764187	0.1415506607375604	0.06769797441109497
Si	5.428689676088183	2.626032890448495	2.6186857525296268	14	-0.3377931025137147	0.6368671586797235	0.9785233469369604
Si	6.66232614780183	4.115437537280256	4.048614342624356	14	-0.1890893696649703	-0.03351821450611043	-0.15959210676903948
Si	5.575437377706635	-0.011557112965299	5.382997630313985	14	-1.9073045476871444	0.3045055161548216	0.04145007441876725
Si	6.822776586733568	1.3784173510131088	6.625297873069127	14	0.10586860399401334	-0.031543091399172676	1.6471935357637235
Si	8.054576273967497	2.8360602556026837	5.417100053663066	14	1.3222197072657353	-0.34453299799995085	-0.3217967136538814
Si	9.501149707489043	4.029384997142009	6.893159567239538	14	-1.226297681313247	0.7109684708906472	-0.5832531849913356
Si	8.113109556369805	0.15042127057788598	8.242480951715537	14	1.2396566303356722	0.7891105322227157	-1.3478816523556012
Si	9.52182572393329	1.607869118408553	9.48461864717159	14	-0.10908917051803083	-0.9678625158374986	0.697109441883453
Si	5.398764718325714	2.581332383198745	8.09111690680293	14	-0.15809340947792516	0.4589212165828069	-1.634924735397041
Si	6.5997616923820885	4.0157635334782675	9.334067338754432	14	1.0359029614772373	0.6138269696848125	0.7595384501619684
Si	5.416482373926525	0.0074934304880489985	10.94136754161617	14	-0.433536950867517	-0.5650392177928746	-0.29117407795932176
Si	6.711724271995281	1.3950784491698338	12.227327988906886	14	0.5092876271413156	0.06375775550796803	-0.26967912326181975
Si	7.983738161024075	2.8457318198985386	10.887970753865105	14	0.663634164836189	-0.31507892967339857	-0.6935389479253634
Si	9.462284648276624	4.124784006977931	12.198963485215682	14	-0.585325752989907	-0.5302760740907485	0.2130551565751346
Si	8.020766435756777	0.018221552227988998	13.549552738624582	14	1.4529552705846247	-0.1102538812280579	-0.14284701203997907
Si	9.472964005826837	1.4440864598454688	14.77372895753119	14	0.06925092202446441	-0.08818582715469493	-0.3080163604694837
Si	5.379129004595643	2.7105574859752943	13.512573228081607	14	-0.5866403591400987	-0.28460413253474737	0.7696858315289968
Si	6.688918885932953	3.9236967432736916	14.991591102501516	14	0.5281826801390839	1.0124678507051517	-0.834363785631046
Si	5.315556755921543	5.280381520398467	0.031322864534642995	14	-0.22155857320046035	0.8358737957855689	-0.1935425240794668
Si	6.720680628175139	6.618600924346619	1.3987520181292679	14	0.5737562932703046	0.8498752640274994	-0.8078968274654416
Si	8.245341784179521	8.134955913367502	-0.018855486694439996	14	-1.8269474791217681	-0.79244936959146	0.008817348584915823
Si	9.470086918632944	9.37748372234137	1.390803455203767	14	1.359791526419591	0.2625872434572553	-0.09944238335683524
Si	8.135817414052678	5.378998966756371	2.7517144621048826	14	0.29197960525612415	0.22946780738629985	0.13712218893413733
Si	9.595085791633155	6.688284951466502	4.176880416336276	14	-1.0358366269599775	0.4946222995057231	-1.558787364883092
Si	5.5020472721675	8.131786241035249	2.7137109035776406	14	0.12270728695672717	0.6601143216529063	-1.0738925852456171
Si	6.853920649239212	9.422558088379027	4.061634381281466	14	0.49768422883148744	-0.10820162496151572	-0.295101955556912
Si	5.275391318316404	5.523422241997835	5.370904111261689	14	0.284789766338862	-0.8282157585895079	0.5472533396302183
Si	6.573006406951874	6.898962505817051	6.743827363565555	14	0.7094306927986667	-0.5981977346646963	-0.1039076219663364
Si	8.140628814105744	8.025529071620113	5.4016743149794255	14	0.0576382677354836	0.5134350771332465	0.6861112817659876
Si	9.436293335152133	9.430864255362527	6.8685499061573125	14	-0.41518851486081215	0.03759315932801312	-0.5068921283145337
Si	7.924310868476771	5.492700802469825	8.054641292887133	14	0.5555942623993106	-0.5979799620440797	0.0376152708337664
Si	9.35880703767593	6.762520302960906	9.386635135280137	14	0.40605337765832605	0.6600387311564939	0.5655228427035944
Si	5.376381955241022	8.290968811034084	8.159874414317999	14	-0.274249262968383	-0.3032320476897522	0.09051139191676887
Si	6.7668765705765175	9.604676082279465	9.48687805462894	14	-0.5192393473934808	0.08092194040421258	0.9055340377770009
Si	5.315329189702817	5.360923707097562	10.704568636301858	14	0.30811406247164935	0.9642048614090558	0.6156262291878521
Si	6.887486666501297	6.708229505064845	12.13688667169321	14	-1.0493994646342906	0.1469713220840286	-1.3151432540930916
Si	8.190368287627283	8.270341558779563	10.88075365378551	14	-0.58669666634661	-0.8781024008952769	-0.941216094520548
Si	9.572963104227004	9.546435385015517	12.171574265319016	14	0.09249679944498722	-0.29129774812522086	0.6538817052463353
Si	8.092157209517104	5.406615752871762	13.522618651165368	14	0.02511378543561039	-0.5524192044394597	1.573701061292611
Si	9.495119202692804	6.8496619100030545	14.808042692369089	14	-0.14306221355527546	-0.24751670962320735	-0.6939431256816907
Si	5.508305343182466	7.993377215860112	13.473334310081283	14	-0.3992823717977161	0.5690514276449656	0.7300977515830809
Si	6.846557256590436	9.434326512833143	14.83209969263441	14	-0.604546307921206	0.3055516989095898	0.44480713392785404
Si	5.521617966977937	11.016188063387297	-0.04679736740801099	14	-0.09020491616260722	-1.4378294579861937	-0.8545888714109268
Si	6.907138634961278	12.148557567767872	1.366014992092542	14	0.19542868694232743	0.538357058111974	0.6319771734713338
Si	8.236369173269752	13.55688362181354	0.029388551675471997	14	0.7038693919911863	0.7447119142228026	-0.16617413638861855
Si	9.708868900996155	15.030569944823299	1.3194289361733478	14	-1.6780766244272145	-0.9572680192552964	-0.12937621993612725
Si	8.266505442521039	10.71524799385207	2.7476832890874507	14	-1.0528863976694753	0.8140805928709297	0.04791049075670333
Si	9.493152380373814	12.044982428787725	4.215826749198239	14	-0.3558746577881881	1.3817073710580015	-1.4691354934748488
Si	5.43184309369053	13.528242787713884	2.6226356518975136	14	0.3513865363413376	0.6319324362387633	0.37461415891408734
Si	6.812649890000261	14.980895490221396	4.036163219514062	14	0.2533379491785547	-2.1698010311265987	-0.4846831776696266
Si	5.563522660683338	10.85097498859222	5.288866489410966	14	-0.9976050621809718	0.45384765445455866	-0.0030645004310844953
Si	6.789064276902303	12.256749050042176	6.668096576919524	14	-0.10552998942334985	0.3189720973491667	0.5983759122633826
Si	8.219513018354121	13.579087582869237	5.389288210788767	14	-0.08291428991679532	0.9607966041966677	0.7278765736970051
Si	9.614575212794044	15.075302961532866	6.922304297966376	14	-1.2073743461569568	-1.1592391407952727	-0.36863813881846713
Si	8.056689388855666	10.909264450045894	8.09337631426028	14	0.3263069466064852	-0.12572293638672882	-0.2672712831295011
Si	9.36594286410598	12.282594070597487	9.435139249328595	14	0.3281586566580558	0.21361385776120276	0.533378369770039
Si	5.414986938774897	13.645650701846591	8.152836116267402	14	0.3642037534728078	0.21896509926402696	0.2264809543358838
Si	6.815315665705337	15.090858738055779	9.513161952891794	14	-1.2505339485030906	-0.9128912556506047	-0.048312611628774496
Si	5.181731564580746	10.94104244701799	10.808989021237274	14	1.3274493354869166	-0.6929211113169318	0.12485133168319863
Si	6.730596013419629	12.192120243923993	12.169168565292486	14	-0.8521722895205196	-0.22582300848445797	-0.5584052518458286
Si	7.921108686684698	13.650071988381837	10.854827359580653	14	1.852445130581677	-0.598695757765209	-0.02616562462208297
Si	9.474361912599012	14.803913990972204	12.262194384561692	14	-1.1371829138063825	1.4358113974204094	-1.2242798778579946
Si	8.075268545141654	10.847984118288965	13.434859364386678	14	0.8714671493955709	-0.415966017109625	0.6562689765360928
Si	9.480424926855068	12.104734815933208	14.901101021098114	14	-0.32965452573331794	0.40017094579635926	-0.4318523626617559
Si	5.536247223896036	13.502869154325934	13.640481697735527	14	-0.41084668930667817	1.1590583920912663	-0.43852283830434813
Si	6.839080080832296	14.955521856833446	14.997329022159395	14	-0.33157385585480853	-0.917950162478528	0.006382254736203577
Si	10.804372677943118	0.22688352006982196	-0.03172923278236799	14	1.0718076759415092	-0.45276599044637234	-0.7293608727983264
Si	12.24124203770899	1.5164200079405188	1.3501341209714488	14	-0.43465718145550547	0.3951125531894999	-0.6236820163769401
Si	13.557647594119263	2.8793140918905324	-0.053445551940791994	14	0.24293345727951138	-0.787885914758729	-0.1683019831515731
Si	14.966412525872476	4.172767969669299	1.224663860803878	14	0.37344507732501603	0.23519237338160953	0.9582589232456814
Si	13.301424286563698	0.10520061197104799	2.7611747149119203	14	0.8117388301453388	0.7518503310336617	0.10664019270058979
Si	14.749411881587326	1.3731183090627748	4.078848140255097	14	0.2621198165100524	-0.0852074587518354	0.0904702542316465
Si	10.852665480502756	2.7656285109069865	2.727657461839563	14	-0.8652273338941036	0.4079732220008806	-0.9680378652203326
Si	12.17152550112929	4.029027393084012	4.110788684526281	14	-0.03662436684338133	0.7492054349908255	-0.35601709702292433
Si	10.821602691646657	0.06594543924081299	5.428543383519003	14	-0.8415202001791461	0.7840521396158564	0.49865996330048357
Si	12.146411943419885	1.3264834889538537	6.815835817062426	14	0.09637068383085433	-0.3759688743072734	0.3428491811257859
Si	13.351375071574054	2.6455385663392947	5.471927257646123	14	1.843695916287745	0.5694764313543861	-0.1192720331384773
Si	14.880733844522139	3.9839855365061725	6.780839383568348	14	-0.8137777166642164	-0.10313397637550384	0.0957191657427288
Si	13.598593258760037	-0.03343597942281299	8.051585403664241	14	0.2728035304468637	0.9901501423052022	-0.2278868347249408
Si	15.022572617708072	1.2922997919552268	9.326833983944926	14	0.04414099324683424	0.19880429111714984	0.5713859912756601
Si	11.010401379539694	2.8436674692000956	8.111240262430272	14	-0.8819287198327214	-0.7449654252073692	0.817939821956472
Si	12.19314429190826	4.122703401549578	9.616460761463488	14	-0.10282132996857385	0.11297333932517853	0.530231851079242
Si	10.856452832571554	-0.04497683765820299	10.82643034642963	14	-0.36346353225113714	0.42090356776643734	-0.42312371721038516
Si	12.220582275994651	1.3756215374687608	12.147891123841605	14	0.36927834404318405	-0.44065711283060294	-0.5719873728100427
Si	13.683540477264469	2.6149959288402838	10.685583111768146	14	-0.8280524934016784	0.46025896268087996	0.9481758195116567
Si	14.83127070140905	3.9712905924472435	12.295435307225597	14	0.7476092928080774	-0.5039340716437033	-1.3102956921224844
Si	13.662831951360403	-0.079176789386739	13.358705954763014	14	-0.34532386999642845	0.6577795009116798	0.6789250423961737
Si	14.87824687084606	1.4671681763162487	14.781433699508057	14	-0.6710057808995856	-1.1766727775290688	0.7653969707444579
Si	10.909865875052528	2.821479762874311	13.450691471318043	14	-0.38070330764379406	-0.852387491035816	0.054298916145675266
Si	12.208391228562903	4.111016250745008	14.820818910077563	14	-0.35379154825780407	0.6491922662529173	0.18125958263352338
Si	10.812678844926616	5.521552948058301	-0.16137695853655198	14	0.40451097157676924	-0.8034274750874283	0.7920418493982164
Si	12.326498096081696	6.670859881004055	1.242446535324324	14	-1.3384557231414065	0.4572417705876861	0.813528319448162
Si	13.587344985663007	8.162312623804349	0.02877087193893	14	0.4212177568365595	0.09244203490166807	-0.13179665848451463
Si	14.904644552218278	9.471777410543481	1.4744340405855718	14	0.06414342130599024	-0.19652834868775476	-0.40976888195647204
Si	13.560199586714976	5.389434503357949	2.7434733140410197	14	0.6391952945471174	0.23146478488845887	0.08745974701228511
Si	14.845721156298152	7.002098767089657	4.070541973271597	14	0.345994157153391	-1.3758614488915808	-0.5308507161298016
Si	10.88171268285014	8.053763537472047	2.703779263603242	14	0.3398463872223849	-0.6815149167851589	-0.17871033170859654
Si	12.123720340466921	9.441982490620282	4.117892001496514	14	-0.005493937848092416	-0.08569879697851569	0.30793768464668725
Si	10.792002828482369	5.331372608123	5.472219842784486	14	0.2722617985559085	-0.6841436148644782	0.01945323996277238
Si	12.128320429031168	6.666877472176349	6.711350413207373	14	1.083576910544487	0.7613539076285251	0.6648626389581558
Si	13.560914794830973	8.18163949766615	5.535125647532316	14	-0.913437872641668	-0.21576175914565446	-0.5019795173793268
Si	14.9830736240292	9.4584485320181	6.773996142276659	14	0.2567670323440361	0.4654214850532053	1.0065620217847717
Si	13.458509996404274	5.314646491046639	8.132111335633427	14	1.0089590632747456	0.7096402378822587	-0.014016123542255236
Si	15.08616112111208	6.60314267620316	9.427158176943275	14	-0.12841231255160374	0.19568811146913037	-0.23578218494205153
Si	10.875730942243628	8.095196844010088	8.078990878290815	14	-0.2940076931326569	-0.2523668426991347	0.7918289618777082
Si	12.15527077122029	9.466608406432417	9.564120531156508	14	0.5675362752798024	-0.8072301398559271	-0.5324795113501153
Si	10.679487588052272	5.525356554857006	10.937027528730466	14	0.809638751319842	-0.11968032466331681	-1.5534947445815672
Si	12.272304826565088	6.790592221513748	12.046120259881354	14	0.3285543497668266	-0.5533386317019447	0.2036981329835197
Si	13.714489483011205	7.9987250220001735	10.702975672770775	14	-0.4604934474860774	0.7442750834289095	0.15986001594339888
Si	14.941038892484528	9.392177998179108	12.176320646452446	14	-0.1559966730893444	0.31111299971707007	-0.4809175368177378
Si	13.586385956598376	5.433874934929155	13.488386189977016	14	-0.4469624915177341	0.5717703715210223	0.46661242103749784
Si	14.922817340256538	6.822516511055024	14.8971023575405	14	-0.6124061768848986	-0.3594346102144651	0.17496680236246095
Si	10.964644314845858	8.038484091357587	13.418832200696404	14	-0.3284905863548869	1.5776525930591465	0.9311072797333219
Si	12.272044750886545	9.523613744223281	14.924459067977347	14	-0.677594238282465	-0.8650524987323335	-0.7025247039087488
Si	10.80822504893155	10.752455070613772	-0.029681136813833997	14	-0.06086989001237771	-0.20708119336377054	0.49966089460161733
Si	12.163918287531876	12.120128045157031	1.3521497074801647	14	-1.0432732919879737	0.04885588618292178	0.827591494217776
Si	13.35225282698914	13.521529584261467	-0.05853328240230899	14	1.2475640647477875	0.16207965116628273	-0.9146753456322554
Si	14.611848102367459	14.870867223467375	1.570401965968308	14	0.6030879769836179	0.9664036706788465	-0.5574297744873643
Si	13.462362367392705	10.761655247742265	2.7655309825275327	14	0.87856854228982	0.6631106877930069	0.4068488776443799
Si	14.8757924066298	12.275263187408527	4.054791139989777	14	-0.9706840468158291	-1.5973508593589292	0.9253320629632051
Si	10.704909985629948	13.563450532696779	2.7505278668215256	14	1.0984954920541143	-1.0253452317011134	0.29401154979063715
Si	12.046266552450536	14.98910412882544	4.057586953534125	14	0.42847804403959355	-1.4302452115128208	0.12884040158740837
Si	10.76500372210352	10.758843179468009	5.495756691692717	14	1.462869709809648	0.002681662848914446	0.893294033789904
Si	12.303725219479187	12.200995326454306	6.787682624860038	14	-0.7742865673888699	-0.3584311078080113	-0.4715751685264477
Si	13.549308917675948	13.67671349070269	5.39249039258084	14	-0.5590197460173439	-0.500543297947492	-0.19616556572708188
Si	14.92294737809581	14.936568841759552	6.734058270890246	14	0.19221686217639844	-0.04368410783144392	-0.44171332289611986
Si	13.515726645683953	10.751967428716503	8.185004226757314	14	0.49823753069638327	0.10019803121042675	-0.7477116227998193
Si	14.905961185340907	12.179441554594973	9.3771748824731	14	-0.7889650076615954	-0.3453220702227043	0.9345710728206251
Si	10.922073177214186	13.533281753985673	8.148008461484428	14	-0.47405962759730674	-0.0126958609603592	-0.2972691402312648
Si	12.32661187919106	14.924036444999714	9.340699268557303	14	-1.1876575678988694	-0.37765886183420666	1.8379952615719124
Si	10.783306547981054	10.8760397821119	10.765247543052155	14	-0.028083669190913436	0.83443449102735	0.12842311119394834
Si	12.09756648004334	12.313120453366588	12.169526169350483	14	-0.03047171181226697	-1.368766483760632	-0.4935198095444436
Si	13.472212733717562	13.470148383019117	10.80822504893155	14	0.5181034330630394	-0.004503805189303389	-1.4227231857881957
Si	14.915551475987215	14.71617095892342	11.994674039719369	14	0.35393964392424465	1.1974637635899141	0.8929021973391135
Si	13.433558985993958	10.841791066193634	13.398156184252157	14	0.776043403654127	-0.3652051989950055	0.07156671658632179
Si	14.884277375642299	12.002264998586872	14.893575081150248	14	-1.0039888595803672	0.8355665486998113	-0.776528057006975
Si	10.783582878389506	13.534452094539121	13.53233897965095	14	0.0632916141134252	0.13014575175844753	1.7542499904156457
Si	12.15722133880937	15.033707107695736	14.807685088311091	14	-0.14231325057551633	0.008109523290279056	-0.0027433693765980005
H	-0.44132079344832265	-0.9761469206981678	-1.1076200526211326	1	-1.6135933029979004	0.24563260364460288	-2.1140535542435517
H	0.46243406212712274	-3.1841585475499	0.6813365098116257	1	-4.55282665466893	3.9603660844156114	-4.133124564418598
H	11.816580716944403	13.21525796331609	0.0651131970694722	1	-1.1364329223844951	0.09020568749420327	-0.08255022140346235
H	13.843153797605895	14.102915759862652	2.422470031379115	1	-2.2957229710651066	-2.2881675209713195	2.0862663334960514
H	9.537778115865983	1.3784173510131088	6.625297873069127	1	0.05001416912964849	-0.0759789904262279	-0.1317457505991757
H	17.595735373654552	3.9839855365061725	6.780839383568348	1	-0.04844579488435816	-0.2460884606178651	0.029593679345436403
H	4.076822800908435	14.852027991502844	9.474979592335554	1	0.08517480571426951	-0.08276233759237457	-0.13788040789304903
H	9.55408160996471	14.955521856833446	14.997329022159395	1	0.003914764960457465	-0.04520080285979928	0.08063114839250382
