225
config_type=interstitial dft_energy=-23349.33387090236 dft_virial="71.45983971772093 7.92596169476984 -3.071803064788908 7.925961694769839 78.81797132092515 -3.5449948077602422 -3.071803064788908 -3.5449948077602422 77.83609845425964" pbc="T T T" Lattice="16.254729908999998 0.0 0.0 0.0 16.254729908999998 0.0 0.0 0.0 16.254729908999998" Properties=species:S:1:pos:R:3:Z:I:1:dft_force:R:3
Si	-0.5246701720027019	-1.8399704067791638	-0.7483840197402689	14	-0.5490502851384698	-4.166353786686724	-2.8760227273751884
Si	0.269617205000583	0.23167866539297696	-0.23605118773849798	14	1.4644810215137847	2.7685587525300233	-1.0671927990023755
Si	1.3841715254008948	1.4219150082495928	1.2483795117411087	14	0.2932533308317255	0.07872441668708201	2.5680387628327384
Si	2.7196276252645166	2.6893613181739586	-0.031582940213187	14	0.7794143798393732	0.6031800225540792	0.34376578017241866
Si	4.045688491240736	4.087723222785411	1.3350172221560788	14	0.5421329833851433	-0.9912014672706108	-0.3679850780671496
Si	2.589638550182244	0.09406612198338299	2.8301272791858985	14	0.4671451540598326	-0.3124916263897335	-0.8658875937403175
Si	4.095037851244461	1.3297019254758358	4.110512354117829	14	-0.6762768039164212	1.0996571174377572	-0.37087165801007976
Si	0.09821107811017799	2.7881900760206784	2.6806325282128256	14	-0.7472850764272068	-0.6433620278289495	0.02434425361329007
Si	1.3344483066092638	4.289997081773007	3.9409430117071405	14	-0.917169060682267	-1.4932992554946642	2.0733992369213703
Si	0.07137451903041898	-0.03641059499615999	5.5408635671901925	14	-1.2909864340576405	0.11758873048537634	-1.383540312040735
Si	1.3532712838438858	1.1757696332376057	6.913542998545425	14	0.6578304087970187	1.9098540557226034	-0.5022312285901692
Si	2.596237970525298	2.673529211242593	5.389857126335583	14	-0.4656467138792502	-0.057436178857319956	-0.10356875028514088
Si	3.972330895161419	4.047509020990544	6.638561732674871	14	-0.10326895940481162	-0.56391821587329	1.3078078906147093
Si	2.7981054612651683	0.006014250066329999	8.237702061122292	14	-0.03551390645560937	-0.3471904924588559	0.11569151186963908
Si	4.160853252646001	1.467720837133155	9.45485623670821	14	-0.600120150112571	-0.3194400385174337	0.3124147503406611
Si	0.018302825877534	2.711418986660472	8.102852821797226	14	0.33792037222706206	0.5301837714097551	-0.5369748318918623
Si	1.3941356748351117	4.122703401549578	9.454124773862306	14	-1.106810960880537	-0.05068599894980319	0.22064017438010344
Si	-0.14866575974771398	0.17208882554658297	10.858761004218632	14	-0.2671686960272272	0.0807625318743634	0.5304514234735825
Si	1.2684541031787238	1.5893062168524748	12.084026290029142	14	0.22062140531126634	-1.1583611083284422	0.6418036808944076
Si	2.696318342575011	2.7451475512216468	10.748570190165522	14	1.0043421294513555	0.7562700610789963	0.18606215026102796
Si	4.144679796386547	4.144972381524908	12.119591639070036	14	0.01901538072675116	-0.8209446727441292	0.35725431290297954
Si	2.7030315460274275	0.22922420117671796	13.497651386025145	14	-1.2010769378963182	-0.5759800422617007	-1.0054495045127434
Si	4.006823432028318	1.4230853488030408	14.84606250562624	14	1.452455190599856	0.4912050434247142	-0.010564157539424428
Si	0.06245067231037799	2.863010597791806	13.561760040786242	14	-0.0751490376288841	-0.2868515356950888	0.026053010209060486
Si	1.416567202109532	4.035415501938249	14.983008605109566	14	-0.550738472891679	0.5922553960487701	-0.2170259716315713
Si	0.11275906137873298	5.465230308923616	0.0038198615286149993	14	-0.9137034678212393	0.21010764143611682	-0.04815757397796956
Si	1.4604712275937408	6.800800191896601	1.3574975136202259	14	0.2893344521027558	-0.1489474736330944	-0.07751342608129226
Si	2.6627523253129253	8.204168553320024	-0.11407569450136198	14	1.206752138669481	-0.7011334788200168	1.0608352268772452
Si	4.123906251562845	9.507521561613371	1.28639932499826	14	-0.8939470945412216	-0.115360353504404	-0.09598321825910802
Si	2.8414893353922897	5.365361248362719	2.7386456592580464	14	-0.2388243167568507	1.8487939039165344	-0.6378902014866102
Si	4.001329333319076	6.898149769321601	4.057782010293033	14	-0.03443301377901912	-0.34837988577995643	-0.0032187667502933805
Si	0.04713871673609999	8.188060115980205	2.5980585002751058	14	-0.21357092030235628	-1.210777461158705	0.6725769833607281
Si	1.2019560031210048	9.464641584113428	4.07050946381178	14	1.250577400183001	0.2903526098095344	-0.057434379083595846
Si	-0.24526761959690097	5.504713047872576	5.431566763282076	14	1.2939452620600669	-0.8995868140609663	-0.20375803973747914
Si	1.246770293480118	6.619283623002797	6.85996740876536	14	0.23269043079457347	0.5926824566424467	-1.1821780282405696
Si	2.502025555972734	8.078308179634636	5.427243005126282	14	0.5132808108140376	-0.12434970903523773	0.26739572462699623
Si	4.054986196748684	9.397607077968713	6.701890160400335	14	-0.6719547758732523	-0.12898926858544496	0.3562842348656876
Si	2.7300306524062767	5.453721960148043	8.106900249544568	14	0.6935916555844264	-0.5851303489855757	0.30796185303669665
Si	4.095281672193096	6.7523936062275975	9.557179761485367	14	-0.40460687380521076	0.6074467718328649	-1.124814097442746
Si	0.134946767704518	8.083005796578338	8.178258513845078	14	-1.3871745694107642	0.019814223149721172	-0.24437430470092236
Si	1.401043935046437	9.415259714649887	9.498500186513876	14	-0.3163066324637692	0.3831438008136786	0.9979483047412113
Si	-0.22520928288919495	5.28293351299418	10.900113037107127	14	0.3820801345427334	0.10846104948831865	-0.4195041151406807
Si	1.28168545332465	6.554085901337798	12.19329058447744	14	-0.48195600625654555	0.898173991687545	0.5208144065126035
Si	2.6771865254721177	7.990565147585856	10.911019960876066	14	-0.4239341296072959	0.04682342742734472	-0.0974433489704201
Si	4.1597966952019165	9.2830762510299	12.128417957410623	14	-0.22204708321128847	0.3959787585718579	0.9622495358130834
Si	2.6980088344855466	5.306697928121139	13.602234318259653	14	0.9239074135053111	0.7709693273048148	-0.6128656334056091
Si	4.104839453379587	6.794867215479815	14.867274928157485	14	-0.0868969320577047	-0.37457584944481714	-0.056823227348996655
Si	-0.12277197500267699	8.046595201582178	13.642367246404971	14	0.7602601594253341	-0.6079779621920076	-0.452724595650718
Si	1.3244028835255017	9.47941713360071	14.876913982993523	14	-0.6403126969192539	0.5970309670704131	-0.6433178048174429
Si	0.040490532203318996	10.881793956499685	0.052681579635069	14	0.6549898516393192	-0.7216915227388567	0.37395415617840533
Si	1.5205324546074959	12.219346916521568	1.2949168034705758	14	-0.2684012839177061	-0.7679480214431088	0.19982759103456876
Si	2.8101502161277376	13.512118095644157	-0.08367934957153199	14	0.7016201890571208	0.43141578897839483	0.597236912606557
Si	3.9269476892554915	14.940502486397529	1.447191113258088	14	-0.9404763875199414	0.3812200998131438	-0.6593545600308026
Si	2.7093546359620286	10.760484907188818	2.7757226981804757	14	0.37490957891537235	0.32319385228484987	-0.24611417167106658
Si	4.06108172046456	12.147858614381786	4.1791885879833535	14	0.01697572287627769	-0.9824573951873192	-0.2319391538200262
Si	0.18057379455908099	13.630826388169583	2.559274714712232	14	0.3801088680937758	-0.34537889165027963	0.8229195387405348
Si	1.359106731881217	14.883253327658034	4.116299037965432	14	0.31326141532258583	-0.09216178442177192	0.30596230442921746
Si	0.10789889713594199	10.932801298954127	5.418221630026788	14	-0.7050037636584356	0.44753173423561493	0.16324127654992565
Si	1.3865122065077908	12.300945660664748	6.814031542042526	14	-0.7590342564086874	-0.4459541040111721	1.1448175539440302
Si	2.7630765183112738	13.523496406580454	5.483370587502059	14	0.34867813399709363	0.9652009076100814	0.12349764473214067
Si	4.176750378497004	14.96099970081278	6.833017066576238	14	-0.7760732284758407	-0.23853146786088586	-0.3308326061910098
Si	2.646660142703016	10.73556640623832	8.072667788356213	14	0.7467667415946649	0.8981500804080675	-0.3001765461272882
Si	4.0062382617515935	12.232903361265674	9.376459674357104	14	-1.0390790478792162	-0.6905410391220707	0.9364577499045499
Si	-0.10949186066702399	13.572439398336453	8.335685573013745	14	0.7117703986400014	0.5424620848661224	-1.351041026572999
Si	1.1991926990364747	15.120068487702254	9.61984174528456	14	0.9440561374571834	-1.1369137190793628	-0.9802105062480417
Si	-0.27067376244466795	10.72825177777927	10.736557944762769	14	1.3810157437268815	-0.8389202984794125	0.6332637545735359
Si	1.14774647887449	12.010896260168552	12.109887565314361	14	1.7074916119529007	-0.3247532276615197	-0.7135840563328338
Si	2.5569177788754267	13.590595931644808	10.762370455858262	14	0.339969286056688	-0.13039617741662995	0.900690589574906
Si	4.036780899250605	15.0419482557596	12.205449122449373	14	-0.7426917967727622	-0.7389978897593055	-0.6537804036967215
Si	2.74477369243374	10.779226610773893	13.463126339698428	14	-0.5211555921885872	-0.5198546128965923	-0.5939618386497524
Si	4.036049436404699	12.268907588014107	14.673030905744934	14	0.46521476818546537	-1.057376576000582	1.028015838797151
Si	0.05284412693415899	13.536581464157202	13.34836794654089	14	-1.02084528316979	0.5911189674972647	-0.6211019121881716
Si	1.54826302383225	14.90669264818681	14.866510955851762	14	1.90222507201666	0.6713382248174807	-1.0980954280662993
Si	5.152863164262362	-0.013345133255288999	0.007282118999231999	14	1.565798511980604	0.031695557944657456	0.19974274455900387
Si	6.574127983315596	1.2611232199897648	1.516094913342339	14	0.9868138760417781	-0.2957383041236486	-2.319163481158365
Si	8.053600990172958	2.560152470127318	-0.008013581845136999	14	0.08594639442084596	0.015315817281590092	0.5689660669483367
Si	9.492648483746637	3.967893353896262	1.3413890762804068	14	-0.4359831004691059	-0.1106061226569182	0.01570071174801626
Si	7.992076837467391	-0.116367611418531	2.69893535409036	14	1.0139452078221085	0.189517972921839	-0.19775065215695317
Si	9.382994075780521	1.22999541221403	4.065421733350263	14	-0.09523939748998918	1.1077381014589824	0.2979515115832321
Si	5.3952862061251885	2.7133858089794605	2.689735176961866	14	-0.5722714799479192	0.9698265831915597	1.24118258134318
Si	6.72651607621247	4.163242697942624	4.074800712507756	14	-0.13063169066395555	-0.7476123781344616	0.4355940922341674
Si	5.474121646183838	0.06230437974119699	5.404258817034957	14	-0.07703082961270047	-0.4830510400123966	0.7072534808135652
Si	6.8236055779589275	1.2600991720054977	6.835178945654135	14	-0.08348944617691244	1.0155194956096354	0.04229339696377583
Si	8.052999565166324	2.792091211198839	5.575746217574907	14	0.6711909004826363	-0.2017896015043738	-1.1644602843688974
Si	9.581886950947046	4.171922723714031	6.80943145347828	14	-1.222813576493914	-1.2232843458780334	0.9987414907324771
Si	8.287100185315742	0.017067466404449998	8.131948788334338	14	0.3067999705425217	-0.08190461685757318	-0.6851406895076317
Si	9.58099294080205	1.3483135912216409	9.524654046937457	14	0.27651389253436937	-0.1930272745733091	-0.01627355401334525
Si	5.447658945891987	2.7612072243717387	8.073756855260116	14	0.12352387000640618	0.21164876196501362	-0.5980825491463537
Si	6.824011946206652	4.119826314355686	9.394843773884183	14	0.37608508826774406	0.0239002237245005	0.35503981989073596
Si	5.395773848022459	0.07602337178439299	10.837727383716386	14	1.2097341066197886	-0.04057358461512878	-0.3613158879772175
Si	6.957138184161362	1.3615449413675669	12.125134501969002	14	-0.9802040784847414	0.04254305129036221	-0.18906777238028108
Si	8.275510562890624	2.7747474143859354	10.80581934890502	14	-0.7288939600721875	0.04968121099068931	-0.36918989802017094
Si	9.601798995085572	4.081270095011538	12.174890230220452	14	0.6997967611640717	-0.6790314861564278	-0.09496223233647721
Si	8.027609677048465	-0.08658894622524299	13.539978702708183	14	0.6648639245108159	-0.4127390228223072	0.16331069639356963
Si	9.449443411648515	1.162993415529132	14.901003492718662	14	-0.6791824100387206	1.1507601496704882	-0.5794371504751719
Si	5.56626971003796	2.671578643653513	13.479819947314972	14	-1.2038935837745404	0.11598950297624425	-0.44051441648533474
Si	6.794607139801271	4.005100430657963	14.856042909790366	14	0.12396147213189539	0.22514577934313096	0.7310829991417617
Si	5.438540042413037	5.3815184498922655	0.006810731831870999	14	-0.07576096069507934	0.15104421002167517	-0.6301493746992405
Si	6.789990796507115	6.665382037024721	1.3955498363371948	14	0.12542185995373947	0.3724104645441884	-0.7807205013420084
Si	8.092287247356378	8.130648409941617	0.040327984904228995	14	0.2237856646287726	-0.10663582182154555	0.44810560494307194
Si	9.37439532365866	9.539738436293009	1.5075449254102047	14	0.6890827081844827	-0.04121070451346147	-1.2774765611529224
Si	8.163889332605523	5.4013979845709725	2.7069651906654055	14	0.9045351633601234	0.058898623563420176	0.2551251244865896
Si	9.532992723380774	6.82615757055464	4.101214648609881	14	-0.04270811625191571	-0.847962618779841	-0.39168629823987056
Si	5.416612411765796	8.05989157064774	2.5861275285218994	14	-0.5120248258651453	0.09628352336050132	0.2629947636504988
Si	6.750930680535788	9.330962685341811	3.9595871869127635	14	0.5918656164822357	-0.9385938242045291	0.8702129642204026
Si	5.232836435414643	5.440539374191844	5.4059167994856745	14	1.2581827297199992	0.8112572621188752	-0.4181393724367461
Si	6.637245099552242	6.837958504468575	6.771314111841674	14	-0.002070254003783233	-0.8819163785271846	-0.2771093605265157
Si	8.114978850309342	8.019482312093967	5.459086021018013	14	-0.34508681408591074	0.7844048952657806	-0.31085023275335094
Si	9.44398182239909	9.408107633489927	6.835048907814863	14	-0.7610867697857616	0.4635723461069548	-0.22598524523015925
Si	8.139929860719656	5.60201386110785	8.070635947117589	14	-0.9736822127296538	-1.6664829963176027	-0.6646330392530665
Si	9.390747581947116	6.914680829639055	9.304955117487413	14	2.058424862426296	0.8286677589047898	1.2524597063878817
Si	5.414109183359811	8.175170115162368	8.188190153819477	14	-0.2621249587206927	0.0683548918203928	0.17892219078697677
Si	6.820728490765035	9.588600154399462	9.46104928880354	14	-0.26507195963864644	-0.5288696794806275	0.48619524470840575
Si	5.526185546082365	5.525063969718644	10.780884593224613	14	0.9443746974063498	-0.5554469380644661	0.9729710449981007
Si	7.169392447313084	6.764698436768711	12.191486309457542	14	-1.676486138676171	0.005836409076736139	-1.060381169677707
Si	8.323266959363266	8.305906907820455	10.868335040135033	14	-0.7439742641064521	-0.19371530235698073	-0.8078826863861809
Si	9.59467942338543	9.662217826157324	12.197874418311779	14	-0.4511526218579795	0.05128763759471783	0.614774421995287
Si	8.222422615007831	5.258583927590498	13.49236859880472	14	-0.08104123969106744	0.48130808771586825	1.0591724930667055
Si	9.385903672434234	6.835357747683135	14.818218153292124	14	0.7235573738696882	0.021559489441037687	0.0021134485731617208
Si	5.651249438002211	7.947880226844821	13.491165748791456	14	-0.7653015827370804	0.8080007001203756	0.1398300770573173
Si	6.75367772989041	9.487008092468212	14.926247088267337	14	0.478631824188126	-1.038452726623228	-0.6740216874401193
Si	5.416124769868527	10.802259563054948	-0.14354551982637898	14	-0.6958385445237039	1.822548317918995	1.117085611960913
Si	6.671900183718231	12.174776447111089	1.548506844780885	14	-0.5677789876220244	0.3772852802311892	-0.9186412755885838
Si	8.053487207063593	13.451829302411674	0.034687593625806	14	-0.36069753714772185	0.8418410741231006	1.2188594736220584
Si	9.538161727491836	14.867795079514574	1.3359599964908009	14	-2.1069012534639637	-0.15476691341471757	-0.04744820602014071
Si	8.039296827853038	10.795026208245444	2.8845643696511396	14	0.08962898857089405	0.8331517665831283	-0.9518563567774486
Si	9.514933718451875	12.086090640727585	4.08219661461635	14	-0.43213312736271603	0.8201656278321242	0.22244251920952726
Si	5.135161763391461	13.691440276000243	2.835670142084868	14	1.8132375742231428	-1.609000794675052	-0.08813286238509989
Si	6.683408532493802	14.89318496763243	4.077027610505289	14	0.745501243556088	-0.9485419449092458	0.6630829198555492
Si	5.51943983317013	10.581032688993457	5.354275522564782	14	-1.114464627197554	1.8571970474343744	0.5309054806731208
Si	6.584791086135899	12.211317079946522	6.753580201510956	14	0.7195806452710152	0.12413167930408919	-0.6952461618579416
Si	8.22050455687857	13.52048928154729	5.472041040755487	14	-2.0368337483898205	-0.8232231862788443	-1.0576216023375922
Si	9.539998511971554	14.761814240507894	6.747956064962441	14	0.9833801648867204	0.8738922159335345	1.1368957213421218
Si	8.006657330195765	10.959962952632065	8.038061468379953	14	1.023340283772462	-0.6875205045919608	0.1335604367341362
Si	9.478198028857534	12.250263412808485	9.332214299544807	14	-0.30118236252853015	-0.10200526113995884	0.26257515926225067
Si	5.408387518431843	13.608492389274616	8.26128767422025	14	0.957865287021167	0.3297152038188734	-0.8237325222427657
Si	6.945889911064334	15.020231936601176	9.43733363786631	14	-1.5144856775537485	-0.5128007854507659	0.9957572087873813
Si	5.274253487222775	10.780592008086252	10.757949169323012	14	0.8492998506568502	0.7696930306238934	0.13705456886421744
Si	6.7921039113952855	12.191291252698633	12.05335361469086	14	-0.6021415531152715	0.029508061538275475	0.4825789850756174
Si	8.232045415113959	13.608281077785799	10.767490695779596	14	-0.7446396661633065	-0.8679465348806921	-0.1217878596942422
Si	9.453035706958403	14.746193445065343	12.292997097739248	14	0.24742183583689392	1.246476744307897	-0.021222160423034257
Si	8.080795153310714	10.853705783216933	13.624925921212615	14	-0.0013667995881907187	0.04658534307469902	-1.3281306783967557
Si	9.364918816121714	12.205839235967188	14.953148666266733	14	0.7989162136926964	0.42220943215854057	-0.7263105134465028
Si	5.368547175424884	13.629704811805862	13.461419593057984	14	1.3690207660767946	0.033465763957579414	-0.3694122986303638
Si	6.734497148597789	14.885528989845291	15.00147397828619	14	-1.044475283725143	0.05604212555273567	-0.2223502165285339
Si	10.753007731430678	-0.01592963531082	0.038247379475876996	14	1.4132725739629273	0.38157002724721595	0.43358503053700365
Si	12.245354484375968	1.348021006083279	1.3211194280838838	14	-0.486130452854338	-0.2795004884742534	-0.12025985180247818
Si	13.61299494945941	2.735280930166884	0.07951813871482799	14	-0.21731547809061996	-0.09383968775370057	-0.9736274481863346
Si	15.019581747404814	4.059846360991476	1.2917633858682298	14	-0.11319188327739113	0.6446429524994473	0.8552882120580071
Si	13.551925929191295	-0.028039409093024995	2.6768451761440284	14	-0.32737138420902645	0.37467843654709104	0.5925184201230212
Si	14.892177174378073	1.3192663888742577	3.9991511995112696	14	1.0456245678032494	0.36978510890178523	0.7998407831658217
Si	10.861963186010705	2.5969694333712026	2.703584206844334	14	-0.42418866903399055	0.17426463349952853	0.4190498008306105
Si	12.20291338458357	3.9218599587939744	4.135934751695504	14	0.19793602885053582	0.5257954088493264	-0.24570125215665084
Si	10.822415428142108	-0.091237798979217	5.377194691736471	14	-0.4675788995273415	-0.5770987301864973	-0.7566174174077482
Si	12.122224905315294	1.128582152311779	6.771362876031401	14	-0.4495829620600291	1.2954282756087283	0.002829244294290946
Si	13.510037490215804	2.503179641796273	5.545739986162893	14	0.1285524377915518	-0.3992003535380033	-1.1038680737310955
Si	14.796583107783245	3.9470385354230157	6.698184081981084	14	0.48086251516388656	0.7369710874354327	0.8860154917390969
Si	13.487362141992747	-0.008728789961133	8.124309065277107	14	1.1391292405337343	-0.21231724934825214	0.23305089976045823
Si	14.873321687683633	1.4441839882249228	9.365552750588165	14	-0.3134359933738239	-0.7032330434244497	0.11138413912679501
Si	10.915782596739403	2.650431240041904	8.109533515789826	14	-0.037818131043526076	0.4648422150245759	0.2654278006149549
Si	12.296134260611684	4.01426809832664	9.556171968231007	14	-2.068594098188546	0.882789783004439	-0.4458335191716571
Si	10.813719147640793	-0.16433531937998996	10.88626400722466	14	0.6561465919228537	0.3971789505353029	-0.11898638333740885
Si	12.206765755572002	1.3946070620024729	12.16027722803226	14	-0.4895253403190615	-1.4776859613275333	-0.10350087310468899
Si	13.542839535172165	2.631348187128738	10.778722714146715	14	0.551694666960242	0.2740970535334302	1.2340233385792279
Si	14.689887060660569	3.9367980555803452	12.409917369974682	14	-0.026451531533683438	1.1433705358698507	-1.2694259161744748
Si	13.557355008980903	0.050584719476807996	13.579461441657143	14	-0.09341391271268404	-0.4891293900997587	-0.5006906222823366
Si	14.945834037807682	1.4774736750785549	14.77342011766292	14	-0.20449954651180988	-0.16962507394932133	0.6144784877729379
Si	10.842912642557357	2.5770411345027684	13.586889853225555	14	-0.3609867864962385	0.5753426652528361	-0.04794828600490951
Si	12.080482758908982	3.9907800136081346	14.994907067402952	14	0.08023134151522081	-0.4160485495904017	0.010969877958943794
Si	10.720725837831404	5.4397916566160305	-0.037613445009426	14	-0.046247242725099544	0.47310137664448754	0.5862374669364315
Si	12.299368951863574	6.701288735393702	1.2359934075504508	14	-0.7249912793067349	-0.13357457781339704	1.480585911018128
Si	13.485395319673758	8.303143603735926	0.106972377531129	14	0.48285820711338556	-0.43030789969594296	-0.6998672094498438
Si	14.947687077017308	9.557244780405002	1.4393888429017678	14	-0.4512379825546084	0.09758578820515632	-0.9481377671529186
Si	13.698039696343297	5.386248576295785	2.8357189062745944	14	-1.6064749408085384	-0.6197027166729469	-1.189892372643142
Si	14.869079203177384	6.88922592260156	4.029157430923283	14	0.3344856326298762	0.9906029139520803	-0.06806230003495996
Si	10.856712908250099	8.143408372920181	2.6752359578830376	14	0.6381653097558663	-0.5538531098765064	0.05887111273649459
Si	12.155173242840837	9.639509968474451	4.084098418015703	14	0.817140465312438	-1.3342943891807466	-0.6719174948461101
Si	10.839385366167104	5.380721968126725	5.44775647427144	14	0.45528541654958554	0.3546490118820735	-1.882121856628954
Si	12.21006546574353	6.740560162853846	6.613496939155193	14	0.5378289530792155	0.15654406141200392	0.5360967994250317
Si	13.53479344386721	8.219074140646578	5.422870482780762	14	0.2012270436603254	0.19612725625781166	-0.5830716649557331
Si	15.065680161426739	9.510512431916625	6.766909080036335	14	-0.5375386752885708	-0.23344556442710096	0.44686761773142064
Si	13.391020357822105	5.347399771813275	8.067254963296518	14	1.393312826252086	0.3496525829134297	-0.19429842904359035
Si	14.835805771053662	6.735683743881146	9.383888085925516	14	-0.1396930371437534	0.03842311212535692	0.506288947006427
Si	11.010596436298602	8.150739256109143	7.966784477728988	14	-1.2347967270595281	-0.18835609042766407	1.212375917336241
Si	12.042089086863923	9.558707706096813	9.522280856370744	14	1.1438515896752506	-0.39577358436730997	-0.30869487516347077
Si	10.76988014107622	5.564790529616241	10.785435917599132	14	0.5971821480632378	-0.46792471319290146	-0.22933308146752407
Si	12.173394795068823	6.821004821173488	12.270272985326466	14	-0.3923118481642626	0.008059386736536169	-1.0414256957049155
Si	13.471903893849289	8.137979293130575	10.813475326692158	14	-0.1355949523739694	-0.4963243712276611	-0.40927342996127947
Si	14.810871015373255	9.325533605552208	12.250133374969215	14	-0.1571845237472528	1.043588252389692	-0.1224108385133141
Si	13.312363719792454	5.41215861577073	13.676827273812052	14	0.7340716519659019	-0.4629545094985231	-0.34425429018324677
Si	14.723225511703927	6.707871901006847	14.99092465857525	14	0.7211166235892716	0.7409704417609231	0.3902950731511385
Si	10.88658910182284	8.263612100597237	13.523691463339363	14	-0.41144395707254855	-0.18610637327253454	0.8540859632103058
Si	12.063399037774621	9.657731520702441	15.063875886406839	14	0.5501895419058274	-0.7128060398629571	-0.937466908742708
Si	10.736736746791768	11.013749853900945	0.05336427829124699	14	0.08725920079731356	-0.5849277458863481	1.4152659519176383
Si	12.329310164355952	12.262308167671055	1.3857644889319767	14	-0.5999972512782681	-0.5973284439559543	0.1460025295993968
Si	13.620504634677369	13.673885167698524	0.02064350698443	14	-0.1453756941223447	-0.6487217539793301	0.26569956644729464
Si	15.006447925638344	14.99477702956368	1.4850808886759668	14	-1.217618401084023	-1.1417463686391132	2.732752254288981
Si	13.687831725960447	10.890327689701909	2.8133361431899018	14	-0.6069477202902243	0.7064608090433635	0.024861560003703865
Si	15.11164853760939	12.359040065359514	3.9976232548998234	14	-0.1221074480855366	-0.9944947960751884	-0.1915265203979387
Si	10.736216595434682	13.500463454299402	2.6434742156408517	14	0.8331815914048419	-0.7749249728398626	0.36274490831415573
Si	12.127085069558083	14.821420335084197	3.889724357763882	14	0.20801579014764437	0.21730210834295519	1.124659574013005
Si	10.727227729795004	10.69702644162408	5.427746901753461	14	0.5767030370777264	1.29976341628903	0.891644155505965
Si	12.312957906067497	12.11364240792334	6.698736742797989	14	-0.4539029332189418	-0.4318868154730459	-0.8740709077532848
Si	13.615303121106487	13.528584137041973	5.2322512651379185	14	-0.32441409886979217	1.0071112098811552	0.7751687136242128
Si	14.880993920200682	14.946289170245134	6.769119723303959	14	-0.3629122872704974	-1.0835627694652261	0.25228456732888993
Si	13.552966231905472	10.769278716069588	8.117498333445235	14	0.11500656941235164	-0.22253507900105257	-0.021622995742445344
Si	14.74853412617224	12.189145628350644	9.521890742852927	14	0.38627720686734307	-0.7046376382608466	-0.880652680262332
Si	11.021031972900179	13.407730220168558	8.097261194708532	14	-0.6679888459169239	0.7236550758718538	-0.7065078602707223
Si	12.300197943088934	14.77163209737293	9.430067773596985	14	-1.1772093672093837	0.7612086401779367	0.7862113538637167
Si	10.773017303948656	11.022218568183535	10.78498078516168	14	0.39950914328695314	0.14186870646566271	0.45137733646296035
Si	12.162048993592343	12.324596292682342	12.257691824376899	14	-0.5862048138988656	-0.8717800529130327	-0.13284952611311526
Si	13.501861361071576	13.454478823386841	10.846147333809247	14	-0.23805349938187031	0.8123270990425887	0.2224358343356949
Si	14.778182753526258	14.8692905146662	12.078938559567625	14	0.6540418851077806	0.9413603335290083	0.9051036347464081
Si	13.449407347655233	10.872821345589916	13.532322724921043	14	0.5291833543296856	-0.8200375867871808	0.25035598122824687
Si	15.020264446060992	12.138333342655113	14.883594676986121	14	-1.3541898592585844	0.10997131675337363	-0.8569085226307644
Si	10.858500928540087	13.595634897916598	13.681378598186573	14	-0.26290914584333785	-0.4770724488114562	0.3570694504304609
Si	12.201678025110485	14.978441026005136	15.019939351462813	14	0.077595701451537	0.18746160288678457	-0.8443026503566102
H	14.114126647080889	13.031382833112488	13.871658091974318	1	-0.41332420639317285	0.032183039513357534	-0.06675103632168443
H	0.7003561692781466	-3.064996748060012	-0.7483840197402689	1	-0.8077883268209314	0.5365030340656152	1.0149960185664533
H	-0.9489625103983562	12.618720753966725	12.331338754648597	1	0.1461706798873345	-0.1404342868075521	-0.07399975355077791
H	15.458108352781782	15.539242211649563	0.15164037532106098	1	-1.575331913397181	1.7773775969914416	0.7668329330657606
H	14.8420865986905	14.821420335084197	3.889724357763882	1	-0.1504302300712238	0.005874975656538361	-0.4462873192606633
H	12.24799425251319	6.82615757055464	4.101214648609881	1	0.09358566254806994	0.015918741479164816	-0.07623018741600636
H	14.837226434447707	1.128582152311779	6.771362876031401	1	-0.061064779795644945	-0.021222674644098292	-0.10664944867974231
H	9.50499232563953	6.665382037024721	1.3955498363371948	1	0.1433979999100868	-0.0646686981228965	-0.013004907819840998
