224
config_type=interstitial dft_energy=-23333.34118693227 dft_virial="72.98982635332823 -1.6482845713501457 12.030900065046161 -1.6482845713501455 73.29740098625959 9.211465929841964 12.030900065046161 9.211465929841964 71.61362703418659" pbc="T T T" Lattice="16.254729908999998 0.0 0.0 0.0 16.254729908999998 0.0 0.0 0.0 16.254729908999998" Properties=species:S:1:pos:R:3:Z:I:1:dft_force:R:3
Si	-1.3369515350152499	-1.028973167429427	-1.236237228499086	14	0.7448252999674211	-0.7912136963745968	1.424100269797667
Si	0.20411064346731297	0.26908079891358594	-0.014856823136825998	14	0.13271839974178773	0.2902945028292991	0.926370789512545
Si	1.4346099523085218	1.5028635631964127	1.503383714553501	14	1.3390869294975027	-0.14865693873191765	-0.7297588799018854
Si	2.7814931272981704	2.8306799400028044	0.0010890669039029998	14	-0.9196275515893926	-0.7902299914791081	-0.5887522650500683
Si	4.104368066212226	4.049817192637622	1.3536126331719749	14	-0.4535668897535985	-0.2771417564535496	0.553169967192943
Si	2.832142865694615	0.052080154628435994	2.752039556703063	14	0.3504156869724497	-0.42993277542973335	-0.41714384045678476
Si	4.014739485494	1.4404454003458529	4.189656634044749	14	1.4951291111510139	-0.276368367973249	-0.9212961989421687
Si	-0.11861076414597298	2.678015516697477	2.674910863284858	14	0.3462145008793277	-0.15561974904941067	0.803578398969721
Si	1.3835701003942618	3.9454455718919337	4.0441768013592	14	-1.7611217836048054	0.9964148975282751	-0.6316526999799311
Si	0.23860318033421096	-0.038881313942327994	5.395676319643004	14	-1.438231321747733	-0.1447141487234706	0.4615018349926396
Si	1.3786611719617439	1.5412897447012888	6.6554503970503225	14	0.5739840932016698	-0.9225506412278689	0.5657383013294229
Si	2.7729756488258546	2.9176427450159546	5.40811118802339	14	0.2036099440710386	-1.0179836429484652	0.7593685001003068
Si	3.9698601762152514	4.1484508937254345	6.905919530218103	14	0.9512539468009381	0.559003290943295	-0.19884748568652832
Si	2.8120682742569993	0.138782883963042	8.006998679523853	14	-0.6866121330823525	-0.028236135736398223	1.386472657658364
Si	4.250546852283864	1.544654473792452	9.482619315392784	14	-0.8447181409763463	-0.8372441949212079	-0.7495234807189276
Si	-0.019261854942165	2.7284701983350126	8.059794042268285	14	-0.5434208500400055	-0.20221434810326222	0.43236812638897765
Si	1.2501187678413719	4.025223786285306	9.521321827306112	14	1.1341731779186168	-0.44098210054306974	-0.38151526270389685
Si	0.17933843508599698	0.24029367224474696	10.885158685590847	14	-1.356906232029321	-0.9483403702521462	-1.7078076007967466
Si	1.3488825067684558	1.4685498283585137	12.279830766512957	14	2.538362551006525	0.36664141842684017	-0.3213763379340372
Si	2.843017280003736	2.823267783164301	10.837922440475294	14	-0.6930699783149683	0.02219506667617829	0.2799892555956136
Si	4.242078138001275	4.326781535557073	12.039992226705662	14	-0.5750223055299456	-1.5185163993641448	0.719176981735752
Si	2.8857997291242237	0.08985614693695199	13.43567210088213	14	-1.2875812621716365	-0.18721503388658237	0.1185703784966089
Si	4.045932312189372	1.3991258769171748	14.855441484783734	14	0.7351558870794082	0.6485554034651166	0.8816461553580373
Si	-0.015116898815369999	2.7747636691158446	13.450106301041322	14	0.4537455815733488	1.4579128758629343	0.7197842768123709
Si	1.3839439591821687	4.18380493127751	14.861276932821065	14	0.13561372144280648	-0.42167618491514186	0.04247388855725022
Si	0.09684568079782198	5.583288412252682	0.016969938024996	14	-0.5280880634633024	-1.1125275564493544	0.12573373502907342
Si	1.4500682004519807	6.900262884209771	1.3498740452929048	14	0.30944512369589006	-0.5548612402725365	0.4303464662757452
Si	2.889895921061292	8.058509918605475	-0.08356556646216899	14	0.2827596215780731	0.03866171069906667	-0.0387213603424941
Si	4.199393217260241	9.509878497450176	1.312130562444207	14	-0.36856383387471486	-0.9533193157046129	-0.05014503839044403
Si	2.6587211522954934	5.263281544534199	2.669920661202795	14	-0.17680539977689885	1.1657653774294046	-0.1893863323294474
Si	4.042144960120575	6.605076989062331	3.991592750103585	14	-0.864088077126746	1.0601307440195247	0.17551830445363273
Si	0.137124901512324	8.254444432928562	2.7534699729350547	14	-1.3716036984814155	-1.1673805457915214	0.18299687849834742
Si	1.4863325028789598	9.48704060192803	4.106790020968667	14	-0.3078484672920781	0.7865245144917107	0.4060621194164146
Si	-0.05739545130867899	5.334737337214163	5.378316268100192	14	0.9370730154076614	-0.3901878580592883	-0.17626906720711596
Si	1.3170069814169068	6.706864107752489	6.653743650409877	14	0.2779033178493774	0.2132598165586184	1.1190211400459202
Si	2.8139700776563528	8.10524226709385	5.487808128767217	14	-0.2498736418701871	-0.49215506684050897	-0.922950705215684
Si	4.097102201942904	9.50638373051974	6.811560823096358	14	-0.9785277178160048	0.4390350024841216	-0.2404289435871552
Si	2.6204575180897076	5.448114078329438	8.280874623760596	14	-0.2570758220929859	0.259526342573619	-0.8909476430747368
Si	4.161259620893726	6.750117944040338	9.46771372806623	14	-0.5916002784131963	0.5964190440042179	-1.5672401307336108
Si	-0.04608215929201499	8.04818816511326	8.087378318923859	14	0.537613494453387	-0.1171207893171094	0.1613047200227901
Si	1.343957323606029	9.393640923870917	9.430425377654984	14	0.16441909989708547	-0.6431509400821652	0.7113574791255856
Si	0.070350471046152	5.414548061067354	10.820497370012847	14	-1.4722393318173315	-0.30002922179244373	0.9740084859947806
Si	1.2243875303954248	6.759740744146466	12.239860385666725	14	0.9434259595432152	1.39553760368561	-0.12205242643168542
Si	2.9065245097581984	8.03438789942052	10.795708906901622	14	-2.9154182315326254	0.13251553953202805	0.17907671421671764
Si	3.962789368704837	9.469631786195492	12.124305510743644	14	0.1977686498941942	1.075884420537136	1.12015936837115
Si	2.7660836433444387	5.472886286710755	13.425090271711369	14	-0.4081208034462571	-0.2149906846601421	0.22104820879441095
Si	4.254740572600386	6.61192023035402	14.744698009913716	14	-0.30527427664554585	1.1694423151477482	0.8143145634550633
Si	-0.216691804416879	8.269853916882294	13.535654944552387	14	0.7656610232608371	-0.7291071047032278	-0.2541038814534267
Si	1.319542719282711	9.32628132312802	14.973450823923073	14	0.12084683514706798	1.264323814777173	-0.6741049912524921
Si	-0.038182360556240996	10.852064055496124	-0.03200556319082099	14	0.7122357687029481	-0.7139463250724427	0.4378234976572678
Si	1.4160633054823528	12.191437545267815	1.2720463984886128	14	-1.5549016534127522	-0.3170558525540604	1.0197584769509633
Si	2.6203112255205268	13.503486834062477	-0.04952816203272299	14	1.3323768588329803	1.5428058884341156	0.06075213338871493
Si	4.206138930172475	14.802434810550483	1.4017428884325238	14	-0.9663481348039316	0.751750057926176	-0.9734528701350965
Si	2.7331353058188954	10.823439476126374	2.5529516247776307	14	-0.3625646738312134	-0.9538731317905729	0.44270319844437683
Si	3.8424556031885095	12.046591647048716	4.09196570729166	14	1.5476881603265449	0.438764522204442	0.8675328440346803
Si	0.24180536212628398	13.530225864762782	2.9313129728694234	14	0.11134840076284495	0.07877712434614505	-1.3925412375455093
Si	1.6644193237619638	14.903555485314373	4.176620340657732	14	-0.8429528200635327	0.3010334955304936	-0.5898046184576049
Si	-0.050097077579538	10.928932673235785	5.44206731880329	14	0.28608663186234473	-1.7547349008790254	-0.6547322268862403
Si	1.2948030203612129	12.097062583416161	6.827116599619271	14	-0.4342311493039569	1.577257671281972	-0.17021642817295535
Si	2.7130119501915537	13.515596607844682	5.5924723346512675	14	0.5536970437835733	-0.9698952317036077	0.030790271761433317
Si	4.0954117100323675	14.782067633974508	6.942655219812443	14	0.02938773380929254	1.3541872881532644	-1.1990797032836273
Si	2.5559424950808864	10.829388707273068	8.129673126147077	14	2.1912607616812143	-0.2404040038655497	0.5601523179108692
Si	4.10479068918986	12.256131370305635	9.445005870383357	14	-1.4275517215794336	-0.05257421869691994	0.692316130235101
Si	-0.037678463929061996	13.4571120896321	8.230257394823969	14	-0.6982998636466815	0.08101038642722568	-0.06181014322795586
Si	1.2400895994875187	14.928311438965782	9.480181105906434	14	0.9980264663429439	1.1767599379994216	-0.5029282552424614
Si	-0.029372296945563	10.681048042123535	10.903006379030929	14	0.6622907623064116	0.11139056689009537	0.08788783604808978
Si	1.3096598434980389	12.161967719942798	12.226401469302074	14	-0.5043377351789666	0.7313272541471757	-0.2837230147415326
Si	2.5547233903377116	13.690383718556157	10.90152719860921	14	1.4775417223190728	-0.6340731385283185	-0.31831363727667683
Si	4.200319736865054	15.050807083560004	12.0817831373017	14	-1.2631575614039536	-1.225814570623591	0.0882598749879152
Si	2.628649901963844	10.893123503246258	13.574796334173259	14	-0.4128269546242561	-2.038645863419461	-0.30505573269333325
Si	3.9463070725771106	12.11656825930696	14.908253102258074	14	1.6843272385710262	0.521881672330997	0.41276421965444454
Si	-0.088214419216143	13.642643576813425	13.602982035835465	14	0.5139858078928223	-0.600621772760532	-0.5548774382360533
Si	1.464664947910263	14.999165806639112	14.791089009074001	14	0.21090185586951057	-0.20398763944256834	0.028932648167626335
Si	5.48611763685668	0.028608324639839998	-0.077973939373473	14	-0.8454141391865103	-0.3787996612647564	0.5915203170377397
Si	6.831342829395611	1.2806939148002008	1.366746454938447	14	0.35941609825616005	-0.44735098553160846	-0.29615328052232054
Si	8.145862837136441	2.5892809461242456	-0.10721619847976399	14	-0.46946737638499025	1.0258347701540693	0.3267936568435892
Si	9.279874069237827	4.019388338247975	1.367559191433897	14	0.6958151474652905	-0.3859830724187181	0.12601372839843758
Si	7.9516350694538	-0.203541727920498	2.8965766150538905	14	0.8150601839979063	0.4966789266513095	-0.541414873669226
Si	9.552303342512667	1.165057766227575	4.019859725415335	14	-1.1400993185710262	-0.16185056568225756	1.048953120750713
Si	5.490035026764749	2.696838493932099	2.563874803276479	14	-0.8314941749832286	-0.7107761522127001	1.5512596827267624
Si	6.657742313967491	3.9548408057793356	4.118412152853603	14	-0.26049873460569906	0.5793296782727897	0.06938050573259988
Si	5.426755363229012	-0.0035435311201619996	5.48888094094121	14	-0.5081681678849232	0.0677992759607088	0.4974672275424669
Si	6.899336364604959	1.420533356207328	6.758602913052837	14	0.28753853503663235	-0.5579640501728911	0.09160693989368397
Si	8.225511013690541	2.7477970721968137	5.3086484957102185	14	0.05964887209583939	-0.8025484141784697	0.07333897948349985
Si	9.438195138551487	4.079644622020637	6.77983159031399	14	0.8935128348526485	-0.509623670606659	-0.6918538454985382
Si	8.404426825798904	0.13180960483208098	8.218245149421218	14	-1.8176033110567542	-0.6559537590238427	-0.9189888890278678
Si	9.544712383645164	1.4660628546824368	9.659779616670974	14	1.2580616306594201	-0.1898894976406004	-1.436760135283544
Si	5.5896602663770105	2.8621653518365373	8.06510933894853	14	-1.076167242122352	-1.1410963932141798	-0.6044285512975431
Si	6.81331633392653	4.086032730874875	9.4340664371546	14	2.2413438364334426	0.24628926394336867	-0.41479436441523343
Si	5.5193260500607675	0.11108482419810599	10.808062501632461	14	0.529660037256041	0.3252743907099137	-0.7847843904110344
Si	6.758814224541654	1.4960690860944508	12.167445563922131	14	0.4398837243503025	-0.5891957807177938	0.8421226101556567
Si	8.170813847546757	2.7345819767807966	10.856810436629551	14	-1.2730357480439627	0.7176032081692892	-0.34972534519398996
Si	9.504351889281116	4.138064121313584	12.09529081785608	14	-0.5945763328212678	-0.13474700183938457	1.6376714472105554
Si	8.103633048832858	0.11397816612190799	13.63508512740574	14	0.5031162030413643	-0.45374892401026495	-0.6056963633309081
Si	9.645784294219325	1.3190388226555319	14.99105469641452	14	-0.5832231030590899	0.2358462054645232	-1.130886791098404
Si	5.473081343469662	2.7983005180240768	13.565823723263492	14	-1.2261709258209634	0.23446012258643137	-0.9560595997548268
Si	6.7834563950836975	4.1298879921693565	14.807620069391456	14	1.151101335346472	0.3064662410719665	0.8058052332875011
Si	5.426706599039285	5.304926162561057	0.10433911128587099	14	-0.01905266175389331	0.10108737654066598	-2.508946792149243
Si	6.708424561823754	6.6130905709074685	1.301061091376178	14	0.37221068966081294	3.0928707785186056	-0.8322919889640706
Si	8.183638829444957	8.126275887596096	-0.04634223497055899	14	-0.9035108350005764	-0.7044422342565153	0.36297605068243705
Si	9.52624701046854	9.287562556484783	1.4347237354178848	14	-0.1920839360313468	1.1034857503699897	-0.18026482198515809
Si	7.799051919798017	5.356616203671678	2.6711235112160607	14	2.2821233665847154	-1.2295275038164168	1.3063287337240281
Si	9.295446100490647	6.541959872825685	4.083269426790345	14	1.4618199275074313	0.057705630694871474	-0.05450923256086338
Si	5.38047814717809	7.965711665554994	2.684062276223625	14	0.03984056248835456	0.6357795811293008	-0.24160291027633474
Si	6.709432355078111	9.370526697940319	4.046988869633457	14	-0.18859546033296987	-0.42911079305888206	-0.7338772764036986
Si	5.3392724068587745	5.487548053088672	5.439206486339306	14	0.6637274959593105	-1.2531256226657999	0.7449600258861968
Si	6.818566611687138	6.770029988178863	6.759626961037103	14	-0.8828314349106254	0.7285044376161852	-0.6730050723965327
Si	8.103064133286043	8.086825658106953	5.29172732187495	14	-0.13943155573269436	-0.5729867614479843	0.81019616695325
Si	9.467892530095229	9.319876959543874	6.664471772149817	14	0.18610663038306652	0.8849641667736882	0.2070269430415154
Si	8.22747783600953	5.518675860864407	8.00655980181631	14	-1.561565444181512	-1.3566864025244485	0.5864806934997175
Si	9.329646052219182	6.802848287865134	9.400224089484063	14	0.7309932675660884	1.1159430127566392	1.1651166875571313
Si	5.401820607548606	8.183508791605684	8.051682932043695	14	0.5411796175324325	-1.0833455110656738	0.39938033091041375
Si	6.678840953389373	9.579595034029877	9.34711988687136	14	0.25453119915763533	0.05574670555145065	0.9153410047996416
Si	5.566708587745503	5.495008974116904	10.577993054500475	14	0.44115950681016	0.20394033110467763	1.8270043005493435
Si	6.824093219856197	6.8931270577797195	11.989342488309218	14	-0.24066317128182063	0.03725634453107372	0.1201300109838107
Si	8.080632606011624	8.315822293064945	10.700066076117066	14	0.2322518002269562	-0.18118270658445096	-0.05388213997327926
Si	9.424411127588654	9.676733299966061	12.079767550792985	14	0.03332718138082343	-0.3385634056676311	0.7293809274198236
Si	8.142075485067645	5.658466538081807	13.42052269260694	14	0.43121010055278297	-1.2257214966110015	0.8205376667719496
Si	9.609828831660616	6.851953826920224	14.929124175461231	14	-0.905570804583079	-0.4509032246419251	-0.6008333747283802
Si	5.443822829633462	8.179623911157433	13.358315841245197	14	-0.3727894454683783	-0.8812160094379764	0.4590346023274254
Si	6.802636976376317	9.393380848192374	14.74544572748953	14	0.2532644155663984	0.42491166385001616	0.8042515143425357
Si	5.580915221685968	10.772204567453207	-0.028819636128656997	14	-1.5968749477641697	-0.5250747280280889	-1.723420123632282
Si	6.7026541327060585	12.073054347340568	1.3251018369115888	14	1.3716684903354832	0.32505610386823314	1.1913640733283948
Si	7.939232710533234	13.576438061894068	0.10833777484348499	14	1.3185728514796373	0.9265538522113395	0.17010895597057316
Si	9.579660052949514	14.913405851639228	1.5651029240179737	14	-1.6268825750661497	-1.0271941135368317	-0.22344627872651304
Si	8.066751066669338	10.685583111768146	2.7269910179132935	14	0.021758750103349163	0.05454959891438971	-0.9780206958468715
Si	9.340683013827396	11.962684731258458	4.1389256219987605	14	0.1689894967141807	1.3100871754810206	-0.23892124742742032
Si	5.319360362720249	13.237396905452146	2.699650562206356	14	-0.17177040422845286	1.0798688624517696	1.2006174813756079
Si	6.568650139336262	14.69148002419165	4.211649283611627	14	0.7931296840591711	-0.7153642896565043	-0.2794508661415746
Si	5.484931041573324	10.72124598918849	5.404860242041589	14	-1.3296211481508455	0.6697996753939042	-0.27157711320915306
Si	6.808992575770737	11.943227819557386	6.839453939620202	14	-0.21933276732480814	0.9666834069376787	0.7928926281486535
Si	8.133931865383234	13.342483734313832	5.63484841552403	14	-1.2528589990441006	0.03970840767489894	-1.9873638822564474
Si	9.40724613280475	14.794307445595985	6.698492921849354	14	1.6742274226524207	0.7448718369737158	1.9151129945444338
Si	8.312847677491597	10.746473330007259	8.18749120043339	14	-0.9618391874039877	-0.48624358148842456	-1.0516273273941992
Si	9.465389301689243	12.187877759417745	9.485073779609042	14	0.8495248223723632	0.09443824107223103	0.7109206483316924
Si	5.53098069140552	13.579428932197324	8.156233354818383	14	0.9045264216020349	-0.9369364897151615	0.46855746221218986
Si	6.899401383524594	15.013567497338485	9.486244120162489	14	-0.028633114397829087	0.03966495599498845	-0.5748932360428741
Si	5.342620881220029	10.82807207415044	10.862922215075336	14	0.41150746337395616	0.6426007235436536	-0.5293538186124114
Si	6.671136211412507	12.302944992443555	12.195338680445975	14	0.24802013204489232	-0.5842224916970313	-0.6888636500112061
Si	8.129705635606896	13.574520003764805	10.808338832040915	14	-0.433416366028002	-0.3603553230296101	0.2660222401649731
Si	9.38105976292135	14.944468640495327	12.178336232961161	14	-0.061214675235809576	0.7929463642498445	-0.11891696349376484
Si	8.00836407683621	10.9504539356353	13.528746684341064	14	0.9108197160941613	-0.012110420278961483	0.038764554911872584
Si	9.330832647502541	12.197272993305146	15.120312308650888	14	0.7388883606726672	-0.48729696333808914	-1.016520426910769
Si	5.290329415102775	13.56063846442252	13.501958889451032	14	-0.24155560193844405	0.16652817759120295	0.5995269961152129
Si	6.719347740322601	14.895444375089781	14.810724722804073	14	0.22042857241225527	-0.21710181923851568	0.2994988027648972
Si	10.81212618410971	-0.018741703585076996	0.14869826920753199	14	1.015427192928642	0.1797858250640145	0.21691052900269664
Si	12.347417933474578	1.3757840847678509	1.450425804509979	14	-0.6219511482754164	-0.16212181729353317	-1.3190680463642979
Si	13.458737562623	2.8937482920497244	-0.03502894295389499	14	0.5133304331467166	-1.3242709350901494	0.17247437286510942
Si	14.898955396750125	4.052580496722153	1.3381543850285158	14	0.2721149884421281	1.4940255927476063	-0.4061263970494183
Si	13.575137683501348	-0.148503212448624	2.6477979737966457	14	0.35899957919429604	-0.12655263207354064	0.4117925989539606
Si	14.98326868078811	1.139391547701264	4.0034261934773365	14	-0.017290683277995832	0.09233096315183766	0.18988512676155614
Si	10.758371792300649	2.5109331479628656	2.6842410782526236	14	-0.13566077267016516	1.3455900261837532	-0.7388575074088254
Si	12.133570706791774	3.8554756418456186	4.005344251606599	14	-0.05787069565642497	1.1235012910662785	-0.3021606681028465
Si	10.879989681479787	-0.14556110633509498	5.4817613692410685	14	0.17842828145497633	0.19528110549695094	-0.5502314509225457
Si	12.235780448459566	1.328108961944754	6.770046242908772	14	-0.09933542537551708	-0.5012745203005422	0.05829929891329366
Si	13.533574339124035	2.5314953812977503	5.213672108851931	14	0.7980878035585446	0.12853084050686253	1.2654990670190127
Si	14.855864107761368	4.009830557061482	6.687228394022417	14	-0.8840251991107703	-0.1839114206607241	0.17112994189320396
Si	13.584662955228023	-0.059378528357576996	8.187865059221297	14	0.44644647067998044	0.19681271293616315	-0.8965248847352021
Si	14.867616277485574	1.401499067483889	9.510366139347447	14	0.7121650633066441	-0.13193215573488645	-0.48827089803336127
Si	10.826186525480995	2.7106875238145665	8.038549110277224	14	0.19963655790928175	0.40275104998512784	1.207339122014071
Si	12.12209486747602	4.237851908224934	9.484586137711773	14	-0.9792142029364844	-0.5260514909392131	-0.5053726050703262
Si	10.816986348352502	-0.07334134134940799	10.76937624444904	14	0.2499656874406484	-0.15591002684005542	0.6247883629961998
Si	12.124256746553916	1.381619532805182	12.060359403281637	14	0.8160014656556125	-0.6675044496746079	0.22522445516592746
Si	13.41013592019509	2.7719353461116785	10.688964095589219	14	0.3601946289471009	0.47607794527362307	1.2704764698082873
Si	14.783221719798046	4.075759741572386	12.222110220606098	14	-0.03442864289997487	0.4373344734253757	-1.1554215636159169
Si	13.643846426826691	-0.05934601889775899	13.430828191369246	14	-2.6778959225098977	2.3974965756157203	-0.40519797091831283
Si	14.935999926212737	1.5875669607522118	14.824508733766907	14	-1.0117353427994413	-0.7683938511056225	0.8497050568553055
Si	10.871114598949472	2.701015959518712	13.444612202332078	14	-0.30364188187778385	0.5920044561695237	0.3149172071487612
Si	12.144006243393353	4.112739252115362	14.816885265439586	14	-0.4402202820367099	0.4598761250987099	-0.021593170920731628
Si	10.743710025922729	5.361931500351921	0.03741838825051799	14	0.3308817143026247	-0.13414330631021376	0.07700434722790295
Si	12.111090415327627	6.769119723303959	1.3684369468489828	14	-0.5040883379629122	0.08226020072334966	0.3707217625699152
Si	13.57481258890317	8.065792037604707	0.084784671205344	14	-0.45560860448832813	0.0625295384965333	-0.2459491067095131
Si	14.9017999744842	9.45618912456075	1.339259706662328	14	0.7435515743918197	0.23750174018016657	0.3399736569357322
Si	13.456721976114283	5.40175558862897	2.6759024018093065	14	0.3286937036751786	-0.4858486597112497	0.46192349626514384
Si	14.825288960802538	6.675021091860758	4.175482509564102	14	0.8601167478492452	0.27762461003267336	-2.115265316180938
Si	10.778251326979355	8.07630884785583	2.929654990418706	14	0.0095028052632673	-1.2960540826436522	-0.8781358252644389
Si	12.306829872891806	9.449215845429787	3.9509396706011755	14	0.03682748416367303	0.4007607573568012	1.0977526997271234
Si	10.967131288521934	5.296522467198105	5.482801671955245	14	-0.8071170112218408	0.6837198967077179	-0.3105437569991893
Si	12.158976849639542	6.868940019675128	6.912421422181704	14	0.6933864813798786	-0.7292138055740139	-1.8226241655259396
Si	13.651892518131646	8.087817196631402	5.438410004573765	14	-1.701790957237068	0.5733140631552393	0.3175078528693424
Si	14.903344173825555	9.427499526271363	6.796931566178258	14	-0.08801716264569322	1.146690604169758	0.1584502788963617
Si	13.48702079266466	5.433045943703795	8.098659101480706	14	1.3324434504607723	0.14264466605128343	0.2931988233989383
Si	14.922557264577994	6.798231944570978	9.61156808776088	14	-0.2538488278056681	-0.7647346540139878	-1.4946169469712403
Si	10.730982572403983	8.087752177711765	8.119708976712861	14	-0.027546051068470478	0.6678111825393015	0.5745481937089103
Si	12.084448913006778	9.490584133048193	9.458708607696645	14	0.09155397512408892	-1.0998512358894283	-0.06218012528352517
Si	10.669848533216234	5.572397743213652	10.841758556733819	14	1.2662850539153818	-0.2586313408116755	-0.6467108925084424
Si	12.035912289498503	6.862600675010618	12.228644622029515	14	0.4768215089322098	-0.15677417533815718	-0.06322193715924918
Si	13.415516235794968	8.055275227353583	10.765475109270882	14	-0.36724948483505515	0.6476637441400892	0.4966048788180892
Si	14.63379198774461	9.527449860481806	12.123151424920106	14	0.38246811433554373	-0.4701098956044953	0.07102524180589859
Si	13.522131009268099	5.54934853620269	13.554039044079467	14	-0.8067724831089408	-0.788822054205795	-0.4692310918060687
Si	14.862674839593238	6.753125069073503	14.952482222340462	14	0.4886187685831773	0.6372906197259518	-0.09504913569629822
Si	10.752081211825866	8.284141824472304	13.531152384367594	14	0.7206900772166591	0.7595461634779289	0.341531746759742
Si	12.368987960063823	9.56249505816561	14.98796629773181	14	-0.7208137473825582	-1.5722882389191897	-0.9841792644202224
Si	10.909865875052528	10.672579327840946	-0.007883544005864999	14	-2.1211045534735256	0.5853432365060839	0.4319528928797737
Si	12.008929437849563	12.081197967024975	1.377019444240935	14	0.543168881718631	0.5057600706420725	0.3319327821575012
Si	13.38427464490987	13.588482816756638	0.21534266183443196	14	0.6014211294045659	-0.7107879792971727	-0.726416442985693
Si	15.216280234033624	14.943103243182971	1.4492229544967128	14	-0.2952873322504946	-0.0035242140623269716	-0.4029626519529761
Si	13.59217264044598	10.914823567674773	2.5650288891000175	14	-0.17474620152599224	-0.7547626220297935	0.540581578434966
Si	14.94391597967842	12.18873926010292	3.9691937322889825	14	0.07706219709760628	-0.3579289709389864	0.060556729384383674
Si	10.798829815044149	13.346027265433992	2.8572564234040194	14	-0.5838825915737079	0.5374497150444936	0.0502939053884806
Si	12.230448897049415	14.760351314816084	4.066234469845713	14	0.527976991713472	-0.5672853354005559	0.7061931569795361
Si	10.806258226612563	10.745611829322083	5.348310036688178	14	1.2273811450951573	-0.5606156310895599	0.6935330343831271
Si	12.187861504687834	12.093519052296	6.820435905626672	14	-0.5920041990589916	-0.14160182573343136	-1.061023174676148
Si	13.71065336675268	13.288176681687862	5.515489933802243	14	-1.4404524996338086	1.4709720340050303	-0.6262803754134817
Si	14.934797076199471	14.796761909812243	6.743128410179469	14	0.7699791946460258	0.8198241850456086	0.45450482897438854
Si	13.415938858772602	10.770156471484674	8.170066129970943	14	1.5686246709485105	-0.18610405927774637	-0.12992463670091484
Si	14.723875700900287	12.160716105739803	9.610072652609253	14	0.29472348885378613	0.0553759521642853	0.06100255904689735
Si	10.91210902777997	13.429657850815799	8.181753280775512	14	-0.8201944242117098	1.0264384656832402	-0.7803569470497395
Si	12.225735025375805	14.859862771318982	9.453100725878038	14	-0.10679677301458679	-0.5214952352013787	0.901766340040856
Si	10.95451761811255	10.891254209306723	10.82449603357046	14	-0.6624085189300744	1.3111104753984395	0.9685279178943529
Si	12.049956376139878	12.450001533930278	12.470580021995072	14	0.04181697114795238	-2.3679741158876517	-1.0736874110410695
Si	13.438825518484474	13.572569436175726	11.149037970933554	14	1.1522873862306562	0.8687901145362327	-2.2223639369601096
Si	15.022718910277252	15.090842483325872	12.044511041620364	14	0.28241329369144913	-1.3151568809512886	0.0762517847006956
Si	13.43287628733778	10.899300300611678	13.504933505024377	14	0.5286220820382972	0.9554942136949263	0.5722313707049248
Si	14.824866337824904	12.181489650563506	14.999718467456018	14	-0.5577915290059092	0.5928099834663261	-0.595171543702882
Si	10.634169401065979	13.695682760506493	13.62014703061937	14	-1.7307210342993744	-0.12475722922848119	1.625118025484932
Si	12.073704536536928	14.865178067999224	14.947784605396762	14	0.5376767436442627	0.9893189039551985	0.17745768919662042
H	-2.3545333877244494	-1.8860932028959512	-2.042728656718048	1	-0.5532311594995626	-0.9841424976141442	-0.409159787106129
H	-0.6657465983559039	1.3211763196385655	0.9848903399162189	1	-0.27650900743426116	-0.06231742230762108	-0.033005793215804914
H	12.135727709450698	12.665282427791055	-0.6255714079128194	1	0.09204762734555735	0.15051867609423691	0.15709839171902787
H	9.434349269455016	14.895444375089781	14.810724722804073	1	0.29578612668260335	-0.005530447543638518	-0.08119961977878858
H	6.965548381416279	1.544654473792452	9.482619315392784	1	0.12146081509751937	0.04415024922598677	0.021638679484898247
H	17.348793516877024	9.527449860481806	12.123151424920106	1	-0.4005766662158786	0.28930925527061835	-0.23095879136145375
H	12.219353418413531	4.138064121313584	12.09529081785608	1	-0.027392813191389646	-0.11363359917139255	0.015015255069664783
