68
config_type=vacancy dft_energy=-6819.333096611307 dft_virial="3.9356811644867973 -6.76698634160548 2.177743577682694 -6.766986341605481 -3.170012283395729 -2.0584805120921854 2.1777435776826946 -2.0584805120921854 4.673919540492047" pbc="T T T" Lattice="10.898050114551573 0.0256976792631504 -0.0116282543569896 0.02561049460068 10.92068543254545 0.020270434024368 -0.011660948605416 0.020292230189985598 10.914168379025789" Properties=species:S:1:pos:R:3:Z:I:1:dft_force:R:3
Si	6.950312250767649	9.553707301397521	9.902638847344837	14	-0.7287538348322394	0.15662685100331267	0.2373860404407599
Si	1.1978104611317697	1.0906212778575364	1.4691945192365072	14	2.2773591084264813	1.457752953112021	2.3734418284614787
Si	2.6729378966493877	2.5884995510468056	0.30868928536754087	14	0.3620964755524144	0.17718592336428077	-0.40747699867409204
Si	4.065473121792234	4.050613585882435	1.6757840260015247	14	-0.0343579375036708	-0.3795331976125947	-0.28310337835937693
Si	2.7008304497902307	-0.02152044412253736	2.931077514716591	14	-0.40403968797158607	-0.3939437287109606	0.2076344952286664
Si	4.070047047147088	1.2875321972800584	4.27598593836842	14	0.5783799119675269	0.44402706057372104	0.6683858245783546
Si	0.06720520725702696	2.6399755553858912	2.9644703302510353	14	0.32225848416938	0.07180711493375562	-0.0822781984605907
Si	1.4220875562954691	4.1056641613828075	4.421915626411375	14	-0.14580044072123313	-0.4295396534262827	-0.12840279946191915
Si	0.05216694278916384	-0.00648544907951688	5.694133837728508	14	-0.014150335239966966	-0.36391656100854725	0.27828075611037517
Si	1.4599028138337247	1.2691569398561406	7.163534330730101	14	-0.5734518744003991	0.4977767886230127	-0.778490581697844
Si	2.7362873622086616	2.6145470587681183	5.707415331247591	14	0.45495837195286265	0.531779399371439	0.41802161581308334
Si	4.101011769831731	4.0659591762855065	7.162793261099102	14	-0.04877335370214503	-0.26616776472609355	-0.9516756080734423
Si	2.796394648132317	0.00814958632442064	8.510502492032792	14	0.27046125350020883	-0.41734464378228836	-0.19434188072350084
Si	4.13514129576405	1.3826539334601073	9.784514527780253	14	0.30443583920064554	0.48481250426723	0.4764702959454776
Si	0.09177057571634305	2.6083667560072477	8.51992279481272	14	0.55002781938119	0.4265803112027923	0.6697893909726235
Si	1.4980657202135805	4.137252254404115	9.824360098145789	14	-0.9151312026055176	-1.1110476282270771	0.2610144983329208
Si	0.06991882987641816	5.368224491714781	0.28129259499449855	14	-0.10714670044865895	-0.14768274692611358	0.1346906946328733
Si	1.3687468899877977	6.881972553090225	1.5035234800842274	14	0.5137423242190042	-0.8700653827750262	1.1095643575678837
Si	2.7628034874907526	8.219933448951444	0.207363270644442	14	0.4672438845041262	0.16539766258193384	0.6027969278613772
Si	4.132976936518222	9.60464167102101	1.6378477997440917	14	0.14735570232939077	-0.9659717249850618	-0.004094485222335816
Si	2.794440621884699	5.429842251915737	3.029305204497148	14	-0.8255284393088891	0.6352309072539812	-0.6236254520598968
Si	4.230500610149331	6.780516851181702	4.256259318676211	14	0.006721126417399094	-0.24884802795798006	1.2210143169908747
Si	0.03853344119535504	8.06449300404125	3.040623953302368	14	0.20540843224248223	0.9111565308911008	0.4410970289508803
Si	1.4196616430622304	9.509985282976897	4.410024728258693	14	0.30041514470099795	-0.34601369755382416	-0.4671929766187873
Si	0.151129163351034	5.464649638598763	5.93600043854561	14	-0.35508635689703066	-0.8367340876256906	-0.057917232662719656
Si	1.465411794693573	6.970565247859522	7.119980142784732	14	0.5240971937853686	-0.5859281629664177	0.3805004474340344
Si	2.909097171499522	8.163277585853335	5.699675512836782	14	-0.18071887918469623	0.1902525377118053	-0.11669141472864467
Si	4.1723713262554725	9.55335965255592	7.143053563707523	14	0.15733261941369334	-0.0337763534802533	-0.05691990090903422
Si	2.772649905308503	5.4514694972498	8.484954116504124	14	0.4142387485555495	0.9612989981762247	-0.1923983822120009
Si	4.159558450297166	6.743611583557982	9.950796385468644	14	0.43677731490249955	0.345264477463533	-0.6652920135466206
Si	0.11883814398855959	8.328790038895423	8.485384590775071	14	-0.896575792620541	-0.11172995279235491	-0.172849497131319
Si	1.3449018848021432	9.748338341896442	9.947313358202951	14	-0.39914224655776803	0.1651780901875932	0.3876077538705197
Si	5.467354542751908	0.0547192737829848	0.31799079904485167	14	0.5679430241414499	-0.3024062086609206	-0.46394978436795253
Si	6.832627123940259	1.443431451476504	1.6641764780018715	14	-0.29929439989194545	-0.1058210385455906	0.04489252733191352
Si	8.271871532001624	2.6306173716779746	0.2260654705526237	14	-0.06612317240250427	0.09145087380075098	0.44497219888940753
Si	9.583224758685155	3.9606858759690606	1.622862935881992	14	-0.21297596653127404	1.0923348665965074	0.21027142084501027
Si	8.097216677291232	-0.027016347283015198	3.017052489995214	14	0.9234176179418229	0.4445569653802036	0.42926197405170674
Si	9.642304355399942	1.3546654771905473	4.318480832664774	14	-0.8005974594615413	-0.15918587212845609	0.05692915688818675
Si	5.445930001758088	2.8120867975687083	3.069414508466655	14	0.20099770106576814	-0.9282901196340355	-0.14270071614726265
Si	6.932852432299669	3.9498063199010356	4.4586705004923335	14	-0.47617076217568044	0.7917279174386264	0.453193308150581
Si	5.5033618083521825	0.01398877909337568	5.7637170066544146	14	-0.12935230865664984	0.267286195540358	0.2900098814703587
Si	6.965674188294933	1.3263173841882967	7.242896349360345	14	-0.2106272618213188	0.06339342988410306	-0.6133279181421718
Si	8.339335023821219	2.656535192213863	5.802348530595049	14	-0.0032812446095729785	-0.023275702242236528	0.32723974361663494
Si	9.60142237735929	4.067098025939027	7.290350961142984	14	0.42991554902408835	-0.2709263664526236	-1.2594173744947343
Si	8.348251835175379	0.01347983862620472	8.670732644337455	14	-0.09121407500076532	0.39522079672347815	-0.2992589186385274
Si	9.83517317590868	1.2797498763462944	10.068260281215013	14	-2.0359986533818364	0.5746461528216079	-2.2481786057059927
Si	5.552925199158325	2.776786817542724	8.456585317144537	14	-0.256730008427426	-0.3786937317255663	0.2851276095779295
Si	6.86010772955093	4.100618349042334	9.887580966327917	14	0.44416718581366915	-0.3646364704981887	-0.31897415423342285
Si	5.582333675617871	5.346286651020668	0.4038720508113192	14	-0.6056184588397078	0.6570436505690535	0.1935371247582945
Si	6.945845126624321	6.763295700727236	1.7768953484932901	14	0.3463427990348031	0.028887910935055754	-1.0494004930764187
Si	8.338676779619567	8.169730340684426	0.27829671203035944	14	-0.6428724893759933	-0.6133410307793045	0.32774805113842814
Si	9.567285222769005	9.557277513325685	1.7057188798607363	14	-0.4347011473564799	-0.7273129874108285	0.8479927007120869
Si	8.247766062636838	5.363433694512033	3.126860482568402	14	0.880932159410632	-0.04002002563970089	-0.13223940282064414
Si	9.716353558660895	6.736264096128288	4.5164859196012985	14	-1.1611178474527049	0.06655666075948125	-0.4675781281957455
Si	5.573250123596737	8.170870280146227	2.9933764050930964	14	-0.626457781680572	0.6223237014363059	-0.42656051369182707
Si	6.802305388141336	9.545188270065882	4.412084465909556	14	0.3626760026915758	-0.2729282290548909	0.3183082379555045
Si	5.527037893254301	5.401935531267243	5.815789136123142	14	-0.2697778537061135	-0.1387450706122148	-0.7343310764927047
Si	6.79605751726705	6.795856992543369	7.184679880804016	14	0.6228384367213994	-0.4487694643367342	-0.027560706368795318
Si	8.145354598865984	8.090903417920094	5.765135937036121	14	1.0531234535799932	0.9984602118104529	-0.14329104192876863
Si	9.523617694762425	9.712747383059464	7.082971343374328	14	0.1737139027399528	-1.341468801466088	-0.04293848728860098
Si	8.249471612596416	5.424203583870464	8.524527234799438	14	-0.35181102582969404	0.9837935986222001	0.45714304014339247
Si	9.689150854161849	6.853746518615433	9.852079371769971	14	-0.20041894525820284	-0.026698614754949668	-0.6857217593099851
Si	5.55644963913869	8.202847434723807	8.522731230752548	14	-0.6225736128734243	-0.04289272161390234	0.6647389687922567
H	8.59862547943303	8.582439646845401	2.5923814481433	1	0.3489195607866555	0.2962592100615106	-0.3681208324280533
H	10.742837439572083	0.42350712660793416	11.015091164684963	1	-6.090486475804768	2.143301934144492	-6.479311390933846
H	2.192760739435694	8.882138013895682	9.071591375252142	1	0.8161737297120624	-0.897253793093464	-0.8239559512950866
H	0.2905069240093389	0.20377344216722326	0.5961807098636849	1	5.719765227455918	-2.6121329619627462	6.602791037928746
H	9.517297896541601	9.545188270065882	4.412084465909556	1	0.03262269852310286	0.06366930948495494	0.08771428643897977
