225
config_type=interstitial dft_energy=-23350.765495915937 dft_virial="42.42395577937639 7.203691456422803 -1.3170183826146953 7.203691456422803 39.45866893609542 14.395410018458197 -1.3170183826146953 14.395410018458197 44.36356467013621" pbc="T T T" Lattice="16.3199774331 0.0 0.0 0.0 16.3199774331 0.0 0.0 0.0 16.3199774331" Properties=species:S:1:pos:R:3:Z:I:1:dft_force:R:3
Si	-1.9135989539181404	-0.7783650036942714	-0.8762522283380052	14	1.2123432642986751	-0.006889790926400807	-0.056700071404161556
Si	0.1699399250108703	0.182946947025051	0.0062668713343104	14	-0.11170218485489733	-0.23799770639642315	-0.0847161205251551
Si	1.536542195303798	1.413930204848918	1.4750158803810112	14	0.5464735233866173	-0.029142450361750418	-0.303471160484526
Si	2.844392546837566	2.768488331796218	-0.0519954481018566	14	-0.792919624754515	-0.04728905460082355	0.17093942298898102
Si	4.162671363951085	4.134454122969254	1.2961489277142353	14	-0.25783172705710944	-0.36874689657350945	0.295815180172721
Si	2.833996721212681	-0.0334069938055557	2.894968156902743	14	-0.769270340909261	-0.7372472241468168	-1.3223233228101374
Si	4.286164633187353	1.3431667826989961	3.950054697952658	14	0.08354755315714779	-0.5605732078517773	1.7308932983558243
Si	0.1366471710473463	2.7266439096577493	2.7373334948764296	14	-0.2396817803811201	0.3438652819483084	0.1163083200359426
Si	1.5869872455495102	4.10710184079138	3.9883903249430097	14	-1.1978211472294147	-0.16039711984477784	1.148463638398532
Si	-0.0005059193004261	0.062407593704174404	5.4385998396257085	14	-0.3823156477900589	-0.09673706633897543	-0.2494537803714069
Si	1.526244289543512	1.381812489260577	6.59653487845902	14	0.3815492012941228	-0.2744423529779261	0.4868192519696057
Si	2.9860173110020076	2.720246478503974	5.308741779190532	14	-0.6562766898520532	0.3363124029598414	0.11490115409422556
Si	4.050047199685261	4.217424888239135	6.79537748350391	14	0.2958043815303764	-0.7816581834522665	-0.17218203819020858
Si	2.951647438527899	0.0162057375910683	8.041391440543661	14	-1.5176195978284772	0.14011701241104582	0.3473049066456025
Si	4.088823466066307	1.4487570366911533	9.51180508728854	14	0.5485597182433855	-1.0099967613819572	0.24975048592535198
Si	0.1886752591040691	2.7438288458948037	7.945527893101633	14	-1.4118864910848357	-0.7395843588828312	0.44449551596305203
Si	1.3729833814692698	4.029516668074422	9.371910240732007	14	-0.5209643019527681	0.9684266163447391	0.5510634606041457
Si	0.1483812348217452	-0.0191270135515932	10.724901649845728	14	-0.5761985862139133	1.0679936983096014	-0.05746086146839337
Si	1.3693603464791215	1.420833555303119	12.188477226046135	14	0.17304130158820208	-1.6979975484477214	0.10767506259194937
Si	2.577430355986916	2.731148223429285	10.784224767815047	14	1.1292711085152227	0.03277027996847936	0.23534021193751806
Si	3.9081613158818898	4.078868279832116	12.349522763355967	14	0.1535523232614796	-0.37187207509014947	-0.6093123658531645
Si	2.8385663148939493	0.033717073376784604	13.540799516085102	14	-0.18146064306955895	0.12082343808865466	0.36700188739272493
Si	4.230644069959946	1.374941778761242	15.01137636260431	14	-0.6282038193034843	-0.8088540499761327	-0.6704655916718225
Si	0.1519879498344603	2.932471465044007	13.414499210730341	14	-0.7373521252438787	0.47112933886393404	-0.08483002049083765
Si	1.3013713204928272	4.167534717226148	15.001013176934292	14	0.7833420003264314	-0.0015439487447489215	0.47905271412903433
Si	-0.0336028335347529	5.589461711017286	0.0281193211172313	14	0.06926609154585328	-0.6837299240184663	0.2471616399784949
Si	1.3524691698358633	6.927683540554052	1.3757414576554639	14	0.07205239838129776	0.37342168026660266	-0.6380244131843221
Si	2.691686517996049	8.333600636483318	-0.09589618739689561	14	-0.5201988838989601	-1.052182171922287	0.26374809750930217
Si	4.09283818051485	9.436733191096279	1.3168263391219728	14	-0.4899043212432513	0.6062326959006911	0.5575123069681411
Si	2.7146487262444206	5.457041414125112	2.563884774717443	14	0.4883961108624525	0.23327535725490714	0.10012629737199462
Si	4.16254080413162	6.5935320026113295	4.019953161298625	14	-0.9937340060109567	1.2698681462895403	0.4672073748085801
Si	-0.054835124175216	8.26912040564514	2.7236736737649254	14	-0.12678788821033415	-1.5736429543123756	0.23563357505454693
Si	1.3950969508911204	9.434709513894575	4.031197625750031	14	0.8182051600255112	-0.6510354916569314	0.7479101121305348
Si	0.1542564266976612	5.51757221042448	5.494871121815038	14	0.6288270552330884	0.07986470189656769	-0.8760298328967058
Si	1.3309104796467381	7.0911933944562815	6.806067068722591	14	0.19531581541877294	-1.8414294869480343	0.635001821769956
Si	2.8771141015909314	8.133942032566774	5.488702170345326	14	0.11668961495492056	0.4054311701708503	-0.6868666725090471
Si	4.123960377479771	9.644829223345738	6.9633426912453755	14	-0.014247523021068563	-1.236424493837714	-2.287032377972474
Si	2.652339052404845	5.504124549019605	8.171298460911139	14	0.452186463307211	1.2506164809838676	-0.48462044269981497
Si	4.192373722879327	6.921269789422843	9.404109556207512	14	-0.8005051567805479	-0.5810824007695347	0.4184738732388974
Si	-0.1624490553690774	8.170368222197451	8.22574190562796	14	0.29880563277058525	-0.0832835006407686	-0.10181088557775565
Si	1.253863866185073	9.515020122842861	9.483571526329277	14	0.35221417514389325	-0.17998122906834577	0.6658481436273685
Si	-0.07727509314572849	5.349019483495423	10.738675710799265	14	1.2734851772539246	0.7018909264473324	0.3440969385376537
Si	1.473024843134173	6.726849898262324	12.134768180313804	14	-1.2622844140372314	0.7055786628080208	-0.5216135060461056
Si	2.767035853804672	8.21015632717935	10.784893886889805	14	-0.43177651505481157	-0.6272635660879063	-0.10287480895923293
Si	4.031377145501795	9.497965746425269	12.241794592320074	14	-0.04583792275813196	-0.44581372166069205	0.8499963630880784
Si	2.6261454886247195	5.514487734689624	13.666855021778368	14	0.8722137983805419	-0.19098555983857954	0.31983830273152464
Si	4.053164315374984	6.904248052960121	14.94346893650518	14	0.015270051606891455	0.24840091274280626	-0.35068282481521307
Si	0.1236238290557325	8.204232175371134	13.58017962163117	14	-0.18404794635322397	-1.2778164612762457	-0.4675621873427606
Si	1.2679969666421376	9.64257706645997	14.918336171258206	14	0.8532277282544404	0.3424982252495857	0.16562880495021515
Si	-0.1001393815295016	10.8876444648086	0.0190127737095615	14	0.622415747006767	0.7406009739264179	-0.12531695885667746
Si	1.239518606021378	12.206576081019444	1.4524779915458998	14	-0.6878524342887918	0.17271142877562706	0.04540417729062299
Si	2.609515431620391	13.460913226550078	0.0893681964236556	14	0.5323933793218903	-0.011227502712022632	0.08550699252163264
Si	4.00097302754393	14.78327203802187	1.3922246348628948	14	0.21157908501083758	1.4012696258863482	-0.19349007353093578
Si	2.617234780946247	10.798129388588048	2.6724942245347236	14	1.149380494555697	0.781981114280477	-0.5539649529579327
Si	3.8868474253542615	12.347417486267098	3.9880965653492138	14	0.5653554637472529	-1.0369889963644678	-0.600310669016794
Si	-0.0803106089482851	13.684578517270712	2.8947559971961128	14	1.1365205970759122	-0.6326724003499019	-1.1416664072636566
Si	1.372852821649805	14.938850382891612	4.202541068820148	14	0.3602259964320067	0.21144538753418987	0.37069862262203385
Si	-0.0128275022624166	10.625610907142748	5.330447349176555	14	0.015878118015106475	1.4261926353072034	0.7381684511830258
Si	1.3044231562728168	12.09932118932911	6.716470392614871	14	-0.09552376173839755	-0.9621675175533706	-0.0173300211893941
Si	2.7268071094320807	13.455641873839186	5.555581437866169	14	-0.5853730613277977	1.3542770197289378	-0.13751942470610024
Si	4.171043512374265	14.773251571877946	6.874643613896477	14	0.8609531284098892	0.3179513685370679	-0.8324920209579781
Si	2.6585896037617225	10.767953750314247	8.15045784972907	14	-1.5846670825935745	1.1669701973824258	0.39458033438822926
Si	3.884823748152557	12.155918871067101	9.47800641402459	14	1.1365164833074	0.006723954633251257	0.8300641262041623
Si	0.0360997900820172	13.484593513805505	8.045047115488677	14	-0.7011404208043811	0.05818514183707909	0.4991083640683174
Si	1.3533341286398175	14.934101269458582	9.267968304460593	14	1.493605731248826	0.17278367683512322	0.8311573601862893
Si	0.0932033911204341	10.873364484554639	10.994164957514446	14	-0.23651854950574194	0.19567705571625374	-0.8416325574816366
Si	1.3965004689503668	12.312851774063793	12.257021131265157	14	0.37530192958722697	0.024351966929250513	0.14845382141162597
Si	2.7748041630628277	13.611644538122189	10.868484811302142	14	-1.4049895010635385	-0.01534127122425956	-0.9868413868687037
Si	4.150888340244387	14.907205946648833	12.139680493521167	14	1.098039120859788	0.9648844045451711	0.8973630650695704
Si	2.772649926041658	10.945841504335037	13.61107333891203	14	-0.5884041373897203	-0.20572030731781615	-0.16232596305595293
Si	4.06114478433977	12.179321718706168	15.071890838926244	14	-0.08885662853272157	0.7995052539215423	-0.4611832750434732
Si	0.07492501639536209	13.735921166275245	13.55937165040397	14	-0.40870007347488646	0.12839919991447096	0.6222599380243662
Si	1.4694018081440248	14.992804228285442	15.036476487896417	14	-0.12622944413479803	0.3505151887483394	-0.93597541054649
Si	5.460370689521464	-0.1624653753465105	-0.0245778860142486	14	0.24530992992692427	-0.526013438580475	-0.187955512218785
Si	6.757270336197622	1.2648308910201163	1.2544350653952316	14	0.9859343009117555	0.057220463120959526	0.7675574705449785
Si	8.172032859895628	2.709654813149892	0.012745902375251101	14	-1.131050570507297	0.13835246282982822	-0.5830392690286993
Si	9.56850068889113	4.072568768542939	1.2397960456377406	14	0.4445230267899777	-0.3370199711439462	1.3229419307501649
Si	8.295020209831469	-0.1106168070415518	2.6047663181873584	14	-0.9531051426314447	0.7474226305618347	0.6182914369627176
Si	9.557044064733093	1.3212980129386422	4.081593716063444	14	0.20935944978795376	0.03262938339693524	-1.2064770304002252
Si	5.499114315947644	2.6948199536632043	2.646284340777165	14	0.856363705413425	1.0020965260647383	-0.43471683109893294
Si	6.856022519645309	4.087485227916793	4.117383426574232	14	0.008716047035301988	-0.9839424656202368	-0.033254161989731225
Si	5.6229992646423055	-0.1073528115549318	5.4120472363420555	14	-1.4447429030815397	0.1079082618444868	0.2717578619131595
Si	6.7619052097886225	1.2648472109975493	6.89308518839588	14	0.775539467011378	0.19672066736570185	-0.7687111255021288
Si	8.191192513402088	2.579682512872684	5.420044025284274	14	-1.166712572629347	0.43398149497737054	0.4357730411644497
Si	9.31234232310119	3.9874274462744568	6.904819252170279	14	0.17222960363863132	0.610276273237688	-0.7741209882062523
Si	8.304094117284274	0.0004406393906937	8.121016610439757	14	-0.6332370150782064	-0.769738024966996	0.0642483224030523
Si	9.427806163440374	1.3678589085552766	9.578668034831951	14	0.3279305996161587	0.8663545064664563	-1.0513241940769533
Si	5.403185488595882	2.713359448027206	8.079008988526958	14	-0.4937524945759169	0.4938710225311758	-0.0015094959334589371
Si	6.588831849110597	4.085086191234127	9.50260062001627	14	0.17338557259056986	0.431419388525843	-0.02650526763487453
Si	5.661122731926027	-0.0585723990073959	10.728426764971278	14	-1.6595788072014088	0.10139050985791144	0.16421675390838983
Si	6.873272735792097	1.3045863560471478	12.135584179185459	14	-0.9163789600173855	0.8846191244397245	0.20474560129094801
Si	8.017694833310802	2.805077721201228	10.772164304491985	14	0.3510934303348407	-0.5228586923526533	0.2747310881053787
Si	9.349894591174753	4.052005596977233	12.186143469273203	14	0.8404727318717179	0.4887313829961997	0.32152006272143346
Si	8.234897412967928	-0.0308937172808583	13.35068809896692	14	0.2979952203736746	0.08850670109864942	2.3088803454304325
Si	9.495534069787738	1.4108130891591957	14.951596285266865	14	0.33840348291671785	-0.9309144468343107	-0.7037326091881544
Si	5.425511217724363	2.6837223690086964	13.537045921275489	14	0.3654435404581832	-0.0005630720651124293	-0.31638839361294996
Si	6.65807751335924	4.097652573857615	14.94172269891984	14	1.0602405302166948	-0.13967838184342857	0.1630196472713289
Si	5.390243746491433	5.552578562018478	-0.0261609238252593	14	0.17412810780702864	-0.4444896024208157	-0.513720726934315
Si	6.7474457097828955	6.696037780868631	1.4205561156867563	14	0.643075863806817	-0.32289663250984074	1.0723026137156375
Si	8.09317472893889	8.08207714428438	0.2300300819195445	14	0.5539340996940909	0.9521520338892658	-1.358191013357799
Si	9.439442307350173	9.702895703052707	1.3123383453278703	14	1.0027228473207264	-1.2711806955554759	-0.6519047823656735
Si	8.3326540777922	5.314535371179282	2.8076073177033583	14	-0.9130825458864237	0.6417417172561922	-0.8406748207498814
Si	9.454309806791727	6.830155355413847	4.178485422083758	14	0.18582355168731823	-0.28456530884441317	-0.04102224249349462
Si	5.347469085639279	8.07186083841126	2.6974148300750675	14	0.3380296442031683	-0.22917958647991127	-0.12145438733421898
Si	6.621896123390058	9.503383978933059	3.9893695235889957	14	0.46714926782834476	0.4768402780010469	0.08219643731140999
Si	5.5176538103116455	5.472186353183028	5.472512752731691	14	-0.06913547939558976	-0.7301903113746062	0.06355515240874036
Si	6.760583291616541	6.7857160568635155	6.901620536593391	14	0.07159808407122759	0.9864436368756767	-0.9793180755914184
Si	7.940223900435876	8.150751609322866	5.387893669741067	14	0.836014692357113	-0.009011209926054987	0.48540565826458815
Si	9.52502426900935	9.36130225540049	6.752978182132717	14	-0.8839334106508409	0.2108293506994824	0.7217601712509047
Si	8.027845859274189	5.442957273600347	8.2019473785305	14	0.05474371736606089	-0.9951897658432244	0.4132079924327021
Si	9.442396223265565	6.542989032501019	9.622503494217257	14	0.3641353620712918	0.7073779223110604	0.5408345751984686
Si	5.543667854340006	8.326468806345053	8.100616638648383	14	0.34021765483061434	-0.6256602248102621	1.3160835073086699
Si	6.8100654631937	9.532776258290072	9.74229212857621	14	-0.4565935949364769	-0.6511190525798362	-0.6107565557114916
Si	5.239006515618896	5.400035732951293	10.927938489090925	14	0.6352514760965423	0.5457883238187979	-0.12446335189038828
Si	6.772203115548908	6.715083194533058	12.26425088126802	14	-0.08480379521657214	-0.21771939873641524	-0.046178851323583604
Si	8.166957346913932	8.029069857581673	10.928721848007715	14	0.05319771173705585	0.27922152354701735	-0.15521428574042334
Si	9.62020237739919	9.555852706380476	12.019679699455583	14	-0.5141233620274501	0.2929481406302239	0.5113136581335924
Si	8.164786789915333	5.414952192325147	13.662040628435602	14	-0.4654639082909877	0.21806212707559094	0.2877912746896029
Si	9.47074402406686	6.8587153159217715	15.067158045470645	14	0.13231499331705648	-0.7596914309285173	0.04029770501427689
Si	5.543439374655943	8.179833809108649	13.57074667467484	14	-0.5474289461235844	0.2613716248618893	0.4721919766927512
Si	6.957467499369459	9.520405715395782	15.000197178062637	14	-0.76838459512647	-0.4859137086758495	-0.023692478414632533
Si	5.391043425385655	10.807448095702348	-0.0082089486488493	14	0.7109322183056331	-0.12921321185882986	-0.005392379187946566
Si	6.603878868303915	12.267025277431648	1.3131869841543915	14	1.6370163295749813	-0.38636668133248425	-0.161094660718134
Si	8.309169630265966	13.409848017161908	-0.08226900624025711	14	-0.08650920937542637	0.29091156810613467	1.148566225500806
Si	9.683099570426357	14.921077927466966	1.3066100332488522	14	-1.2379766701194874	-1.2184013026540081	0.13430065795580687
Si	8.10755262905745	10.885392307922833	2.6220002143567123	14	-1.335859935210185	1.2195775833379756	1.4581743572739934
Si	9.385765901572707	12.311219776320481	4.134241963262625	14	0.21162587912766426	-0.9052375893335878	0.14948534886606937
Si	5.422100342440845	13.610208380108077	2.7405158904758844	14	-0.24127792256386804	-0.20198192018232083	0.24050119164665132
Si	6.869698660734247	14.907989305565621	4.026203712655502	14	0.7566711535089394	-0.17694758190110305	0.04944852595921592
Si	5.126855630698632	10.851773154410647	5.26177288413807	14	1.4003429995289667	0.32738269707243517	0.5547823073392079
Si	6.655596876789409	11.98759462382211	6.805805949083661	14	-0.05057415586837674	0.5925359036391983	-0.9295576745568684
Si	8.060355254320925	13.55778861259296	5.605324729082258	14	-0.3245076871034455	-0.1863177181298507	-0.6901155211915861
Si	9.574065801195816	14.963868908296556	6.674756530295868	14	0.3374894549754052	-0.3888850789935693	1.243838790249425
Si	7.999922377886156	10.692783934257388	8.153444405599327	14	1.2491023570608322	-0.18031033054932472	-0.25755713300891764
Si	9.302893056167425	12.132662903224935	9.496758068095222	14	0.84273427611132	0.5062318684683196	-0.26479016649555814
Si	5.479987302396051	13.344698667248972	8.25173962967889	14	0.042087194317099945	1.0366182429773025	0.003899081218004562
Si	7.008402148938165	14.837405403167462	9.475476817522457	14	-1.265957495097595	0.49485806986358066	-1.2632223532580213
Si	5.294984038214429	10.851544674726584	10.964740038202565	14	0.4811245107960096	0.6721550649776917	-0.7156553387787452
Si	6.660394950154741	12.137852656048661	12.394223181545227	14	-0.1956539157683724	1.087653912250646	-0.3138764237151653
Si	8.025871142004783	13.504079566860627	10.922862976109231	14	1.0119166057245117	-0.7748900058075086	1.1402268453949058
Si	9.56872916857519	14.955170360324713	12.086150967540599	14	0.2497548568043962	0.13815191661485665	-1.1140185404245084
Si	8.207316651105991	10.83778693375048	13.510428038082102	14	0.659240145844056	-0.618057466378584	0.09807455532651646
Si	9.668019911278174	12.120259720375778	14.85428025983329	14	-0.8891180445289195	0.6245361375642932	-0.651809394358296
Si	5.453271499338066	13.681004442212863	13.831409354236314	14	-0.627917141060288	-0.997545155427012	-1.3669654244838683
Si	7.093722990958412	14.806201606315378	14.922530405458513	14	-0.876016977370105	1.8420619788567907	-0.07879795029923826
Si	10.895543333886222	0.073766297997612	0.1543217066073936	14	0.16568305527247026	0.8291997205955285	-1.5838921514500819
Si	12.323149679824077	1.4404175282228393	1.375969937339527	14	1.116634125866695	-0.8804351647522474	0.5189254154338908
Si	13.618221489027729	2.9443034486830038	0.0716283809538759	14	-0.8736785570814303	-0.7955251828859531	-0.6614397264454426
Si	15.063273890841568	4.062956301834844	1.4156111625245271	14	0.4468285369305544	0.7820952713566917	-0.1908822014047096
Si	13.686112595149424	-0.0865774802825955	2.8932871992271334	14	-0.8883593113489439	0.7685126361714134	-1.5378125447918558
Si	14.941412619348611	1.4650770141242533	3.98254777302196	14	0.990704729722758	-0.4179002596419723	0.9381207408256218
Si	11.034556901661368	2.7216336765857876	2.7441552454434657	14	-1.7319538793003852	0.1952962750183398	0.02955511276563419
Si	12.125041473763677	4.07862348017062	4.241431575043225	14	1.025044412378656	0.7083845100438984	-0.44964029770866837
Si	10.909366354772057	0.1530487483676118	5.524426600946382	14	0.22332029456582583	-1.046109992487693	-0.8437164383436166
Si	12.330885349127366	1.466186772589704	6.714430395435735	14	0.06342531159007289	-0.09639845176831192	1.6967960709316166
Si	13.72673301898041	2.803119323909256	5.431125289961349	14	-0.5553836888735905	0.2609882730586552	-0.31082169348429733
Si	15.028202259337835	4.231737508447964	6.712749437760125	14	0.2560463515227986	-0.8040692229753372	0.645870655289818
Si	13.638735700661135	0.0595189576985157	8.283922625176961	14	-0.3936002290401888	-0.1455649274739076	-1.6118526646961604
Si	14.954713400956587	1.449703595382273	9.511690847446507	14	1.532288525011518	0.22784595415035044	-0.036027356188042946
Si	10.770091667357983	2.727247748822774	8.095916485147649	14	1.0556014848875517	-0.55978619251328	1.0512174932061675
Si	12.235495081030898	3.9640245986353912	9.589063860456836	14	-0.22736695722920686	0.3915795973690845	-0.5210442633282247
Si	10.949986778603044	0.0728523792613584	10.626867545405096	14	-0.1711217143561795	-1.0968492133176233	1.4942217680835335
Si	12.177852920737188	1.4090178916415546	12.104625181994868	14	-0.5112493805005887	0.027864611017636823	0.5400383038808186
Si	13.659021432610478	2.730217984715598	10.985678569249234	14	-0.0541762744219042	-0.06884571582600907	-1.0046514334213694
Si	14.854051780149225	4.252496519742867	12.181949235072896	14	0.2988897079145541	-0.09228751147192717	1.0107724638570459
Si	13.573047791492906	0.1804499904777867	13.48545847260946	14	0.3179734800428212	-0.1999301781368427	-0.92510426303184
Si	15.005550130660694	1.7090769967265314	14.9536852423783	14	-0.35692006921136027	-1.590770372402542	-0.11652377866177102
Si	10.806681056762992	2.762368340258805	13.479469040891512	14	-0.16473354607773957	-0.6245723901493074	0.5063383122285738
Si	12.067774672950929	4.088758186156575	14.94725517126966	14	2.0593198641882395	-0.5942878548043471	-1.239586953381496
Si	11.027245551771339	5.408016201916079	0.0074745496643598	14	-1.281117760507316	2.312155676497769	0.5983887677899833
Si	12.278726701251179	6.880290326088329	1.4458520807080615	14	-0.014956890978897418	-0.18928708766408972	-0.3778810053338675
Si	13.569555316322225	8.297288686694671	-0.08427636346452841	14	0.028048702158559424	-1.380328487274806	0.4180110742812707
Si	14.966822824211945	9.543253683802124	1.3322813577511186	14	-1.1191630650595925	0.3141582168582535	0.4508356045720052
Si	13.651742722675316	5.334054064189271	2.713734807508167	14	-0.8121052126534599	0.8510451169481668	1.1376683384908262
Si	14.989050633475829	6.711264319813713	4.147918104351562	14	-0.24814328798972743	0.4560068687024191	-0.8254759887603582
Si	10.673330521157133	8.228761101453085	2.709410013488396	14	0.26993417690957844	-0.7605360390261859	-0.6736648180216828
Si	12.068770191574348	9.477777934340526	3.9541673322657993	14	1.2487647709322969	0.7802844418797114	1.3098727452973202
Si	10.752384491843069	5.402924368956953	5.659719213866781	14	-0.1125979579484369	0.4766888398976903	-0.490784410594338
Si	12.065375636268262	6.842313738601506	6.99315929001565	14	0.8455074703096318	-0.30887870919386146	-0.40487786830595435
Si	13.465172740660115	8.07755651053541	5.356314513408019	14	-0.5133448313365093	-0.3168553063390888	0.43863211028045435
Si	14.912069299923896	9.354692664540085	6.689216030301595	14	-0.4606065761201639	0.40118704661888177	0.08670409915869359
Si	13.579722662263046	5.349884442299377	8.155255923094401	14	-0.371256552476506	0.8151254900730379	0.5242895124633157
Si	14.870469677446925	6.802868353145704	9.603392800643096	14	-0.48287980439807476	-0.5633595146872218	-0.7033508000481125
Si	10.690939776807447	8.10038815896432	8.465547654029931	14	0.31983007519450013	0.19209062090517917	-1.4029233608282672
Si	12.208273358672486	9.443293822024385	9.631006202459902	14	0.6222691940035187	0.3887475248589414	-0.3562107012535314
Si	10.963516039895083	5.376273845808701	11.034181542180407	14	-0.8941746373620547	-0.6694428059754676	-0.9798988882832399
Si	12.102340385154234	6.823562084530875	12.379633121720037	14	0.16558406771764456	-0.26344804951844086	-0.03401906582247528
Si	13.474360887954953	8.018380272362991	11.034589541616233	14	0.8897240540528784	1.2437210336257623	-0.4983424317934454
Si	15.036786567467646	9.447945015592818	12.25850624921157	14	-0.7162004131066165	-0.1862830082080287	-0.49899292143944274
Si	13.504716045980517	5.609062003914438	13.693587144813783	14	-0.12752039611604432	-1.1426038322633827	0.38856934726025505
Si	14.986782156612628	6.871428578342156	14.915447535252548	14	0.016641736295190453	0.7474280298830069	0.38174383396685796
Si	10.685521544299657	8.149070651647257	13.537649760440512	14	0.5723851228030696	1.1682819753167653	1.2444409431154038
Si	12.24277379096606	9.589732979531592	14.885190297091581	14	-1.0513151952083328	-0.15173866556864715	0.027528310441761454
Si	10.972802107054518	11.059183747607916	0.0222114892864491	14	0.27218389406470805	-1.5737874504313678	-0.13882991708777973
Si	12.126559231664954	12.269310074272282	1.605722579642709	14	1.434884771063028	0.07277050809721511	-0.072803161134781
Si	13.671832614895463	13.544748950623912	0.0755941354701192	14	0.14472571869741127	0.1681058078156458	1.5706879829679294
Si	15.068153564094064	15.056713259913462	1.4278185056444859	14	0.22249959774763453	0.3497849948374174	0.8090782503600497
Si	13.650192324819171	10.916726664594385	2.8321199238078747	14	-1.013830793635362	-0.9776661404232232	-1.153433070761314
Si	15.007312688223468	12.18707370798689	4.095139297332916	14	-0.06761389926712612	0.11383748782328029	1.1119616561683898
Si	10.847219880706813	13.652118082156278	2.859080526527356	14	-0.43567996715186036	0.12269854519863865	0.21915253284186578
Si	12.179370678638467	15.01658243540547	4.153189457062454	14	0.7381435114614202	-0.5736305662201494	0.9198895472215156
Si	10.837656373931017	10.857077147076406	5.496601039422946	14	-0.28027259140189387	-0.21505033430356948	-0.8527703286179862
Si	12.23808995744276	12.058194846197699	6.886018638167347	14	0.5633988525986201	0.6631068311350267	-0.1287678964173802
Si	13.652999360937665	13.496588697218835	5.501643912449774	14	-1.1302797531323168	0.38082234982011687	0.03551519200826944
Si	14.91814033152901	14.986667916770596	6.800322436666139	14	0.43570464976293377	0.1742589770678242	0.2411503957399887
Si	13.692363146506302	10.7035877593181	8.16403607095341	14	-0.4984992692179743	0.2519477525319505	0.519902435455547
Si	15.04628479433371	12.166787976037547	9.571601484603418	14	0.022530853030989634	-0.24373718480258968	-0.6467659141622935
Si	10.831079423025477	13.439142376654322	8.161718634157909	14	-0.034061231949725705	1.0688920425084614	0.11261467013301787
Si	12.331685028021589	14.928013917876035	9.490556476670642	14	-0.4023898096876471	-1.110939127582567	-0.07237790031482849
Si	11.01482604894475	11.10505920417236	10.777386697270577	14	-0.8014256124851609	-0.8588083123518219	0.2896843795368279
Si	12.416826350290071	12.288322847981842	12.256303052258101	14	-0.5842515451871492	0.5523623830118845	-0.4228735486627348
Si	13.807108907838428	13.59290920402899	10.92759576956483	14	-0.7894000386817643	0.7649688817086532	-0.4338066598156004
Si	15.015195237323656	15.143633459722151	12.205368402689395	14	0.383030157958528	-0.49491232018583575	-0.3140337753607583
Si	13.625402279098292	10.821026316926687	13.494467100152532	14	0.665855599832797	0.3186000584093413	0.9662856569446518
Si	15.022065947822991	12.26167232483359	14.88760565375168	14	0.021685987822788973	-0.042540223074510046	-0.5937885461511744
Si	10.859851543240033	13.673627812413102	13.501223570809834	14	0.19207570849432232	-1.5578813073682718	-0.6654249396916722
Si	12.163213900979697	14.976239451190846	15.03169473450852	14	0.5072687952439354	1.220345829607636	-0.11639290940097548
H	15.360829511388307	3.1840063812271473	14.663116204170672	1	-0.06256116309197111	0.9134556132683772	0.0770449706919613
H	10.669893533909722	14.599858339642232	14.757396713801691	1	-1.2698385785783584	0.12836603265584104	0.49925234596624574
H	12.851807604807716	12.656808354448321	-0.7185343344267835	1	-1.4428490269027185	-1.1847447626816736	-1.7341017806848371
H	-3.039275925357186	0.3473119677447743	-0.8762522283380052	1	0.13778039189609526	-0.1719151574579772	1.6007629732292974
H	17.669709742720332	1.449703595382273	9.511690847446507	1	-0.010945709568934403	-0.03227611352594689	0.1897298320002192
H	17.76128113609746	12.166787976037547	9.571601484603418	1	-0.03093888164893788	0.06806230003495996	0.010237112942701592
H	12.185740365830604	6.8587153159217715	15.067158045470645	1	0.10608560528303385	-0.10732616360000528	0.05585572041702492
H	3.9545149477851242	12.206576081019444	1.4524779915458998	1	-0.06469980849727029	-0.018211138982608847	-0.02919181558389726
