68
config_type=vacancy dft_energy=-6821.836077823638 dft_virial="-1.8416226744276674 -1.4998289788492682 3.144262982750936 -1.4998289788492685 -4.91896101748493 -0.4015478381620352 3.144262982750936 -0.4015478381620352 -2.392555869048793" pbc="T T T" Lattice="10.9185619587 7.64299337109e-05 0.0004913352881415 7.64299337109e-05 10.917917763544436 8.73484956696e-05 0.0004913352881415 8.73484956696e-05 10.918780329939173" Properties=species:S:1:pos:R:3:Z:I:1:dft_force:R:3
Si	6.888732559845828	9.519665973845592	9.584486200625808	14	-0.2810279821449534	0.2651267241819656	-0.25562828979774255
Si	1.1965739399035	1.2561336035320125	1.2148876438768275	14	0.8015071165238097	0.27000693919013863	0.9979058815034288
Si	2.6808847431046208	2.68840108115699	-0.01662023501353314	14	0.0652747076468554	-0.24930388493124225	0.13998562892918628
Si	4.095639939204039	4.061436452012216	1.3254053280227889	14	-0.19248117180330968	-0.30676474639963563	0.43840919544919754
Si	2.687429329142666	0.06669276015613135	2.663988268473533	14	0.18133157358248753	-0.28319465259824217	0.15669935617334088
Si	4.090092217872824	1.4059592025854897	4.1346246646775775	14	-0.08069953979401977	-0.5597118875695278	-0.3902089411229135
Si	-0.02620564055707587	2.735198037711978	2.7272591513118076	14	0.1455790685531684	-0.02927126273828983	-0.48998633950296405
Si	1.3796967855062285	4.101725945639819	4.119914086150621	14	-0.28292365809749853	-0.244489490219265	-0.16551079121602036
Si	-0.01070565000050535	-0.018398868756605367	5.477593591467132	14	-0.033933190904782334	-0.3681388301652944	0.07850047341369712
Si	1.3264753470947415	1.3228645786549993	6.880628803160081	14	0.4770441666529346	0.14363839825752064	-0.24858654654692097
Si	2.7106880498270884	2.7192318245597713	5.475159844006537	14	-0.21107823369447276	0.06404237686690843	0.5129146854164486
Si	4.066134709223045	4.133841803785139	6.837032077115189	14	0.041169309717807086	-0.2162011610448678	-0.24859194586809333
Si	2.7862281207383544	0.00509241729753768	8.207437166394564	14	-0.11919772819472502	0.1196242745673376	0.19015097905165945
Si	4.168884928391587	1.392712803217195	9.590133280870846	14	-0.5800053647509246	-0.07222054866923543	-0.34608003207108395
Si	-0.020125093402275838	2.620557504570412	8.300740645756438	14	0.08314517517454462	0.049627732000030234	0.052970168916222735
Si	1.3309945398894474	4.068674366734638	9.584414138116879	14	0.024499291264095002	-0.002720743649780697	-0.0741367934643418
Si	-0.024681409307641348	5.437884965335732	0.028341311276197587	14	0.22205119697980072	0.1496139041320768	-0.017941172923993297
Si	1.3830859071382093	6.802130893814203	1.3645898631801714	14	0.022089908468584236	0.15175357797950403	-0.17199409039130573
Si	2.6850687360471945	8.234635304233686	-0.08715742083532275	14	0.00641027978419319	-0.2974558024775075	0.731821163479176
Si	4.0789279882700535	9.553157570797708	1.3110768991643869	14	-0.0058580063614253825	0.2690561444427479	0.218513870280341
Si	2.72619568337703	5.388378021702594	2.7136884706533393	14	0.22809432292427673	0.46990626406313957	0.023465192704331443
Si	4.092944146256436	6.787397386307134	4.084023681136179	14	0.026208562080929445	-0.18733099073652107	0.027380986106916968
Si	0.00942599453894571	8.195977043762712	2.7068720124225227	14	0.2736324548020795	0.18895824329364275	0.19531632963983697
Si	1.422949576849423	9.560169471287587	4.113765843911677	14	-0.2166454480441894	-0.026102889652271356	-0.18667972975892755
Si	0.06117888636698784	5.4902012549608425	5.527570033264493	14	-0.30927928740274047	-0.3078852340981562	-0.266383737572986
Si	1.45321037131796	6.843387772031347	6.829096466283605	14	-0.08640430827836433	-0.18399215336777677	0.6470808745640116
Si	2.8124545065631517	8.181485928331124	5.4830987304067085	14	-0.05603261246305112	0.3117166952462409	-0.16049687873119958
Si	4.193254066827209	9.558298029767865	6.849045770838345	14	-0.09959484990232001	0.07195186816327996	-0.15437044897435076
Si	2.759715668590239	5.413095462264699	8.290863714608598	14	-0.5752807016146204	0.40136753821235616	-0.6814539815890713
Si	4.095701083151008	6.825149406135535	9.559511082001476	14	0.07551696280019729	0.3197501138190435	-0.09663885011574577
Si	0.049503668064549936	8.217024755650497	8.20128346487464	14	-0.21507013181453463	0.10295348478202945	-0.396329714448058
Si	1.2302587954022852	9.706531702487764	9.673690851828386	14	0.5794191527379308	-0.20795151251464064	-0.6106202871295238
Si	5.518174610699031	0.00857543856236298	-0.030892979205945782	14	-0.2810997159833855	-0.4574209766285005	0.29864571001967205
Si	6.807476621749183	1.3738029457609227	1.3484358507622747	14	0.3744994876168087	-0.1605930380701731	0.36382040166957375
Si	8.1566418324503	2.7189108188381854	-0.01983465965417442	14	0.503528865445248	-0.32988181144361906	0.22825424567518998
Si	9.490470831024226	4.107950617812474	1.357301723072739	14	0.3882227622630991	-0.48809092066095083	-0.019031578690268097
Si	8.282428033639308	0.0108858062728239	2.675671129769342	14	-0.32650620726879664	0.3314733256367907	0.03895713070035168
Si	9.589989155852992	1.3855578695656587	4.1168776340699065	14	-0.1916774442802314	-0.312187978851424	-0.05084052237954408
Si	5.459499350589174	2.700472643258529	2.741895483617445	14	-0.10066982903667393	0.2602187412363349	-0.19953911301764815
Si	6.848464903342143	4.037685304183456	4.093626556378855	14	0.00663756549449428	0.4280597252040055	0.0021247614365703725
Si	5.542779590072962	0.02908814091417267	5.446888411526875	14	-0.41838208477896804	-0.19905137433841608	-0.05714641528773926
Si	6.828153102530373	1.386313434053201	6.864487893016535	14	0.18813883202811157	0.24104806574824678	0.04714301581863913
Si	8.219158242657228	2.732720616003549	5.486958442059109	14	-0.19940001621982814	0.04831518273409464	0.28324273226772895
Si	9.603877566664458	4.054954101777335	6.8774176540880285	14	-0.21334337748152318	0.28449434633757703	0.23029236086247137
Si	8.188111311727663	0.00681099894983706	8.222659825477383	14	0.3826678892189192	-0.12438519028865579	0.12778599129561566
Si	9.659148419155594	1.1585413130327602	9.772656697422043	14	-2.898449707751244	2.395182066606523	-3.1204762221199713
Si	5.4488144458563905	2.811472927843065	8.191964472242889	14	0.23903077651405866	-0.34127206512240704	-0.5255213290221987
Si	6.831566244998663	4.1001984388217965	9.527992469195297	14	-0.012215578486555538	0.5364523832908082	0.26602686815454946
Si	5.4012761189444065	5.476178545837284	0.0027187219277163	14	0.9118234756111471	-0.1165042382613379	0.11804124502172242
Si	6.827627919700159	6.859170553342649	1.3733072430479976	14	0.22001359601358336	-0.3156828823131013	-0.06789286419436218
Si	8.279211425286274	8.279460368498931	0.05062718809010016	14	-0.017536995167666016	-0.6346662925256766	-0.06239147014084134
Si	9.761413854173169	9.742369698404806	1.2136101721276595	14	-0.23517000476532426	-0.7770682462347381	0.7838284534530034
Si	8.228465224870822	5.440778384254787	2.7395294312409946	14	-0.7931345691592794	0.3403945468766405	0.030111757067446242
Si	9.558001044882587	6.801126386114003	4.103049275349214	14	0.4342702301048232	0.031176966001583588	0.017502542356376032
Si	5.415785795931323	8.170870902394876	2.733451067798586	14	0.006505667791570685	0.22675863371045982	-0.41486686958526164
Si	6.822643596166014	9.559899782807207	4.003324589699427	14	0.16013126755467452	0.27455599583307666	0.18491003796706962
Si	5.512945711377011	5.448139678727343	5.483418644272098	14	0.016083806440718326	-0.3545052870946772	0.10826924503143562
Si	6.858258853419097	6.833106854091035	6.838706984519653	14	0.1307993267308292	-0.06057292734790061	-0.44465621004556133
Si	8.164433318264027	8.190430414287691	5.376771590340496	14	-0.1586968478965639	-0.15478208293610643	0.2568256535453355
Si	9.464831863832806	9.488721677398441	6.814418643442525	14	0.659518596550228	0.5120057996857762	0.12113608449558465
Si	8.207420788551625	5.514996217312854	8.221130134946968	14	0.3012990907100649	-0.5136240533742774	-0.24988161229667954
Si	9.631052775523468	6.873269692399918	9.575198871823737	14	-0.37145787002307357	-0.0992037847831255	0.18778016283595095
Si	5.5349564404295535	8.159470831853799	8.205154095088998	14	-0.3816019089531858	0.20281650096924095	0.24329778290337642
H	2.150291765440615	8.77812965470809	8.75790520239199	1	0.09533915637641092	-0.08683471130895712	-0.1478514114351153
H	10.434904603327857	0.32859084657848886	10.622716971291847	1	-1.0940888746459123	-0.9219826840626482	-0.6962807746387693
H	0.21642664328915553	0.28194456617853075	0.26449561231233226	1	3.0392143815924353	0.7404317951963522	2.531359631446038
H	8.81891703476101	8.840510674746731	2.124969436545998	1	-0.18327995719409573	-0.2635573214945472	0.16777310678721863
H	6.781132315455231	4.133841803785139	6.837032077115189	1	-0.08847430517161554	0.052125303708022076	-0.030228485248980967
