225
config_type=divacancy dft_energy=-23054.407193527528 dft_virial="10.473154198852393 -9.760364121900336 -1.3040818453327419 -9.760364121900338 4.458987924569406 -11.210243937518726 -1.304081845332742 -11.210243937518726 7.447846315425194" pbc="T T T" Lattice="16.3999889955 0.0 0.0 0.0 16.3999889955 0.0 0.0 0.0 16.3999889955" Properties=species:S:1:pos:R:3:Z:I:1:dft_force:R:3
Si	0.5592232247575545	1.1133460529375085	1.6460012955223529	14	1.0838790154196045	-1.8282284037922663	-1.0699027440098114
Si	2.464098346573875	2.296818458819775	0.13958030634070048	14	-1.6108512191739623	-0.3228914902992005	1.2176065739995503
Si	3.9832129272380445	3.894374186849421	0.8691338168055179	14	0.45418472636203006	0.21926129059690802	2.8068682218002294
Si	2.739814961566221	-0.0027387981622485	2.648434222883295	14	-2.574613336246889	-0.07928388920474623	0.5090960797949646
Si	4.125171231983092	1.2370019699635784	3.896506185418836	14	0.5576866279088472	1.0475611243303846	1.4049231665462785
Si	-0.1771690811183865	2.7658745440800705	3.0138751776700214	14	-0.7650910092113603	1.7295925761743614	-1.9998447988120425
Si	1.4126950520723698	3.8491922171668183	4.187376390243024	14	0.3405621829435142	1.246910489775406	-0.34434710708530414
Si	0.011873592032742	0.0366539754049425	5.350709609638817	14	-1.7105118893724784	1.5670071885916055	1.734918363734516
Si	1.3658238835232308	1.453760624517102	6.780378650321529	14	-1.2039403778913673	-1.3396497444520832	0.8415117155315897
Si	2.8250457043758344	2.5008671219017855	5.513135100650248	14	1.4212121471915447	1.568506914324848	-1.121116076660777
Si	4.079169262850715	4.173337999662875	6.855949799612793	14	-0.2829115739024939	-1.1988238783042726	0.27071347893211534
Si	2.716625377126584	0.0594499601086875	8.180560510790333	14	-0.5718698732969121	0.807052476478305	0.6656067168378067
Si	4.268671135693717	1.2328691727367125	9.573526376101116	14	-2.133052994117318	1.4862672824440593	-0.8424709949265368
Si	-0.2182674535411095	2.711672580449943	8.000685431487687	14	0.8009466155640174	-0.11778156338438746	1.0862930262046915
Si	1.299108728289537	3.925763765786808	9.450542858623862	14	0.13173212374097892	-0.4957918953158584	0.13492620788019885
Si	-0.108699127062174	-0.098039134215099	10.881507498437218	14	0.13851418535446552	0.46160776453182967	0.7794737723722686
Si	1.251909559960488	1.3165747165697446	12.432864457466541	14	0.154045204151352	-0.4805023033085339	-1.630894784918241
Si	2.7282857693023845	2.548263090098781	10.961736244603204	14	-0.24868527699121465	0.4639394999466719	-0.6981067736371385
Si	3.9554313458796675	4.2128783731310255	12.13530305713219	14	0.581438241745843	-0.6602652455351989	0.828757490480463
Si	2.6329198332935517	-0.17639828163559798	13.562036499784705	14	0.6102310217840534	1.295769975505776	0.2246744957379478
Si	3.9015409820404545	1.231704773518032	15.109572261378078	14	0.2337535828444547	-0.4351693456352789	-1.6034454074098081
Si	0.034718776703473495	2.802725319352959	13.679706420827419	14	-0.43250285230775337	0.32601666881584046	-0.15206339617058184
Si	1.4655194166268755	3.9890185233424513	15.15016223414194	14	-0.8253194084463611	0.6561401641595535	-0.36715821059618997
Si	-0.045788769275436	5.616291031431944	-0.19716066770390098	14	-1.1157784620161495	-1.949055955649433	-0.3549230917092013
Si	1.346176696706622	6.784265447713462	1.0355445051428565	14	2.18253031645612	0.7413370813795761	1.7858974686908162
Si	2.9763848028263085	8.171950516567694	-0.203523863434155	14	-0.40952848360903815	0.1062743244135327	1.7341748000759294
Si	4.001449715001041	9.778624638478838	1.4629774183325728	14	-0.0700703332899956	-1.8644678761692213	0.12097076242349913
Si	2.6946985918396007	5.247094479165247	2.6007922548513673	14	-0.27057309658163525	-0.3950760434939538	-0.7470331081058323
Si	4.130337228516675	6.409410899243318	4.093716053089723	14	1.1258301982652685	1.2344429429674761	-0.07928234654155417
Si	0.23558584192035747	8.102660563061706	2.5985618563479793	14	-1.5680816535048954	-0.28811523395994154	0.36716026748044606
Si	1.4797218070969784	9.385172502487798	4.211697573923351	14	-1.100695072655501	1.0514080121103904	-0.8207104450494637
Si	-0.295462201742928	5.347544411762685	5.184758120993352	14	0.43006750134850913	-0.5663214280160325	0.7961656452212019
Si	1.0325925071236666	6.77713145250042	6.4839488492278665	14	0.897112639411388	0.36471694609470934	0.9478598306678105
Si	2.939009227905564	7.990009038651618	5.321944028940709	14	-1.3054391312832567	-0.7332576400215429	0.5365991934045886
Si	4.016947704601788	9.46508964886287	6.736213479956648	14	1.609275388723244	-0.04741709564576692	0.22447754907042447
Si	2.4141275801045863	5.41283276795377	7.993157836538754	14	0.7195055689956668	0.5293039391692005	0.4020157138635655
Si	3.9813105285145665	6.7988450379304615	9.438898866437057	14	-0.2360572932113074	-0.8568486158768049	-0.03171895500307081
Si	-0.1751682824609355	8.07189418370615	8.188776905277077	14	0.8906589079472842	0.32262049579845686	-1.0891281840412188
Si	1.442018232396324	9.336677735028104	9.547220793752334	14	-0.5237806907204584	0.9491788076970468	-2.8819126154425834
Si	0.0063139957632675	5.222494495671997	10.899252286530348	14	0.07402263638812723	0.9863845014533132	0.7123283284944735
Si	1.288940735112327	6.862362195310033	12.37495609632343	14	0.28238269753813944	-0.8594428611448344	-0.47053207109806366
Si	2.731778966958426	8.178477712187904	10.872815504269603	14	0.9983175154651848	-0.977734274714207	1.8725627441591757
Si	4.110444041865133	9.768325445389664	12.13467985755036	14	-0.21732859072775274	-1.4000244395798005	0.766214068015201
Si	2.7865713301923916	5.483631520447344	13.779155954096131	14	-0.9349891345456814	-0.18230602249882363	-1.1262073794157341
Si	4.3167395034395275	6.764929860687768	14.906113997899904	14	0.26887462440714543	-0.010623035851255819	0.310521131272372
Si	-0.07934314676022901	8.325749613367494	13.623257658704906	14	1.0405906006969314	-0.17678843048178589	0.19215438431711884
Si	1.538122167909954	9.508598819667931	14.988425542668319	14	-1.4074901580979142	0.24026130752028146	-0.3680462703737691
Si	-0.11047032587368799	10.784796763330755	-0.1420075047120345	14	1.1561656414955674	0.32940872806471183	0.5103140123851189
Si	1.051731294281415	12.386272088730324	1.3421750993917199	14	0.4455046748012102	-0.7199519128792446	-1.064114414602562
Si	2.609992648677843	13.569941294480536	-0.07767034788268799	14	0.7651838261134177	-0.6170249104820127	1.007681223930632
Si	3.935406959316162	15.017945522860218	1.3758770767774724	14	0.574022659781472	-1.0867285714459247	-1.8065994945075847
Si	2.381901601728429	11.062563376947539	2.7099833815834065	14	0.871086368697657	-0.3524124073640767	0.6727261074692967
Si	3.755499080035527	12.46312243716324	4.1083776432517	14	0.6536297369249608	-0.2829516831454882	0.2250822730417233
Si	-0.059072760361791	13.794293143938978	2.7659401440360525	14	0.3689433290199688	-0.7510162644678058	1.383073399314596
Si	1.279428741494937	15.112278259562334	4.242955952948773	14	2.3555019410901457	-1.9093251793582489	-1.5377300123110793
Si	-0.10017113278451399	10.76844597430224	5.566057865138727	14	0.20452602889660737	0.38642093165473934	-0.7498137585095724
Si	1.2720487464469619	12.275375363142754	6.841403009373784	14	-0.9254295078548388	-1.045935414436455	0.44433867853852305
Si	2.544851892387717	13.807363935168391	5.84710447655461	14	0.8449315427179186	0.3628634362694146	-2.6001220434596743
Si	4.071674467879771	15.243576571460308	6.844535407271925	14	0.4004409118549748	-0.4601198658830599	-0.6967515440228883
Si	2.750146954633386	10.912585477583692	7.996585434238813	14	-1.0408435974604338	-1.017735531285071	1.0617813936350595
Si	4.153510412967316	12.245150183424048	9.252840991283108	14	0.3464204464154716	-0.84749287783785	0.19873204305765368
Si	-0.072684751228056	13.566776096604405	8.243536468533051	14	0.49697768908951073	1.348431611783581	-0.22238364089769586
Si	1.4235354447983954	15.05832229576714	9.574165975671939	14	-1.0976930500836959	0.047603243670945636	-1.1486384735603021
Si	0.12214711803848399	10.748683987562663	10.677344035432238	14	0.9833788793340602	0.9198404391099008	1.1260682826179143
Si	1.6568908882153648	12.148997047943432	11.978174762566304	14	-0.98792305087689	1.2084009885112919	0.34680945465041
Si	3.0539895507530144	13.786257149331183	10.473639772119133	14	-0.9915040863667923	-0.7578158095974693	2.7246023646451754
Si	4.117266437287261	14.939881575241639	12.315473336236751	14	-0.3061271122802389	-0.40058540797396713	-0.10273134128236866
Si	2.7731889391720634	10.916455874986628	13.658353635155278	14	0.6913128849391791	0.680093866874713	-0.025159293999777014
Si	4.319543901557758	11.989277555116256	15.31398172421799	14	-2.2113035560938967	1.1829871550848203	-1.1714261800127745
Si	0.057203161616304	13.555870103922398	13.543455312252805	14	0.6155606660021883	-1.4271915097240808	0.6178803172220259
Si	1.371170279935764	14.953378766184937	14.935699578047787	14	-0.34777773291397773	-0.8829401926656676	-0.20508755829852773
Si	5.325306026684787	-0.1979970671426715	-0.183975076551519	14	-0.2642638612365239	0.9429431059640914	1.5347256757444863
Si	6.77567185347982	1.1101316550943905	1.2480555625465455	14	-0.6032625550348559	0.23743900521035494	0.7636290787263241
Si	7.849067533224291	2.619767042119161	-0.15670189485200248	14	0.8393584148259656	-0.5537921746804189	0.9859263304852629
Si	9.223829410750069	3.924238566810226	1.201561593744303	14	-0.9656189693351374	0.3706268887836017	1.6121470562553173
Si	8.331260009669982	-0.32450658225395845	2.4907483286915624	14	0.021667732975015924	1.2397964984650882	0.4120553659176798
Si	9.554699188734281	1.284709537951488	4.0013021151000805	14	-1.1133477390464817	-0.29015283492615895	0.2798370461606608
Si	5.40346837423734	2.7614793470292764	2.650713821353669	14	-0.02452757342261663	-0.4447104603678165	-0.8438416511727078
Si	6.592811976179995	4.141013621352745	4.206482377422782	14	0.8661470182671204	-0.7114284416324217	0.8054524776375769
Si	5.57337226023072	0.0294379802469225	5.419113963739047	14	0.23569013937159025	-0.38806823883335817	-0.7967384874865309
Si	6.852702601791684	1.463141418222528	6.91995895666223	14	0.2270931345126111	-0.7451957962440544	-1.4361908925656632
Si	8.235976073606126	2.791638926792001	5.528469090361041	14	-0.31664036193432443	-0.4143189670415381	-0.7140761658911101
Si	9.539266799089516	4.2537307457188165	6.920926556012963	14	-0.040526276277238045	-0.32338282852588074	-2.2581460097006105
Si	8.12404614871184	-0.032111178453189	8.176788513321368	14	0.6497537956548376	-0.4224189772421327	0.2579029466744775
Si	9.711696283388202	1.5025505917787145	9.347075328051252	14	-0.5166451021254513	-0.8504748457881578	0.9780255809469799
Si	5.510576702366951	2.728269369313389	8.240748470403817	14	-0.7806572521511328	0.6080404400512872	0.39885891075148766
Si	6.992348508088366	3.8939313871465426	9.654804721562813	14	-0.49203113956407774	0.0650649054527313	0.7130646930581639
Si	5.3452156133253235	-0.05174196528080249	10.962441444130011	14	2.037314287974156	-1.9645664056037582	-0.1925649898367465
Si	6.755565466971337	1.4240930444242423	11.994492751616827	14	-0.996588961358449	-0.080964106531463	2.384723838606289
Si	8.403059161492282	2.542031094280491	11.06864777286487	14	0.980856882125527	2.120317795245561	-1.5209448083390245
Si	9.805389420519495	4.440034620707697	12.277458161745182	14	-1.5229255878776666	-2.24605101605357	0.3627492791932
Si	8.272597249033078	0.1790714798418645	13.296422278013589	14	0.14651932176874657	-0.8317507712941794	0.4098254462735153
Si	9.359998519379706	1.3633638851739058	15.074738684751635	14	0.8214393534077256	0.00013112637132755203	-1.6091686878524574
Si	5.198386511848613	2.764677344883399	13.743239978195987	14	-0.23104440916861466	-0.8831715921444809	-2.0372541241096647
Si	6.760469063680992	3.956940144867253	14.831215248157456	14	1.016538938869074	0.23661650861843958	-1.7743910010515576
Si	5.603548239982439	5.2019125094826455	-0.2225970506359215	14	-1.0448390951279438	2.393464568252664	1.7754477253381384
Si	6.789283844346085	6.68955551126445	1.4933993979192255	14	0.1923045368678155	-0.08050156468436837	-0.9942999062919211
Si	8.379705577162689	7.971296651207752	0.1243939165308675	14	-1.3983601631060685	-0.2885201830478649	-1.0200536398417164
Si	9.700987090574142	9.462613250524548	1.2114999870755758	14	0.6423281863797179	0.7791076469746796	0.8463603059443249
Si	8.067318586776405	5.401401975623907	2.9902919934944925	14	0.4752603337818159	0.026429934248994195	-1.0673990016490513
Si	9.360375719126603	6.8937189742694285	4.375943463713283	14	0.6278731751593134	-1.4518643505972861	-0.9359106186924223
Si	5.424886759865463	8.099593765119549	2.731565767101485	14	-0.4502090262054852	0.7318885264385641	0.9146738029690633
Si	6.972914521128699	9.662676716280654	4.232935559672523	14	-0.6202984417756252	-0.9726018342741275	-1.7160312811632403
Si	5.6712965945228495	5.550182675791083	5.904816037829774	14	-1.0688321357545019	-0.49967015058076975	-1.838465259624436
Si	6.950512136160846	6.814949827124043	7.384570644904744	14	0.03789037910302224	0.5649317455904924	-2.624439300467103
Si	8.151056930587428	8.22134728342214	5.71524856503079	14	-0.47391821680469864	0.7452197075235318	1.384880629244128
Si	9.542038397229756	9.75554985396217	7.000056502916252	14	0.8398399828524294	-1.5583955284323017	-0.7641746672752595
Si	8.24886646495659	5.314072034222869	8.38779077173747	14	-0.03208199507427571	0.607360125583576	0.7501690852648168
Si	9.49172323099156	6.9492165370302015	9.561127984420517	14	0.19439844504054407	-0.206324774178583	0.44760552495830314
Si	5.533815486773574	8.212196089562651	8.379984376975612	14	-2.9813948509318813	-0.505212682319413	-1.5805679693816626
Si	6.9434929408707715	9.075065110571888	9.72322547565204	14	0.09256801906235533	4.8494617603282455	0.10071250938498838
Si	5.565041065821006	5.49629231195187	10.803902750510511	14	-1.1835975354878234	-0.9553504889075299	-0.6984736703663236
Si	6.8617881956951905	7.1373080108195905	11.680777362121905	14	1.381647721414574	0.6001083230280984	1.821436571978563
Si	9.273603377351412	9.521341611117435	12.435734455540752	14	-1.5694739070357557	-1.7028749352400425	-0.7036421062808852
Si	8.01059102484097	5.439548350027439	13.366138631233458	14	0.020596353388110215	0.6620727325752631	-0.10305812876855949
Si	9.379219306482431	6.56443999521778	14.9272699837041	14	0.42181219638657763	1.2722520751423816	-0.3448731552338065
Si	5.469199530131304	8.332522808822635	13.63465565105678	14	0.5074055780469673	0.01853818357933168	-1.6375853151823305
Si	7.003238100781378	9.367985314020515	15.099010668464976	14	-0.4395929323385937	-0.10345279343520221	0.416383050392553
Si	5.665523798396435	10.671128439602944	0.146091101971914	14	-0.25711978799396046	-0.654779278113599	-0.4478816616696871
Si	6.7937938413198475	12.217335802087678	1.2980427290048293	14	0.23299330700128693	1.5468700346136737	0.24571590745697564
Si	7.927639880501731	13.84483791002311	-0.1591946931793185	14	0.838357740635364	-0.5591231044512139	0.3967840287581282
Si	9.750137857593655	14.68914214348944	1.182340806641577	14	-0.6245268815851407	1.328954460541331	-0.6230639226579765
Si	8.316959219265906	10.877604301056289	2.456882351415855	14	-0.5337784337578542	-0.03627803895675738	1.3684430387113575
Si	9.574936775154729	12.332578524759057	3.8421566218877485	14	0.5966193331086574	-1.0320375617389268	-0.06423700953964363
Si	5.310054036918972	13.63414725139792	2.624588638883838	14	0.21451657283910675	-0.81550729921308	0.7268422180267093
Si	6.929733350103548	14.824540452636287	3.8795649967864843	14	-0.8776851105018169	0.9928971112292485	0.9880153535578833
Si	5.267086065750762	10.862762311015361	5.247783278703059	14	0.04887414103069484	0.8059772402334191	0.4855198153408028
Si	6.797565838788813	12.217745801812567	6.5932547758828735	14	-0.9431979025013181	0.2768957016744114	0.47385753871914316
Si	8.298099231921082	13.530318921067408	5.296261646173756	14	-1.2347692162326027	-0.370787325755579	-0.04005113601407468
Si	9.432552070695797	14.830378848718684	6.7689806579696565	14	-1.6585236255780202	1.3212730262868566	0.2768005707775659
Si	8.046654600642075	10.962457844119006	8.197846099191588	14	-0.06054387385778293	-0.30826704323819815	1.3190814161119626
Si	9.463794049732225	12.13587705674703	9.861395382939127	14	0.6594499480381801	-0.6186349366334893	-3.212422547915915
Si	5.323256028060349	13.706946802548945	8.00763902682178	14	1.3755768275326405	-0.6577669024956112	-1.3321246334010737
Si	6.747365472473587	14.788116077077282	9.3888133000448	14	-0.16238407003618827	2.285659407731515	0.784359643812146
Si	5.46057313591967	11.045654988293178	10.796604755407515	14	1.393492289403432	-0.6970436215872572	0.1258332368049632
Si	6.77042385700126	12.460318039045008	12.276080562669561	14	-0.8315448257580357	-0.23819773839033068	0.3375413913028722
Si	8.153566128903739	13.611974466276004	10.703338017990106	14	-0.526430728973935	1.28993613753436	2.4659288577062495
Si	9.66997471138365	14.929811981998402	12.084512291213125	14	-0.13182339797984416	1.0066083016805343	0.208235105431453
Si	7.917717887159454	11.043112989998875	13.792882744885365	14	1.516473141966223	0.46382714264418146	-0.16363748387976043
Si	9.610491951296973	12.573133563345051	15.11327865889106	14	-0.8546855449709644	-1.6225888291815025	0.08167990225259224
Si	5.258443271550133	13.586390483443024	13.912045064926668	14	1.7290986668423607	0.8848129857808635	-1.1848895159111978
Si	6.901459769075306	15.452610831196951	14.810157662287233	14	-0.3875149369684624	-2.3131260116455934	-0.3540836258221729
Si	10.891478691746482	-0.009183993837479998	-0.193651070058864	14	-1.119361554390308	-1.8690447007496167	-0.49030515656266244
Si	12.121100666662086	1.0907140681237184	1.220126381287209	14	1.4666114393820593	3.165341752846023	1.1969140612724665
Si	13.576960489770611	2.712902579624606	-0.21506945568698702	14	-0.7334252760884166	0.6189141586712574	1.0142365140548815
Si	14.880546415055921	4.2710983340650515	1.2948611311397025	14	0.9749225139360932	-1.3471357747022263	-0.6304918459278842
Si	13.567973295801078	0.1945530694536165	2.8923676592023617	14	-1.3060153159855021	-1.009297934955941	-0.7121856321492053
Si	14.858472029867976	1.4744410106404273	4.196839183893427	14	-0.10913133664528125	-0.2022955950313789	1.7772464706201139
Si	10.677672035212149	2.691861393743379	2.475397938991774	14	1.8595745485239155	-0.9891962622314273	0.9813402499257148
Si	12.319917733254531	3.8550798132162027	4.062867673789188	14	-1.4024628758654287	0.2917199236187892	-0.34036677893918293
Si	10.687954828312327	-0.22969824587097298	5.525549892319842	14	0.8927183633087228	1.0531054558427522	-1.6848172912450465
Si	11.787934890218503	1.2924011327903775	6.865773393021097	14	2.239469757765587	-0.1004852236746873	0.5086309668425499
Si	13.467621763137613	2.548459889966727	5.6791521892516945	14	-0.44744688776005	0.581784569632467	0.13425694916536432
Si	14.799940469143039	4.187212390353069	6.8907341762722485	14	-0.18362217131220743	-0.07006210575297113	-0.8737916857155167
Si	13.56574289729769	-0.204311062905939	8.082636176498202	14	-0.7469019817345047	1.4813101913868139	0.3115120352627571
Si	14.89989840207061	1.2916795332745754	9.450395258722901	14	0.712388492358965	-1.0244373744125692	-0.8508116605850973
Si	10.982285430814565	3.1141775103664995	8.16916251843846	14	-0.27526767778569367	-2.1103671034355234	0.1505271607417934
Si	12.539546385882268	4.135027625369388	9.454183656180861	14	-3.000335155383284	1.287191482605102	0.7062191251432697
Si	11.048984186059263	0.146222301883878	10.82927353348655	14	-0.9594079502132556	-1.1318180454453612	-0.6680968323403701
Si	12.343074517716179	1.4374098354885885	12.183059825087085	14	-0.3177755049331698	0.01693329963849525	0.4977747317387566
Si	13.582848085819997	2.711705380427934	10.638246461666967	14	1.3796911102659413	-1.4662982787540653	2.7016933020215923
Si	14.911985193960293	3.922352568075744	12.201624612629992	14	0.3477080559598017	0.8822565357610402	-0.071900446056877
Si	13.659649234285922	-0.0547267632779835	13.511967333381445	14	0.590066099868664	1.1594103764095944	-0.23557675362697172
Si	14.937683976716242	1.4651094169019878	14.795102472389365	14	1.1720956958381412	-1.6446553405916735	1.535832793695342
Si	10.73728599521079	2.6640306124180153	13.517838529441834	14	0.9611853553210742	0.550166144847414	0.7026051795052696
Si	12.09546748386212	4.215157971601401	14.823277653483633	14	0.6432514703001831	-0.5726561173038133	0.2885901171125729
Si	10.555131317437773	5.258066071803237	0.010463192979129	14	0.9964385516972204	-0.373739468884173	-1.9164669386060245
Si	11.818668469596071	6.578101186051032	1.29035113416594	14	1.4068234704883997	1.1606231667891083	1.5944902475797325
Si	13.406335004261429	7.911518691319155	-0.0349155765714195	14	0.28927660223305246	0.5017997971174484	0.011748151539352616
Si	15.097993869147254	9.24846219422131	1.0966508641400894	14	-0.6430491243114875	0.10339622911815895	1.6624684724707233
Si	13.452304173415815	5.3662403992175545	2.6704922080822424	14	-1.3237106912408891	0.11758076005888388	-0.7195917010238918
Si	14.757858097380584	6.718829491621418	3.8981953842853723	14	1.6901991289011804	1.2582390369265106	-0.3401896297826247
Si	10.641050859785198	8.071188984179342	2.8880872620745364	14	1.7067971564059283	0.7725970940830006	-0.9483455124627864
Si	12.323706130712491	9.485048435470393	4.1234000331715785	14	-1.4299780736700576	-0.07287386653108506	-0.5801259495904395
Si	10.932265464378291	5.400221176416231	5.384411587024569	14	-0.4132388456965439	-0.2088670831191454	0.002886065721866219
Si	12.225912996332326	6.710301497343758	6.783445448263688	14	-0.29023768140172385	1.1001150312952754	0.38427714403879987
Si	13.571630493347074	8.042521803415209	5.419835563254849	14	0.6363974177377324	0.11481733606078873	0.8200193319394079
Si	14.77612768512157	9.48167003773732	6.916088559259292	14	0.707526789309097	0.003809606752863409	-0.12355240927545984
Si	13.569334494887704	5.662932600135146	8.32558561347754	14	0.9926816526034199	-0.005932054194645648	-2.327522144554166
Si	15.074017085235832	6.681601516601632	9.583727169256315	14	0.19741949379171808	1.0138570189096276	1.3341522070565426
Si	11.062546976958542	8.202356096165353	8.329095211122576	14	-1.0577221325556099	0.605535669248399	-1.5326765048043283
Si	12.212202605532088	9.660905517469141	9.691311097066796	14	-0.30850075671179966	1.1256201389606124	-0.3022496283469236
Si	10.986729827832347	5.652502207134007	10.829945933035367	14	1.2742999605298795	0.16542620185098747	-0.6158897674831673
Si	12.354964509737917	7.148115603567625	12.102306279273243	14	-2.005881496993218	-0.832802096259588	1.2172093382275875
Si	13.651318039876209	8.321682416096609	10.781631565454624	14	2.147360166781814	0.07868019367557548	-0.09485244613930689
Si	15.209005394657794	9.593255562862701	12.096861482926736	14	-1.471240200289922	0.36654628752999474	0.7039370120611063
Si	13.573778891905485	5.636364617962435	13.293339080082434	14	0.35037249240307117	-1.2302643826011712	1.5692175678353368
Si	14.939684775373694	6.942754941365974	14.836151644845101	14	-0.5541279610352302	-1.0218256456283623	0.028745214589787536
Si	10.820122339627062	8.28155164302462	13.766085162866718	14	-0.5421252700691829	-1.6416983123629714	-0.9297456223557712
Si	12.399818479640608	9.471813644351025	14.868541623111213	14	0.3106753975915809	1.6171866797933394	1.1367142013065195
Si	11.148679719162908	11.06485937540691	0.0665675553327345	14	-0.23993760536047484	-0.4007854399678747	-1.3958823889090417
Si	12.688540285906386	12.392356484647655	1.3250043109134315	14	0.7756402543399278	-0.9317294872207976	0.4178832903468594
Si	14.115126128657943	14.178610486059526	0.32478538206688196	14	-0.9647352804366025	-0.8640094013039493	-1.3357095255489562
Si	15.368068887925148	15.581547544679573	1.87419074240574	14	-0.31725562743743585	0.5540989075451125	-1.3656233075067512
Si	13.91578426241764	10.636770462657372	2.80472611801041	14	-0.6417085499975622	0.6395891878821641	-1.5902875188234182
Si	14.963136759637257	12.314456536919032	4.028575296799597	14	1.5254637830497169	-1.3086427285121613	0.031673446438904185
Si	11.149893318348576	13.491040947423187	2.59185426084882	14	-0.4283764853794477	0.4869964011261639	0.3352495080204922
Si	12.156262243068438	15.023045919437818	4.0154061056362105	14	1.1698272096141744	-0.2289337888113051	1.1432412092722473
Si	10.755276783138855	10.917620274205309	5.306216439494025	14	0.8844954542738253	-0.4492939698220444	0.33757970077214244
Si	12.167545435497342	11.995115951198654	6.902000968712157	14	-0.04800485032195277	1.5842269093627654	-3.2948367578479414
Si	13.720722793305164	13.532500119603812	5.40642037225653	14	-2.164449018292178	0.833705325558556	0.9301179184061288
Si	15.01768312303629	15.03995430809218	6.725569887098568	14	0.5505106729603139	-0.8665344838388667	0.01978388410694342
Si	13.575615690672981	11.047278587203731	8.242831269006246	14	1.0898743188051256	-1.393003522282072	1.7686319822449577
Si	15.15919862807846	12.246019382840808	9.697362693006136	14	-2.2111971123336427	0.821689007734312	-0.26662002215190755
Si	11.145383321374814	13.298701876483962	8.382624775203888	14	5.677999421303836	-4.730314168687264	7.276113641832317
Si	12.338646520687394	14.955723964611293	9.632205536727016	14	-0.2943115977814984	0.23540551801264986	-0.4169360951469168
Si	10.661567246018567	10.865435509221628	11.253656048723103	14	2.124195022068344	-0.48004901744059175	-0.666515602568479
Si	12.318589334145896	12.21864780120732	12.429896059458354	14	-0.9215209135471496	-0.37189007282739045	-1.1580770011905657
Si	13.550294107663929	13.713769197971073	11.187137693357357	14	0.16272114194365966	-1.744571835769544	-2.1751152487128125
Si	15.017519123146336	14.824884852405193	12.374398496697584	14	0.7991998066095087	2.0123128598410362	-0.2967916859733133
Si	13.855776702683107	11.053920582746908	13.552540906156311	14	0.25063288927122684	-1.4042137985884495	1.1587693998532818
Si	15.008253129363878	12.379384093352215	15.238066175157819	14	0.24874389819251402	0.754582387546851	-1.522672591114164
Si	11.047475387071678	13.61607446352488	13.643577245070333	14	-0.31006193186219355	1.5486973191647029	0.6547895625348795
Si	12.49124841829052	15.155311830686527	15.02916311533314	14	-0.6973079312141683	-1.1225474109925033	0.3404289996879305
H	2.3557321392883095	14.009037879843854	14.03601750174035	1	-0.14686102166579423	0.05370781903257322	0.3193266527728152
H	12.103575638421495	12.39645812189543	9.300960198994806	1	0.25687064788843805	-0.26156651464515657	0.4394147547399075
H	10.32961998875735	13.937173128065574	7.703066631191851	1	-6.00709447451949	4.664802919350954	-4.783607525542229
H	10.399385541944207	6.046861262516499	8.668607783307417	1	0.30930165601902576	-0.2884798166943386	-0.2600847866491552
H	0.35037264489766107	0.7017752091042396	3.0970296818728045	1	0.006855595225642838	-0.4124325470681454	0.9730065262515188
H	7.821640191628217	8.33217348905703	10.620872313325135	1	1.1567708796879306	0.08799659380313204	0.12038635018422945
H	15.952512015759982	0.4137996023377573	15.915044600900863	1	-1.1629682719516155	1.2459684367861035	-1.437122661133685
H	10.082578754523636	10.36366472591311	13.250961508518062	1	1.4099890153585661	1.5923706283538022	1.6828923046918518
H	5.982916065424145	6.289128459953623	12.500840771853987	1	-1.741478538958874	-1.427209507461322	1.3472108509775744
H	3.305171782208092	3.054101070678184	-0.8259378857902705	1	1.3903717388763683	1.3013911830672158	-1.7456373018142135
H	14.940911494550555	6.710301497343758	6.783445448263688	1	0.16309266666242106	0.08176834827560533	-0.03938007752551603
