223
config_type=interstitial dft_energy=-23321.196740217187 dft_virial="42.264317187544314 -5.224172917704958 5.571386854939741 -5.224172917704958 40.903398192175786 -17.12922090358264 5.571386854939741 -17.12922090358264 42.59157630080008" pbc="T T T" Lattice="16.3199774331 0.0 0.0 0.0 16.3199774331 0.0 0.0 0.0 16.3199774331" Properties=species:S:1:pos:R:3:Z:I:1:dft_force:R:3
Si	-2.754306271406854	-0.2687084284359915	-0.0143942200959942	14	2.9022608571672994	3.327979333866778	1.5323656581711222
Si	0.0928117116620397	0.0601717567958397	0.0173644559888184	14	0.4155595253585095	0.2754111454625579	-0.28865490896664064
Si	1.4404664881551383	1.3564675643069726	1.523796292928547	14	-0.3728274978271165	0.0772254622854357	-0.7156689656369418
Si	2.7767136004225	2.6279406861423604	0.0327868346630979	14	0.6517813693103064	0.6226368620642999	0.16485438802778654
Si	4.277302885441179	4.051369117857343	1.4739714018252925	14	-0.9012261508130929	0.031080806662610053	-0.6001304345338516
Si	2.7575049869837414	-0.038107147306288496	2.869019392784114	14	0.43927282972623527	0.9384794100177823	-0.40714841141417707
Si	4.175188786642272	1.3193396156466701	4.1685139158721345	14	-0.24727862527056163	0.0943456812807057	0.07747974460159833
Si	0.0025622364569967	2.839170154058974	2.7219927160893156	14	-0.3299743712351444	-0.9467192883477927	0.052196266214858164
Si	1.4944529735038332	4.094617058055058	3.9523068548384255	14	-1.602697215761645	1.1659510112335192	0.33705956616587646
Si	0.0480460135630464	-0.0575768803839768	5.485960414136565	14	0.32336971588874797	1.087240478515166	-0.39504699000383614
Si	1.5230618939440577	1.4608664599465133	6.677318766752865	14	-0.14858700466720964	-0.6141406445338705	-0.39617930478682933
Si	2.8317445643269132	2.91264269246279	5.308807059100265	14	0.4217993408599769	-1.4034483805346416	0.8646699182606953
Si	4.205609224577571	4.109092878038217	6.745356752671459	14	0.7002436192687136	-0.12307212680165616	0.05817408608420245
Si	2.7086919344813394	-0.1195764746523237	7.9579800358830886	14	-0.018190570140047657	0.30084349084733464	-0.0408777463745023
Si	3.985632248756816	1.1959932262073005	9.350596350204377	14	0.1285717210814529	0.9275869223289751	0.27530033082325955
Si	0.2948040723515184	2.768210892179855	8.128148440578022	14	-1.3112138338323094	-0.1798555020181905	0.19029316117586365
Si	1.488724661424815	4.253410438479121	9.470923543818625	14	-0.5009819285151093	-0.06802244790249766	0.5302079397997645
Si	-0.057984879819804304	0.0929912314138038	10.858774424729448	14	0.8900989212085559	0.007571133836240048	0.6833092911880901
Si	1.380833290614591	1.5892883623675773	12.194793057312745	14	-0.7021688629324404	-0.8727521878345809	0.15172452448938634
Si	2.817823623576479	2.75433891136172	10.7104911097723	14	0.08214758631032718	0.26847970262997073	0.7516058189177156
Si	4.238755098744197	4.139284836289452	12.200831448962992	14	-1.58681164154111	-1.222879139679578	-0.13621150342974092
Si	2.5773324361223175	-0.0050918329591272	13.526568495763438	14	0.9289035853634228	0.07725117333863717	0.5599893098335718
Si	4.197106516334926	1.3081767510824296	14.919951849024082	14	-1.1870507870433145	-0.07324436280771841	-0.1316413637231777
Si	-0.1342481343646806	2.81030011397982	13.618972207989652	14	0.3125965274867955	0.3775562747319328	-0.1691771874025515
Si	1.331383758992298	4.108668558624957	15.013661159444943	14	0.3200609604522494	-0.4790198039809364	-0.12781350212254122
Si	0.005809911966183599	5.433279526982518	0.1392583674366423	14	0.21248231430980563	-0.12485955922022311	-0.7709950383580163
Si	1.4530981506883578	6.8683604225847334	1.3001799621402108	14	-0.05846513520644321	-0.20593987971215677	-0.12335906215538468
Si	2.8107081134156475	8.163415911810953	-0.143126202088287	14	-1.2223487206520314	0.33253596346560793	0.5910024964262619
Si	4.060736784903942	9.470009625082369	1.2728439999397685	14	0.09492443708827103	1.0745970681033379	0.04168661610822088
Si	2.772307206515563	5.548596487524803	2.7293203859567776	14	0.899547219039036	-0.26116953598372566	-0.647347498185711
Si	4.1547724948734635	6.88308104222939	4.10010057047258	14	-0.31324984534864514	-0.17347119039773082	-0.47840685247261316
Si	0.0494658515997261	8.177924371748976	2.592232575518738	14	-0.7069143520218376	-0.22458270727801852	0.5613537954269744
Si	1.3126810648539655	9.4678064281289	3.975693382500058	14	0.04946575236486091	-0.007810246631013819	1.1544753968581025
Si	-0.09312179123326861	5.467225080043367	5.34921532322462	14	1.4055667142079116	-0.41188824407187	0.05181111463789998
Si	1.5371133945139568	6.6254538784704735	6.701439693398987	14	-1.7854482965913863	-0.22495088955986373	0.915017045529303
Si	2.592820094706329	8.051134467071224	5.381284078880661	14	1.2936382720848414	1.728617355926429	-0.5486648764509796
Si	4.026807551820527	9.541850165742876	6.707004805703673	14	-0.8408450279220753	-0.2209157968704233	-0.06399738252380584
Si	2.978542761337648	5.481700900026526	8.142265221057654	14	-0.9954584463491799	-0.21181511247922719	-0.20315871508735261
Si	4.020720200237981	6.855565560277183	9.647815779215994	14	0.3689512994464612	0.2562517828378785	-0.060314017042161695
Si	0.0565324018282584	7.943569495809661	8.138919625683869	14	-0.2614832108327837	0.5127264805070137	-0.1581934254748789
Si	1.3475242166736339	9.438087749223227	9.43583559233746	14	-0.02564626134741306	0.3876843728090601	0.35154774464491084
Si	-0.1435178815466814	5.538853460997242	10.875029122252815	14	1.8598825669412693	-0.5564524973551761	-0.20108588997824925
Si	1.2664465687859932	6.784720538240096	12.32416151842493	14	-0.7799072607292455	0.2779678525929132	-0.8987774301061837
Si	2.586226823823357	8.133387153334047	11.007808458648515	14	0.8117617129826883	0.5382004777979769	-0.2638895083019104
Si	4.028211069879774	9.5776072362988	12.342407253195136	14	-0.2874865987091654	-0.4834086807624292	-1.2286067910012717
Si	2.6737835027519385	5.405192845820154	13.385400690967124	14	1.2312000078271732	0.03244143559803242	1.7119465661411208
Si	4.127240692943825	6.778241507199155	15.002563574790436	14	-0.6993172500218641	-0.9083529976500112	-1.4369380557716982
Si	-0.008975987588205	8.160739435511923	13.666528622229704	14	-0.35689847192667107	-0.03635080123731757	-0.2504002042397534
Si	1.398801585768434	9.580022592958898	14.868527600132385	14	-0.5711175678802367	-0.6575074779688082	0.9063413648475274
Si	-0.07748725285235879	10.851332515019955	-0.0473605745108562	14	0.5019705185107063	0.7157239872907931	-0.1029123470969071
Si	1.283419345316417	12.196245535304291	1.3907884768487822	14	0.10040577652029473	-0.20757484558523898	0.014703637104862832
Si	2.6701931077166567	13.736394445620805	0.2977743082443426	14	0.595241991988654	-0.7079134835492472	-1.3501928189278822
Si	4.1843769339371075	15.048928630677873	1.5540208911346483	14	-0.021433762390882447	-0.856709261968453	-0.29589616999030566
Si	2.6856644463232353	10.79377195461341	2.6958154722866237	14	0.29708736308513034	0.16087457410272935	-0.4581537416447427
Si	4.055693911877114	12.131340985052853	4.048105122370722	14	0.6791471858958344	-0.21840048453572247	-0.4340444870577142
Si	-0.022195169309016	13.509856838871944	2.828415288930561	14	0.6019248089367829	-0.6922389970754965	0.27599864302821175
Si	1.3179360975874235	14.953815802197767	3.989434803498728	14	0.0591315657054256	-0.5980432112349554	1.4580663708505472
Si	-0.055406323385374504	10.715142303340734	5.489550809171847	14	-0.24617227865130192	0.8961677582062335	-0.1386805358686791
Si	1.3560106049388458	12.254703694469656	6.8187476911881095	14	-0.09603361192338292	-1.121132531734826	-0.8867042908543645
Si	2.6428897854710804	13.411577934769817	5.28840708730889	14	-0.032506741673164176	1.3642223122178023	0.28786532252282315
Si	4.063021581744576	14.820253106885277	6.631622829940185	14	-0.9274048880723086	0.04507841824656022	-0.2637383273090856
Si	2.724440712704281	10.897534371133059	8.120233251522968	14	0.2881913386774179	-0.39281424214381955	0.5918671591454278
Si	4.29283950395749	12.129611067444944	9.483897925877939	14	-0.895067582239742	-0.3856020346102722	0.566104683837544
Si	0.1827021473635545	13.593529363171447	8.203497776386644	14	-1.519739217054407	0.8543911534118074	0.45285006559034124
Si	1.4213884345358445	15.128896520100062	9.574261640925014	14	0.14311800654072268	-1.3552316711343084	-0.1622891962498748
Si	-0.0277929215685693	10.831128382957775	10.838456052825238	14	1.1958064291005466	0.5457957800242264	0.18083509314516694
Si	1.3945910315906944	12.297527315254111	12.33274582655474	14	-0.1595265435833757	-0.33462755764354835	-1.611515849899221
Si	2.885176170442883	13.587458331566335	10.80788873509304	14	-0.9041407558040127	-0.1670395704393804	0.05548959501943584
Si	4.065436938404675	14.906879547100171	12.288698207462804	14	0.7566104754233838	0.6046128995489978	-0.20283886958552616
Si	2.73054438426426	10.920676099133196	13.616720051103883	14	-0.10505664893391058	0.8125983506538643	0.13800587783267226
Si	4.017211405089864	12.215633668494814	15.060581094565105	14	0.32648101043665917	0.8260614294417558	0.28943421098917754
Si	-0.021689250008589903	13.547213267216309	13.694876423031	14	-0.7916381858629532	0.2659795598166587	-0.6721344961351307
Si	1.3446192606905423	14.840000279579327	14.980401045436286	14	0.40703991076966684	1.4109279830214843	0.41204559571746313
Si	5.470652275304317	0.043525379814077704	0.1270999842489828	14	-0.5910230652688231	-0.6617719132528058	-1.0207933468423231
Si	6.941343361665557	1.2750471968932369	1.2870097403516991	14	0.0928297575839464	0.5504651643961472	0.6566731542924201
Si	8.25284938814434	2.560196459817562	-0.0995681823193431	14	0.10485456005574693	1.1582850036109658	0.39787546296653103
Si	9.455272685460281	4.018957642675206	1.4264639475175385	14	0.7838135410421465	-0.39820353600538194	-1.073676098177661
Si	8.074161955229327	-0.050967289523571296	2.7924297386905756	14	0.5127629902025598	0.23483833217902514	0.18155294575055228
Si	9.60225040222278	1.2091634479958122	4.107966799595333	14	-0.46558192202518256	0.7867985943188386	-0.23331392383470936
Si	5.602942012377026	2.517160679326478	2.772062406854067	14	-0.36449043171600426	0.767672398952789	-0.8145621608973935
Si	7.015990938444556	3.962131481253152	4.070267651724873	14	-1.486280395081192	-0.42624298218478884	0.9714918881074195
Si	5.505707586830616	-0.1081198504942875	5.472773872370619	14	-1.1676068030596944	0.1454538557240772	-0.15457742295262267
Si	6.781864542189303	1.1422025805878027	6.826695520198029	14	0.7176404891964314	1.4615250217272104	0.7540419412085558
Si	8.222690069847971	2.542962563648209	5.485682974520203	14	0.06363279978940883	0.3044947175124769	0.7008123477655301
Si	9.460250278577377	4.097962653428843	6.913942119555382	14	-1.1314516629372402	0.41022139649281814	-1.0540976453857973
Si	8.144288898259358	-0.161078177264697	8.218789595241459	14	0.3278606655514506	0.8962834579456401	-0.009980259521218799
Si	9.514399963700402	1.3827264079968304	9.497818866628373	14	-0.7995101390216506	0.27309046580059226	-0.48414478821558765
Si	5.427224815354838	2.632755079485125	8.205619373452947	14	0.4448397869654199	0.14150052418381753	-0.7105257265545177
Si	6.748392268474015	4.072666688407538	9.626534528643232	14	0.48836371493541864	-0.029240666584980073	-1.5437188879333004
Si	5.384352234638085	0.096777466178283	10.79197675709577	14	0.02316977270304643	-1.2886055905311833	0.8471378081931377
Si	6.8345780692982165	1.345402619607331	12.138521775123417	14	-0.28211761657963214	-0.21244811860904764	0.5171855484637465
Si	8.162632552894163	2.752054114521086	10.903784922489937	14	0.5965028620376547	-0.1293947318944323	-0.2204105746750142
Si	9.491796794955558	4.038215216046264	12.36597330060853	14	-0.6625373313066139	0.31250653880059037	-0.4594156401358714
Si	8.115712617774	-0.11260784428839	13.534238885156995	14	0.1878580673271514	0.9874265704395695	0.5872414835639492
Si	9.662291599199156	1.388340480233817	14.804977608007894	14	-1.5198148075508195	-0.9844839404006599	0.3277297962906551
Si	5.480493221696476	2.7144039265829245	13.524136819125907	14	0.25324307539224117	-0.4626104956066873	0.3349749139723004
Si	6.831852633066889	3.982270333405597	14.956981877819787	14	0.1982743863106673	0.3390912535898575	-0.08404043404702019
Si	5.494055122943383	5.4301297713379295	-0.0922731524067474	14	-0.11943735521056284	-0.8792447429890188	0.8846384077296255
Si	6.765658804598235	6.848058370657957	1.222349989761757	14	0.5658488588581893	0.07508167466949622	1.1241656646810045
Si	8.20599473293391	8.203399856522045	-0.1424897229683961	14	0.12634514387420467	-0.49082117740041614	1.8063105022695998
Si	9.470727704089427	9.55265399080359	1.3646275530235226	14	0.8130449516479741	-0.29229250877358615	-0.17731782106720437
Si	8.1202985314327	5.347436445684412	2.723461514058295	14	0.3048983810477402	1.9622948340534077	-1.2316905747222573
Si	9.481156169669177	6.885822798438151	3.9503810975013196	14	-0.6796326105802784	-0.06335871996228104	0.35121761472180385
Si	5.38864438870299	8.288035259490103	2.6872311641568127	14	0.716922636591046	-0.9418578424084568	-0.08087283229259776
Si	6.6733040523043226	9.688795242550508	4.07436396606058	14	0.4995611357151955	-0.6197644232006305	-0.35582040746593296
Si	5.53389218785758	5.456029575524259	5.286105970490823	14	0.6228710897589653	-0.5148445570697517	0.9327854401757825
Si	6.741537877952113	6.8995315794819545	6.820559208683184	14	-0.27372218637775264	-0.44331743550536024	-1.2459956905024974
Si	8.03974312282292	8.263196253836924	5.365159941176759	14	0.046981550404533834	-0.6854348239562565	-0.2132150793260478
Si	9.394284929792786	9.292790990136337	6.902697655103976	14	0.4978230685187754	1.0422991001821698	0.7243284483552006
Si	8.059425015607237	5.616846633150026	8.191045633605189	14	-0.2704437699840318	-1.9964481115735946	0.02546885508032284
Si	9.372008160596605	6.7059766471253885	9.667399752135713	14	1.0533461113007179	0.4066755851458018	0.6458200045150111
Si	5.205746401610238	8.099441600273199	8.046140553976695	14	1.080730439844551	0.6663178845693596	1.0318799529828016
Si	6.828686557444867	9.482869767299652	9.35288114704501	14	-0.5184217359016738	-0.5317508601023855	0.8570301359124073
Si	5.434405605425402	5.448293906220971	10.857436186579934	14	0.5686629336310913	1.5679744384130452	0.46189392855396205
Si	6.747951629083322	6.902077495961518	12.329285991338924	14	-0.4663532536212269	-0.13507250377291527	-0.8159788399287952
Si	8.168638304589544	8.244248760037095	10.96532755739016	14	-0.655213537802172	-0.5395533934174388	-0.6882488987291587
Si	9.550744553443916	9.371290081589548	12.399559814165851	14	0.41959024716890564	1.0627260177296822	0.17057561158618006
Si	8.084606740786512	5.479677222824821	13.600024714189821	14	0.278312637816345	-0.3352147980986702	0.2918050272048861
Si	9.497312947327947	6.781325982934011	14.954403321385357	14	0.6584292192260812	-0.4821773784246103	-0.2083752306714011
Si	5.28419653313115	8.239646526400962	13.657226235092836	14	0.8904771308011498	-1.0738745875083762	-0.25679608583415375
Si	6.7565032972582655	9.451486450695802	14.958564915630797	14	0.18660619614677132	1.1052626412567441	-0.6626720572253896
Si	5.512806777014014	10.861042901592649	-0.0417138623190036	14	-0.28171241038117684	0.44296056608692363	0.8128145806112889
Si	7.012645343070771	12.323329199575841	1.2133576821961187	14	-0.5532157328676416	-0.9160868824530167	0.14650878023693395
Si	8.227651342987633	13.752632823166739	-0.20197604071204558	14	1.5364861115571917	-0.7669247215256899	1.7956954368448361
Si	9.463693793815759	15.06896956296572	1.4220412336331685	14	0.44915230191890426	-1.6937925056966194	-0.0734526223386504
Si	8.170449822084617	10.913625868882097	2.764620497144573	14	0.11104063945602323	0.593209790343609	-0.3829823353995733
Si	9.551250472744343	12.194988897041943	4.21845304681742	14	0.042304709827184483	0.18057849683421615	-0.8114526661232064
Si	5.544973452534655	13.409668497410143	2.6796586946278547	14	-0.6080291271878786	0.7389991753119656	0.10391045018218857
Si	6.71150911947521	14.887442453977348	4.099219291691192	14	0.7496646344010038	-0.5082553283552762	-0.6293461613972263
Si	5.459407810852912	10.9506558976778	5.544255373527599	14	-0.24372561482864905	0.20018831711098556	-0.32617659156675366
Si	6.937491846991346	12.328829031970796	6.761856249856323	14	-0.6398732950200405	0.2637190440191845	-0.27287140762731565
Si	8.259736418621108	13.726063899905652	5.409615559704523	14	-0.4444451222987772	-0.770502414578676	-0.0865130660334066
Si	9.573510921963091	14.968487461910122	6.800436676508172	14	-0.06208833682359589	0.9959505559074563	-0.3855092177082148
Si	8.102330236278858	11.0812646770749	8.270083284313694	14	1.0319015502674909	-1.3959998884221725	-0.7480070428011043
Si	9.741459809727122	12.26077472607477	9.418536416258373	14	-1.4888797825598619	-0.33372329990245225	1.4531432183835278
Si	5.347926045007405	13.5409953558143	7.97973456580141	14	1.3091399802810781	0.08021591488329992	1.2726202574242267
Si	6.711541759430076	14.899111237842014	9.54150744621678	14	-0.2462203583207887	-0.42510886762807154	-0.28162936367933605
Si	5.596087621855124	10.65820190207665	10.988665125119491	14	-0.635522470597286	0.7991609829191745	-1.1072642467484792
Si	6.985668420373856	12.10542486088909	12.151153437656637	14	-0.9646473486346535	0.4804981895400215	0.6033324890995642
Si	8.194293309114377	13.551929740694476	10.823474313541652	14	0.5479727348987956	0.08039332115039013	-0.2702581361799171
Si	9.543123123982658	14.913521777915442	12.275397425854827	14	-0.23258578680804343	0.1472780549487223	-1.3465151098779427
Si	8.184811402225746	10.87894591683676	13.660767670195819	14	0.8776802254017086	-0.1352825630775714	0.4014040479079023
Si	9.693821795599904	12.451963261703536	14.852452422360782	14	-0.6039014747069128	-1.7712701934139616	0.3811280542426825
Si	5.498885836263581	13.447645084896967	13.586315933146018	14	-0.3128978610303169	0.31537512100627957	-0.030493823318020252
Si	6.7698530387985425	14.907891385701022	14.990682631219139	14	-1.3334063294031675	1.091631412180915	-1.1597230228165247
Si	10.766240152683771	0.024153566600988	-0.0010934384880177	14	-0.07358400582050997	0.4046654950065101	-0.22041828799097465
Si	12.146028964742642	1.387214401790933	1.38509280472463	14	0.37807075290649444	-0.3567632317868313	0.5851023239375861
Si	13.439223976541486	2.8022543651053016	0.07299925905825631	14	0.6230945188112862	0.2604198016723705	0.9821318932537884
Si	14.844520913328294	4.166979837993423	1.4174553199744675	14	0.12220926385621447	-0.02799933693641258	0.393307637254756
Si	13.70794872495491	0.0600901569086742	2.8304389661322653	14	0.5841618136114759	0.7679112546370307	-1.0870903259644693
Si	15.024791384054318	1.4500952748406675	4.2322923876806895	14	-0.22360543014583026	0.5228818323005346	-0.27801336115707975
Si	10.898203490207818	2.7478762002982124	2.826326331819124	14	-0.8947024852842811	-0.5554826764284162	-0.42220840371641244
Si	12.16954605222374	4.126538933914201	4.129998769130019	14	0.3458668874400437	1.2056933574986441	-0.4836346809200702
Si	11.014010050073095	0.0179193352215438	5.4527655800376404	14	0.2841205076240275	-0.8453411197954181	-0.07545937004102596
Si	12.233145004280532	1.4993979266660624	6.794137165218995	14	0.03987887195762477	-0.1303079885041489	0.17506938946473485
Si	13.532508967549088	2.945772246651983	5.529714273634706	14	1.1603056352820702	-1.07504778286596	-0.08789117848500597
Si	15.091409531936232	4.113613511787186	6.8750352933548715	14	0.014020751531831504	-0.5677656178743596	-0.3388511123529556
Si	13.605589826494509	0.1012817799498186	8.126565402767012	14	0.17078001445913182	0.1902923898442676	-0.9317264018944134
Si	15.04517503586826	1.3367040716354888	9.381947026853362	14	-0.021735867265999843	1.5675399216139403	0.2943311381819316
Si	10.839190451809728	2.8174809040503836	8.161114794992884	14	0.21804258667515786	-0.7247521665119611	0.4390704837375396
Si	12.091601840003255	4.180933418698723	9.551364712586373	14	1.0230605475136296	-1.0683878487551803	-0.08157474404499818
Si	10.814792085547245	0.0538069655969307	10.820504077648827	14	-0.4313543395612432	-0.5566648706546203	0.8107967771560366
Si	12.132907702886431	1.3272384847242906	12.188836265549664	14	0.9922134543246212	0.7900687831755349	-0.9805002698176224
Si	13.544732630646479	2.6946077939565742	10.748532977168857	14	-0.04459762155169253	0.04042188940124004	0.026099290104823147
Si	14.850934664459505	4.165347840250114	12.072278986722464	14	-0.14483190534713336	-1.291414265982913	1.1480113809727182
Si	13.661959028548436	0.1384913284972866	13.402618267159044	14	0.5558719417738867	-0.2808603460780797	0.7435438610758592
Si	14.817233911060152	1.4847425869311388	15.177464772940967	14	1.3509435816813657	-0.38675466112529455	-1.7688980916455932
Si	10.943785187178465	2.7307565439708905	13.523663539780346	14	0.010422746746816283	-0.10136685568896606	0.06829292818217723
Si	12.249921941081757	3.9710748288864903	14.902913792583927	14	0.15401666488229837	1.4365022534199332	-0.6876778562375537
Si	10.841752688266725	5.284963572070506	-0.11234672464946041	14	-0.4090859963834407	0.7795015403097263	1.2821040365081249
Si	12.231757806198718	6.771142317015757	1.2540270659594042	14	-0.3720052583457331	0.2530227316663045	-0.5878654908251492
Si	13.707181686015558	8.172914138677015	0.0045043137715355995	14	0.18465729831409905	-0.6057914942277537	-0.23124366983092615
Si	14.979715606384095	9.59756656869948	1.4021798210970857	14	-0.5260486627233609	-0.5735500906236287	-0.018272845510292398
Si	13.546250388547758	5.65792401634914	2.757912986419569	14	-0.17115848116225763	-1.5557156653571111	0.1914254759588569
Si	14.928601437063627	6.93388513197863	4.082964594167825	14	0.6064982910802623	0.11077838671336812	-0.3034045688567341
Si	10.984634090693515	8.153379125689595	2.6859582059170313	14	-0.9314872890996397	0.24819162476974618	-0.6100836974492089
Si	12.247751384083156	9.468899866616919	4.189501406851101	14	-0.32369418938015065	0.15808441060930464	0.04406103187137763
Si	10.637589770578643	5.438518239738544	5.348480924240131	14	0.6479275395459364	-0.39803692838063637	0.6834771843654959
Si	12.21703718655406	6.461895064635946	6.793076366685843	14	-0.5328734046851621	1.3018285280821729	-0.5220817043249045
Si	13.537160161117521	8.060991733440815	5.55231744237955	14	-0.09109940370348672	0.2022297747351831	0.33522739651473893
Si	14.872183275077399	9.429813520664645	6.954562543386368	14	0.5250544162960598	-0.3120506818273281	-0.6483998515932476
Si	13.61838468880206	5.302915547246916	8.177532692290583	14	0.09446009546745228	0.4924651421421188	0.7868019367557546
Si	14.862570808369304	6.798723078877695	9.56802740954557	14	-0.13461510413646097	0.292411036728845	-1.1342153440458673
Si	10.869186570331765	7.831288051069933	8.246713076629494	14	-0.21313588928218727	0.7055742919289765	-0.5262324967537516
Si	12.210378635761357	9.349323391964596	9.496235828817362	14	-0.7971917733544731	0.3870904474801059	-0.30867790586835786
Si	10.802633702359584	5.354486675935512	11.022170038789644	14	-0.1383295799924789	0.9378206928347605	-0.2647310310731948
Si	12.288649247530504	6.753092421974749	12.231121327078828	14	-1.2634493818577905	0.5839221865956381	0.3088357717350149
Si	13.531219689331872	8.151224888668425	10.905367960300948	14	0.9921124098855394	0.36130868888232104	0.3430661824148064
Si	15.014346598497134	9.558382302882608	12.22609477402943	14	-0.43023230919953054	-1.1647888716288124	0.3704803357803532
Si	13.596140559560745	5.492374165267773	13.562031806725564	14	-0.24601441278464484	-1.6717524766712464	-0.04374170059061524
Si	15.026064342294099	6.590822886357435	14.887311894157882	14	0.24310546422542928	1.9730078585908688	1.3377977772899803
Si	11.033283943421585	8.10970686607862	13.768251041570215	14	0.011568945498538296	0.2431663994215168	-0.574387242515869
Si	12.422211942842996	9.654147930460038	15.044097917357675	14	-0.9515550232339275	-1.360413476796535	-0.33102749597427705
Si	10.924543933784841	10.896326692803012	-0.0379113075770913	14	-1.3057296661844335	0.20181531255757526	-0.3281905383640256
Si	12.107334298248762	12.215731588359414	1.3488134948908488	14	1.0179353061684464	0.1451934027551462	0.4318965856732625
Si	13.629531233388866	13.642424015561014	0.2227840119392481	14	0.04618476486581995	-1.2123957148472062	0.6453093829984295
Si	15.212683284241598	14.87618166954851	1.3927795140956203	14	-0.30782944111270893	1.126045656891097	0.6445089979122675
Si	13.485768552180689	10.863523538162479	2.7523641940923147	14	0.4266836696366622	0.21316802809868912	-0.13225200123671285
Si	14.825638699438198	12.240537954057725	4.115457669237126	14	0.3922866513321252	-0.7499487415388801	0.980266813454553
Si	10.957885647680664	13.529506091701396	2.7934578972688606	14	-0.9317153461415367	1.1077393870116425	0.1758895720618621
Si	12.496761599757395	14.928927836612289	4.028586429360735	14	-1.9725939106343244	-0.33232436149775973	0.8608795947977331
Si	10.73833299127317	10.717361820271636	5.570285737533393	14	0.5612717771672616	0.24601492700570882	0.20957387997165408
Si	12.049741097887352	12.247457624489359	6.91056388422673	14	0.45884254076001035	-0.2876521778917829	-0.8968035925519061
Si	13.531023849602674	13.581240420164322	5.587307473996116	14	0.795905449362803	-0.19890353578250755	-0.021119316210228334
Si	15.005860210231923	15.029883217013445	6.840844940632527	14	-0.2688759099598055	-1.310549717328115	0.5794512915544326
Si	13.426690233872867	10.837933813547378	8.153770805147989	14	0.9364392379462448	0.19280950195269259	0.5741013356042686
Si	14.994844225464579	12.173985086085542	9.469666905556275	14	-0.12517811916938945	0.3921539822976055	-0.7986956128562277
Si	10.865824654980548	13.768316321479949	8.18505620188724	14	1.0413377639029664	-0.2085014719426203	0.1274949421733749
Si	12.237796197848965	15.199105063017258	9.472457621697334	14	0.15568736911933057	-1.2998739738177962	0.1360883474849058
Si	10.815395924712268	10.700878643064206	10.844592364340084	14	-0.016634537200294043	-0.03661742485901693	-0.2528224425618649
Si	12.390893906148875	12.093331757611162	11.803537918331607	14	-0.34228688039226945	0.37754084810001187	1.9852100673297595
Si	13.64482305224368	13.6715551752791	10.65883838119654	14	-0.15557629736950018	-0.06267120639967345	-0.1551595211971042
Si	14.97948712670003	14.877487267743156	12.118693002542201	14	0.32534895276419795	0.45670852334428746	0.9984095610356459
Si	13.603060229992378	10.855918428678656	13.530583210211981	14	0.34403008979932986	1.4608269666327902	-0.33879737625176454
Si	14.814492154851392	12.359722749251656	15.072984277414262	14	0.5774625415892981	-1.194982132734907	-1.1590766469390394
Si	11.03114602637785	13.517918907723894	13.333013563406872	14	0.6785638020986929	-0.3633861419810007	-0.2914011065590908
Si	11.969250969187305	15.306523154481923	14.551218278900622	14	-1.275040438862082	-0.05057132765252458	-0.8203759442473124
H	-1.830138589325267	-1.3466918978245457	-0.9254406403213686	1	0.7228184382006776	0.5137955460991313	-0.3303559232646544
H	12.981562849385064	14.994694081672195	15.718852280322425	1	-2.842107791318179	-4.555422442600151	-1.7382374035922954
H	14.405554320321489	13.864690684215633	2.317813786978905	1	-0.5632209321104659	-0.48335931554028233	0.30046476703367686
H	9.480655146361983	6.848058370657957	1.222349989761757	1	-0.06571590931979282	0.0544035601322053	-0.09266160729600871
H	4.155462829918885	1.3564675643069726	1.523796292928547	1	0.12006444779814694	0.1294780357068051	-0.058018791322865505
H	3.981442910549739	6.784720538240096	12.32416151842493	1	-0.255011481631439	-0.10293445860266036	0.2050456492818093
