225
config_type=interstitial dft_energy=-23349.31727235897 dft_virial="74.76035212494597 -1.7705257716177403 -1.5733625453796847 -1.7705257716177403 73.07657817287297 -5.717733560903616 -1.5733625453796847 -5.717733560903616 75.68307602374006" pbc="T T T" Lattice="16.254729908999998 0.0 0.0 0.0 16.254729908999998 0.0 0.0 0.0 16.254729908999998" Properties=species:S:1:pos:R:3:Z:I:1:dft_force:R:3
Si	-1.1762735298647848	-1.216926609367194	-1.5672160389061438	14	-0.4580185015049029	-0.05637534080222685	0.6966155325514526
Si	0.17709528235855498	-0.08054218669909499	0.07251235012404898	14	-0.347347586993917	1.1801838789542631	1.3736292152526282
Si	1.5044402719975858	1.371704147560692	1.4454193476980068	14	0.15078812793178842	-0.07729436790801565	0.05610126097509907
Si	2.8172372783680615	2.7955534686694556	0.017652636681174	14	-0.8875964644004558	0.1635564940621758	0.21103941000413848
Si	4.132488748954796	4.24425627180908	1.3580176649773137	14	-0.06335357775164076	-0.6407348724128222	-0.27555075648144195
Si	2.670798416617881	-0.17434823300393398	2.8301435339158076	14	0.37635042633678334	0.4850169071401819	-0.07762604049431475
Si	4.1199726069248666	1.340982708032682	4.102450008082965	14	-0.5747767649718714	-0.8395988131733995	0.18772719806635588
Si	0.05983366079502899	2.6704245578299735	2.837718238053402	14	-0.48857248868741465	-0.23865590935838105	-1.435667672633013
Si	1.3776371239774767	4.003670014425971	4.072297484101769	14	1.0657838332869343	0.5110930572971236	-0.08566511549882176
Si	-0.12449497637303099	-0.070984405512603	5.425243673347476	14	0.6280608658476842	0.20002350925996404	0.22698206276278068
Si	1.246770293480118	1.3074654549603237	6.774743859852473	14	-0.02223774702449275	-0.7685072368502411	0.6682400429067022
Si	2.5591446768729598	2.538647462457711	5.43249328288689	14	1.2867847337434546	0.5209205931623256	-0.5652531337555109
Si	4.095590512061366	3.8587916067470545	6.621624304109694	14	-0.544939344842085	1.4748996544920887	0.024014380800715072
Si	2.63960558992251	0.007867289275955999	8.223625465021097	14	0.8009887816912677	0.27210804645776365	-1.2344735391207857
Si	4.132943881392249	1.306994067792963	9.487121875577575	14	-0.9655225528856317	0.929340159046784	0.08619990540541256
Si	0.0357604057998	2.7212205887955987	8.177136937481357	14	-0.22746003124179623	-0.46118430348560124	-0.10517286289438128
Si	1.3054823779114257	4.213242247142709	9.396501756334901	14	0.05212761770281022	-0.27013395179295396	0.43925071822048206
Si	-0.14187128264575197	0.049576926222449996	10.94348065650434	14	0.8037720032003282	1.0715415665408738	-0.8336567316680051
Si	1.3174133496646319	1.4582443295962078	12.079263654165805	14	-1.0167484839526661	0.6235490902318885	-0.13003930799819344
Si	2.6040402408816177	2.8432448462224613	10.775618060734097	14	1.3655957966798256	-0.48526450458251214	-0.3925627880435091
Si	4.121061673828769	3.9898697487332306	12.235439099131478	14	-0.8805310669806888	0.821706748361021	-0.7859838110428835
Si	2.612817795032478	0.14331795360765298	13.33456768084815	14	0.4574963100143808	0.0666152819607806	1.9842276479869307
Si	4.085902693035603	1.3389021026043297	14.84721659144978	14	-0.5045462518204306	0.19944732455771888	-0.20578432784028786
Si	0.041595853837131	2.861417634260724	13.475414915509633	14	-0.568936499237155	-0.6502723875979114	-0.5099252612607124
Si	1.28477385200736	4.099361609400255	14.884358649291844	14	0.6545465930821257	0.5333320898742765	0.985702901432942
Si	-0.34661586057951593	5.341548069046034	-0.082313952259176	14	2.2832556813677085	0.7739430677180981	-0.1953885776993331
Si	1.2985253535103738	6.609026888430218	1.2896827804398778	14	-1.1797380492917493	1.030482043020237	-0.9076364305972859
Si	2.602203456401901	8.165531060326332	-0.031761742242185996	14	-0.33082052199600515	-0.14400555209723778	-0.3217188091626809
Si	3.9721033289426937	9.491136793865099	1.3117404489263909	14	0.6190452850425849	-0.07866888081216683	0.19440127325639625
Si	2.6687665753792555	5.445952199251542	2.6667184794107217	14	-0.060320701915994084	-0.7302854422714518	0.4421964335857756
Si	3.9828314506826334	6.859788606736362	3.9629844254637443	14	0.8500192459254275	-0.42818570936469275	0.8703836856136605
Si	-0.09335091386738699	8.098041421744163	2.585932471762992	14	1.5829236160759823	1.5442678189191519	-1.0199970755246732
Si	1.352702368297071	9.590355665229634	3.9808971378234626	14	-0.6316958945493096	-1.5064658858391429	0.0775157400760804
Si	0.10544443291968299	5.390994957429212	5.358859356399119	14	-1.2155607454963084	0.7387271523690939	0.9121106680754076
Si	1.3117892131161177	6.805562827759937	6.850604684337776	14	0.30090648292767824	-0.4083200641085686	-0.7674343146001432
Si	2.59620546106548	8.130502117372435	5.3782675039104655	14	0.0947729989849143	0.20518063231111708	0.20647132718183142
Si	3.8720554663527986	9.43258725673288	6.895191408478164	14	1.2824220822362271	-0.9512048386893233	-0.8156553948795205
Si	2.7690582589177857	5.405998073135219	8.055795378710672	14	0.38853412311736907	-0.2386140003416626	-0.5063923054402969
Si	4.026833004546297	6.702670387435967	9.558707706096813	14	-1.4446151191471284	-0.7165482836564325	1.0794137768101033
Si	-0.029632372624106996	8.130518372102346	8.186304605150033	14	-0.6130384116831231	0.19060400780906955	-0.654013088728195
Si	1.2905442811250547	9.494257702007626	9.526035698979722	14	-0.1864182483478685	0.2651308379504778	0.1960673495038522
Si	-0.106972377531129	5.496114295750715	10.790084770353106	14	0.934148640216525	0.07302530463444179	0.001954297153844555
Si	1.3777671618167489	6.706278937475765	12.195761303423609	14	-0.4923594697134607	-0.5529041149028397	0.18980028028599127
Si	2.5568690146856996	8.121919619980485	10.862694648856609	14	1.6852633780180921	0.24091488249266313	0.08826913096706772
Si	4.129676680680539	9.490714170887465	12.219834558418837	14	0.27357306226918404	-1.3835302847299864	-1.4786845786338787
Si	2.7761453211581095	5.400601502805431	13.580209159232957	14	0.16698994810670154	0.31504190575678837	0.22661465181253151
Si	4.116754170402885	6.908829126871814	14.950222814883112	14	-0.47254550367427156	-0.532021597492597	-0.40536020766401415
Si	-0.08036338467009599	7.861063714400853	13.595309803318417	14	1.0790322247805932	1.9537207120317774	-0.4804048584169002
Si	1.3081969178062287	9.587592361145104	14.677614739579273	14	0.25867762070743816	-1.742160138979245	0.7643669859532066
Si	0.121536615529593	10.666857662912978	0.09232686588311999	14	-0.48407948214045576	0.8630568067828345	-1.0894120340685631
Si	1.418095146720978	12.105791373377293	1.362227640023745	14	0.33673894933245396	0.40807580910315455	-0.2552739914846261
Si	2.8456017820592665	13.484046177091313	-0.10008037204971298	14	-0.5993490756270586	-0.7729251671218514	-0.1174717451933096
Si	3.9913489291549493	14.86590953084513	1.2837823134829107	14	0.8927052506715899	0.1263610847271896	1.5850530055021288
Si	2.7929689666139246	10.856095228513556	2.7926601267456537	14	0.5145830756586927	0.5037569224871452	-0.5667896262948314
Si	4.142566681498376	12.229977509882055	4.166916266902058	14	-0.36494448891554243	0.44834188952199355	-1.1733519378975654
Si	0.059866170254846994	13.380422273921438	2.753811322263144	14	-0.12850255834834093	0.3750669305609654	-0.05523377004008111
Si	1.2704696896874397	14.716561072441237	4.215794239738421	14	0.27458582065479037	0.701833076577629	-0.5076014962723625
Si	0.16090557136919098	10.89551294854288	5.435988049817324	14	-0.4559307639849427	0.03266486465035328	0.8279007981877897
Si	1.4774249108888278	12.267038294074574	6.886088759729123	14	-0.5989968341981984	-1.7454992334585215	0.12240852451852594
Si	2.7046895284781454	13.440516010395012	5.509166843867642	14	0.5705010168244652	0.7102200221319521	-1.3082344369873218
Si	4.004271439432605	14.850386263782033	6.68295340005635	14	0.35781969896288013	0.4990821387940519	1.8117244787422357
Si	2.7228298070565895	10.796245312988617	8.219366725784939	14	-1.3893378974271366	0.3196110170212235	0.3452554785949125
Si	3.9880004547936956	12.122956368161198	9.522297111100652	14	1.05640135575265	1.035189736861428	0.6608134051894546
Si	0.137173665702051	13.673690110939615	8.006055905189132	14	-1.057078842004509	0.29523565303355964	1.7125245506170903
Si	1.2452586035985809	15.115647201167006	9.598206699775682	14	0.6848216153374013	-1.9659226636601363	-0.14425237820797202
Si	-0.027291691517210996	10.855916426484557	10.929257767833965	14	-0.4818446773961831	-0.2864311599752446	-0.3983022664496756
Si	1.4270840123606547	12.170598981524478	12.122452471534018	14	0.8303592890949153	0.09021545769441983	-0.8934354445825122
Si	2.765384689958352	13.67458412108461	10.942310315950893	14	-0.9297016564547969	-0.6350923246772252	-1.7008303922894605
Si	4.016023609156812	15.027010158973228	12.248589175627858	14	-0.16678837344960193	-0.1392569776814563	-0.5801601452911974
Si	2.79126221997348	10.81181734424144	13.334193822060241	14	-0.4602787601918451	1.0515267971761812	1.9490130181905863
Si	4.23013091151816	12.205351594069919	14.728492044194445	14	-1.664680137267115	0.4670896181849173	-0.8952388178540639
Si	0.17743663168664398	13.487638472401201	13.403260169443582	14	-0.556433728286339	0.304652583379134	0.6942657993993693
Si	1.483617962984157	14.909651009030249	14.825581545940901	14	0.02797953942544744	-0.43989015211360283	-0.8420609036279731
Si	5.367929495688341	0.038426181504876	0.06308460677682899	14	-0.04843859578946175	0.13269474557284233	-0.2716840711904712
Si	6.70749804221894	1.45853691473457	1.3901045018176799	14	-0.5496375255935916	-0.17577567209617956	0.44188404428937766
Si	8.168505675899677	2.6889224404664156	0.138912921802314	14	0.09609274734574633	0.2056043504678775	-0.24183096731823187
Si	9.64929531587967	4.030165224177641	1.432139233362354	14	0.14351909897066578	-0.12309243853368532	-1.1819869951152828
Si	8.26713937698749	0.25464659875439394	2.6210914525561586	14	-1.2566680915758999	-1.0095370477507148	0.4263831074247369
Si	9.516104059005322	1.55330199010404	4.030929196483365	14	0.684903890707646	-1.1126972494004843	-0.29960216119876715
Si	5.339581246727046	2.8239179723606607	2.7778845772583725	14	0.6925626992353031	-0.11643764663354605	-0.38813688734540613
Si	6.951107679365124	4.120817852880134	3.9441451934992138	14	-1.0434028756961093	-0.5929789050858598	0.7791935218923726
Si	5.483598153720785	-0.09827609702981399	5.481338746263434	14	0.4130442130238086	0.8483487987989274	-0.8138792753243621
Si	6.854782149924389	1.4000198870621698	6.781733393713343	14	-0.439894008771583	-0.49305418237096477	-0.16220126444792574
Si	8.215449335876869	2.739198320074953	5.3527638326832445	14	-1.2192762497944543	0.6445097692438636	1.2320960380312447
Si	9.496565873654706	4.0388452499490475	6.821086094823032	14	0.49826966951288504	-0.018666224624275054	-0.41446603426585055
Si	8.060769326062825	-0.21919503282286498	8.029852829775908	14	-0.42333223385184915	0.8953851137467803	0.6097175720516198
Si	9.483562089727505	1.1775901629874137	9.28941559569441	14	-1.1130209515602907	0.19885854143940496	0.8718582145147654
Si	5.390556079721669	2.7484472613931734	8.128063907886085	14	1.1852931794464612	-0.42613088199283033	0.43364699417521924
Si	6.8835367671334105	4.103977952694411	9.516510427253047	14	-1.5272766694109532	-0.6412066702390694	0.3832756985166022
Si	5.383631564780435	-0.085028492153979	10.856485342031371	14	0.1152698505971348	0.552856292343885	-0.6330619228059042
Si	6.806082979117025	1.2093681599595087	12.09756648004334	14	-0.04665681980259913	0.6353280950350827	0.29635279829516403
Si	8.130193277504166	2.564622520852293	10.731226393352618	14	0.42697009076932674	-0.14637431142869023	0.02161811064233706
Si	9.42153404039476	3.9617490659906607	12.149012700205326	14	0.7977720718252305	0.5403434940823203	-0.6168523893150307
Si	8.064507913941895	-0.164920489656714	13.475236113480634	14	0.14868187845352313	-0.08002642442120501	0.5725879830128293
Si	9.246828203332829	1.2697544815714439	14.882131751294311	14	0.46733978673256776	0.34555706924896584	0.21593350898104036
Si	5.437369701859589	2.622814453926513	13.431364597456243	14	1.2439858574737375	-0.26253376446659626	1.4145465566490607
Si	6.822516511055024	4.005019157008419	15.047328571359477	14	-0.10835486283859652	-0.4348703260865458	-1.646173578283221
Si	5.489937498385295	5.471423361018944	-0.088637042193777	14	-0.2228970906301294	0.32644810028856125	0.7893383321540808
Si	6.853221695853125	6.679799982454004	1.4071394587623118	14	-0.4844240102533557	0.26128934949164456	0.09384071619582861
Si	8.010249625505654	8.09713115686926	0.030168778711103995	14	1.0676797663500115	0.9192511417705228	-0.17339945655929867
Si	9.414479487614255	9.62346655005427	1.3712977793129668	14	-0.38132860045765404	-1.682656791444526	0.23135217047543638
Si	8.333816279074208	5.370270176795238	2.6734967017827747	14	-0.5441435877454992	0.834714227286182	-0.09333755088467563
Si	9.561958652078612	6.757806431287295	4.037219776958148	14	-0.055602209432458326	0.6817825688489861	0.3309678463308496
Si	5.462808354167175	8.159451791340366	2.6674661969865356	14	-0.5341484158134235	-0.3054624815549807	-0.34769237221734883
Si	6.675573752677664	9.4584485320181	4.152920944450409	14	-0.19888065294515825	0.7113181412141872	0.011442190006254996
Si	5.502876263392859	5.36487360646545	5.316694587015173	14	-0.8060865122095253	0.4727244526045539	0.19999034200133414
Si	6.723053818741853	6.735927564829781	6.874547901493734	14	-0.43617130537854065	-0.367506852477602	0.04081938228373493
Si	8.006055905189132	8.093522606829461	5.469944180597225	14	1.275507865809285	-0.3506630273042479	-0.1931368036599474
Si	9.406254594280302	9.477027688304087	6.820858528604306	14	0.7850175896635719	0.2891840424415272	-0.67962386882219
Si	8.178648627362895	5.366629117295622	8.197357821488154	14	0.6782583547866593	1.5211317276957994	-0.7033952801701511
Si	9.65027059967421	6.890217461126009	9.411992513938177	14	-0.808980548357884	-1.0257095573249781	0.1219716937246328
Si	5.250602855205179	8.001016938917342	8.315383415357402	14	1.6333283361037614	1.746723336701444	-1.66150713619152
Si	6.798670822278521	9.43309115336006	9.533025232840592	14	-0.6445858739613399	-0.11572159380188482	-0.32088242860203675
Si	5.44517197221591	5.444245452611096	10.9148723318645	14	-0.640993525608029	-1.315860078256349	-0.8578811717733764
Si	6.711220375368102	6.754506721115768	12.158066584764638	14	1.7420601229822914	0.7973902626851884	1.6595425546163949
Si	8.206590508076467	8.068165228171422	10.806502047561198	14	-0.0856016091974141	0.33282624125625265	0.6266349308371301
Si	9.514998737371512	9.477352782902267	12.249141836444764	14	0.023870656013318794	0.16263835235235088	-0.4357362743583716
Si	8.21364506085697	5.277959565642027	13.61070303254224	14	-1.390117199449674	0.7034276760971849	-0.6142841122107349
Si	9.44055207438829	6.703288067172509	14.962511390694317	14	0.056573058801346235	0.5615535703103499	-0.18657559999346154
Si	5.488815922021574	8.232581821200956	13.624373260395709	14	0.1617227817478462	-0.30886251123034447	-0.4546107585135787
Si	6.759285611709014	9.661047485603877	14.9948095390235	14	0.29422160909529327	-0.8533665679417284	-0.29313608842912675
Si	5.2777482541532095	10.946617819376776	-0.037369624060790994	14	0.46405288569129044	-1.1642404548640248	0.8669875125962769
Si	6.659156475469574	12.151954806318853	1.356847324423866	14	-0.013740758162467379	0.14875026985503906	-0.3339670406868024
Si	7.947555132246641	13.57333340848145	0.07651101368166299	14	0.22301021926421594	-0.917482221310261	-1.6929450693830985
Si	9.235791241724618	14.925613153800887	1.2594002186194109	14	2.1641026904055543	0.5565170320987118	0.9616162725727309
Si	7.934372546290442	10.856924219738914	2.700495808161624	14	0.9615856764194212	-0.614446348956436	0.8775352150616523
Si	9.413374165980443	12.247955241161407	3.9523375773733496	14	0.5206228591662526	-1.2140196249674116	0.2663459423247798
Si	5.545236089535713	13.573593484159993	2.7335741835264384	14	-1.414234938684259	0.47752342068461023	-0.05287632357203733
Si	6.9651030018167726	14.94308698845306	3.9620904153187495	14	-0.9636857552449182	1.5377027585946856	-0.1446290451373737
Si	5.230804594176017	10.822626739630925	5.524088685924104	14	1.1308849913246795	-0.9419354897891253	0.493908303558318
Si	6.688366225116047	12.227230460527432	6.763186746887174	14	0.70125894875964	-0.5926965977217075	-1.57740036762724
Si	8.079039642480542	13.518831299096574	5.255251707959153	14	0.7337857450543014	-0.01659314240463966	2.0918453749302404
Si	9.573938388021546	14.89563943184869	6.754587994765314	14	-2.102757403019481	0.5034579029384119	-2.3007836776667543
Si	7.951992673511798	10.817457735519863	8.038857950145495	14	1.0970243055899254	-0.08794234348087691	0.9577914962984786
Si	9.436228316232496	12.152572486055396	9.438016336522487	14	-0.022129246379982502	0.46895829753160095	-0.848725208617797
Si	5.391580127705937	13.420961570314484	8.079576048567539	14	-1.4290036247537214	1.2086131047002044	1.0171048391500386
Si	6.6581486822152165	14.783384267097137	9.53094462741224	14	0.8175078762626872	-0.25581855159143346	-0.5852936141734052
Si	5.487515543628854	10.847821570989874	10.876137310491352	14	-0.62614616371577	-0.22669769851437233	-0.45075744297027276
Si	6.7539865697586805	12.278432859740784	12.151467164421584	14	-0.05720657915223073	-0.4167273213949208	0.9631447946855589
Si	8.143961033737089	13.481087816247875	10.87436554493127	14	0.7251895115269182	0.8747478797840798	-0.6535736868289816
Si	9.613892514137866	14.792096802328361	12.25702538045063	14	-0.3815296608936896	-0.40988920968545495	-0.11196289493436033
Si	8.117530842905055	10.921065383959828	13.562849107690145	14	0.496409989034822	0.12340174250369912	0.07971686334065918
Si	9.57775824955016	12.29766220522313	14.904969646816458	14	-1.2311185037885244	-0.4860936860482598	1.0784652960575005
Si	5.400552738615705	13.74173241033869	13.418588379747769	14	0.4105823796797669	-1.486588156388014	0.6592218909962829
Si	6.613903307402918	14.893071184523068	14.938324352589724	14	0.878276207614919	0.4772308288991774	0.1071508142171712
Si	10.736557944762769	0.08501223742406999	0.015133153545278997	14	-0.909894118178908	-1.7186021293728562	-0.6429452516565535
Si	12.056507032293206	1.2136594086554848	1.3911935687215828	14	1.3088754135436347	0.9221968571358166	0.4717006384660709
Si	13.524536709294631	2.5341123928130997	0.061410369596202	14	-0.5820308815221372	0.7778444629308908	0.4863551674593189
Si	14.927872561258239	3.9514273124984456	1.3530599723550687	14	-0.3135288102758812	-1.1984461829327426	0.6311263947208967
Si	13.582696132909033	0.09422866928247299	2.7603782331463798	14	-0.38446766294302287	-0.026873449916719735	-0.16120213292051622
Si	14.86719365450794	1.392233871435759	4.179318625822626	14	0.14234101851297393	0.25867299271786187	-0.2838502844548799
Si	10.992830016508064	2.751064272908523	2.7855243003156027	14	-0.4660267232455681	-0.7539375543325578	-1.0616386972897915
Si	12.314453341219128	3.9944373278376593	4.02548386196385	14	0.4804087150748804	1.0446282644916918	1.0301555126445783
Si	10.717523656039331	0.04774014174273299	5.301593942929712	14	0.9139076135836591	0.03137622666389507	0.4859036813651009
Si	12.180075489061425	1.3106513820224879	6.70294671784442	14	-0.7669905418218856	0.4351477483505896	0.14468920900186513
Si	13.551828400811843	2.7684568339111526	5.525405319046733	14	-0.08845682165543854	-0.8012345793598739	-0.38891284693102685
Si	14.970622500918907	3.9951687906835645	6.785098122804506	14	0.3953130994044715	1.09005352484594	-0.059844790321234666
Si	13.453113426074486	0.009655309565946	8.118376088860321	14	-0.34254116270843216	0.6275972955584617	1.3593788640157074
Si	14.90118229474766	1.3383656965173327	9.475385960583278	14	-1.0126344583298972	0.9493582708483929	0.2705029054063952
Si	10.835695542477762	2.6427102433351286	8.223446662992098	14	0.23600355711011625	-0.6764074160666846	-1.517947670867328
Si	12.095697186103804	4.034293925574527	9.43845521423003	14	1.5417810458535046	0.41394487121745654	0.5063198002702688
Si	10.74483160228645	-0.025471161767402998	10.784606926373774	14	0.4795178270814491	0.058506530002097594	0.41965246791765326
Si	11.999550458692068	1.3988658012386308	12.221980182766826	14	-0.3897577121392275	1.756446485690648	-0.4110094402734435
Si	13.512459444972244	2.841343042823109	10.932086090838132	14	-0.4609343920484828	-1.2993777504910078	-0.9650160451375628
Si	14.847151572530144	4.234796019002043	12.181863509351412	14	-0.21653874717340324	-0.3779676515831565	0.989106273545222
Si	13.412444091842168	0.233369157303513	13.531802573563954	14	0.3341269634377156	0.046624166765033254	0.7249748242326859
Si	15.065208774259379	1.516273715371338	14.988746524767443	14	0.32703791184900327	-0.7603948853441098	-0.5221909763010109
Si	10.61414357381809	2.764230604134813	13.762002058535213	14	0.8135689429122204	-0.499934974428745	-1.0017095747140559
Si	12.17999421541188	4.033871302596894	15.005131292515713	14	0.24782704203534928	-1.1389227807765265	-0.6207563556331437
Si	10.908272911521445	5.414304240118719	-0.035955462558708	14	-1.0429210505591135	-0.09844608004527786	0.8452493313354889
Si	12.223101759130547	6.672631646564135	1.3292467930383838	14	0.6620431648640814	-0.239678952165268	0.17544039996243224
Si	13.40117956401523	8.121887110520666	-0.025324869198221994	14	-0.044990229334079146	0.830597373447561	1.0358530820340266
Si	14.759652361429996	9.53143226930951	1.2560842537179748	14	0.1964661279390072	-0.6377251365250568	0.8323729787816554
Si	13.637263261213548	5.306730437580956	2.678048026157295	14	-0.22906131563518445	0.8553388628328141	-0.06867679420647534
Si	15.019614256864633	6.778254881512817	3.8859207509651754	14	-1.2214616893165802	-1.0999749060553274	2.016030935244502
Si	10.914742294025228	8.086614346618136	2.51021793984687	14	-1.0862894266572432	0.9180550635755901	1.6161412683701672
Si	12.21297506239724	9.393445867112009	4.074101759121668	14	-1.0989202386530028	0.9225616969807456	-0.7582220442380527
Si	10.903754096606743	5.307624447725951	5.350195585357623	14	-0.3732424742257884	0.5757167610769176	0.4057003648978697
Si	12.240640612702357	6.795631187785538	6.614390949300188	14	-0.10253002373580106	-0.6828603761991924	1.1129828992015527
Si	13.594448302633241	8.129721890336803	5.342734664329391	14	1.5142385943324823	-0.5231921647126765	0.26969326434108054
Si	14.951701995304832	9.553148588467934	6.728174058663188	14	0.7366607550232909	-1.009662517690338	-0.5653850314584346
Si	13.596707710090591	5.361330075345288	8.104023162350675	14	-0.8089967463214008	0.4613624810842875	-0.6880946324099498
Si	14.81145618564998	6.791860090446651	9.446810145403257	14	-0.07075450441568701	0.6581086023926588	0.6007845237272973
Si	10.999494455770755	8.21886282915776	8.11857114561923	14	-0.46897706660043803	-0.3814900658717593	-1.1745953244303893
Si	12.383438414952922	9.480896314022429	9.421030143767581	14	-0.6099744254731025	1.054527277084794	0.6284845840044446
Si	10.914092104828867	5.462060636591361	10.75458444023185	14	-1.0095169931292176	-0.13392193414214904	0.9245031386079893
Si	12.236625694414835	6.838429891635935	12.12424049182401	14	-0.5694489205274605	0.017282969962035384	0.4598514424876365
Si	13.654249453968452	8.293065671192346	10.949787491709033	14	-0.41101381115248775	-1.2665156820625991	-1.0489806315776384
Si	14.901393606236475	9.469696805115127	12.405918706417069	14	1.38772915682832	-0.28178722954599317	-0.6672900194909076
Si	13.354593508096038	5.446326058039448	13.61704237720675	14	0.9878425752803693	0.10694101202304712	-0.6928545196891399
Si	14.678963882161721	6.882447700229507	14.932180064684122	14	0.22028433340379494	-1.6837058024151466	-0.29314354463455516
Si	10.84707385341406	8.062589855812634	13.651794989752192	14	-0.6347873915862556	0.019248579979288596	-1.0615384241823058
Si	12.047063034216077	9.460545392176362	14.991639866691244	14	-0.5445889031869489	0.9694087785770357	0.7811568179148375
Si	10.798130861658061	11.015391581621754	0.256028250796659	14	0.3713123454619532	-0.4714790091874741	-1.8907921379895571
Si	12.311364942536416	12.259593627776251	1.4622104836940037	14	-0.6131787940336031	0.17594099416826509	0.0090166092472273
Si	13.586532249167558	13.474650943203912	-0.048276547829729996	14	1.2308716776777902	0.16068739763542256	0.6085816577211783
Si	14.884521196590933	14.843331711001529	1.6203690057085738	14	0.32906908505192023	-0.5350146211957814	-1.6684624903035845
Si	13.528909231640153	10.864060046168966	2.7911972010538437	14	0.4771457253130805	-0.6761904147776642	0.14403794802427164
Si	14.957488679152435	12.120241828266394	4.1507103011827855	14	-0.7233460290123721	0.7850463860431576	-0.08253428055047744
Si	10.800634090064047	13.575885401077164	2.659663926630216	14	0.2898350463085886	1.4122248485449669	-0.5229664216655674
Si	12.22856334837997	15.001376449906735	4.042502564178572	14	-1.6181217907982774	-0.011977237023377814	-0.7048145303068728
Si	10.84658621151679	10.926559482669072	5.411345879275281	14	-0.7920729597725903	-1.1217917631389118	-0.529449720840853
Si	12.292379418002705	12.20744845422818	6.674484685773761	14	-0.5300287337589502	0.5635564613547451	0.4854015444960759
Si	13.490060427157642	13.691180200321698	5.323261497898409	14	1.4486841504267949	-1.2336178752702405	1.012265504716456
Si	14.823500940512549	14.976653005715146	6.856001254667564	14	0.19229193845174675	-1.2024010571361945	-0.84700411071649
Si	13.674112733917248	10.863523640081969	8.035281909565514	14	-0.5943223076156371	0.7394835715542815	0.6245415368854657
Si	15.010982995282953	12.235699174810023	9.409001643634921	14	0.29030812968749586	0.3789001914827742	0.03547354010208304
Si	10.795107481894988	13.622065088748633	7.9586896222343055	14	1.8102687189099675	-2.3022900882738293	2.3320359770542183
Si	12.162032738862433	14.869225495746566	9.551783191155579	14	-0.2885703196016078	-0.02688887654864063	-0.9591122731014387
Si	10.900665697924033	10.910483554789069	10.763459522762165	14	-0.3498639277707459	-1.5498167784210954	-0.15715392759394306
Si	12.36737874180283	11.94135852561785	12.16549499633305	14	0.11443938357872697	2.0480008301268193	-0.1620912211402234
Si	13.64563444711668	13.606623095335081	10.788101693304208	14	-0.5659630159344038	-1.4777769784558663	0.23285112487708273
Si	14.784684645489856	15.041558142241783	12.171411718019927	14	0.2664238468159803	-0.9606528794092714	0.7499456562124961
Si	13.515661626764317	10.68355127052952	13.689310906382165	14	-0.3717761728617079	0.01296916945589094	-0.0058857742988829825
Si	15.057764107961056	11.96218083463128	14.754190772180571	14	0.28858240379661243	1.486055423365679	1.4387473425854864
Si	11.060986099016501	13.371742248150031	13.575804127427618	14	0.17388205302789048	1.2139687170820728	-0.5894030118065978
Si	12.209041417759261	14.921451942944183	15.05706515457497	14	-0.3978721205296149	0.21043828558028785	-0.62659919247318
H	12.374867295871907	-0.5720169492816372	12.61715867442247	1	-0.11670272759205332	-0.3860041554823433	-0.09469766559903398
H	-0.735654940748531	0.8028763762872004	1.121589367504927	1	-0.25765277812682713	0.10552124766526134	0.11700354691451065
H	3.1010286078492926	14.831724208373512	14.909537225920886	1	0.4006458289489906	-0.0016416507469145481	0.15532458615865768
H	-2.026735627960583	-1.9310342801483544	-2.597627749932517	1	-1.3506090808792144	-1.3095958372543404	-0.24907711344200525
H	12.19856361885992	1.1775901629874137	9.28941559569441	1	-0.0046932956513983035	-0.016969038002445303	-0.10910999647112404
H	14.955642141834772	6.795631187785538	6.614390949300188	1	-0.014330826833441362	-0.016959524912760756	-0.036115545100524026
H	17.642874090390652	3.9514273124984456	1.3530599723550687	1	0.10347387649882743	-0.11416838907798338	-0.0331217500657436
H	11.950792770857033	14.925613153800887	1.2594002186194109	1	-0.04030027611959704	-0.02687576391150787	-0.2135410954806426
