68
config_type=vacancy dft_energy=-6819.387620901814 dft_virial="7.9138702232413065 1.771815092690321 1.981728928972909 1.771815092690321 3.314741087061209 0.20754192852798267 1.9817289289729092 0.20754192852798267 8.29456141785549" pbc="T T T" Lattice="10.878174875414247 0.011204531326208002 -0.009735976249472 0.0110848712829184 10.905729319928115 0.015664587485184 -0.00979036717824 0.0157298565997056 10.887812947991936" Properties=species:S:1:pos:R:3:Z:I:1:dft_force:R:3
Si	6.901310322515953	9.400467981003743	9.781761445490327	14	0.6613186273848637	0.6858593134446132	-0.23302158915980853
Si	1.2976533394540672	1.2698943850480309	1.557278647560937	14	1.0676712817024547	-0.045949508729026395	1.0247217386609775
Si	2.713309974507461	2.6624598952022582	0.24957277665196803	14	0.20887788176149003	0.02718301099726557	0.0383567776080971
Si	4.12929839422634	4.038576500678467	1.609883378228196	14	0.24894084486003737	0.006102004256307436	-0.37573798904952405
Si	2.777743644363185	-0.03014127708607488	2.95279214605439	14	0.2061501961273449	0.6498640960730719	-0.027625241112331035
Si	4.27348113166028	1.2804603668705024	4.359134878465551	14	-0.41439147221156625	-0.15773602583842458	-0.5634610733473677
Si	0.10118562042426112	2.6188764439804597	3.105930893819269	14	-0.0861711090258269	0.6193795287342042	-1.3125284399825012
Si	1.4857991767926066	4.012609183466048	4.392682115511079	14	0.6468499893062625	-0.693270781640472	0.34838708487485287
Si	-0.023200994575278078	-0.09460975713620993	5.62624444796066	14	1.298927807059982	-0.713066492831888	0.2159635909132861
Si	1.5606791684275125	1.1835727176374886	7.04735540535091	14	-1.8973911369042495	0.1683472346052077	0.0013040646183791057
Si	2.911990246929787	2.4983069843618586	5.809973741883238	14	-0.21838094413528933	1.1388096521424402	-1.2722001388149142
Si	4.131378303342428	4.023832207708037	7.0239509887020395	14	1.2042231994765835	0.13061960646895085	0.5419946579189193
Si	2.697871653285952	-0.03828359912264448	8.564143269899796	14	0.7030319829884142	-0.13499717038703496	-0.09487841430304038
Si	4.090591633677881	1.3088589585988506	9.80734585056422	14	0.757220341605323	0.12014440917360354	0.5260342645335682
Si	0.14838933186485762	2.523475842739963	8.452032687523195	14	-0.16566788575108138	0.7067351459810234	-0.21307495408609972
Si	1.45279584903476	4.068184746662615	9.718746291056874	14	0.00363374314896528	-0.16460653347492427	-0.2396067041057718
Si	0.10744166505115649	5.338865624540631	0.24896142261261567	14	0.2946903215951563	0.1710281261225261	0.1642684331253248
Si	1.5511346482473038	6.774822042028818	1.5821037552692274	14	0.0243794777561761	-1.2489354923255545	-0.21324361859510144
Si	2.9095132840336926	8.168684231924875	0.3293794986146791	14	0.666639786955442	-0.2968119977053424	-0.37927814396483595
Si	4.257966663138496	9.57827301496491	1.6943068022247347	14	-0.4061114846385614	-0.45901634747965236	-0.21310657868153757
Si	2.8715516792093547	5.362862902313073	3.0250809538427883	14	-0.3577780470566937	0.6299125758992549	0.30976651186090853
Si	4.239918665154698	6.7351688793197955	4.461556260791421	14	-0.21882908779259116	0.2856114915991814	-0.848534432603042
Si	0.15695481532724223	8.055086601555756	2.8258774406857143	14	-0.14098373201446773	0.7300208755340085	1.94945499119512
Si	1.49407421269537	9.50625181054605	4.322138168717558	14	-0.5989636669395685	-0.4578166697372713	-0.46014120605721714
Si	0.16742506911508226	5.338397862553227	5.788654673443333	14	-0.631999027866555	-0.2764100198794354	0.2262739803576119
Si	1.4198186289227213	6.901954311112566	6.935849650102209	14	0.890917304031959	-0.5876837136790148	0.830785321246464
Si	2.8858151563694743	8.232305301304805	5.7074250847840515	14	-0.2382861844133437	-0.4654412825641704	-0.23985532999023007
Si	4.067621256640579	9.598375902237564	7.150635076532739	14	0.9218860105026107	-0.08815985899096143	-0.24608460395988488
Si	2.808573510607463	5.4628138486543	8.335220553263888	14	-0.6302874430549325	-0.2122375450833275	-0.2691312207180962
Si	4.163046877708308	6.748104129999402	9.675879712276236	14	0.6169331220220834	0.7740569676837807	0.9183610251086876
Si	0.28297533382697215	8.196340931384826	8.470956379460159	14	-1.6763578405206954	0.3949202345115529	0.11108871912550998
Si	1.437785040513367	9.625587683900195	10.053404973217773	14	-1.0187169221857713	-0.21226634146291318	0.03126618335619273
Si	5.600234705823803	-0.1072752288091264	0.23215897689760515	14	-0.6229201978705803	0.17139836528862742	-0.42518008724543965
Si	6.873638393595946	1.2522205966541569	1.60330860275872	14	0.15588662978164206	0.3450878425280388	-0.16338602977944996
Si	8.257002046421203	2.583517989006958	0.2581882997688192	14	0.21174672107771125	0.0999800014792782	-0.055165635749097185
Si	9.602092978309567	3.9615676480915814	1.5655743520166325	14	0.35192646845856873	0.28319516681930623	0.9468594135877411
Si	8.284878485233378	-0.040002352471713284	2.938109858742756	14	0.6165117178601112	-0.32649412307379194	-0.08624978484862342
Si	9.629343921440912	1.2592022162708174	4.307585331816392	14	-0.9464302961098083	0.9297731331826969	0.2722952229250704
Si	5.5038887902413185	2.656208201849664	2.8810135251778357	14	0.4881014621927634	0.11048039560676295	0.8983876505396492
Si	6.977058393373996	3.939120511789028	4.371128078258895	14	-0.2724667156499243	0.24326230164995835	-1.4468604654232138
Si	5.583566061793562	-0.13772762200775424	5.695162105984019	14	-0.4416009655936294	-0.020995388933797196	0.033556266864848625
Si	6.826733832263572	1.2725758578362931	7.033672823310032	14	0.8283000908440088	0.7055352111281102	0.8122206552823347
Si	8.297611401657967	2.67053368466858	5.7276128219055815	14	0.012055655735642328	-0.8033323441905827	0.294424726415585
Si	9.507338541302836	4.072593675348549	7.16592763006515	14	1.0519836825915714	-0.6048023900110927	-0.021482099170901228
Si	8.31709749579839	0.07458519280098305	8.527739421275374	14	-0.8422575931849646	-1.2433317682802918	-0.8580277247766249
Si	9.74659444658609	1.1915605694363571	9.923616251172998	14	-0.7224677394350095	0.6528455498023157	-0.7985210348049896
Si	5.539522463314387	2.6478733359252558	8.525391908789747	14	-0.41928428563580805	0.4367747437971794	-0.8038787040711143
Si	6.852202928568477	4.088834806678674	9.883884765526549	14	-0.027173240797049	-0.48299036192684114	0.054729576286800065
Si	5.551050076757476	5.521585422825274	0.3524836773367501	14	-0.2622450293391437	-0.46078783904523435	-0.33127740741139544
Si	6.952063585967949	6.847870147182817	1.7359158627322546	14	0.2128828925186847	-0.043632428614508945	-0.3530502985940054
Si	8.401245701695363	8.195765475358462	0.305988135788713	14	-0.8233519986553838	-0.9092312872273739	-0.8288027419340978
Si	9.791835733316736	9.57150025651472	1.4954372493702963	14	1.545620991649146	2.225126332516077	-1.144781301359016
Si	8.343058286099357	5.399859612061066	3.017629396601572	14	-0.2981322602872385	-0.43501636486873013	-0.20462424511983704
Si	9.73217867482542	6.6740878663133305	4.406507201785328	14	-0.26495163190966353	0.8199928495546104	-0.7244379774418389
Si	5.5255831560897235	8.18562591841753	3.060469867736399	14	0.03459987851429673	-0.5316613856372442	-0.10044999953180127
Si	6.982878222752172	9.480279054240755	4.301949343777451	14	-0.302534506816396	0.1422888250749749	0.24191427113060468
Si	5.664229984793657	5.332363732915704	5.628884583643059	14	-1.0090644785928715	-0.2522092339430096	0.8790645085060765
Si	6.832092426565796	6.776843208941838	7.012500610377799	14	0.815493672354883	-0.4018609333232926	0.1428786366354169
Si	8.246593798292158	8.10996160958979	5.6522422240931895	14	0.9737853140529917	-0.20710304775899177	0.23539934735988147
Si	9.563202376421874	9.55016813425191	7.021443566885835	14	0.08411268210651635	-0.583884905568496	1.2508183127514991
Si	8.16570360902839	5.425255824521421	8.512223864935015	14	0.20430877049705487	0.6223319289733302	-0.3222499995218235
Si	9.683292108048741	6.771795730752166	9.769511520513198	14	-0.0967573780710046	0.430726475642063	-0.09019720284664677
Si	5.548555708764176	8.175191562642679	8.303511729610719	14	-0.6969821721701056	-0.13508818751536822	0.8000305307384485
H	10.67417517015841	0.20388874776114946	10.900740583941515	1	-3.7336946111755047	-0.21637419643291378	-4.552989662746227
H	2.362405809742134	8.821867071136937	9.168893162681107	1	0.7358056053938096	-0.7352168222754957	-0.7034942677249766
H	9.006064127046919	8.76415829571409	2.2782967653138737	1	-2.288849120991691	-2.4592699520375976	2.27886474770196
H	0.26645680876013056	0.28336368505837567	0.5992020180469735	1	3.9264246659738045	1.4448483183996659	4.641684311643778
H	9.697877579507166	9.480279054240755	4.301949343777451	1	0.09964164401914671	0.16544651358301662	0.19546108286936129
