68
config_type=vacancy dft_energy=-6817.891313447546 dft_virial="4.679291760020999 -1.8593684080672124 2.7213744516539284 -1.8593684080672126 3.4990796287190773 7.397104203230354 2.721374451653928 7.397104203230354 -1.9757273505899373" pbc="T T T" Lattice="10.907809927684847 -0.0686012746734502 -0.04937022883956679 -0.068939426925776 10.878237967812096 -0.0714592066124618 -0.0494793102112848 -0.0710883299486206 10.899465202748418" Properties=species:S:1:pos:R:3:Z:I:1:dft_force:R:3
Si	6.960408153992812	9.575406060864971	9.779828914719372	14	1.0811623855383359	-0.8197380530173837	-0.554141330782895
Si	1.412972458784507	0.9521462050109268	1.3157264158979098	14	1.2401492541150128	1.4993606362869134	2.6903411007015423
Si	2.869995247909894	2.6575876376457352	0.4158018267832583	14	0.24657979884454542	-0.37512452332013674	-0.5865038334475989
Si	4.433563266860837	3.871273884370042	1.7248753698200874	14	-0.9860350882403052	1.027229337679718	-0.29888533703550985
Si	2.981673847088499	-0.02817353668732504	2.9276982027349985	14	-0.09097753331131173	0.4808198348155721	0.33750745271264626
Si	4.373190000056075	1.2686807110896536	4.490818988061898	14	-0.6808801108816143	0.7206664230477137	-0.46257192902688515
Si	0.12910762075170762	2.5554754747667983	3.007471591499806	14	1.2975383817449737	-0.38695366467707404	-0.0454530282917058
Si	1.636444192582022	3.94630877834742	4.359357391308516	14	-0.2705556130654583	-0.4937272977437795	0.42386676664790796
Si	0.3484189910318982	-0.06180223277426726	5.797607276361235	14	-0.9567921076605369	0.1645759373216145	-0.5344114398876746
Si	1.6320416684194834	1.2820464515662602	7.1667377502248435	14	0.03341254207745235	-0.05421149856479023	0.9770051092454131
Si	2.980088894757437	2.677625885630332	5.872084764529133	14	0.4085846308460119	0.12858766193443782	-0.2030926376806248
Si	4.2653445202796405	4.1132130943994145	7.347792101816097	14	-0.3671826360967313	-0.19532944227696972	-0.8762740879021196
Si	2.9665813484975967	-0.12461237742320884	8.67795325563345	14	-0.6397138864901915	0.5104022012975998	-0.2927607070523851
Si	4.285240962481003	1.3742780237949808	9.876109587466265	14	0.7055645217287599	-0.3282445315757488	0.3365445737702508
Si	0.24599267380241333	2.636237140759371	8.61568742702938	14	-0.40496657143949943	-0.17352055561987764	-0.3299743712351444
Si	1.554398638844328	4.026940637507648	9.95015184096101	14	-0.13782718601292193	-0.2379277723317151	-0.06385365773640957
Si	0.05039777536115036	5.342157643399635	0.23934525500991843	14	0.568465986963568	1.0523667772842735	0.47059943405745147
Si	1.5605104681016877	6.575983583784237	1.7153569293239745	14	-0.6915465984127807	-0.038656054267362336	-0.1950167958700397
Si	2.974739544288386	8.006186536045318	0.6041340874955368	14	0.10461956102948541	1.2751193717954106	-1.0036415032516153
Si	4.4192114307839	9.526497246227771	1.7419466044939544	14	0.1871944650440212	-0.18341699710765963	-0.8693927816232754
Si	3.0069665447487517	5.2797925507473025	3.0424954383310214	14	-0.1458580334804045	-0.44810509072200794	-0.5546997748584311
Si	4.265898653647968	6.728933119952347	4.259769371371133	14	0.4430492692204688	0.707493364939935	1.3112236040325258
Si	0.15674338627646292	8.019901336911422	2.9954748222382603	14	0.5682150470843216	0.04489664110042576	-0.22840234134163048
Si	1.5148173723027347	9.481731342088421	4.1341774432298966	14	0.05938713357424832	0.174186471897796	1.2371546877486361
Si	0.3170940935156401	5.309579400922337	5.835679947531968	14	-0.030445486538001464	0.3430659253042744	0.44620812921680275
Si	1.6211018976498852	6.81149353776455	7.297087807800418	14	-0.9045292498178871	0.3842815149178441	-0.9275905218764232
Si	2.7394303000320335	8.110465054966575	5.630413894674188	14	1.0627031348923328	-0.08553861711707048	0.19904674634883981
Si	4.138635598892012	9.485988788026575	7.045912678027682	14	-0.023032218568418507	-0.781181243415379	0.4442489469628498
Si	2.8470532538101634	5.468684398896494	8.685538774222719	14	0.809621267803665	-0.39581446494190037	-0.15997700123546565
Si	4.311084521068432	6.710344563397883	9.986304679989505	14	0.04277779320609173	0.5478961159602552	0.02642530625941793
Si	0.2452760091902261	8.283193225454593	8.68444359725067	14	0.3519622068225188	0.07590262859821949	-0.4100067091985857
Si	1.4590680648450993	9.723225500121185	10.294481371367198	14	1.256895634396733	-1.816491822226854	-1.1362884262655029
Si	5.856569030215965	0.040017592028465485	0.3422678924807201	14	-1.6034379512043795	0.7831334836849675	0.6803725746914171
Si	7.095046200290621	1.3930814706517296	1.8559966326937092	14	0.2422060915844415	-0.6070683051297392	-0.9428482321777779
Si	8.446861097207714	2.7342696603360546	0.516803541298106	14	-0.8009345313690126	0.26527687673266226	-0.08252733856611304
Si	9.816756231487066	4.035331176620197	1.8055421350192653	14	-0.32697903353717184	0.435483277594869	-0.2117899156470897
Si	8.435060674415261	0.02014405691516306	3.127431648419243	14	0.08550005053726824	-0.26202160028682275	0.6720622480756344
Si	9.70064129292069	1.3911550936271897	4.5188299935053635	14	0.9137700594490311	-0.8039090431138919	-0.13757187525463124
Si	5.761699870419103	2.7004031668587674	3.1392331620254126	14	-0.6470163398204759	-0.5274234327380442	0.8215051737039213
Si	6.9152070151803064	4.226524641712639	4.4345809960589655	14	0.7387839737966692	0.12913659292028945	-0.6592835975239664
Si	5.6560872863217355	-0.03498130509624542	5.905725459566964	14	-0.005205974052235831	0.30734118821241285	0.3092265797436774
Si	7.090652402637821	1.4016432675178754	7.122290363690909	14	-0.06533564284294291	0.6806052597228905	-0.7404099408011309
Si	8.353100204147507	2.900024258730142	5.5847000734146075	14	0.05270637351037555	-0.9539312387708082	1.8701731588746298
Si	9.721725631260062	4.007865578035322	7.186097512077354	14	0.34433733688508755	-0.28475017131693175	-0.19914599101419753
Si	8.409171301651712	0.09386670199077336	8.471724014263398	14	1.0469170624476876	-0.4850942974103183	1.074616094282707
Si	9.812676588184813	1.3836775655959206	10.208485981159596	14	-1.0263266226018137	-0.139928550391079	-2.900663172321359
Si	5.717690990999476	2.706830241280392	8.487310651468183	14	-0.5268349067302623	-0.46025536313343174	0.5561131114529165
Si	6.950132688776977	3.9127651657304177	10.020467874797866	14	1.1800211279874977	0.5579087714085079	-0.8033153748954698
Si	5.780738933038763	5.440557767199008	0.4121650538501802	14	-0.803632135070912	-0.40873118384926027	-0.4073096197177504
Si	7.100759882541211	6.765587733290746	1.7049952898244818	14	1.5272597001158403	0.6784563298963107	-0.13990900999064584
Si	8.511365275559438	8.279780069333537	0.2559496214128324	14	-1.2789480047276431	-0.03361977316625628	0.20637285384806975
Si	9.913154712115414	9.636823236397074	1.7403191104279216	14	-0.15381020512509047	-0.04957373878830713	-0.7053079254178092
Si	8.54629749403841	5.466814744185249	3.143190634191342	14	-1.9214831650856334	-0.7854850166107749	-1.0690506797067143
Si	9.877668360268114	6.6358954363866305	4.425074554513742	14	0.24482141991609616	1.2487097492784456	1.6891555172517325
Si	5.785142548015019	8.13523416204258	2.998017509013007	14	-0.24495126073476364	0.34833232033153366	1.3797111648874385
Si	7.0269717886425695	9.61261044431683	4.569055420299199	14	0.518807144589164	-1.3684389249428452	-1.2776364839038357
Si	5.572561498369828	5.399103573505017	5.858733204630851	14	-1.000200850112193	0.7354531068544173	-0.42374952424530926
Si	6.866118216279773	6.831132547928658	7.094129916768191	14	1.2351348274091278	-0.27661725096823936	0.22931585506187913
Si	8.439354117206081	8.089182188530676	5.77608661253499	14	-0.09643624701651811	-0.06415062040088666	0.03782147348044227
Si	9.799153770532934	9.473470609808217	7.1436332248812535	14	-0.1976488363862753	0.34084680430245456	0.09022882744208459
Si	8.252087581495488	5.357936263818644	8.449479050128947	14	-0.19128997870848505	0.6843413328635977	0.8742578271100597
Si	9.694866525101938	6.846355944165622	9.77972092416137	14	-0.17649249625943683	-1.3367942748835266	-0.006868193641711564
Si	5.563086690422403	8.136602042443926	8.498129341915176	14	-0.3140191200604335	0.18308403896870046	0.3275287358546195
H	2.3328862092664817	8.755072694624358	9.344259361753377	1	0.3216229069342394	-0.43143841470521205	-0.32682039633891874
H	8.976963839345679	8.750526183051152	2.5206261581303315	1	-0.7117156340966823	-0.702197402201494	0.6537325811377668
H	10.658688800141562	0.4125010244750716	11.059290137775914	1	-2.183424289775935	1.2132385231711507	-0.5879323395634731
H	0.5147473574412218	-0.0090701160583517	0.32791278396263135	1	1.6340978679260814	-0.9101699977797599	0.8224400275983271
H	7.026083866276784	6.710344563397883	9.986304679989505	1	0.05259633020267321	-0.02261801350134265	0.1602719070156866
