68
config_type=vacancy dft_energy=-6821.161151935966 dft_virial="0.41429626447843304 -4.882267185707051 2.869120682163861 -4.882267185707051 -1.228602715349836 -3.7084277696848242 2.8691206821638615 -3.7084277696848242 -1.3500343790762732" pbc="T T T" Lattice="10.89390075842386 0.030296089489624204 -0.015578355976326003 0.030230725758255004 10.90776876342936 0.0123537452287788 -0.015589249931554201 0.012364639184007 10.91194114828176" Properties=species:S:1:pos:R:3:Z:I:1:dft_force:R:3
Si	7.046838822816428	9.583667332799882	9.831347941286145	14	-0.918056606238782	0.018367462186073845	0.09885591423330946
Si	1.4632847814160066	1.3252834247717376	1.5338623597574232	14	1.0244219477806482	0.7029031706118748	0.8141461560565936
Si	3.009293901252873	2.660607808077307	0.25110239982344157	14	-0.9725887216369947	-0.08749137160772294	-0.20438410388293518
Si	4.234464056268498	4.134083884609295	1.5152206235709273	14	0.5686963580002532	0.015383437351509986	1.0345860413322574
Si	2.8977692133952213	0.0768623011125651	2.919703102851679	14	0.2985269249538812	-0.510474449357096	0.38918409854230246
Si	4.383316881715578	1.3545347839549773	4.33276130368807	14	-0.46740457858663553	-0.1817825454556415	-0.2994237264895489
Si	0.16228616163897258	2.764862959611181	2.9491995760275533	14	0.11669629982875296	-0.3417536331488708	-0.1946763815256521
Si	1.5696533602641516	4.0245658633046775	4.38600659926142	14	0.26401780645738576	0.05346639224301132	-0.3179040601991772
Si	0.19706075612290982	0.019556828425664644	5.771635999624249	14	0.597358782998732	-0.25597410346330246	0.3244570363286386
Si	1.564070208209699	1.4134689029484937	7.22234806731139	14	-0.09406517369027755	0.1048051948336001	-1.0188783875998768
Si	3.0173652326814464	2.68319642424298	5.688967220375053	14	-0.7292040353737975	-0.06702434481721617	0.5693350205617781
Si	4.232198113581033	4.118957627774939	7.1148791989851965	14	0.07807341282002052	0.1167649483408009	-0.12601629950375773
Si	2.8604367182237027	0.015733050140566442	8.54373799248457	14	0.11775148145214173	-0.2762557535602266	-0.15676517646953664
Si	4.301509814324932	1.3197634576576087	9.83038818383054	14	0.5163897913671607	-0.09013266810311106	0.09830775457905389
Si	0.09943130815882706	2.7250499108342017	8.560561527543477	14	0.6077175092230765	-0.24886911102160528	-0.36348410109369833
Si	1.6166324527902414	4.034968501152085	9.803428912827314	14	-0.6555359544093187	-0.4057692705204497	0.6469674888193931
Si	0.34079669079930347	5.375569916370195	0.3258948494426487	14	-0.041050267541484234	0.6107431859638268	-0.28492860602615006
Si	1.5984417263501929	6.797004479381549	1.739258081025429	14	-0.33803555774540467	0.31742506327803366	-0.5116936674999103
Si	2.8645393817626426	8.115588121687942	0.22329993668555237	14	-0.08426591998359717	0.08469992256163816	0.07120136252032874
Si	4.202477224927457	9.421519524392307	1.630142046668732	14	0.6177813296672002	0.8892908228064335	-0.029836648798190403
Si	2.9284498595044006	5.468157641854667	3.071644364605953	14	0.4243156816368058	-0.018354092438409075	0.37446991990562706
Si	4.450538032451185	6.840312308995736	4.347049815365376	14	-0.5433465450962532	-0.17885457071705688	0.3096916926960922
Si	0.15120374098532474	8.307087513666858	2.86631945404693	14	0.7177492469514737	-0.5728445793237801	0.8170946996377394
Si	1.6082462860555728	9.58359325390433	4.320708231623589	14	-0.24122212957842085	-0.14249117106367057	0.4342931129421725
Si	0.22157215538635983	5.460239915194812	5.657250559123672	14	0.4997290288926012	0.5917920828700794	0.5144082404969226
Si	1.543772590828517	6.951753113398129	7.130735350819842	14	-0.6291070486024525	-0.9429374495323871	-0.8773647507789265
Si	2.9788365812258712	8.153375984188001	5.759454378888075	14	0.014666356077720688	0.44448343176804733	-0.9689184687924834
Si	4.296277447628828	9.59690239900662	7.155221693986267	14	0.20329241256400032	-0.2342433784079429	-0.15621136038357675
Si	2.717475343764034	5.438586000387718	8.411425459260466	14	1.528105850876701	0.4848114758251019	-0.005020340248121139
Si	4.229829767714421	6.857221906300947	9.704464955347776	14	0.2767969712301177	-0.8327352475212643	0.3711459949477396
Si	0.09358561178337493	8.212812314517537	8.427525635692222	14	-0.11967286845788838	0.04704377115328141	-0.2343811896531028
Si	1.3836140186456116	9.565003808702928	9.846765066725093	14	1.4962660539235833	-0.8399639101288606	-0.5542943115494438
Si	5.660025249520293	-0.00983833096658742	0.3758349189997631	14	-0.2615593155502601	-0.4993176520413774	-0.5087646643191976
Si	7.014812773236566	1.446561470745197	1.604457368427205	14	0.8705801180601197	-0.2192358366542386	-0.048723217148402144
Si	8.417655712255472	2.8175515740723704	0.12451464007175754	14	0.026681388349304676	-1.040637394813758	1.1073205539549906
Si	9.713877332664941	4.194536620961623	1.5579804872371352	14	0.44643207249018757	-1.035948984262468	-0.15324893283370214
Si	8.501339808131936	-0.030828803900283187	2.886802268666992	14	-0.5096601803022051	0.6317838263512586	-0.010651318009777446
Si	9.81243603500999	1.3643099299812413	4.34426205222248	14	-0.3440915392164815	-0.09801773389894118	-0.5320624780671873
Si	5.632135634740579	2.7522172563822864	2.9330754328942943	14	-0.09320796717654016	0.5454016295786476	0.04256567701717951
Si	7.016000214356439	4.067948861209938	4.33750562118995	14	-0.4046323277478802	0.665854314280137	0.36341313858686225
Si	5.672239552122152	-0.012321063363094202	5.739899729253456	14	0.15900126676646945	-0.2769144707432485	-0.15707936553965876
Si	7.015141770684457	1.350312286908527	7.129350729110338	14	0.2689324742768488	0.2197623990238049	-0.5830778356085015
Si	8.375085403410235	2.6647682095789564	5.638689438205864	14	-0.06166410444577146	0.25757615918828675	0.6807993781745616
Si	9.741981558362651	4.105539543120365	7.031392283698363	14	-0.347400808874044	-0.34123375565313685	0.08350564414042938
Si	8.367904108123806	0.012375533139235203	8.507448048828389	14	0.16310372241529772	0.30424069230684625	-0.033227422494401686
Si	9.835134680123467	1.2304776900028043	9.953059566677686	14	-1.5483867296420293	1.045722269805415	-1.545799169247832
Si	5.621307043243748	2.7002411065930216	8.41628634208329	14	-0.09302824691466183	0.4158927406080008	0.30663259158618006
Si	7.022401502448529	4.142963547515801	9.734578026389567	14	-1.1114528344255323	-0.9125194738213113	0.22018740273322535
Si	5.68191229496927	5.4472390690254775	0.20084422677366368	14	-0.1260926613317661	0.7519066382401729	0.1102626229861464
Si	7.170537505641593	6.8371345422556695	1.5916460770788416	14	-0.7052554748692782	-0.5840527987459017	-0.577842036734552
Si	8.423763952951925	8.172180040307397	0.11930732947267796	14	0.6033880249744792	-0.0742252394873549	0.542838494684992
Si	9.93422391808813	9.710549229342726	1.3015008311130543	14	-0.8993068206916023	-0.4591060790553255	0.4766438455545876
Si	8.439811838398587	5.424607966434415	2.9604813560618775	14	-0.5553088697087741	0.7398535536098508	0.8485814838304008
Si	9.77262625441958	6.902422015938272	4.3221865413480565	14	0.7351227198207784	-0.8969288053809972	-1.1628656848493417
Si	5.773430234050332	8.160158560713079	2.8906129742058164	14	-0.6321517515225719	0.1431897403791548	0.28313011785470643
Si	7.050900089325501	9.525530651329069	4.296507310084143	14	-0.11688784717510399	0.8427928973126194	-0.32291977245772213
Si	5.669193602240346	5.548684669505998	5.885905964199407	14	0.8253924278374533	-0.540356863829985	-0.7104969301749321
Si	7.211732997337031	6.90031948257923	7.156937491934709	14	-0.4164753530735463	-0.579162813537512	-0.7130924609956215
Si	8.43622445894194	8.201567573930989	5.548934141080724	14	-0.635124206383195	0.22122638639309722	1.580821480366229
Si	9.622370287539107	9.586682779607047	7.053767378341562	14	0.5849997368353121	0.08207328136657488	-0.4207215335097709
Si	8.415024822067863	5.387263487912145	8.520199423422996	14	0.9122623632892963	1.0770709856423843	-1.1387924257367952
Si	9.848812040912472	6.778337687098028	9.806107736417928	14	-0.2333751161413289	-0.37423517798989747	0.25400720789338915
Si	5.745961125942427	8.153384699352182	8.435321350053522	14	-0.608766263083165	0.840895164475818	0.18088651525156987
H	10.702504859019614	0.3875862285044225	10.880399879709552	1	-1.2892293406818511	-0.024146535614170683	-1.2740328226871158
H	0.5706918279800081	0.42687854622149424	0.6267216185096863	1	1.8394733900204658	0.38753807691634373	1.5089248909673323
H	9.009420807228912	8.777225956099533	2.245477303173904	1	0.015314788839462032	-0.1302889623247798	0.00269734659136735
H	2.398698604667491	8.568039138412114	8.78257488811658	1	-0.6575943813286292	0.6869258079314104	0.7205985458672618
H	12.487630849137856	6.902422015938272	4.3221865413480565	1	0.06517006366032536	-0.02740695427065046	0.015617665046175476
