67
config_type=vacancy dft_energy=-6806.83340702624 dft_virial="2.1269999041795864 0.6417774390190497 3.799654597371566 0.6417774390190498 -1.9051655583449059 2.0629407882701067 3.799654597371565 2.0629407882701067 1.0261321344759298" pbc="T T T" Lattice="10.883275237224918 0.0270232805071515 -0.014039481213945 0.026968863913299005 10.892036308835172 0.007955706021235501 -0.014050364532715501 0.007966589340006 10.899513148830504" Properties=species:S:1:pos:R:3:Z:I:1:dft_force:R:3
Si	7.015969537018522	9.445490877772933	9.645278137106757	14	-0.11880794862819057	0.20796308248858134	0.25348861595031535
Si	1.571988739874774	1.211721503610544	1.5082527601590952	14	2.240478145272149	1.2855020092992324	1.3888612145007815
Si	2.83991170161618	2.735881322484602	0.2186611107456237	14	0.5329420531972101	-0.2525879577566674	-0.4183592019416188
Si	4.21673641597084	4.0305631000870354	1.6552787784254108	14	-0.3468030268871096	0.8874918204139258	-0.7292186906741223
Si	3.0101692521300047	-0.0638981411653596	2.9062934161249676	14	-0.44388179312313275	0.24414367655370506	0.1681731707750337
Si	4.196785116000759	1.3535039388932326	4.3793462583846345	14	0.4989762092548617	0.31005678965155326	-0.7102141085897158
Si	0.26609496727497095	2.613600706106772	2.7475917734816595	14	-0.002601701473457841	0.6465465988784849	1.4537862518240967
Si	1.5879796001442699	4.026076996089836	4.2764020344663525	14	-0.35172617935412914	0.3881983367625577	-0.33768665875346054
Si	0.2088617705246655	0.026530266166847852	5.522358105601381	14	0.62399594833653	-0.49194449331478884	0.4607428447021318
Si	1.650906949275301	1.3124433538358902	7.003780219995562	14	-0.7248537251721069	-0.6445460218288777	0.3519069280581355
Si	2.9234857947867265	2.762771826502753	5.750347308865201	14	0.04407980094021471	-0.02337648957078633	-0.4770739914746484
Si	4.343516196328395	4.109096040003086	7.000119071561166	14	0.35514240699300986	0.6361644755957269	-0.4044636632388785
Si	2.9308810098912814	-0.07578599025837676	8.495734121963956	14	-0.23383328710937926	0.7008156902024464	-0.8471110686978082
Si	4.290756043592765	1.4183434871322407	9.669493521371118	14	-0.5556518551584819	0.11237812844356426	0.7575877525555722
Si	0.23579471948602185	2.441802077655044	8.533161855215706	14	0.07671278388459817	0.4643678460930086	-0.2099765150647893
Si	1.5498009178973557	4.092838538423714	9.65127919907681	14	-0.1878979194596137	-0.04564560408018489	0.3666483604112045
Si	0.08410084579903876	5.442094718000821	0.11815366190005622	14	1.1730300355114829	-0.11103266902953078	-0.2524123512633013
Si	1.5253874572313704	6.875418005088777	1.406601474510748	14	-0.16998014359403377	-1.0268112759546617	0.34729462222432195
Si	2.9182095618467883	8.339741337362627	0.29381151518780324	14	0.07205085571810567	-0.23815248693669608	-0.5478490647328966
Si	4.4761631738351255	9.590853924931118	1.545995021323312	14	-0.5663031731682594	0.04677277665253781	0.02685288107415855
Si	2.854427872192273	5.548546635558835	2.886077651508764	14	-0.007017060639748138	-0.35477833847967694	0.17953642784796012
Si	4.251757847442432	6.899450549597795	4.235840993740576	14	0.6333023211533382	-0.6584690713585435	0.46368830295689345
Si	0.15037046212449032	8.054267532684904	2.827658173012474	14	0.24118741965659887	0.6029702203599552	1.025861766759931
Si	1.6125193073079933	9.435594676014919	4.212217662017329	14	-0.2874837704933132	0.12054653004567469	0.0719420979630634
Si	0.18374198247047446	5.398996775669641	5.689704368344096	14	0.1603235862326216	-0.5357777252548013	-0.062277313064626756
Si	1.5243796619132217	6.833638032660705	7.0074718417225155	14	1.0397120540090368	-0.3493808170810901	0.27714355622727366
Si	3.0006713798389897	8.22744616595673	5.729482898450275	14	-0.9755467783078253	-0.6290263158953999	-0.7038948459338558
Si	4.310213240890665	9.585265340742465	7.002904112834537	14	0.49683807807062663	0.447411406506632	0.32052298807828
Si	3.0475784837398447	5.474038346924115	8.396785164366324	14	-1.260782888530265	0.10535309737732367	-0.40403505998200984
Si	4.215527279255438	6.833471517883516	9.86978685502777	14	0.5589050747200653	0.40179382747443676	-0.41854817818264967
Si	0.30225044056244893	8.237635128989671	8.42992378169062	14	-0.6680050438804408	-0.5141878967709859	0.15217575347307233
Si	1.3682562774866456	9.753329902524035	9.89916093238935	14	0.8942736249168804	-0.5685845149188268	-0.13242246551943868
Si	5.666003765057579	-0.0064407480483819	0.04887371960268436	14	0.46963192712547974	0.3002958454141431	0.20185233647418538
Si	6.97286832969171	1.3150444670220396	1.5563385274827952	14	-0.2912859210407482	-0.27363451168633557	0.1916465910163896
Si	8.422156357084114	2.528228688675339	0.20349302937517788	14	0.4980025316701217	0.193215993703808	0.04795059999969765
Si	9.788584237017316	4.016412609021632	1.4913466127810004	14	-0.7534225619369324	0.35235532882596937	-0.2620982192253632
Si	8.396956032471023	-0.048807331358184304	2.9189975141257727	14	-0.36214378389030516	0.7396046706148605	0.4047570263559074
Si	9.749914717093851	1.4504220692082892	4.208773091626465	14	0.02182379906794891	-0.6617451737574763	-0.29653174722544634
Si	5.5668730560364805	2.720588082948295	2.918625304623821	14	0.7363882178593552	-0.8855192684123082	0.6683770828202662
Si	7.151595278872739	4.028169858289403	4.130923624129202	14	-0.4908905972440601	-0.49716975065692576	0.8176194622335815
Si	5.69726609822584	0.0635651116109823	5.602316760276368	14	-0.4117715158903354	-0.3820762778847531	0.486513290436508
Si	6.9835644553793585	1.4169351856833379	6.991126185261102	14	0.6887091265814652	-0.16405811671013668	0.6045869313852643
Si	8.491832452184733	2.6866212450655644	5.684066809220979	14	-0.9547071983564288	0.5480105301470019	-0.40497557030812
Si	9.773236580887156	3.9834535664570496	7.122694625877677	14	0.20504384950808519	0.22998100000820143	0.3458671445505757
Si	8.37957646072641	-0.10960046167832026	8.342703776731955	14	0.39626055171494606	0.6774733963324181	0.141387138439199
Si	9.9267675587826	0.9240002936067124	10.003156484900863	14	-2.010624414977295	1.7443466069434992	-2.148107844208913
Si	5.642226978539668	2.810886978787134	8.398247882409079	14	0.2581508012273398	-0.7016353585785097	-0.5270470229191745
Si	7.015672422416088	4.000117015826562	9.805691725792665	14	0.3777323954463629	0.6272098299867152	0.2507367619261608
Si	5.623430398691137	5.417193684653916	0.2866143764848716	14	0.06969109525527376	-0.19017026234156056	-0.0967486363129161
Si	6.97904461309397	6.849799761034896	1.5999349258136641	14	0.40978996502009724	0.2813187741566621	-0.6374824241828349
Si	8.439742711885366	8.346244120327999	0.2894843076446525	14	-0.44694089423304495	-0.8265789929427017	-0.4360352939071049
Si	9.927725290834404	9.765616081084051	1.4952428409008394	14	-0.3819551788241741	-0.8323254133332326	0.12204394178412895
Si	8.375039205130989	5.451131137575967	2.7976735414678693	14	0.5987281536922429	-0.33001499469920276	0.14828618534475232
Si	9.678520145959373	6.724642683506024	4.279526635285363	14	0.08003413773716544	0.40943155293846856	0.014934522362612132
Si	5.729351210293151	8.260123330565156	2.981239214174262	14	-0.34249513992320146	-0.6490914789243675	-0.07553676031116244
Si	7.083697518059221	9.497048423784424	4.37873570420161	14	0.3795933614770861	0.4105975492011558	-0.020707939359004644
Si	5.769806682826855	5.36003449447125	5.492830573445137	14	-0.7548197005679008	0.6638447383619093	0.20035286785147502
Si	7.016193733385195	6.741234302971652	6.98810171097478	14	-0.5950612432846477	-0.404750855703139	0.3409378214307878
Si	8.39641077820062	8.117478936435845	5.775424651976186	14	0.417807185629383	-0.028998468463822126	-0.9357866914159914
Si	9.838263322209016	9.504888766626692	6.968052461135764	14	-0.08692932798473857	0.6299783961954507	-0.13526096579288216
Si	8.356073933841515	5.419860097752689	8.426728439299602	14	-0.024845104929654915	-0.12973617468094797	-0.10153937685594801
Si	9.655201547161697	6.911831413031115	9.72943992949091	14	0.06957590973693113	0.26106797732357984	-0.12802201876400524
Si	5.586084290330166	8.143207102009304	8.315909045918985	14	0.18950974538481452	-0.7482353569535336	0.5152662183422559
H	2.3158907861353755	8.801844875694302	9.044804083926943	1	0.3102524507664165	-0.3814255311282237	-0.22898469669664404
H	8.977899970117171	8.832103766871924	2.3733351192698287	1	-0.09420735581448174	-0.2945280848494549	0.34866682113368497
H	10.736666050067512	0.0037308016745274003	10.876876934119743	1	-0.7961401912785325	-0.1861529102788292	-0.48291554276202475
H	0.7986473163399703	0.3700872547908525	0.6804893011124059	1	-0.11925917761187656	-0.6650603569572752	-0.34467286612936693
