224
config_type=divacancy dft_energy=-23042.964768311624 dft_virial="39.33893999222136 -4.64149205751785 -3.340437534086363 -4.6414920575178495 37.363412418299326 -10.911297751722959 -3.340437534086363 -10.911297751722959 36.86853278361986" pbc="T T T" Lattice="16.3199774331 0.0 0.0 0.0 16.3199774331 0.0 0.0 0.0 16.3199774331" Properties=species:S:1:pos:R:3:Z:I:1:dft_force:R:3
Si	1.1225533277583504	1.208951288289182	1.4927393758733578	14	2.3506500082404944	1.1719504283875528	-0.4348428152596201
Si	2.470958823213372	2.708626654571607	-0.1633303341504648	14	0.7587789456503968	-1.340482525465279	1.4707090099307791
Si	4.065616458156439	3.9811768949175796	1.1614601539588607	14	-0.24778179058171462	0.39572936135580344	-0.9458551398496912
Si	2.7496713978158533	-0.0131375818336455	2.76786817265376	14	0.6442490591644006	0.02555293022429168	-0.6662096410353814
Si	4.263137145029249	1.424570830135299	3.994804076074218	14	-0.7344007534468807	-0.6612270960354665	-0.13783592777101045
Si	-0.2504463736883526	2.5123789259385796	2.774559363401331	14	-0.6870692756082747	0.505196484355896	-0.05451823142948389
Si	1.1845529220266973	3.801036984011022	4.064947339081682	14	-0.02682331336297685	1.633263030028629	-0.5854617644613428
Si	0.2085366716401518	0.21930785674599781	5.346326687218961	14	-0.6163906187995322	-1.926188544932036	0.3932752413277221
Si	1.4739061219155605	1.305581874670567	6.990042174325928	14	0.9871640605863823	-0.029213412868586506	-2.3445500608684426
Si	2.697888109420627	2.617691740314374	5.250740579393295	14	0.5318768442630726	-0.32586445938088765	2.163213859296379
Si	3.942857587904661	3.816279842933537	6.963946530410401	14	1.2307184398007094	-0.5327278801240417	-1.4819056593789601
Si	2.8099410744762916	-0.1227915102066444	8.134643791596396	14	0.5960601177015252	1.285628250570452	1.3808558209759685
Si	4.089280425434434	1.5369665147170586	9.79941204959206	14	-1.362980725458703	-0.5788596802202666	-1.526731852193614
Si	-0.129254221270152	2.436344151077767	8.021122028571753	14	1.1110648546327222	1.5806458738728628	0.9453689438336512
Si	1.0318468931851807	4.1848991732149665	9.312587122762688	14	0.70473251204716	-1.0786265043610739	1.1992709935194463
Si	-0.052648247199180605	0.24584414005221839	10.746868339470682	14	0.9664574067800377	-1.1751265147895318	0.5972775360706152
Si	1.1388569852140173	1.3360023126058653	12.472069473901115	14	-0.1627681931710184	1.2766162693128007	-1.9072724088706423
Si	2.46057931756592	2.8745681851113676	10.947881501514173	14	-1.123960747586989	-0.16566068665618497	-0.31854349409229804
Si	3.9671253943476805	4.130488368453011	12.106126619918713	14	0.49893507156973943	0.4602119114535212	0.8745504188954925
Si	2.5992664857924037	0.0093187071143001	13.486910950601004	14	-0.9544012368233313	-2.15761064947218	1.0790651349286913
Si	3.8662679338111223	1.2765975947493813	14.75219880098925	14	0.3621360705743447	0.818548145475219	2.488769528928317
Si	-0.2512134126277083	2.668153110537519	13.793367486839758	14	0.4459615602166005	0.5455859778301022	-0.3019567794509588
Si	1.1625209524920124	4.109566157383777	14.976826970378438	14	-0.516463582089849	0.5194663759932499	-0.013138862407020715
Si	-0.24603997978141562	5.397865175952691	0.09687538604288161	14	0.2419474383892346	0.3693925011193986	-0.07682565540815266
Si	1.3282340033477098	6.59584943940683	1.4242933905189363	14	-0.17874504163041857	0.8767235171120815	-0.8334271319629161
Si	2.552509750446572	8.087789136385966	-0.1167531185563974	14	0.13846122058487045	0.6967474302543761	1.1989431775911275
Si	4.038166256113964	9.439785026876269	1.4364191337517296	14	0.25066040009815244	-0.8664223836469084	-0.9239094703895673
Si	2.708479774774709	5.127279950111894	2.6135301460689333	14	-0.6234326191608857	0.539819502818074	1.2178444012416638
Si	4.001821666370451	6.55220981975072	4.092952420356882	14	1.274415403158754	-1.1559913205548618	-0.5201328064922324
Si	0.1278343832334723	8.320577294491704	2.6378469124442523	14	0.8091934358783924	0.1834334521817086	-0.6714282135036859
Si	1.5090103933741585	9.464411872822817	4.156257612819876	14	-0.4018953861345826	-0.7706461393660722	0.47734138642794377
Si	-0.1479079554761853	5.487951451383403	5.237635637514515	14	1.5886641229242768	-0.45454031022780655	0.5695965019728371
Si	1.265761129733803	6.810506102584394	6.668571258848723	14	0.18811800607501838	-0.5346384684874437	0.40067025444953197
Si	2.88421329177433	7.9276248778575225	5.449860624054548	14	-2.038025712816241	0.3552665913799731	-0.8191060753296912
Si	3.8690749699296156	9.475427857590159	6.65202280173156	14	1.6600053535740216	1.4780888535312002	1.8011171266334327
Si	2.6862846054656933	5.319251844657448	8.011721721570286	14	-1.4727571524288094	1.3383207401120985	0.7699529693717603
Si	4.019479881953066	6.828980317038663	9.314414960235196	14	0.8220481911475366	-2.022328086394609	-0.07540846215568703
Si	0.08432532339682769	8.301140201368883	8.142216261125354	14	-0.45576209947594093	-1.5783105389105723	0.16009012986955215
Si	1.5697207094252905	9.45811236153364	9.479475211993568	14	-0.8649290856769664	0.12011869812040205	0.8326979664941221
Si	-0.25493436748245507	5.328880631342978	11.009163016775464	14	0.7752486749996694	0.19441335745140095	-0.18480976485958384
Si	1.3529750891362893	6.574812988495563	12.374769768444974	14	-0.5824486861366613	1.2929147630477515	-1.061730999970785
Si	2.8038863628486115	7.905772428074601	10.780520132937735	14	-1.2862926241851782	1.2947021954663187	2.1456555239545563
Si	4.142956831211899	9.495142390329343	12.127930109769334	14	-0.8540260564563462	0.48154771473170604	0.6327577610465308
Si	2.737969973996321	5.319349764522046	13.74215539765469	14	0.176321774866179	0.6413879331641398	-0.5497982196761008
Si	4.078329720576824	6.9732652375247	14.877732067404652	14	0.7390017464172857	-0.2507465321263773	-0.2388585124576087
Si	-0.0310242771003231	8.353021409628706	13.49103990489158	14	0.32344196394824415	-2.2586684583016647	0.705757354627771
Si	1.1355929897273973	9.61646510256701	14.96347722883816	14	1.0616710932168254	-0.05183965390695363	0.037052712989718
Si	-0.0471973747365252	11.141322194028707	-0.086659080169761	14	-0.430187057745896	0.5860420629321001	-0.4613568246525832
Si	1.6086928155355333	12.236670119406082	1.1382205060941264	14	-0.5559735004340325	-0.8831800767920375	1.4655192338420606
Si	2.8293128876893814	13.78563181753647	0.08979251583691619	14	0.4391895259138625	-0.011177623268811759	-0.6373836937385412
Si	4.310465079585239	14.860122811754339	1.5326906806295866	14	-1.1591072430923492	0.8775735245309226	0.495421141928693
Si	2.780744634848476	10.777941576503302	2.8023522849699005	14	-0.24390327820627122	1.182911307477876	-0.9075906649225872
Si	4.171614711584423	12.160357904928906	4.058500947995607	14	-0.4712542945824932	1.0599800772477639	0.4122898507228772
Si	0.1683732071772927	13.365049679108049	2.6002293644609566	14	-0.9524911626809933	-0.21048456547605057	-0.10625401268150354
Si	1.279159831206378	14.895096523393473	3.808103534239554	14	1.2133763344163107	0.6407459281656988	2.799331797885811
Si	0.0028886360056587	10.700976562928805	5.481913059733156	14	0.7974023468801932	1.1246960837085511	-0.22437933284719483
Si	1.3011265208313307	12.37444336889631	6.714136635841938	14	-0.020436430637197005	-0.3418575058038048	0.9178054092490037
Si	2.938379296874789	13.669041898754402	5.509510141572528	14	-1.1807464367983114	-0.06281287430281363	-0.9967152026296682
Si	4.324124900696743	15.101642157786786	6.837058705868047	14	-1.1498738896666332	-0.9149730796283285	-0.6418358197109096
Si	2.7044977002810326	10.937159276340628	8.179164690033893	14	0.2559962149690557	0.5089988920138631	-0.9975641816063813
Si	4.111867274201844	12.544840253275309	9.332350615434171	14	-1.6064250613653277	-0.09298299546102723	0.08148089870081278
Si	-0.167442968463606	13.816101215404066	8.186492359901354	14	0.4567447759293015	-1.1116886047833903	-0.8080768048378519
Si	1.3330973566227735	15.020140190485884	9.438136709155525	14	-0.0049540057308613186	0.5509251351379217	1.0360286885273926
Si	0.0287394802596891	10.922765056244632	10.622020512107467	14	-0.1813853096836786	-0.08057535540705661	0.9551525137978786
Si	1.2640312121258943	12.374867688309571	12.045155184228651	14	0.9031467664872433	-0.5874739114848907	-0.12110548834227489
Si	2.788839343655294	13.87571809296718	10.882209912323379	14	-0.3070416544426156	-1.1539259516511866	0.16235913031458285
Si	4.13737539892978	15.026113302226399	12.41640203087681	14	-0.27941332800390045	-0.8103054389293564	-0.5634700722159883
Si	2.476523935518059	11.005295182123819	13.582170658878011	14	1.3515765878111858	-0.6184850411933247	-0.23201808675335475
Si	3.9797570568808998	12.223140858114041	15.110438625623226	14	-0.1402949328992001	-0.031620481669309135	-1.2343992341770336
Si	-0.060514476321934796	13.575626347927338	13.466559938741929	14	-0.9432069013699387	1.200740894430975	0.4482539577200446
Si	1.200660739753167	14.786960352921751	15.032935052793434	14	0.5596599512420608	1.6447720687732081	-0.2505583272169425
Si	5.259324887523106	0.0994213025224452	0.1397479667596353	14	-0.41347538738599754	-0.6376158645489506	-1.7621792792229822
Si	6.739285721066346	1.3510656517766166	1.2397960456377406	14	1.4835619654261998	-0.29519837200641746	0.9319932826266448
Si	8.029379937152902	2.8880321664936757	0.061281515261290505	14	0.9225573261017014	0.40644315722486046	0.3687612947633022
Si	9.648958177636311	4.1528467375363585	1.7265720125348145	14	-0.64819853404668	0.3831420010399545	-2.245255773178048
Si	8.072921636944411	-0.1580753014170066	2.7555792296466355	14	-0.3784726166680336	1.2211654979836992	-1.5300151536874431
Si	9.596342570391997	1.1524188864609233	3.890339900524945	14	-1.5517782746698365	-0.2810670629458196	3.5550354444627787
Si	5.487739291676773	2.7558893092178645	2.4800164106887426	14	-0.04000357056565195	-0.004039206457952632	1.442190823940761
Si	6.86091851287524	3.831163662352524	4.140769954235864	14	-1.4029400730128483	1.5133027119959483	-0.6071444098472156
Si	5.530595552416093	-0.0061363115148455995	5.408750600900569	14	0.9975497834165885	1.6928175425592193	0.32102409650517694
Si	7.001890477942357	1.367271389367685	7.010327906275271	14	-1.2830242351022059	-2.3968504568487674	0.3419752624274676
Si	8.071044839539605	2.5625302165904955	5.5419868966643975	14	2.0031872357282348	0.08652643578107137	-1.2287993667897508
Si	9.398120124489564	4.036093618979961	6.758167934956443	14	-0.5826021811242741	1.321157840768514	-0.6728801166779735
Si	8.398880546215718	-0.11492528108389019	8.405914456489384	14	-0.6221383247427231	2.1773276848408	-0.11955485472369358
Si	9.656922326623665	1.6969349335163049	9.463302114357367	14	0.3225649599235416	-2.500349015958668	0.16239306890480878
Si	5.554275839671522	2.63730835318896	8.311552346971201	14	-0.8255556930252828	0.3785412651800816	0.07761678451516223
Si	6.81380273802588	4.064066060300294	9.668705350330363	14	0.7923778928635599	0.5487157843363184	-0.941789708117473
Si	5.290137004916798	0.037421708254098296	10.952712214834373	14	1.1231066263996357	-0.16337523113710536	0.26546251053677694
Si	6.7226230241071505	1.3580179621631172	12.242006752026704	14	0.5244880017940311	-0.3457229055421154	0.9946292648834322
Si	8.183489484053664	2.6097765512593205	10.871993606450259	14	-0.18537129426150417	1.3095984083596603	1.2236237317802927
Si	9.643784744790018	4.156012813158379	12.206527121087145	14	-1.062083498510177	0.022381986032953056	-1.4324954428890144
Si	8.082060824306948	-0.030502037822463902	13.786398856475822	14	-0.3047698257817328	0.37860065771297696	-0.31214221317672536
Si	9.427316564117382	1.6367794966978981	15.01101732310078	14	0.5614221868284903	-1.0965067420889798	-0.17182568299283604
Si	5.199414250366195	2.689728120704077	13.555324296000562	14	0.7723045022975678	0.08017014920860129	-1.0054492474022112
Si	6.510806037002945	3.9932210382632074	14.951612605244298	14	1.7009460920288675	0.19763803774393066	-1.0749752776959316
Si	5.436674082288603	5.513018936720645	-0.1533588279388407	14	-0.7533081477501856	1.0610378299764731	1.7362661371433377
Si	6.877254810285773	6.799685957546249	1.4807605124374623	14	-1.3917236260537023	-0.4121417550564367	-1.216577103429363
Si	8.12886651958508	8.085798099139128	-0.0194697330776883	14	1.3896549147131112	0.1897522006165045	0.42950494350446067
Si	9.47611329664235	9.567815249838938	1.4535714300339175	14	0.4644953729168879	-0.5835992557674275	-1.1292505396726615
Si	8.085977618890892	5.45245550046641	2.879953777664291	14	1.0388250226735858	-0.11373798604739058	1.0156267107014854
Si	9.55676662511673	6.949111670923712	4.144311389338847	14	0.11290880458164282	-0.44179765515062064	-0.6793335910315452
Si	5.3883343091317615	8.040216402168479	2.840002472908062	14	-0.21642818964463686	-0.10345510742999035	-0.5328111839364145
Si	6.760566971639108	9.395313088371072	4.143968669812752	14	-0.7152347059483689	1.9140074192567704	0.013636628397001381
Si	5.386685991411018	5.155350311296825	5.600167616213399	14	0.004850390186459351	0.2472004636688291	-0.770467961767386
Si	6.793092686663276	6.67792260591789	6.759832572654619	14	-0.7539115861688244	0.027758424367914706	1.1228261188092077
Si	8.023080425863725	8.107862708628678	5.473899950813505	14	0.9670485038931398	-0.10647487062850426	0.14729039625425897
Si	9.412873384089087	9.493934711999295	6.743169875695424	14	0.8059016497370067	0.3792830290649442	-0.38980167804020205
Si	8.263734813092215	5.521358445188959	8.253567467151395	14	-1.392556407066898	-1.2387564863630884	-0.5126827717165713
Si	9.564747094081516	6.8828852025001925	9.497933106470404	14	-0.11495437597435264	1.5165777859527532	-0.736107710268927
Si	5.3175545670044055	8.194162749294913	8.076740511663756	14	1.5054410432585317	0.6477035962725516	-0.5452905578288173
Si	6.912750761202766	9.546354479514413	9.529952902194147	14	-0.326790057296141	-0.4504712789481402	-1.1182901748034024
Si	5.4485550258599	5.5177843701311104	10.818855759928084	14	-1.2225459244300867	-0.1348904695162488	-0.2997075765168932
Si	6.844353735780643	6.783545499864913	12.11505364757462	14	-0.5966026209240765	0.6398581254986516	1.5163307027314867
Si	8.166989986868801	8.15599032207889	10.934319600267267	14	0.8488200824041106	0.29969189277444036	-1.1686707264411718
Si	8.046662793254553	5.2936784400197805	13.406714581494752	14	0.27012855247178164	-0.1153498119725914	1.8034187801160295
Si	9.6007816042538	6.573034110955356	14.946063812917044	14	-1.6929450693830985	1.434765728886705	-0.5367701719083785
Si	5.707194028219669	8.416081802430206	13.591211926375948	14	-0.6692463735290083	-0.5493714161929563	-0.14668310117764
Si	7.068165906298177	9.820236340796697	15.148578412884381	14	-2.214745494785979	-1.4199296798578547	0.14973834562957197
Si	5.414935872347714	10.983018412927638	0.1615514566102569	14	0.028879940508563295	-0.7190029179055778	-0.14339260058891448
Si	6.877548569879568	12.309914178125833	1.3804905710884958	14	-0.21166238882321037	-0.8501976806346458	1.4196085488033683
Si	7.991517589508108	13.620571565778095	-0.06834806548982279	14	2.0753319367905254	-1.482126517325961	0.5594403788477201
Si	9.414097382396571	14.95631275874503	1.337258950868214	14	1.2161168755770566	-0.4006111190271686	-0.4287775778093908
Si	8.207692010586952	10.876938559612487	2.8441314271986364	14	-1.3402665526183866	-0.16974025946766394	-0.4335999429478605
Si	9.587105463164862	12.24123971308735	4.079129399471046	14	0.08431914186372423	-0.2113140040523303	0.45496531393722706
Si	5.680380305297086	13.551521741258648	2.944842007938296	14	-0.454408412524883	0.013937190608926692	-0.6484988391480733
Si	6.982796104345631	14.91825457137104	4.291370705988512	14	0.236849450760445	-0.9451380585759018	0.9712478902125375
Si	5.3529036381245	10.993479518462255	5.603235771970821	14	0.6679448800159493	-1.9168011822976432	-0.9170929559647906
Si	6.84138349988782	12.224674935992752	6.84786253092876	14	1.1098721188747056	-0.3850587600561249	0.7316064761849439
Si	8.463295497144163	13.43207582642579	5.692163329003784	14	-1.0049188283746648	1.6638303869588058	-0.6005089012369775
Si	9.725923191210812	15.048993910587605	7.005888872413467	14	-0.6583947664147912	-2.058831354177411	-0.236572028496401
Si	8.381108090791072	10.899688608154229	8.248948913537827	14	-1.3294041468618252	0.19089042894173405	-0.08795699878120176
Si	9.569447247582248	12.416581550628575	9.58952081982496	14	-0.20124427006597034	-0.6273386423632547	-0.12365242527241357
Si	5.617417832360185	13.719845988503643	8.090384012797829	14	0.5783164056661193	-0.026899160969921215	0.23522502641917545
Si	6.724206061918161	15.12204212957816	9.55023863414349	14	0.29201482939901013	-0.4811281103434578	0.5367472890710291
Si	5.663636008450725	10.914866187167013	10.900308767296686	14	-4.998047479442795	5.359190074921434	-3.942120749732245
Si	6.973248917547267	12.18349963292904	12.49304064490265	14	0.23945706577613915	1.2851402547806878	-0.9886632720985604
Si	8.101416317542604	13.724578781959242	10.838472372802672	14	-0.34924506272018624	-0.33871432954992375	1.201750053269133
Si	9.471200983434986	15.00016453810777	12.289481566379592	14	-0.02448746417962232	0.6898717804072362	-0.03463998775729104
Si	9.693283236344612	9.400029561849237	12.191545381803559	14	-0.4862289261880996	1.0492886499949923	0.19757658832677913
Si	8.578171818295754	11.969610008690832	14.43364916147257	14	2.7714314485042246	11.016935871176337	-0.529087966322308
Si	5.394519580578906	13.447726684784131	13.646683529671055	14	-0.009808766796364922	0.7174684822505135	0.677507077812112
Si	6.592046884664917	14.876524389074604	15.20773833107937	14	-1.0682477235152321	1.8950807416635644	-2.2668911102260303
Si	10.88348287056316	0.17277960108422968	0.1010859402206214	14	-1.0291198714216225	-0.8433742242255049	-1.0389114118123426
Si	13.289439223660494	0.14588427827448092	2.8471832629786262	14	0.6728667469303087	0.16995906053040855	-2.4451255303398676
Si	13.13252264064124	2.5505839931094667	0.46497247704645206	14	0.30246354430955996	0.9306133704013213	-1.2933310249990835
Si	14.660529487747525	3.996305513998063	1.4359132144513034	14	0.5224128626901396	0.5600731278670087	0.6577111095101639
Si	14.969221860894612	-1.4223839531592635	1.6046454611321244	14	-1.2078188902668106	0.12045139914882923	-0.7051045509869854
Si	14.735944103465881	1.1331449931124322	4.230725669847112	14	0.8797278536786746	2.2006494098682676	0.43891647452886273
Si	11.270054176021	2.5565244648951153	2.216122375595515	14	7.923344926057557	5.761268009533747	-5.876717837503294
Si	12.222928698407411	4.111459274766016	4.015106128000994	14	0.2045352848757599	-1.0694661703264505	-0.2051117266885371
Si	10.978008179855676	-0.10572081381162181	5.587258514063817	14	0.7810316050857464	1.3880772844886682	-1.7001521347060058
Si	12.482710099187496	1.3713024237936606	6.7152627142848225	14	-2.0726232773357496	0.5970759614135157	1.0838566468033193
Si	13.660424950669725	2.898656471802623	5.521244205346927	14	0.5126855999324234	-0.10834329286465587	-0.8542078336024809
Si	15.23838724869873	4.083976432768677	6.8847130399727	14	-1.6629209870070696	0.5342191212097276	-1.5978725366283872
Si	13.548502545433525	0.0539538453938286	8.301597160737009	14	-1.270525063698838	-1.3560991620693266	-1.287107150350601
Si	14.830420452826097	1.3746969790997454	9.42762664368861	14	-0.19288406400697689	1.6092630474177072	2.1166395719745568
Si	10.866297934326106	3.0428108324691956	8.055589820910459	14	2.0666079193287312	-1.762141483974776	0.7589154713428966
Si	12.176367802790777	4.133736043962198	9.77188024766242	14	-0.07300602134454068	0.5951502035287248	-1.6475912857567505
Si	10.92527833276933	0.1296785406834126	10.960186764498731	14	-0.6891652406652594	-1.0535901091956001	-1.2532377228577585
Si	12.221117180912335	1.3613309175820365	12.344561490216304	14	-0.6425181910628769	1.0032524950166768	0.07586869000799354
Si	13.486486631187745	2.7211277572853616	11.003320464854415	14	0.08602789845949464	-0.7682020466487395	-0.9682641224885056
Si	14.692924642952228	3.9674191539414765	12.426846816433994	14	1.0615523081510345	1.0237161793702674	0.19323090611466484
Si	13.516711229393847	0.1270020643843842	13.651008323690826	14	0.9482532097817932	-1.171503827393443	1.1892873915613114
Si	14.796703379449312	1.399111665339663	15.25238978933633	14	-1.3617769339478096	-0.32982473290551173	0.4647967064604092
Si	10.904715161203626	2.9174244458506884	13.588829209670715	14	0.17659765446703088	-0.72605494557768	1.0551865084888798
Si	12.088044084922839	4.265862581260576	15.156085602503609	14	0.8465469681905677	-0.6630579801339438	0.27977559674350927
Si	10.946314783680595	5.784942400710957	0.2543305283174304	14	-0.607864576447389	-2.0565775232537695	0.1022631430035697
Si	12.453709499288877	7.060691356633817	1.3511309316863491	14	-0.30584891868459896	0.8594824561667647	0.9929544468778877
Si	13.63718530280499	8.72607977377194	0.1565738634931614	14	0.4087332407335164	-1.738664464185972	-0.5075999536091704
Si	15.102572396500472	9.927899231922856	1.4832411490072934	14	0.39316159847257154	-1.0946563175900692	-0.3830347859481043
Si	13.544324631210651	5.669494880349207	2.904645903520571	14	0.03974646003363714	-1.0563044250820803	-1.7422496134443863
Si	15.106652390858747	6.988116416988822	3.8269367881973517	14	-0.999469370648611	-0.13630123500541408	1.9972448971123082
Si	11.063688061379452	8.40642037578981	2.827631930013772	14	-0.6893722146435314	-0.9249975621610539	-0.3838678240718323
Si	12.448258626826224	9.604992158431541	4.2566254740334415	14	-0.7181251425492794	-0.2670699655829335	0.025845779120256547
Si	10.778463815781162	5.28693828933991	5.325845115540421	14	-0.5883066924980868	1.0265012006530518	0.4554347977686861
Si	12.140023213047261	6.646408729494573	6.725315820383612	14	1.490634561940863	-0.5823527839082198	-0.027243431972289043
Si	13.715211114912641	8.050840707477427	5.5084983029716765	14	-0.2539146481018638	-0.050890144712222946	-0.28495148886349936
Si	14.922448805571348	9.544673521838803	6.858372596395676	14	0.06024768252490186	-0.6049111477661351	0.3727966445632747
Si	13.659576311843203	5.2046529631222205	8.15218776733698	14	-1.0110930806904683	1.0685948227334523	0.4548501284188844
Si	14.85850713398846	6.75746617592682	9.455419565257179	14	0.5355077591961858	0.8270078533101023	0.3267743735536881
Si	10.906999958044258	8.182347085633348	7.945152533620671	14	-0.52828809545721	0.12206811017413832	1.273026749175342
Si	12.02224193591258	9.650998174815449	9.498830705229226	14	1.3011479565039297	-0.9144118073369403	-0.04949377741285052
Si	10.871667206901597	5.75368964392657	10.875747201259871	14	0.9659074473520579	-1.6595471826059713	1.3399536491009247
Si	12.35479411606686	6.842901257789098	12.384986074318094	14	-0.9229931284534664	0.40823958851204795	-0.5395006857583757
Si	13.486388711323146	8.154178804583816	10.836660855307597	14	0.5299222899986961	1.0531792465654404	-0.10520114505290291
Si	14.986814796567494	9.663548237461503	12.240080994689597	14	-0.9410199191846206	0.31637682363900926	-1.9909423466410294
Si	13.622121963634239	5.575002211011559	13.789352772391215	14	-0.20687241961177452	-0.6471006720749768	0.6758579708597691
Si	14.9117265803978	7.077615173231942	15.125697804523176	14	0.16767257656920084	0.11125661230291566	-0.43379508984165976
Si	10.915290506580273	8.151518648262222	13.715341674732105	14	0.6489984049117782	-0.21079309811446834	0.23028233355172278
Si	12.286870369990297	9.755625550139053	14.92277520512001	14	-1.9037867613881176	-0.22923049436525023	0.38609594394227265
Si	10.405258571841031	11.025695153915194	-0.2595855610508886	14	4.8896710193195085	-0.7159762127226996	5.412449493186173
Si	11.98718662438628	12.335683422492698	1.2754551963290643	14	0.3269155272357643	-1.34216325701306	-0.38533001166740055
Si	13.421500481049142	13.67245277403792	0.0908533143700677	14	0.6815784230865665	0.8583817659792092	0.9774758786295322
Si	16.1778304296577	16.302123377788188	0.162873374782338	14	-0.29589128489019745	-1.6027334683466592	-1.2093792940856085
Si	13.517902587746462	10.942038949593124	2.7186308007380973	14	-0.535442196010522	1.042808179035559	0.1293152847400397
Si	15.105379432618966	12.080177855800084	4.033107063109704	14	-0.19140747822161583	0.8555530359059822	-0.06205542667549799
Si	10.872613765592716	13.590559127278624	2.7749836828145913	14	-1.3669535973993958	0.6260327779711514	-1.1422932427407086
Si	12.18224299466669	14.930217114829503	3.9872968864549923	14	0.23678851556435748	-0.9068285893056955	2.2682915912939148
Si	10.899150048898937	10.94171255004446	5.456698694599017	14	0.23680522774893845	-1.0355964857230757	0.16180454289702687
Si	12.419780266205464	12.10225878526707	6.778731106522149	14	0.10630389212471442	1.1951947631448836	-1.0666009305576774
Si	13.874608334501728	13.693929864339879	5.2614954445217075	14	-1.2230254355722943	-0.4411314817621703	1.0785020628635786
Si	14.92861775704106	15.253989147124775	6.81448817707807	14	0.7497211987180471	-0.563136599855965	-1.10686109743428
Si	13.628192995239353	10.865400335567285	8.255362664669036	14	-0.08468732414556944	0.12838634438787022	0.4788156582185167
Si	14.811815678552362	12.453056700191553	9.590287858764317	14	1.551336301665303	-1.877365826007744	-1.4173066382102397
Si	11.012524932126684	13.396661475395963	8.06822148344368	14	0.2903816632996521	1.1189861730135664	0.5208588866346421
Si	12.29935515272662	14.776042288019008	9.48207008840543	14	-0.9267626259633356	1.2534300415357056	0.6195065413370195
Si	10.933258801734118	11.088853466581291	10.95822836720676	14	-0.6093858994653207	-0.4011379385072669	0.3745601657023642
Si	12.097003752533611	12.50704318554025	12.480702741963226	14	0.8461240213654033	-1.1162726284586821	-1.558474975586694
Si	13.579004583255989	13.592517524570594	10.984536170828918	14	-0.4971304127455275	1.7662261989968955	1.7712678794191736
Si	14.985558158305146	15.254690906154398	12.213675271202844	14	-0.3088488843721477	-1.2480646589536206	-0.0009330541206817379
Si	13.543247512700066	11.031929385294639	13.515209791470001	14	0.33604346534335394	0.13789814851975804	0.11141319261691268
Si	14.658571090455554	12.549883126302136	14.904953789763065	14	1.8194375375921479	-1.5234007281408302	-0.27803752954708916
Si	10.63083329992134	13.579135143075455	13.776982229496925	14	-0.8884703830987741	0.23922360941306972	0.5118265936449619
Si	12.17644940267794	14.948838209080671	15.00306949409086	14	-0.8704333079463393	1.2423920292857777	-0.13011258449981766
H	10.45948822485348	2.077471111319384	2.9877145886550505	1	-7.744791945994553	-0.6585145799227101	7.333824928958893
H	6.321819066329905	10.128737770207815	11.586524650412704	1	4.817531203357326	-5.705498421144949	5.017348252860083
H	14.117989789959292	-0.787523775029727	3.82911550518467	1	0.4867616592104344	-0.16769597362761418	0.32615576561366044
H	8.096244516694055	10.832977436400947	14.353103544849247	1	-3.5888097410587765	-8.198217167845012	-0.012875838332769564
H	10.796908654276052	1.1291465986413227	2.7224659954348756	1	1.9701855562809416	-3.4263408245470233	-1.6140705001453197
H	8.75466258224827	10.277760380142682	13.120532353221142	1	0.6454333102748607	-0.6430982324231024	-0.8693084493687745
H	11.784406008786783	0.9937201619059723	1.0364197508619353	1	-0.030598467304550275	-0.7168953828746526	-0.44130374581862025
H	3.192114146015911	13.47624910934396	8.348487719897792	1	-0.036497097130034	-0.18141153495794413	0.17617419342080248
H	9.646944292421066	11.003759472247365	14.960440081037861	1	-1.3093520964699903	-0.7765902777557226	-3.2170878185193237
H	17.407920984715975	3.9674191539414765	12.426846816433994	1	0.058517071533910205	-0.06204411381208934	-0.17963464407118981
