227
config_type=divacancy dft_energy=-23093.428894313598 dft_virial="51.42358139391014 -2.685919307574818 0.9977411989505268 -2.685919307574818 45.477043848165 6.241868940634495 0.9977411989505266 6.241868940634495 50.18638230721149" pbc="T T T" Lattice="16.3199774331 0.0 0.0 0.0 16.3199774331 0.0 0.0 0.0 16.3199774331" Properties=species:S:1:pos:R:3:Z:I:1:dft_force:R:3
Si	1.4313436207700356	1.3232727302080474	1.2034840958490933	14	-0.5812441232941719	1.5710677352237152	-0.22503805003021674
Si	2.7745104034690318	2.951631118550466	-0.0208569311595018	14	-0.8193588149826617	-1.6054151311955736	0.01612957211541696
Si	3.95664796883563	4.024375875182995	1.5379457133630448	14	1.3152453269743019	1.3151522529617123	-0.1746585268345752
Si	2.636165954768643	0.024659485901414098	2.602171441775496	14	1.0745122216277727	-0.771633186698477	-0.3099714289549243
Si	3.9559462098060068	1.276075355471522	3.9716786680515153	14	1.0889037265467698	-0.5096524669862447	1.9292517598104604
Si	0.11278736404015409	2.9084974181947825	2.467401068132956	14	-0.2509115970879308	-0.6537554639751161	1.1379329052282696
Si	1.387018562061736	4.027068671459457	4.220150324470462	14	-0.5530275279582068	0.3799546017745669	-0.24115733772435313
Si	-0.1219428713801232	-0.1495236332420622	5.479252903411561	14	0.30448674708598444	1.0320167357858334	-1.1673844024495017
Si	1.375104978535573	1.1026592752674016	6.803749631927091	14	-0.4155644104586178	0.7065811367723466	0.14629152183738145
Si	2.7741513639655033	2.5678668492111196	5.550261125222979	14	-1.1832095556950133	-0.43078072596431816	-1.0757370962022916
Si	4.147510104915734	3.9659666759499306	6.672683893161865	14	0.21508555844645552	0.11953531432326048	0.9605510636385935
Si	2.6085362329744046	-0.2363948731184535	8.235648131929851	14	1.670829449861313	0.1762677816544559	-2.353992702267219
Si	3.842832446217191	1.1583593582465719	9.539141049488983	14	1.1444997653264597	0.5261520211572309	-0.5888098578092397
Si	0.0602696766604383	2.5439254423167617	8.216814877972054	14	0.9653338337551329	2.093098017442217	-1.4153106891502085
Si	1.5502999362799013	4.235327903483246	9.353125946706507	14	-1.460907442229311	-0.3693243668284147	-0.5455034453493255
Si	0.047050494939627305	-0.0483724131117084	11.194688520234944	14	-0.33752107957084304	0.6271303828323227	-0.9452511872099885
Si	1.4391935299153567	1.5648247161953603	12.327148074295188	14	-1.0764156108962786	0.1422800833168864	0.5158130924438515
Si	2.634109637612072	2.7231677544644994	10.639482887960883	14	0.0935311551152828	-0.013290043399845422	1.6963283868738817
Si	4.087305708165029	3.9575292476170176	12.074270023969303	14	-1.2385513121585408	0.5052916152527415	0.6141717549082443
Si	2.975099246099264	0.2644162743710862	13.598555916220842	14	-1.00570558660263	0.012202208738890769	0.3609117102208902
Si	4.252316999991103	1.5900880412617993	15.117293016145128	14	-0.5283518588691497	-0.5412675493343816	-0.5167214639534599
Si	-0.19890788495462278	3.0876418104779213	13.731596372255474	14	0.10079812719214933	-1.2169895087227145	-1.123637045427182
Si	1.2830439858354556	4.283112797407362	15.108529188263553	14	0.42496617128280334	-0.39929831265070104	-1.0077658132956648
Si	-0.0051897528237258	5.538347541696816	0.1558231445312388	14	-0.6754977590044163	0.7647269406980274	-0.5716395022602268
Si	1.4254194689618203	6.790465170296547	1.51122991030506	14	0.3085511503760745	0.44717974991728665	-0.7057969496497013
Si	2.947567444169624	8.149837690586612	0.2058601953411234	14	2.4811652278334475	-3.216635818204041	2.181406743431215
Si	4.36601828276751	9.639606830567146	1.452641191320231	14	0.07684622425071384	-1.099949195002126	-0.725881653079102
Si	2.7009889051329163	5.4688244378318105	2.872642427774262	14	1.2672222218045759	-0.03649555446684191	1.104589782994461
Si	4.403717430637972	6.778698466567282	4.334879765825156	14	-1.925962030553331	-0.46799901813665373	-1.026066683853947
Si	0.0870181196732892	8.103423674766875	2.762662099852601	14	-0.24351555552399295	0.8829414782183277	1.03365607253796
Si	1.487565943027065	9.70007234695678	4.114511110546006	14	-0.09059983793978195	-0.8245074533862583	-1.198605591462592
Si	-0.0777646924687215	5.539277780410503	5.5494777663061905	14	-0.9753300341293367	-2.3457924189591384	-1.3231226794541713
Si	1.3667001901575264	6.677286126797999	6.722068144874425	14	1.6953536808470133	2.3926415574396844	0.8215931055058705
Si	2.824873853827578	8.215264480115911	5.387812069853902	14	-0.1337563549595315	-1.0177352741745391	0.708795886895122
Si	4.254128517486177	9.100606935884151	7.022372049620898	14	-0.6966875235004167	2.249430476886373	-0.8715267990389983
Si	2.981986276576032	5.48334921774727	7.997196941654828	14	-1.8604980895549128	-1.2711783815606876	-1.6703190854552634
Si	3.991670640407063	6.573311550571718	9.548214956941786	14	1.7058594742956705	2.193618722370322	1.1097237660977328
Si	0.3165912422247069	8.382691128602083	8.05227686549154	14	-2.5149037860654944	-1.266447290661083	-0.5712461231462441
Si	1.4809726721440926	9.844063507849024	9.2837497226384	14	-0.5115136901274999	-1.5018350680470238	2.30004551332934
Si	0.2143139436514692	5.674113433962775	10.740878907752734	14	-1.007873799719111	-0.46919303944733054	-0.9304827582510578
Si	1.472421003969148	6.935794569338302	12.161679823100986	14	-0.12907077262409364	0.06133783118064467	1.1719288311028635
Si	2.7857875078753036	8.223179669170962	10.727871885738553	14	-0.06046519803498641	0.7426478308717878	-0.21121475938697262
Si	4.326115937943581	9.471641622825679	12.04577534337111	14	-0.5875947534349376	0.5973263870716982	0.5704699064500913
Si	2.7004013859453244	5.39148406477635	13.543688152090759	14	0.028352349696868912	0.1856546300677845	-0.7175939521901368
Si	4.051744477338303	6.762247929314717	14.881224542575337	14	0.7582634390337071	0.37513352218875723	0.8379322227048793
Si	0.053398966161103206	8.197508344668698	13.696704260503505	14	0.26587363027746863	-0.6730634364873002	-0.763141340047092
Si	1.2595595383092248	9.672312065343078	14.963052909424901	14	-2.836397880623194	3.1383533745214933	-3.7502453303423615
Si	-0.1178465570444151	10.865498255431886	0.052060728011589	14	-0.3340392887462985	-0.7835662007103483	0.39028607428251794
Si	1.2356344513923003	12.312411134673098	1.2500286714882944	14	0.6339296708514542	-0.948128254063234	-0.4367042955114073
Si	2.7418704486028314	13.563141565191016	0.10235889846040319	14	-0.8700558696853417	1.5537377140343214	-1.012320269259775
Si	4.195115479088088	14.878319586592246	1.3568755637428	14	-0.714870380324504	0.013550239258244405	1.0855170666190708
Si	2.841144871328379	11.021664119489218	2.4544430060510747	14	-0.9934840945738382	-0.35692109765348834	1.1643787803302488
Si	3.9981659914254366	12.055812129492466	4.196306837440703	14	1.812789430565841	-0.12221029229834252	-1.8716145205171049
Si	0.1339543747708848	13.515030271718237	2.7482515597791735	14	-1.9659643155663225	0.48294331069948243	0.6931401694902084
Si	1.323223770275748	15.074061395924845	3.956093089602905	14	0.20172378120817797	-0.5796279264899268	1.2498212381083456
Si	-0.049286331847962	10.78902284118038	5.5207872459788	14	0.28508338656642296	0.05189878932931704	-0.7590070026922938
Si	1.1558624016993075	12.293382040986105	6.64854664653831	14	1.136394870025757	0.43302684357199955	1.1516019295523048
Si	2.708594014616741	13.44702492575451	5.276297664053529	14	-2.021323555546027	1.628985482107499	0.3157965251682518
Si	4.023510916379041	14.55446595440981	6.7387471618110535	14	0.6187938309422745	2.080304454479692	0.9480539491194817
Si	2.731507262932813	10.97275314712222	7.932651430906917	14	1.4316793740603995	0.14732022107597267	-1.3536686962101907
Si	3.874705362144035	12.19213290099115	9.504248937737014	14	0.4456034052455039	1.3334585228411666	0.42773833703898695
Si	-0.1276059035494089	13.615316533044638	8.20721873124139	14	0.4917532030789698	-0.6018625881880354	0.10082486668747886
Si	1.24684627588884	14.980286805594254	9.484664964817295	14	-1.0859145595015656	-1.0123794046821386	2.6243130591958836
Si	0.0315791563330485	11.072631409012791	10.674130200051355	14	-1.167005935746376	-1.0308710512551755	-0.5657367586662309
Si	1.2613384158494327	12.257739210272213	12.068704911664614	14	0.9389306390014682	-0.27523322497440367	2.0564278849241373
Si	2.6489934570310596	13.70582712788861	11.050550479545805	14	-0.06396935747581622	-0.40386125326236777	-2.077523804075952
Si	4.047941922596392	15.056713259913462	12.231806766131017	14	-0.48718332048293866	-0.48977062376660363	1.4855347745383491
Si	2.7600345834858717	10.825971270088916	13.498008535255513	14	-0.025075475966340185	0.5213859632252724	-0.1126028430485452
Si	3.952339494793292	12.32442263806386	15.017822753690384	14	1.0434522409182563	-0.4926201797929237	-1.685172103779227
Si	0.0744027771175029	13.491970143605267	13.645361611498974	14	0.11257250400576745	0.7200745546030157	-0.2626119260683287
Si	1.5170561422486766	15.034061131236317	14.751121682478665	14	-0.342521365197467	0.04661182545949654	1.2922375339064245
Si	5.407559242547952	0.047442174398021696	0.1309188589683282	14	1.3876124286467855	1.1264920007746748	0.44630197456098814
Si	6.9966354452088995	1.4401400886064764	1.6503740378996705	14	-2.0008791544823374	0.4368801591153055	-1.6450962851540787
Si	8.235125892651993	2.677749257268182	-0.1085768098624143	14	-1.3529500722732093	-1.6350535477735806	-0.523705100224046
Si	9.476700815829942	3.9511644564181085	1.1400320235892005	14	0.15152089294803062	2.645864835320961	1.3746885106445292
Si	8.097385283116628	-0.1350804532137687	2.822311617370582	14	0.86600020815334	-0.685597574923022	0.6757949787794254
Si	9.378291351908349	1.2859326218411147	4.205576584622705	14	0.8724639669281923	0.7114646942174357	-0.9229069964252414
Si	5.315220810231472	2.8052898809078584	2.9740058076112463	14	1.0678754274648747	-0.839049882187548	-1.3915426202391639
Si	6.937426567081613	4.020524360508784	4.043861928238116	14	-0.00790589174892333	0.4963045737166959	0.011233159143726959
Si	5.515825972839138	-0.1623184955496126	5.587225874108951	14	-2.3539860173933866	0.12024211117576916	-0.6490570261130775
Si	6.591410405545027	1.25874353943757	6.992800250512121	14	1.408783424073949	0.8705073557795597	-0.6912136402738214
Si	8.134578511686664	2.7297447053700385	5.561015990351392	14	-0.6936147955323078	-0.8833117173844292	0.28097038938578206
Si	9.497296627350513	4.038231536023697	6.917858914139326	14	1.6931281320818932	-0.44832903399539287	-0.8589250405333566
Si	8.179066770169294	-0.0388741862456442	8.079955547218077	14	0.3545618514117205	-0.4682574142213286	0.8414404959142215
Si	9.55550998685438	1.3912780761717751	9.755723470003652	14	0.19633525867821164	-2.0426318479972863	-1.6634727462087735
Si	5.239822514490551	2.632281800139565	8.231976137007406	14	0.4621050163007463	0.18218852298569288	0.7458324019213232
Si	6.796715721653425	4.072634048452672	9.51191932713057	14	0.3349962541464576	-0.35497142848922003	0.3037529536276142
Si	5.242792750383375	-0.2196995362043922	10.755795367126586	14	2.2330795326028907	1.7280920791095231	-0.25245940249066
Si	6.603585108710119	1.337585350416876	12.315136570904425	14	0.045662830485829885	0.16738744098919642	-2.2437509052341653
Si	8.220307353142738	2.651833133104419	10.96291220073006	14	-2.1310105080509927	1.0784074461877973	0.7665632241176771
Si	9.579059714290343	3.9788757780995123	12.401257091818893	14	-0.9035897679339049	-0.36030235826001505	-0.6227029394710277
Si	8.037409366049985	0.2541183686108001	13.629841312960096	14	0.9554787870630055	-1.3038139356103913	1.0634605825196486
Si	9.726559670330703	1.1462662549686446	15.020760349628342	14	-1.9250400321855259	-0.03963847361019092	0.85860262392621
Si	5.409697159591689	2.8510674176077035	13.536132002539235	14	0.05038569384840989	-0.7778979419215498	0.4466966392276308
Si	6.787364374584259	4.067281095854615	14.881795741785496	14	1.1540005137054707	0.03288495126575797	0.07844365198612184
Si	5.442141274728692	5.276656703557057	-0.035283791210362195	14	-0.6828976572263346	1.3634954607437964	1.0214631197782218
Si	6.871069538838628	6.861049072694705	1.250763070472784	14	-0.972766899235681	0.3068179682797627	-0.2703499246398464
Si	8.03110985476081	8.450516954814047	-0.2179043386867512	14	0.9919889968301722	-0.5047344567298654	1.1473796603955577
Si	9.618978379091708	9.417573537589819	1.4895896202287693	14	-0.4302094263621813	-0.8367379442836708	-1.6918536351746958
Si	8.15582712230456	5.5181107696797715	2.655146088523338	14	0.5287316111249355	-1.2849656767294497	-0.8735633715630876
Si	9.479915851384263	6.649003605906437	4.165200960453214	14	-0.2616652450894502	0.5213486821981302	-0.2820250567881068
Si	5.584565717787355	8.116169577142127	2.905771981963455	14	0.31670515378839215	0.26378280743112414	-1.3331556466344532
Si	6.845936773591655	9.529381702983988	4.25788211229579	14	0.6498052177612407	0.03571188156526077	-1.570556342375538
Si	5.6789604672604055	5.233327163472177	5.537890582328689	14	-0.8601882245771454	-0.11916610359928721	-0.8825473277727489
Si	6.875312732971234	6.576640825968071	6.815614255520955	14	0.972697993613101	0.9875440699527	1.7016354053651994
Si	8.081065305683529	8.01968587055764	5.471729393814902	14	0.46959310343514554	-0.11341325544545587	0.04927729034489405
Si	9.593225454702276	9.213296380059706	6.7541532205079	14	0.7384790407056997	0.05019877449163512	1.2630518889752955
Si	8.387228082328486	5.45113358229433	8.265056731264298	14	-1.559535299420723	0.21207942210613842	0.5788092865559916
Si	9.652613852581325	6.7867442154418	9.778848878026356	14	-1.4172639578619253	0.7218306195366767	-0.8269366336927342
Si	5.68424813994873	7.885127656621729	8.394164072737551	14	-0.7884471870501174	-0.08997197402060181	-0.07469266643455781
Si	6.768922800084855	9.560422300061743	9.624788291057891	14	1.6554555255994874	-0.36384611272277523	-0.4720168844204491
Si	5.426229296731419	5.425478577769496	10.955649810772329	14	0.20280364544264018	-0.49064557090704997	-0.958146565943191
Si	6.63780810138733	6.801464835086456	12.314859131288063	14	1.1477987505627416	-0.13583586494246727	-0.09227465594532643
Si	8.054545342354741	8.43121042151069	11.335480965550298	14	-0.5225763849885011	-0.6114615527902761	-1.5484119264741665
Si	8.124868125113968	5.417269629120647	13.441361893585222	14	0.19049962093307155	0.8774753083076929	1.4237526563583829
Si	9.470384984563331	7.055420003922926	14.883541979370838	14	-2.306453479118745	-2.420638837491841	0.8186142228819469
Si	5.562403188433206	8.260666657334793	13.681216601919495	14	-0.49727927974356406	0.3990653705086956	0.2071742673763599
Si	7.1014586602617005	10.02588437643119	14.612809873733141	14	-3.6342136612388676	-4.212565548158405	3.5922187696027605
Si	5.5177517301762435	10.893682856458849	-0.2850120858916584	14	-0.7832959775412008	-0.043224394200201445	0.4532532149045404
Si	6.8447454152390375	11.999671407122603	1.1808319671719505	14	0.07707505262420702	2.064018302050278	1.1412588870704132
Si	8.12392156642285	13.728234456904255	0.0171686162596212	14	-0.8387781163552082	-1.3696211191690495	0.5692087792905588
Si	9.50397149812065	14.734801705045564	1.4661541326348377	14	0.32790848811040546	1.6693736900290452	0.9162486049776539
Si	8.21746767706938	10.714913823656671	2.5703474857809505	14	-1.700366564889706	0.15833252227269892	0.930122546395705
Si	9.408107950678623	11.932775819624327	4.03292754335794	14	1.0051396863216655	1.464211312565701	0.6015877370293116
Si	5.60870296441091	13.49725781629359	2.716737683355858	14	-0.6449756535278743	-0.5644380933690241	0.5283071216365791
Si	6.821652647171201	14.817837750225177	4.320828265255257	14	0.11930417195497914	-0.19147432695993968	-1.6079299293092104
Si	5.4377838407540535	10.756905125592036	5.528914594740485	14	-0.24660319590295873	-0.03653026438866391	1.5330634561550105
Si	6.866679464909124	12.02803552790133	7.088843317705914	14	0.621963489580953	-0.5574562568721618	-1.7739587982472405
Si	8.149821370609178	13.325620613629678	5.432055528675035	14	0.11933579655041697	-0.08094122369411369	0.9350616397157094
Si	9.586028344654279	14.912134579833628	6.508945559575572	14	-1.4421455724871262	-1.4250657198453827	2.967380270052818
Si	8.453731990368366	10.631894098454492	8.21067856645721	14	-1.223661012807435	0.8295385922767241	0.6748195014209611
Si	9.482119048337731	12.406316284823156	9.637876912959237	14	0.739145985425746	-1.6951953007592924	-1.0810027198979548
Si	5.455180936697738	13.403581145827596	8.175427415201712	14	-0.7275029920939875	0.2081019221758693	0.6903260947173063
Si	6.756584897145432	14.791758426287084	9.502470060196806	14	0.4959538749510277	1.214895086328922	-0.5776111514768026
Si	5.515238453651547	11.12922909075078	10.728345165084113	14	-1.1324847330548757	-1.1726371706185643	0.37798770620465366
Si	6.715784953562682	12.419421226701933	12.167930374457864	14	0.2121907509665008	0.8968359884789399	1.0166546386084807
Si	8.223473428764759	13.694223623933674	10.932149043268666	14	-0.8971743459390715	0.7890369986105594	1.1043565837419238
Si	9.45468516627269	15.103780074830523	12.475480349184634	14	-1.0055454067411849	-0.795107121160897	-0.5177463065340708
Si	9.456872043248726	9.848779981327189	12.40923756078368	14	1.416860551437194	-0.956236234690321	-0.035187376079950566
Si	9.207111108612564	12.098260390795959	15.086676738480632	14	1.0834398706309232	0.4677161965514374	0.6789062733273366
Si	5.4062536443533045	13.88177280459486	13.695806661744685	14	0.08749214293931898	-1.6881360739922937	-0.023855486491929923
Si	6.848858049552179	15.135359231163571	15.072788437685066	14	-0.5732796103439491	0.3996875779961714	-0.6002762162055041
Si	10.952238935488811	-0.16334665412789792	0.1939139718600942	14	-0.7232519265576546	-1.0576840801968717	-0.9434475568279046
Si	12.0161872242849	1.424423950338401	1.3700294655538787	14	1.5591853719866509	-0.8940124006163533	-0.06731950770796917
Si	13.375053825274538	2.819700420981286	0.1538484272618337	14	-0.5792648864187219	0.455416542920913	-1.247138546817303
Si	14.79237858542954	4.202573708775014	1.283419345316417	14	0.4846800923432424	0.3439948656564439	1.0658460540356818
Si	13.375755584304162	0.1285851021953949	2.732111102097838	14	2.702297768882359	0.46391121778815025	-1.4471849389146165
Si	15.096958324263486	1.449703595382273	3.866333213720855	14	-1.1657368381603508	-0.3606576850152596	1.0209257587663105
Si	10.772817103589311	2.7398794113559934	2.5496700743732132	14	-1.1306386794350096	0.6735203219026904	2.8649008970918235
Si	12.243100190514722	4.14664514611178	3.9610217227877014	14	-0.40233170270741175	-0.3681717403133923	-1.255153967652865
Si	10.84304196648394	0.043492739859211496	5.514667254441388	14	2.252682410895296	0.9055492072983897	-1.0572261663393534
Si	12.354108677014668	1.3580669220954165	6.900918777563768	14	-0.7980734053687518	-0.4265319744227735	-0.23357591946683245
Si	13.407481620434108	2.7289613464532496	5.33362974477601	14	2.2167753824362357	-0.2685231543098812	0.020535418192022706
Si	14.902456833215801	4.001984866144782	6.799963397162611	14	-0.09127038220727658	-0.2296750384751038	0.16594196557820917
Si	13.842882298371782	0.014247340299096299	8.168067105379384	14	-0.5778579775875369	0.6711430779236816	1.0169490301676376
Si	15.145167537600864	1.5044244797154573	9.708999374612686	14	-1.6017739318411797	-1.6024434476665463	1.052497132324005
Si	10.882585271804341	2.5900783384975687	8.26864712629958	14	0.18369287670851153	1.1020911828443412	-0.14678774516417
Si	12.135926898711555	4.304083968408896	9.452759408935584	14	0.7486799010633871	-1.760645872010046	-0.23850498547608837
Si	10.828647746387945	-0.0750392562373938	11.10832319965898	14	1.550035836594372	0.8765499675029716	-1.6236111006567935
Si	12.261182725510597	1.5147550254306095	12.177820280782322	14	-1.047791238256538	-1.2368656955106514	1.1849365671385568
Si	13.491643744056605	2.8842948916614954	10.899590688289631	14	1.3616686904138313	0.6080646084412966	-1.5389543726645338
Si	14.97206153696797	4.390449288984861	11.961009380583588	14	0.46190369875417864	-0.854612011358808	0.9628390902629933
Si	13.374678465793577	0.0531215265447405	13.700963774613545	14	-0.004768629037278643	0.629273142006134	0.3661320824629188
Si	14.661068047002818	1.5764935000600269	15.058361577634205	14	0.5175886977779458	-0.4431670258441315	-0.8339374963689655
Si	10.802682662291883	2.5736604411998703	13.732298131285097	14	1.0983268275451126	0.48427720013957526	-1.3172785570614747
Si	12.043914865943737	4.103087126342836	14.841338517728841	14	1.9643036386400392	0.7160595165350724	0.5927696171127996
Si	10.692947134031717	5.488767450255058	-0.1801562308839909	14	0.24286532298852748	0.43837294286418343	0.5698944930794423
Si	11.979712074721922	6.984672901750438	1.2176008763287247	14	0.23003627877258462	-1.1168249018814498	-0.051915244403365986
Si	13.518865466415015	8.091722250947344	-0.1225303905677148	14	-0.9130658337018428	1.2725654928809074	0.13011592693673382
Si	14.829294374383213	9.210342464144315	1.4351135355570817	14	0.8920133662299381	1.4051483953723234	-0.3375815005458665
Si	13.409505297635812	5.70172683577958	2.5575689434508333	14	0.5256897364206683	-1.294360495569271	0.2539203045335682
Si	14.916443053875968	6.731191012259528	4.010438614455128	14	0.6929463081490693	0.4384580464502803	-0.0901385816453474
Si	10.809798172452714	8.069902441119288	2.9017735874923454	14	0.5109835282104853	0.5890772527625351	-0.24375749653461887
Si	12.201174168489088	9.654817049534794	4.037105457580814	14	0.0772344611540562	-1.0654956123805457	0.471771600972907
Si	10.987114727263346	5.415164352031777	5.347077406180884	14	-1.0755792303356342	-0.3465315181653019	1.7036059004825608
Si	12.303663626768955	6.9315513752056965	6.600288473268633	14	0.12270651562513109	-0.2927807616738823	0.08720520758559044
Si	13.727402138055167	8.256651942886252	5.243853548916527	14	-1.0091027880621417	0.3695853340184097	0.6660219503470106
Si	14.81364351602487	9.639721070409177	6.778600546702684	14	0.17337451683769323	-0.9360376312952376	1.5008847875206972
Si	13.488118628931055	5.53178691076871	7.9993511786759965	14	1.5419111437827042	0.021438647490990725	0.6062725480331533
Si	15.000033978288304	6.995411446901417	9.384819342881588	14	0.23180262812752633	-0.3179472547685557	-0.25980016529021477
Si	11.094434898863412	7.960787072001581	8.338202870119453	14	-0.7034731846613514	1.3454748406654107	-0.48244940136748193
Si	12.178799479428308	9.506354214825883	9.877339941835114	14	0.1609023420401869	-0.024672326652140968	-1.3964374905476618
Si	10.806207777417432	5.278957820375124	10.964772678157432	14	1.063488350457106	0.8953339487509094	1.8652723750238958
Si	12.13837489532652	6.887993355436754	12.435072085060277	14	-0.23677180337977652	-0.084488577704322	-1.2348890297405217
Si	13.642489295470748	8.108140148245042	11.026266353125353	14	0.35446414940955484	0.17485830171795072	-0.11796411186211796
Si	15.235253813031575	9.527406985714583	12.126624511574688	14	-1.0918851802760137	0.39690718470296327	0.4148712404643059
Si	13.662415987916562	5.545626251631979	13.470656253077637	14	-0.8429700464691776	-0.8757873776650157	1.0250097024568339
Si	14.935325267766062	6.815451055746623	14.931555352979018	14	0.6782251875280294	-0.4109914425362025	0.13739189788222086
Si	10.760511840604753	8.307374432748325	13.726537179251212	14	1.4306907840648027	1.6990465594183422	-1.713825787019617
Si	12.091813999709887	9.73245118218405	14.995888704020297	14	1.6412848786274912	-0.7236540474297257	-0.13360800218255894
Si	10.806436257101495	10.941761509976763	0.18676582174439638	14	0.37939975724647895	0.32377929296624763	-0.06390713672706864
Si	12.346144528027315	12.238204197284793	1.4744283611934195	14	-0.2627098851810264	0.4166113645449821	-0.06985924554321143
Si	13.773979353649235	13.445539807808096	-0.0134639813823075	14	-1.4518250126858876	0.7811876711786793	-0.1649194369923863
Si	16.291123712998278	16.545927520661273	-0.2087977912790814	14	0.018677537487683707	-1.5189498877211216	0.08152872125976753
Si	13.69257530621293	10.812066649315916	2.7454118837058146	14	-0.3404243716983542	-0.06752108236506876	-0.5408523158251776
Si	15.01454243822633	12.099663908855206	4.14742850502857	14	-0.39415867311572494	1.32570921140624	-0.688617595232068
Si	10.87747711886778	13.55310477906966	2.937873377574363	14	0.4638261142020534	-0.6959683853423713	-0.34029607354287883
Si	12.371375213138888	15.051213427518507	4.088660266291976	14	-2.1537740461134556	-0.7827984686617521	1.2361951512431568
Si	10.80335178136664	10.779899973795274	5.521162605459762	14	0.6484864978425366	0.65184436139065	0.30616696441270125
Si	12.219109823688065	12.381966878492971	6.902844534900874	14	-1.5868214117413266	-0.7821772896164044	0.05802753308095401
Si	13.560758848485783	13.56758059905282	5.424189299552282	14	0.1620601107658496	-0.7530515514392349	-0.5033316616671926
Si	14.864251766044912	14.793096664436598	6.813329458680321	14	0.469722687143281	0.9647872167640693	-0.3414828957586592
Si	13.341663151446417	10.921606337846882	8.341956464929066	14	1.2566084419324726	-0.02652275115105154	-0.2882234774939198
Si	14.717323009214713	12.481747220518944	9.628068606521945	14	0.11910439707160364	-1.455601195069589	-0.15385802768404522
Si	10.877297599116018	13.783624460312195	8.422838273087509	14	-1.1900044728351007	-0.9598229266119275	-3.150854345698585
Si	12.3332680658326	14.97495017297363	9.486476482312368	14	0.31789686110428084	1.9390456141959682	1.7198534863321724
Si	10.79897802741457	11.015903167455335	10.985433769587736	14	0.4031781105788044	0.1950185956437638	0.4277213677438739
Si	12.055110370462844	12.120798279631071	12.701854756159163	14	-0.9967527407673425	1.5274651314309202	-2.1307341142290763
Si	13.208263655908256	13.536572641929927	11.081917476172224	14	1.109688799065379	0.6175797550101007	0.7675045057753833
Si	14.682855216876007	15.070373081024966	12.381722078831475	14	1.1466993459278465	-1.3194861080893538	-0.5022834220281683
Si	13.707965044932344	10.904600921361592	13.512011075893113	14	-0.00745517698630137	-1.9364567682491112	0.30998505581312114
Si	14.964668587190777	12.166200456849955	14.852370822473617	14	0.7603591469801597	-0.035791585830185366	0.8769289484271614
Si	10.528556001348102	13.600416393648215	13.864114589012246	14	0.3806488002110069	-1.264929824301132	-0.8258827376220056
Si	12.095143275106238	14.752737360244542	14.9396827017407	14	1.826996844343915	1.252048843757722	1.6622558420607472
H	8.660905943892855	10.822766026521055	13.36048008542678	1	4.3141514620206465	-0.6745572486783061	-2.0578443068450065
H	7.877436051257511	10.800750376963805	13.760727531973558	1	-0.7480160416697249	-0.06645587343093143	1.087099067722558
H	14.675956762415035	14.4199077404739	0.7654836455063255	1	-0.19345304961432563	-0.37528984539222227	-0.3854649946967083
H	2.1280418253913314	8.980503325960738	-0.5316967047816814	1	0.6789967762346059	-0.1115039526347139	0.8181285410869709
H	14.221522094797136	-0.8039890002619817	1.6977656203676497	1	-0.7603540047695194	0.9350976351901916	0.9379896144542942
H	0.2680278853770312	10.617295878640585	13.957195580301931	1	-0.12358609075515377	-0.03325621887398734	-0.18212578801588128
H	10.553628382678573	5.840094132448375	8.91115647785201	1	0.4107662137101575	-0.2355266170732288	-0.628333660122152
H	7.575558900686486	11.436697465590386	13.111056974323482	1	-2.0876598725795716	2.717645982090983	-2.5732611919590234
H	7.12437517257326	9.266577842383292	12.146903715533057	1	-0.7801165487023056	1.0625905204793105	0.9012706309351313
H	17.0352151320853	17.461556590549858	-1.0475369194893631	1	1.0181322528359698	1.0387576597141979	-1.1415131693865759
H	10.21019730556739	13.120072129857528	16.00920752682568	1	-0.42756273054562083	-0.4639721529842378	-0.3392203230769289
H	1.0911765391454724	12.719318764010323	3.52932567972734	1	0.8216123887957716	-0.8897896172385421	0.7329586204728097
H	17.679664928954523	12.166200456849955	14.852370822473617	1	-0.13178483140004194	0.3660618912876788	-0.17995217557822807
