219
config_type=vacancy dft_energy=-23074.576285276835 dft_virial="-35.18683485655441 89.66913432429584 -86.18109188533643 89.66913432429584 -10.951026141089166 -124.74683668576849 -86.18109188533643 -124.74683668576849 -208.61515915610298" pbc="T T T" Lattice="16.310007879816094 -0.0499587531459522 -0.100961371848986 -0.48298354494219276 16.138112581283547 0.2919235271976012 0.6185229633695067 0.49808697472121716 17.37489754163329" Properties=species:S:1:pos:R:3:Z:I:1:dft_force:R:3
Si	12.314974550951382	15.23378085942503	16.19301501646624	14	-0.33564237291341087	-0.33261181107255233	0.33102261087416873
Si	1.3881634075658373	1.2296181708844047	1.0404697319412188	14	-0.18096236285851428	0.7923658086685551	1.4485694791295163
Si	2.8661873291970714	2.735496992490388	0.07066643613455843	14	-0.13856303635554834	-0.4244686624033547	-0.9386095079469818
Si	4.197722661331165	4.091851859284029	1.5937510979931258	14	-0.25632531645003465	-1.2581855579358514	0.33573776092078833
Si	2.7573659759112474	0.18311848431110672	2.6701640569365432	14	0.8753526037553787	0.6247359124476687	0.41605549157476607
Si	4.228955445007033	1.355421911952	4.534335051651389	14	-1.147764297751452	0.12940398787358484	-0.6580324976751825
Si	-0.04722839229821064	2.619605081095269	2.6192593006294858	14	0.5699690551337265	0.5439934351948025	0.06076704579957178
Si	1.284279212157023	4.065795996355313	4.26967435693288	14	0.2767087823176366	-0.6342608292166894	0.38435839096691654
Si	0.2071290231639165	0.12161849259967109	5.558714574654155	14	0.3840382883545581	0.7573635521716553	0.013537383731643668
Si	1.6819544754866549	1.4513482635280002	7.244273648392608	14	-1.239984189153459	-1.0992418839285534	0.25255376205590946
Si	2.7630631983970066	2.817999885418292	5.865509923960303	14	1.0455952572025995	0.6326883412028868	-1.370397592975734
Si	4.360970186139263	4.083621631782415	7.17279821645131	14	-1.214457741313965	0.17285669622621544	0.6329449375138375
Si	3.0373258252007336	0.07864385244656798	8.649195991269403	14	0.43578563958051836	1.2526227144651791	0.37749508242531327
Si	4.470868025780828	1.6394071677959823	10.142641395466585	14	-0.9688199954587217	-0.37416241570933734	-0.23824298984396527
Si	0.3402757060096075	2.795359420109152	8.707110957208238	14	-0.43430031203706887	0.6331614245817939	-0.11636771256883802
Si	1.627526672924447	4.2768003703998945	10.070852803858164	14	-0.5793376486992822	0.2700097674059908	0.6900702697379515
Si	0.426407662788303	0.2544618020178353	11.614260223281162	14	-0.47311140395523615	1.3397973258974596	-0.5832009915533366
Si	1.670369198842982	1.7499639475704543	13.04982328233817	14	0.07413833612753389	-0.35030075856463905	0.6934440741390498
Si	2.9158215053963685	2.987709590440699	11.512338168911675	14	1.4006165651350304	-0.0770660537555865	0.3279982196860786
Si	4.4989447471864565	4.241878174395717	13.032152595704698	14	-2.1651660995659676	-0.19916733118835475	0.5949722830405706
Si	3.235728784723421	0.36029672118644596	14.327867028831562	14	0.3302415090779077	1.2015988722763082	-0.05348876085929661
Si	4.686853595780608	1.7506620326617526	15.784351437108391	14	-0.7785368615936067	0.11441418674658951	0.8039139282140003
Si	0.39400379244058403	3.0227883662784394	14.845562365626586	14	0.04336400521908548	-0.32466272475425045	-1.1348902591924062
Si	1.8982042739555718	4.415257719267238	16.09174048495013	14	-0.7894627736515759	-0.351498379422764	0.8277429323211327
Si	-0.22354707112889052	5.2756149734937585	0.09001546285902566	14	1.1868903500713373	0.5606279723950965	0.13162825108604492
Si	1.163716002393964	6.7247564399924915	1.6445367883850783	14	-0.12704139919490076	-0.34744580321714663	-0.4599632855690629
Si	2.414343598654569	8.0086784544042	0.05604905625555016	14	0.6005081299053814	-0.7740759938631498	0.2892316078899499
Si	3.7454271327272384	9.291683824373598	1.6138993342847334	14	-0.15924346488762736	0.31946215002318695	0.22347430377450267
Si	2.7165312601501617	5.341626421659707	2.9472989450621774	14	-0.20408919810271423	0.9012654887244911	-0.005453057273502061
Si	4.076195506967738	6.781161062953422	4.364111569050106	14	-0.1050728468974275	-0.6036698181175674	0.9875512690475966
Si	-0.15182209007785402	8.14366658133418	3.148053864168164	14	0.6287180403675141	0.3864170749967591	-0.6788021435618706
Si	1.2791218638890667	9.456696134389137	4.629922146921338	14	-0.6146888041881261	-0.017423609423047486	0.32431459709390237
Si	0.1956318226766224	5.56230123146669	5.846436542984502	14	-0.7609168197240999	0.0321200474330139	-0.20783838388055415
Si	1.6222306862621911	6.88208981400375	7.3968721134785405	14	-0.7708744535185014	-0.519034687409997	0.1033046977687617
Si	2.8498687746680065	8.20404767965162	5.995740307405897	14	-0.025946309338274343	0.13984704635243028	-1.0588071390007123
Si	4.073642929472687	9.67649996887193	7.37591814346006	14	0.27567108421042485	0.09928168927432597	0.20402363491705044
Si	3.068904389342385	5.51203910489321	8.74059294495163	14	0.15102672650549817	0.25379689147820106	-0.4076217519036163
Si	4.246345592772039	7.01894221957708	10.223770952770954	14	-0.5775926395184976	-0.8751227469397573	1.2890591335096575
Si	0.19202885546475795	8.230232394735038	8.854281321397346	14	0.6314742652707128	1.3386303011926444	-0.7478473771607231
Si	1.6086604340201303	9.836012412233597	10.200907034991001	14	-1.5369895339788766	-1.1800000449238723	1.2175052724499364
Si	0.27638950287628067	5.65770075714435	11.732424173302867	14	0.5002345081985423	0.1687483270351508	-0.41022859558771446
Si	1.6516203948138368	7.025381565232328	13.257249154769882	14	-0.15986001594339888	-1.003308030891592	-0.08535092642869967
Si	2.7834055284406345	8.304958489262685	11.70872026995745	14	0.6401838845427145	0.463801945812044	-0.8655916595179685
Si	4.1899605422903035	9.605942812412879	13.10754741660485	14	-0.3803441242305694	0.4703490083992691	0.45542682734219364
Si	3.1602687222259522	5.603524134731816	14.668132948601574	14	0.22351518434909307	0.7725330735605289	-1.7535617055214416
Si	4.4787182209780685	7.059732897259977	15.963578260139503	14	-0.4005938926215236	-0.09562943416705563	1.1695387315972539
Si	0.26806304401862197	8.35915794623428	14.639808309126137	14	0.0626614361994569	0.4962963461796715	-0.2635208117990011
Si	1.6258124499549274	9.742353206164383	16.033354148470675	14	-0.3238746809736251	0.5242005522192386	0.17921863923038986
Si	-0.3085438241142598	10.609109030047827	0.23692812273873026	14	-0.028083669190913436	0.7485624015502563	-1.1026303436299763
Si	1.0162520510169257	12.062166623425549	1.6084793885875739	14	-0.3603738349879152	-0.3283129229772647	-0.03549102361826005
Si	2.336481014335879	13.3678923796608	0.25731285982061436	14	0.04551010682981309	0.8875545553837373	-0.4495230553060696
Si	3.6249373197611616	14.859625191928394	1.737869786467704	14	0.3074836274471491	-0.758332858877351	-0.4107466733097243
Si	2.3834484402448197	10.756475119028888	3.078971167808491	14	1.0215320254008018	0.2310919746170374	-0.09275262442434196
Si	3.9146100118513054	12.154062675327253	4.453663816568176	14	-1.0126542558408624	-0.5389134453032539	0.7760536880754076
Si	-0.3975431490950638	13.675661459806912	2.6014157237631226	14	-0.2753448109452981	0.06917918818603226	1.2422547322616817
Si	0.942467066530586	14.98412573208957	4.170001506630916	14	-0.34345570487080884	-0.7178667464646045	1.214306046100076
Si	-0.03309053815948672	10.98091600004103	6.0499674920563535	14	0.3624867693400129	0.43459238960143776	-1.1116958038782865
Si	1.3707063871635805	12.535226921415733	7.202388542914708	14	-0.3818741890065895	-0.5159367626097506	1.0848580923255167
Si	2.5529917791940666	13.850223508629815	5.651718102670326	14	0.06589331558688302	-0.8327591588007415	0.1885782339273249
Si	3.800231705513955	14.8995497874069	7.4827365797082335	14	0.6416309026168938	-0.7810706858866125	0.11394058914661824
Si	2.7656337173313204	11.155261120552854	8.789894389004607	14	0.5562720057617017	0.726696179244525	-0.9636960396661987
Si	4.136951744469753	12.372827537372764	10.382993071024556	14	-1.226074509371458	-0.9022617920360483	1.2855811993430932
Si	-0.11014575771137113	13.742098609395358	8.782363877634223	14	0.708291178920777	-0.014823707723313751	-0.05454934180385768
Si	1.193458015571125	15.04209941546599	10.391753386504377	14	-0.042626612213267016	-0.3078656936977231	0.0270603692734945
Si	0.22976948847305662	11.204058573266552	11.843467002977356	14	-0.13086746102181313	-0.551764858135482	-0.8505908026380965
Si	1.4245551705495947	12.63726477962046	13.302952524730793	14	0.2027493951203851	-0.46945272108466546	0.49647838043633796
Si	2.724247710072901	13.829484835882484	11.782816783070981	14	0.5927205090011848	0.1029298306130841	-0.050174091880561704
Si	4.178657435555029	15.185888633874114	13.25437526240804	14	-0.3080430999648133	-0.61840276582308	-0.01553230434954656
Si	2.9206330731985415	11.117434042428108	14.579975240226167	14	-0.4627979291845261	0.0947727418743823	-0.10568991217426306
Si	4.193116604560542	12.419485065694445	16.144222456872342	14	-0.17177066133898486	0.521621219362066	0.0026610940063532614
Si	0.05736041236163392	14.009543489279395	14.835860940105459	14	1.0348194976953269	0.18355892212133182	-0.39154128789981424
Si	1.4824685054484954	15.497255788112293	16.260447100413778	14	-1.0087081233954989	-0.8164511519761062	0.9381109706254052
Si	5.38921690482303	0.021772752064816058	-0.0397647535650772	14	0.508961868097253	-0.04707719552244334	0.354189812471895
Si	6.83232678564975	1.243555407111377	1.6280420815432561	14	-0.22159611133813448	-0.1630476723193185	-0.48791042906747645
Si	8.107198159473576	2.4799978490752026	0.0454163069327143	14	-0.1860606075978359	0.6576985110940952	-0.3552707051484853
Si	9.324811876451543	4.044005302851235	1.409102698224921	14	0.1843328248226964	-0.6584659860321594	0.6914882343220132
Si	8.306935309661407	0.0304433603483251	3.1380245996205165	14	0.450277417607001	0.6759330471351174	-1.1167984194966523
Si	9.702033899022107	1.5131548907468286	4.472676849066458	14	-0.6054220263932484	-0.6888734202114226	0.4492111802307357
Si	5.557323297591357	2.602299747406776	3.110119137407846	14	-0.14538674987522132	0.789203863345837	-0.7864337544739095
Si	6.9909813020066895	3.962701224274041	4.440502955349284	14	-0.6521480089289596	0.5040716257783313	0.2615174065335417
Si	5.676071159909054	0.06430864247595831	5.879951151526554	14	0.7516703536612512	0.10237678585872023	0.18335529057997607
Si	7.069674085651246	1.4355434865778114	7.4342734901807885	14	0.4774974525208768	-0.4548334162343035	-0.7762706893644282
Si	8.348650786986282	2.809229783698874	5.988539266101967	14	0.20863414097713998	-0.10947175098966887	-0.021248642807831782
Si	9.595372042607494	4.301381773229234	7.45087910773805	14	-0.35664470383157243	-0.7876223764634139	-0.2691407338077808
Si	8.701907939822158	0.21802273887602272	8.787193386875657	14	-0.30702314248431056	0.16196857941645235	-1.0686099922548409
Si	9.949337066774268	1.720960795482915	10.14519071088177	14	-0.014061632106421857	-0.18668127242211963	0.09644576010620265
Si	5.759104140815164	2.913544573649984	8.629825761025808	14	-0.11722543330363942	0.3788294860864701	1.1971274630140387
Si	6.930662183206703	4.46240292852887	10.26456163045385	14	-0.17807809691037216	-0.473353344965862	-0.17842211080220796
Si	5.93430066417198	0.39981518772164926	11.551228685072697	14	-0.2484032267375944	-0.46464809657290473	-0.7734643279074865
Si	7.291208453502889	1.7251052679525156	12.850347098539608	14	0.17136057004042124	-0.0576714349941135	1.1481234811646763
Si	8.491914810535999	3.158823620845367	11.495535195522526	14	0.4683252914017805	-0.1768722485152227	-0.036208876223645395
Si	9.803177947343581	4.438327148078741	13.066505558772281	14	0.2937192151157363	-0.2148212488195443	-0.43486698364962956
Si	8.610344620066773	0.3194946262240189	14.350072006478609	14	0.6047957051372602	0.21222957465683506	-0.09842345431846056
Si	10.007380884867803	1.6834338287058317	15.843481527797266	14	-0.5752665605353596	-0.7577618163857462	0.7752108797514632
Si	5.927269251021077	3.031943393422032	14.351928129922294	14	1.4581856701374019	0.22417492997424301	0.4284199370593582
Si	7.418215902040994	4.458180166142488	15.912838238865673	14	-0.9832937757479634	-1.1949294250758442	0.3894607494747504
Si	5.376716614776978	5.233677674738006	-0.0250853941686172	14	0.16422086767690205	0.874611611202112	-0.20399663831118892
Si	6.652626961038085	6.641767497164571	1.4827474132770282	14	-0.30729902208516247	-0.03125101383480385	-0.430865315329351
Si	7.92399159900609	8.034254791592632	0.10614481675586931	14	0.334187641523271	-0.0803182448750418	-0.7658543703809122
Si	9.323596751701501	9.428917893291235	1.4663424136315175	14	-0.6610383769049675	-0.8718818686837108	1.2772567316480496
Si	8.001198505271738	5.3613571117284815	2.863655955221148	14	0.9900874073353906	0.13085306283202028	0.729753994801777
Si	9.452406499365505	6.742162898156828	4.412758966089974	14	-0.7642903670146662	-0.570586120410562	0.5955615803799484
Si	5.361032534781827	8.008588747207888	2.8991343358424593	14	-0.19880429111714984	0.7017374314597196	0.051472242956704474
Si	6.795382100128727	9.36180875525042	4.335932092128702	14	-1.2737805972552096	0.17552781754331725	0.6553315515363668
Si	5.573976215306674	5.417345819506513	5.803006842690109	14	0.37545876701175596	0.9801310590936493	-0.49853603602405244
Si	6.772731848579989	6.9323323680980335	7.4313930736592155	14	-0.7208579703940647	-0.5607120475390655	-0.08042905951434019
Si	8.010306232257275	8.089444289803524	5.911322573596721	14	1.347564892180159	0.4667746577831992	-0.6041508719229672
Si	9.496079224609906	9.50421485179541	7.297978900264522	14	-0.182607613152877	-0.5241403883547471	0.8590451111518074
Si	8.258870193877598	5.704986235840214	8.803741918035268	14	0.2212523545568307	0.522349613499264	0.42008929871154643
Si	9.654851175842017	7.143008903116095	10.26192097680242	14	-1.287873853957069	-1.1237848839830908	1.0059195025652663
Si	5.436034275058139	8.397671692170793	8.883883065140274	14	0.8527088792008344	0.2645965622649511	-0.7474318865409872
Si	6.896377723816304	9.74378852130537	10.269779327199325	14	-0.7109802979751199	-0.2565952825086502	0.4068769026923694
Si	5.617233025368176	5.7732110051951615	11.895777715706608	14	1.1467217145441317	1.105265726583128	-1.824008962851371
Si	7.148857812315617	7.174204172873504	13.212271597579129	14	-1.3333659630496413	-0.42952294124170176	0.3278269840717567
Si	8.252394965343827	8.516271129854593	11.747558592840619	14	1.294852605127547	0.14626272545779576	-0.29983253223545236
Si	9.692379773659034	9.886263121527545	13.303691385820414	14	-0.6549309733274878	-0.4746777213162704	-0.5188233425526809
Si	8.598162382807644	5.853032468473312	14.524647103620975	14	0.1297384886757361	0.09538697893536567	-0.32660030972351406
Si	9.989932019665211	7.2156423734097785	15.823819341405674	14	-0.9172667626844326	-0.051351658117189516	1.609920221937537
Si	5.626531584025867	8.50621250658815	14.603587805335339	14	1.1088066528300362	-0.053980870417572956	0.019295116985583272
Si	6.937491347405922	9.85125937352672	16.217612729694906	14	-0.13802850355948956	-0.41010081165330314	0.036504039114398396
Si	4.954024460955912	10.758796088853462	0.26637654872796196	14	0.7284900394263923	-0.30768211677786456	-0.2397972230099948
Si	6.460891692761257	12.120120734322771	1.5514614946118572	14	-0.782258793655053	-0.382056480373788	1.2438858414767837
Si	7.625527601677399	13.472388215044466	0.1626717677117709	14	1.7021966776565876	0.33413519097474004	0.1184181690616561
Si	9.026634942151048	14.879533665349859	1.7712963188533766	14	-0.696205441252889	-0.9637454048883456	0.06475148771420526
Si	7.96019089927776	10.74572982795068	2.9412983491488913	14	0.2662379559013336	0.6301645442206294	-0.35870261652981894
Si	9.264104570147516	12.049757671615742	4.523625643451705	14	0.1576205832095499	0.7139751214520283	-0.09246080397050514
Si	5.094809303807562	13.501763244236715	3.12411835315227	14	1.3756562746870327	0.7982731802521273	-0.8751985945467018
Si	6.5872940254842405	14.79423680101683	4.7312586579549	14	-1.3441018704244516	-0.3907285615081154	0.13202111597896357
Si	5.439231113326702	10.865002885126785	5.858803087756054	14	0.027177611676093255	0.07274685392826975	-0.08509715833360104
Si	6.729957826338636	12.237720344527679	7.465023486036506	14	-0.9013444216578196	-1.1504855556222966	0.6134652151662676
Si	7.969235015705912	13.46015215346755	6.09651737174246	14	1.203520002171523	0.7758495423129879	-0.9178917983877606
Si	9.404933451077353	14.863299924897307	7.496768416251317	14	0.1543611929951982	0.5498894939149661	-0.009753230921449722
Si	8.213037971761985	10.904844297568708	8.789349621667004	14	0.37036155071456245	0.923281863580919	0.14589788561286676
Si	9.397804175530473	12.515610404142263	10.402097441759082	14	0.6377248794145248	-1.6271114034396432	-0.4842435186598813
Si	5.386165229108499	13.522058274122289	8.998298885396082	14	0.7472331400997397	1.975154731533192	-1.5923377182057041
Si	6.728264806888245	15.145856389760034	10.32914918075834	14	-0.19401740723209815	-1.2191615784971759	0.9437625172296226
Si	5.508038163937709	10.984877796038141	11.821834520346773	14	0.5021348121406637	0.7159613003118427	-0.3206132338750172
Si	6.853931540601473	12.329309760921992	13.425802452479834	14	-0.42390996121728647	0.37424057731106986	-0.4607716410817175
Si	8.085241099896336	13.686821035028089	11.917643437047602	14	-0.6369018686015454	0.5900288188415218	-0.4020928470231699
Si	9.544881570443405	15.003164861226779	13.222206261810665	14	-0.17008453047003178	0.17388051036469837	0.717441485644652
Si	8.311401096997798	11.123178565071923	14.853265767229862	14	0.6229258543022845	0.4192102378025878	-0.3072532564104638
Si	9.766102778627923	12.611316565327318	16.152128107427302	14	-0.28349315792591134	0.1076478088755558	-0.2941848422892151
Si	5.496989499431973	13.843249181876564	14.819274895027391	14	0.22725100037926818	-0.08959530709120012	-0.6345382514807333
Si	6.849206417915746	15.260546224724576	16.21806942087613	14	-0.3967166657987403	0.02649112655561372	-0.44544116849980253
Si	10.793282797195545	-0.00903759226842054	0.07819857854487536	14	0.28903517544349056	0.13783592777101045	-1.3453347154254625
Si	12.045790982498831	1.3602481591135693	1.5590441992600954	14	-0.7544736297918087	0.20326310196335065	0.2097931952554627
Si	13.249885009472656	2.50784622489022	0.02896890024894734	14	1.2673320080017463	0.828755176485675	-0.6344266655098388
Si	14.732187148847991	4.0205411623759595	1.369006843553457	14	-0.5910446625535124	-0.9976282021288531	0.2443779042483706
Si	13.549980046734289	-0.058707651346242354	2.554035644751148	14	1.6032579738319692	0.7255286403186457	0.0887686967307725
Si	15.020926886096495	1.3889691412927099	4.058183932988282	14	-0.27980593578628704	-0.6375911819378771	0.39578206901486646
Si	10.818268697928254	2.871993831358338	3.0271024669010655	14	0.4052378230507751	0.20400075207970111	-0.8994335761838855
Si	12.319459910766968	4.15677214173484	4.443939556487988	14	-0.7988380520909639	-0.42942549635006816	0.42886448116921183
Si	11.195795724966278	0.0740981441534642	5.669418148022592	14	-0.1973637008062709	0.01155043354023323	0.03156803112077811
Si	12.563600492089158	1.4974724417916103	7.036004528315566	14	-0.9365325690693661	-0.0849452060091803	0.872789725972255
Si	13.862547646363112	2.7991466948334387	5.677565192487626	14	0.382612353344004	0.5103741762496102	-0.3735556348537824
Si	15.213657088732418	4.154679517500878	7.251371934180762	14	0.18751431054584763	-0.2030473862269902	-0.59423334737156
Si	13.887424267420313	0.23933716871968266	8.5535567027216	14	0.6681441406782608	0.862563411671898	0.14960156282654008
Si	15.174911735125427	1.712993165410503	10.106437202075115	14	0.41828284011361044	-1.4814554588374023	0.0385580951546647
Si	11.186800539736113	2.973788664613056	8.561021972494668	14	0.4159760444203735	-0.39301118881134284	0.29536009453105483
Si	12.481692928736779	4.34282160480544	10.099025756619836	14	-0.3650475902388804	-0.1198870415310567	-0.020392464736222474
Si	11.267297253546502	0.21803415615555333	11.517648834933327	14	0.5824391730469768	0.8084329029246925	-0.0885154428567379
Si	12.570959744266583	1.7142963663169222	13.02711594439178	14	-0.39671280914076007	-0.7982934919841566	0.44748545433985226
Si	13.767891874894872	2.979874074602855	11.544549576547308	14	1.1027712402015206	0.7475722688914673	0.14842039704246404
Si	15.264723317992836	4.317577999763327	13.07672402395215	14	-0.2679536544814684	-0.8837973991794049	0.27718495102292806
Si	14.081801820388502	0.45745124583195	14.493866118006531	14	0.13053913087243021	-0.3332553587341853	-0.5179921042026769
Si	15.430696310528877	1.4410025772333617	16.166809097863695	14	-1.497721042424255	3.034607732190326	-2.1088583788336606
Si	11.189597773221106	3.0636491786784523	14.486071378167011	14	0.26020048638856186	0.434041658841862	-0.8540576810517843
Si	12.428525920042732	4.42113924926542	15.954108442288854	14	0.91656330826884	-0.2519503236372707	0.3303109289215518
Si	10.583746359090611	5.391074659306649	0.048074902023406495	14	0.6870178535018718	0.4433547165325024	-0.41984838614304854
Si	11.989443445935553	6.746607481974089	1.5433307605461515	14	-0.4200358197208873	-0.21599598684031995	0.08993854965143987
Si	13.3779787306061	7.981484125602292	0.14863177596902336	14	0.2752136845739705	-0.026468500828796416	-0.5089623823183169
Si	14.676376224422652	9.410394172772836	1.6491607865949633	14	-0.027102021179680903	-0.19610051676248214	0.19670421229165289
Si	13.42226146478542	5.404020223254394	2.869250422191133	14	0.5989515827445636	0.24277430586019422	-0.24778410457650277
Si	14.801343242004648	6.759288817452697	4.269669463813082	14	0.11355620890125612	-0.3844033853100191	1.5812603680443784
Si	10.692983627559334	8.147992099236339	3.0865408241372654	14	0.37459693250844234	0.3393218817370748	-1.0573266965573713
Si	12.105164098137713	9.481458582651033	4.502694507992286	14	-0.028857314781745993	0.36096313232729316	0.4218577049507443
Si	10.868873342887651	5.449821455611281	5.9559152053633015	14	0.7879555917129052	0.9207385261982286	-0.9719469737490859
Si	12.281764946876791	6.873753568906494	7.382907149572708	14	0.0061269439779128715	-0.24013095248054997	-0.025658088431885738
Si	13.55900132860338	8.178296821190363	5.890991660832625	14	0.26855914978436324	-0.10995820411624087	-0.4098966658908834
Si	14.994301790231182	9.565895888939403	7.281118840477722	14	-0.526987373275747	-0.5695646202668672	0.9271953429887163
Si	13.874860366816876	5.5523796155546155	8.656687357681397	14	-0.05516666419122524	0.5434846134519452	0.2874349194922304
Si	15.210192759914854	6.981274983365764	10.182782919256171	14	-0.8820050816607299	-0.458715271046663	0.7254800464280949
Si	10.959001347502047	8.25180289784817	8.880351863685458	14	1.0760996220524324	1.421341988010212	-1.2911558698982384
Si	12.379247310548815	9.765145358187286	10.319651635228832	14	-1.1461229041150691	-0.7084390174766855	0.19778819029462733
Si	11.093522997011208	5.726406683279515	11.52615470818361	14	0.5108590867129902	0.21751036787388717	0.6581605387201257
Si	12.576270410288236	7.040925375793246	13.103091415508057	14	-0.5235670318683541	0.03779113443766453	-0.656253549904172
Si	13.843736862816513	8.467230652190885	11.680620713992761	14	0.27934339393919233	-0.7148225577655491	-0.35924280575758205
Si	15.219445649454421	9.741144605574075	13.139460343932754	14	0.06406603103585379	0.008700363292849084	0.07056141440614389
Si	13.875475268871593	5.620004162214241	14.51041464916614	14	0.2525326789922842	0.5363708792521594	0.2571508983683342
Si	15.33306226014309	6.970006128469082	15.959918206529986	14	-1.0164232391296675	0.40101092590445164	0.24715855465211073
Si	11.2313687059037	8.524410019119962	14.446040765092864	14	0.6786733311853312	0.09892661962961352	0.15568608356667052
Si	12.549862242734006	9.761716912248247	16.074766252368022	14	-0.4392391482465413	0.2212389848091659	0.4444410085302649
Si	10.546690762854146	10.77872739683399	0.1728576120929812	14	1.2307397799748667	0.20925017781184746	-0.8412144957565805
Si	11.93182369822458	12.041933573057428	1.74200610373764	14	-0.3534542192398007	-0.2512209010579447	-0.020839322840864212
Si	13.096877153363556	13.277262014747055	0.17806389155892569	14	0.16357192069409668	0.06044411497136119	-1.638169984532132
Si	14.409058565653384	14.998283158707489	0.9812515650959663	14	0.6748621817692758	-0.24554261495839766	1.9727255512267161
Si	13.491980266718942	10.907356099065435	3.2103122894484173	14	-0.46002756320206656	-0.5180928915312268	-0.7657903498584405
Si	14.882184105240887	12.371446046549565	4.4353717037202545	14	0.012333335110218321	0.02522228608012064	0.24468026623402
Si	10.530184638732793	13.505723409193894	3.0124834559821245	14	-0.13766289238296447	-0.47778155965875313	0.6519772875357016
Si	11.982314170388673	14.825996410591037	4.400137979088885	14	-0.6540120602860668	-0.3232848694131831	0.8960196625397929
Si	10.766920298759437	10.902627714299843	6.004549554083706	14	0.4083498889302823	0.018269760183908218	-0.9721763163436431
Si	12.141260642893608	12.36984599637535	7.314300716873453	14	-0.1941991843782326	-0.6179098849332076	1.1426200302268994
Si	13.442258014363265	13.724431184841752	5.9536007596984595	14	0.4656559698584028	-0.235235053729924	-0.7234059357663315
Si	14.79789848566628	15.113467198771712	7.3823167131169845	14	-0.36143544437460434	-0.6189876922834137	0.019948177736900885
Si	13.56342797098138	10.951242490541054	8.771923591023473	14	0.7179328238713323	0.404976341639716	-0.8988941582877185
Si	15.078218794780945	12.238764210084762	10.127376492734198	14	-0.6336771883090156	0.4554995896227538	0.8309071916386388
Si	10.861541818389084	13.681794169954768	8.996379151395011	14	-0.04201108959962357	-0.06732105037116126	-0.7978409774478105
Si	12.255873818981302	15.05244673280056	10.346625773639792	14	-0.5043027681466126	-0.2181024934291173	0.4793622752095802
Si	10.92858897691245	11.12151164226046	11.766530849340574	14	0.310521131272372	0.5914694091524009	-0.23267089039414035
Si	12.434146483651643	12.38572417012252	13.275066634997318	14	0.04539312153774635	-0.17072987790538893	-0.9719330897803571
Si	13.707409652101589	13.692107235450747	11.690923993249141	14	0.41202065599585774	0.00588191764090276	0.35483464568618817
Si	14.985112511249	15.194285227448889	13.329939711461218	14	-1.0731297382971294	-0.5427899007944411	-0.3793989859148829
Si	13.846963059803869	11.042965652209865	14.650801518274154	14	0.29325178816853337	0.26188327482059875	-0.5965224024380879
Si	15.159938788541037	12.490936032036748	15.96596773364126	14	-0.2330663263923791	-0.6892521440250805	1.7205181170574309
Si	11.182634863747387	13.844459413506806	14.592873504015856	14	-1.2388014807061911	0.12477856940263843	0.721625188221597
H	0.575649447692246	0.27403591225304824	0.06819541063615434	1	1.0754205931373813	0.6350151915176208	0.7794151511709693
H	2.2591436248755965	14.5821852993353	15.408659329994926	1	1.0186300188259505	-1.2209083874516844	-1.1323039843508695
H	13.729138366088216	14.074209329500668	1.9442077552641446	1	-0.840127689537754	-1.367322036791773	1.4047491027161045
H	16.217762785368738	0.5357281142936066	17.017336074414384	1	0.47543568316464996	-0.034089771218779354	-0.2710132698124446
