67
config_type=vacancy dft_energy=-6804.195455793123 dft_virial="9.715496182454807 1.1876610962873466 4.21750593711659 1.1876610962873464 1.1543399432852968 -5.257601927252002 4.21750593711659 -5.257601927252002 7.3984860076337" pbc="T T T" Lattice="10.890176291103858 0.019253870190412 -0.010269456781424501 0.0191558584077685 10.915343538847093 0.019297430982698 -0.010323907771782 0.019340991774984002 10.903669246514445" Properties=species:S:1:pos:R:3:Z:I:1:dft_force:R:3
Si	6.9420351701037895	9.504473728872176	9.921893931932964	14	-0.272600670237104	0.06212921739818624	-0.96920514703568
Si	1.1909117673663756	1.2021558968751993	1.341644087893814	14	2.4989457066749314	0.8182797220797956	2.308840236187438
Si	2.827641018284782	2.6489992981397035	0.27064538051253234	14	-0.06091976945558857	-0.9006867329169256	-0.33490163747067614
Si	4.19319998114361	3.999776995156085	1.621949074095767	14	-0.2957501312081213	0.02451960299612417	0.970040756264728
Si	2.6321380044655998	-0.025620279983010898	2.816367485241165	14	0.6925932953886129	-0.4489214166611549	0.7452613594297182
Si	4.121338831129203	1.3353974702800018	4.328291799200761	14	-0.7169596605076562	-0.19167435895384718	-0.015382408909381926
Si	0.0752904733871224	2.604381067620961	2.930404194346878	14	-0.41369881643831835	0.5290733110219832	-0.10095393617455031
Si	1.3373479047546075	4.030420923509478	4.410166486341912	14	0.37442106890454424	-0.049516403139667826	-0.5274252325117683
Si	0.2052867677666179	0.045830309564100606	5.788707654321775	14	-1.5374603033629959	-1.6645940052388901	-0.776284059112093
Si	1.3578846402778422	1.347349462663473	7.144574340896969	14	1.6056737843907805	1.2337585147312524	0.8568961813252276
Si	2.793501336350437	2.779499808689909	5.775535959754296	14	-0.23925034890839925	-0.9361695289981613	-0.2328593524141072
Si	4.22018480294498	4.030085505408876	7.115113088054139	14	-0.29620598818138355	0.19710453338999995	0.510856772718202
Si	2.761836996437743	-0.10455788070427866	8.419148965927835	14	0.10205745457795784	0.9061032804948816	-0.05999519998246333
Si	4.210627565117432	1.1667627531428244	9.79530191347062	14	-0.7324395143086717	1.2006318795654005	-0.08204782742390543
Si	0.1076147593029487	2.7244509464582842	8.654399024668379	14	-0.15559635199099736	-0.38456562205572054	-1.1078185770555031
Si	1.4795532001920617	4.081328243414513	9.881549015137479	14	0.7402142796862675	0.03945695357458846	-0.14448249213412526
Si	0.1900012857534605	5.437994270528153	0.28736510161170625	14	-0.48810094797169945	-0.06788643643106182	0.1633009261933531
Si	1.3578105869309558	6.764987774956379	1.7499992900798855	14	0.07481145150034864	1.0899882187708083	-0.2421937502789048
Si	2.594771556842669	8.173706770812176	0.25563977658981246	14	0.850077610016195	-0.24821605027028765	0.6730284694549461
Si	4.135444904691218	9.360964876725562	1.611995433058416	14	-0.16378326555141284	1.0613759303260724	0.13093482398120102
Si	2.711819405715151	5.400932748451225	3.016510812458614	14	0.7442275179804867	-0.622988075051032	0.14511704092713779
Si	4.0778553592495115	6.800534470481562	4.367357117722846	14	-0.10688907569558011	-0.5134445902229311	0.3841087366403302
Si	-0.0409340765111542	8.271738155812205	3.0064439133613194	14	0.33775042216540024	-1.195031240846522	0.08444846846132768
Si	1.3917956280526858	9.428150864707876	4.397630779341808	14	0.7545895866417475	1.0112656018574504	0.0484967027696971
Si	-0.06039377144511755	5.442622604708541	5.695817531831302	14	0.7588663632312818	-0.029147078351326683	-0.4538106305379485
Si	1.406307906002767	6.581227661717695	7.106032840902123	14	-0.5242576307573458	1.1288633312114473	0.1330030211007281
Si	2.7299875231578343	8.041535703877802	5.834126314398773	14	-0.07643818983640634	0.4685572051016579	-0.5049018356862071
Si	4.112884770366298	9.458747965209563	7.1338170032419415	14	0.44977708051170023	-0.15560663641227795	-0.5355021027644814
Si	2.8003251344620383	5.417538122470648	8.470023615238654	14	0.6256748801105868	-0.6249685974791422	0.17708436470413488
Si	4.067591347567122	6.864944546975448	9.849265022954516	14	0.22508330148385133	-0.35385119790123154	-0.18879883476379358
Si	0.1255443814078663	8.035769343998941	8.613002114739185	14	-0.4415019780388037	-0.10369113489837993	-1.0949959606028605
Si	1.3185666691604985	9.654820536387884	9.82188924304238	14	-0.1306761707859941	-0.5361973296430496	0.4652206817277017
Si	5.564686478812757	-0.06086640604142065	0.28615737864557694	14	0.06590102890284348	-0.5028742620307383	1.032079727866177
Si	7.005467306810855	1.3428964606720366	1.6381504217667375	14	-0.4696661228262377	-0.08665062016803451	0.37225594111444754
Si	8.39442821630553	2.656649662284932	0.24866569374482386	14	-0.46688135865398533	0.7853824295085009	0.9901825382322362
Si	9.665442835586825	4.219262403168324	1.5970105205120317	14	-0.08870004821872454	-1.7735893304127353	0.2747570562691123
Si	8.376184956496154	-0.08364761138719151	2.992713551632772	14	-1.092814120628183	0.7461756444815629	0.4213450265499068
Si	9.639327051591561	1.3465392319269534	4.415390514356811	14	0.4584818146835935	-0.5856635962289745	-0.721174216348443
Si	5.594381870914122	2.6825574434970307	3.092517860878841	14	-0.19633371601501956	-0.027002776514323184	-0.8253317497518977
Si	6.87278875664635	4.162822862642968	4.370468447311873	14	-0.1061005176938907	-0.6465807945792429	0.9370362486015832
Si	5.443439369563904	-0.0633569943403727	5.737304830404488	14	0.24750591098086272	0.4123579850138611	0.18280918780997663
Si	6.953571156920931	1.328537734514764	7.122248345830586	14	-0.19875029790542673	-0.6439757506688688	-0.0036496840019501985
Si	8.291177159369832	2.653040650644037	5.703402554788101	14	-0.5440479426275896	1.1986516142478227	0.5271886908223147
Si	9.698590420476856	4.091379896234507	7.086356431026537	14	-1.187549324364891	-0.9719246051328005	0.7793382751218969
Si	8.36229668689557	-0.0338118869723932	8.593492324894093	14	-0.11130134953548623	-0.452585241742366	-0.9964791751612788
Si	9.745736265967993	1.2763627955542074	9.983721942464097	14	-2.016528444123951	0.6709350755032815	-2.6403279600140217
Si	5.547391755255408	2.6421907463054017	8.487471890588811	14	0.23108940351171725	0.05007433299413996	-0.006510038670614935
Si	6.950976022720492	4.042463304536943	9.840714039428773	14	-0.2707353333273366	-0.15844205135933723	-0.4380703237680021
Si	5.4726545039303165	5.366956419487952	0.22246823326402346	14	-0.04132794691606022	0.18337148854349303	-0.271245954843918
Si	6.790320553710302	6.770739977577745	1.542618337224118	14	-0.3716753855331581	-0.7171059564003727	1.3856573601613449
Si	8.180455426557083	8.099553234103718	0.3903787522294462	14	1.173971060058657	0.3129662524318328	-1.060724412237947
Si	9.670273727451342	9.637415821830013	1.4871992082580616	14	2.5253640709499847	1.8968157235336	-2.704557770458769
Si	8.165735145823838	5.37494329075359	2.904242671519713	14	0.20783992654374622	0.9933015460961078	0.1594468393184511
Si	9.486866456630175	6.801565772238933	4.321800152130339	14	0.03156211757854178	-0.002414782116683076	-0.6689357840063344
Si	5.497075773105656	8.06119251139686	3.056429922509504	14	0.06232385007092144	0.5605225570769704	-0.5387679207421335
Si	6.8237066339381	9.542630804875097	4.3572575480313365	14	0.4324180058321884	-0.12011869812040205	-0.1869586946861636
Si	5.443893490823485	5.520119432224949	5.816204315432506	14	0.6990447128579285	-0.43920700943003954	-0.5893587887950913
Si	6.9118355618317135	6.7753519764610255	7.179858582648629	14	-0.2575008258024064	0.3968938149552985	-0.8321392653080537
Si	8.192676406832922	8.135168537876751	5.683713076674829	14	0.05365022627340191	0.5099211474922002	0.8412121817617924
Si	9.73193620697179	9.394255123210332	7.112466769922765	14	-0.5436491641924347	0.7957218724429445	0.05633754555402068
Si	8.28204572828688	5.463764835244551	8.466172841200573	14	0.10572256521182892	-1.0328014371295426	-0.00823550745096631
Si	9.579127125672116	6.712196450784975	9.913923395964433	14	0.008375375580382366	0.9430130400287995	0.0985368400630791
Si	5.546406192329937	8.136072424316685	8.461703503912029	14	-0.1643013432734227	0.494967341839687	0.8365641375640287
H	8.913397338343442	8.901229720038154	2.316456209828379	1	-2.9526797182743394	-2.7887419292931854	3.0534937863194735
H	0.27415093527174816	0.3526485719909273	0.37871970617409834	1	7.444751668449233	-0.5013303132859893	5.646491039826485
H	2.2457025929578442	8.714964861243025	8.984626856869701	1	0.17837685934857336	-0.21473923055983157	-0.2710621208135275
H	10.618450602942632	0.43210890221962706	10.87034415139585	1	-7.028070369839543	-0.029274348064674015	-5.2562831271457
