224
config_type=interstitial dft_energy=-23337.79447529173 dft_virial="12.06463694261323 5.359816947722717 -5.218450261083459 5.359816947722717 18.11109208258377 1.938743131052678 -5.218450261083459 1.938743131052678 19.2622208166463" pbc="T T T" Lattice="16.3852778749 0.0 0.0 0.0 16.3852778749 0.0 0.0 0.0 16.3852778749" Properties=species:S:1:pos:R:3:Z:I:1:dft_force:R:3
Si	1.854534905714807	-3.5283893523030914	-2.1559584775014673	14	-0.7292801400912738	-0.45402557494271295	3.140761985985408
Si	-0.21820274546004334	-0.0224314454107381	-0.12072672738226321	14	0.6210288927970793	0.20877272355389598	-0.24522559767242336
Si	1.3013843099360576	1.2551122852173402	1.1524585193310914	14	0.17344265112867718	0.6807047614987802	0.5220444232977625
Si	2.766228151952118	2.7476308615641063	-0.0274289551625826	14	-0.3031158337292815	-0.8019328915648262	0.06109948971746693
Si	4.07347839136739	4.004316133457436	1.4280916637426595	14	0.6130880340158019	0.2710502937290547	0.059168075400971694
Si	2.7895935582017253	0.0320168329675546	2.540537334503245	14	-0.1407903848943926	0.5217721432443587	0.31285878022945063
Si	4.138478788697118	1.430156208754897	3.972020750766009	14	-0.4155212158892393	-0.5468926135538015	0.588242671975615
Si	-0.0018023805662390003	2.596001500109782	2.682450226177754	14	-0.30709256232795457	0.25370973100784805	0.0497763418875348
Si	1.3377268562625861	4.06866111967217	4.03977387477872	14	-0.9092914510918653	0.40917264263272973	0.7936351633651122
Si	-0.07434000571842131	-0.021038696791371603	5.359509695934666	14	0.16529584681125598	0.1626625207423603	0.5008479739279297
Si	1.3279776159270202	1.3238485259025456	6.774902769324278	14	-0.42862074038486175	1.114168692975205	-0.9764764899915908
Si	2.7182192877786613	2.7395856901275306	5.393050359744587	14	0.28500445363309446	-0.26063783140351904	0.30993183393299406
Si	4.173723521406028	4.0666785010493065	6.823534274056981	14	-1.6169359970246249	-0.5946277549276706	1.0334203021801023
Si	2.7022272565727588	0.07496264627766751	8.052806976065604	14	0.4000575600517407	-0.21699923213624175	1.231924288195859
Si	4.093550356764142	1.2349911639869628	9.661955960325908	14	-0.2736771920346501	1.3870113042229348	-0.6160689735239815
Si	0.0934452397205547	2.9239364514980304	8.054674897743343	14	-1.474157633496694	-1.0573719480110058	-0.2755445858286736
Si	1.2858674517885276	4.109181911856797	9.520043068651399	14	1.7414047482361856	-0.01939436165094099	0.3883736861453918
Si	0.006767119762333701	0.1199893898778927	10.876088665578123	14	0.18263820930618677	0.13498174375511407	-0.39781992709161584
Si	1.4420027646584495	1.3927322340886252	12.269115834668497	14	-0.26035295293404664	-0.447776503462093	0.7314758640346802
Si	2.7379143917842907	2.881678819858663	11.010366017762928	14	0.582373609861313	-0.709993507753247	-0.8895813577076102
Si	4.17333027473703	4.321535113115501	12.257908304602067	14	-0.631527744261372	-1.3862068053682606	1.1220223912861294
Si	2.74212540819814	-0.1946898717095618	13.635320303877661	14	0.28452082872237455	1.119224257366212	-0.6284146499397366
Si	4.0403145889485925	1.3075451744170201	14.974964237651609	14	0.0629134045208314	-0.012136388442694978	0.21910599583557105
Si	-0.030509387403063803	2.6021295940349947	13.719950264101518	14	0.9144817414016482	1.4869727937439081	-0.7814720354270878
Si	1.4250931578915527	4.0999733856911025	15.038653812751345	14	-1.3096791410667128	-0.584181611122441	0.09870524746154878
Si	0.0963290486265371	5.534848554473971	0.04836934028670481	14	-1.287804177002893	-1.0203038083893667	-0.9182409544902367
Si	1.3783131895587133	6.825598819069219	1.3569140166540938	14	0.1006937403161513	0.26604692277604663	1.2595865532248
Si	2.726035065324988	8.13201340931287	0.04301135442161251	14	-0.4250592452953927	0.6061259950299049	-0.6533268607182474
Si	4.071331919965778	9.431939429518062	1.390798771299387	14	0.5145928458589093	0.5199687699728068	0.39250159573688953
Si	2.7250355633746195	5.420102453516047	2.7713731292048367	14	0.18688079019496312	0.3270625944600767	-0.3145863058940581
Si	4.203462800748972	6.739723577726869	4.092042911199651	14	-0.6345521354494621	0.06021554370840002	0.5900920680323976
Si	-0.1441740600212451	8.20186384889357	2.628427965024209	14	0.6715464843484128	-0.5491963239206541	-0.3274307767419219
Si	1.2212439158499218	9.449012889063708	3.9591746929120877	14	0.6920093973704072	-0.08843239615489713	0.9901858806691524
Si	-0.12868997242946462	5.690262915117398	5.596309731782721	14	1.8661054131476233	0.2054038042529059	-1.8395939748599808
Si	1.3071191571922727	7.070722576077722	6.8513237053328115	14	-0.11909874063989934	-0.3610253530760407	0.3173643851924781
Si	2.7368329634445474	8.20828687782053	5.370553373222348	14	0.2116366777700089	0.040613693858123086	0.057647523714636134
Si	4.08003250251735	9.606622876942373	6.829531285759194	14	0.0939253055608615	-0.34003382080022376	-0.664466431628321
Si	2.589267150903198	5.494753779514091	8.139648948802574	14	1.0905098960402664	0.10468975220472544	0.08936725004930297
Si	4.089437652017542	6.704970403354205	9.632151139871466	14	0.04584177941611219	0.18805449977361072	-0.2561257986771912
Si	-0.17774749438691523	8.478562036367006	8.227375726544789	14	1.248772484248257	-1.8317639307180016	0.24812580447355045
Si	1.4387584796392192	9.65009301914448	9.399906211272633	14	-0.4372416565233183	-0.18848695968845963	0.9812556605606819
Si	0.07358628293617592	5.380630319115412	10.924212226696705	14	-1.2999145972818547	1.3143739793813036	-0.012096536310232683
Si	1.2963048737948388	6.862629547066493	12.359382330481322	14	0.16852489798282994	0.46237421102776577	-0.6898620102070195
Si	2.693411977076062	8.183332099617058	10.837829041740234	14	-0.055091073694812885	-0.13348124669027564	0.6725458729863543
Si	4.094779252604759	9.46433312387674	12.339261209250944	14	-0.10420741284666568	-0.23928094506170905	-1.16040770816328
Si	2.6317050205991888	5.464998114893273	13.682296895544997	14	0.7261719308697467	0.24427248893024447	-0.7820986137936079
Si	3.988569881419658	6.711622826171414	15.085351854694808	14	0.7518565016864301	0.6392585437379931	-0.4130771231719066
Si	-0.023447332638981903	8.308220687579546	13.711806780997694	14	-0.23542351574989087	-1.3859296402147485	-0.036738266809063884
Si	1.324454781183917	9.592679005470831	15.019384725970463	14	-0.08745717590696497	-0.6785380910454915	1.6052480093497639
Si	-0.1107972489900738	11.062323733904238	-0.11712196624978521	14	0.49386819431532364	0.27394278721422133	-0.209710919885218
Si	1.2637800972131623	12.270017024951617	1.401973530810069	14	0.5154662503361636	-0.4998616979271207	0.10611671565740763
Si	2.7850876067861274	13.57289239517429	0.0727014779309313	14	-1.5016368358268404	-0.08025833812108235	0.44882705709590554
Si	4.138609870920117	14.965854023153163	1.3485902954936446	14	0.5890289159825163	0.34634948390863546	0.3769201832757282
Si	2.640880776209133	10.797652340390979	2.7628363994320133	14	0.03850693015879375	0.28684742192657653	-1.0824669643777791
Si	3.976248152457733	12.159268931795168	4.067038977162554	14	0.2096918937058489	0.633544776385028	0.5976688583003419
Si	0.10539010729135681	13.709611153762456	2.850251856894605	14	0.08058049761769692	0.06918690150199272	-0.729822386203293
Si	1.4913388363397735	15.18574445223432	4.03405541280038	14	-1.217738471702474	0.6359209919219089	-0.793335629595315
Si	-0.11486079790304901	10.808532164899912	5.307715832572107	14	1.4816948287427079	1.1080481767605923	0.19613522668430414
Si	1.2356957309355836	12.39238228012137	6.606429342214557	14	-0.18959330630771934	-0.6814082159143727	-0.06227114241185841
Si	2.5924131242551787	13.766205903542362	5.3011289508663975	14	1.0662034376751826	-1.9126329063526193	0.5450401321706347
Si	3.880230424110819	14.950419091395007	6.764809438153339	14	1.4016771460795916	0.2575273081872039	0.4694370373422125
Si	2.636931924241282	11.063962261691728	7.9888552365198695	14	0.5661123971535044	0.14929611551450647	0.36074124593816437
Si	4.08330955809233	12.210341842931232	9.554796243024063	14	-0.7058427153244	0.6862907449173339	-0.7519850569524374
Si	-0.13847198332077992	13.645217011714099	8.018283195583189	14	0.771561967081109	0.582617864866727	0.5780652086763408
Si	1.2838520626099146	15.149860693688291	9.374214095564788	14	0.05639899497117222	-1.0200148161513825	0.5431418851127694
Si	-0.10968305009458061	10.908515130492551	10.842187525654957	14	-0.24419664132330016	-0.7863404233507881	-0.07015620820768854
Si	1.35914241444508	12.38672935925453	12.165708346000002	14	0.12443301284761053	-0.09818562707634686	-1.1118431282131311
Si	2.8344728343010765	13.771875209687076	10.831061921977899	14	-1.0970196776003491	-0.2436507956638327	-1.0313413064182304
Si	4.250963721308307	15.056841471192485	12.114143876527692	14	-0.5986559056327467	-0.4584445336564514	1.3663720133759782
Si	2.761984364982519	10.703109287052804	13.722080350225255	14	-0.18134262933536416	-0.15234853175058627	-0.8116329006061489
Si	4.181703151731105	12.193465006720084	14.90006713248544	14	1.6104043610693208	-0.5277754170563724	0.07277256498147122
Si	-0.3052904973651368	13.871563240277967	13.524408357942463	14	-0.029320113739372645	-0.23698957600039308	-1.3405930829940456
Si	1.2501147754654958	14.980781011297198	14.980404149906075	14	-0.11625638370847562	1.2555645731724923	0.6511743313442194
Si	5.479253306644435	-0.020514367899374802	-0.04794332306195741	14	-0.2879051746552855	0.014032321505772171	0.05382994653528025
Si	6.786765710505706	1.2431346470907882	1.495992255256245	14	0.9558312856023977	-0.556504176572111	-0.6980363253513663
Si	8.179678182650955	2.651006877935821	0.18985621473646633	14	0.2685113272254085	-0.17935722180714583	-0.30848970095892303
Si	9.52164882588314	4.105069207110197	1.4694972609325316	14	1.3077644389347987	-0.3931952799522655	-0.29885911176124436
Si	8.20841796004353	-0.1773706329957925	2.809157579984356	14	-0.1472178910842308	0.6494504052270601	-0.08196632338525674
Si	9.659203233642925	1.2507865718583666	4.1116724740937824	14	-1.1527967221945776	0.9507083582520026	-0.26013569453449414
Si	5.626278405015913	2.7225122305818847	2.7540211199353175	14	-1.199176891064729	0.5266616142316843	-0.07749105746500698
Si	6.8711990473950655	4.027058899147798	4.193369469578033	14	0.12968372413241694	1.1047360788871776	-0.1838664263176215
Si	5.335832969405436	-0.042339558028741606	5.482153500828293	14	-0.02173458171333977	-0.11095090788035006	-0.5022530829853905
Si	6.646048944116065	1.3066439841339006	6.896989474770159	14	1.0108040884524836	-0.3515053214071284	-0.098570264432241
Si	8.105796964713031	2.641192096488756	5.522149964120924	14	1.3413734134587105	-0.25367347842283394	0.17262298275261395
Si	9.55338710912682	4.072593586362145	6.928072346898843	14	-0.090965192005775	-0.6020222538284166	-1.052236936465606
Si	8.227441267656289	-0.10579973923822932	8.101749801077931	14	-0.5200626153169923	0.6822721073019424	0.13643338981886968
Si	9.439804362898014	1.3150332464058494	9.6101293264076	14	0.07456591094227452	0.2698986956561604	-0.7068367046411692
Si	5.51618572297446	2.7435673126511313	8.331373085216779	14	-0.8889514369041739	-0.2777945600943352	0.06107943509596978
Si	6.966643291016358	4.035284308640998	9.658908298641178	14	0.087023430439456	0.16765277905823572	0.5183782842217632
Si	5.637600632027469	-0.054497434211917405	10.844645317336191	14	-0.0056176080139915385	0.9074968195784019	0.1131636011188695
Si	6.710328389219297	1.457994795864352	12.358464754920327	14	1.064721195458117	-0.9992497982542704	-0.1370273151478239
Si	8.294604521665503	2.6989502009977784	11.142398586878873	14	-0.5856368567336449	0.1302714788086028	-0.5260728311133704
Si	9.647454989406622	4.042329978127205	12.550188891334532	14	-0.4764978067724031	0.5255825213288181	-1.4207264653965685
Si	8.188968635206024	-0.058528212569142805	13.663896228491485	14	0.08898904045670919	1.516337130494787	-0.3309539623621208
Si	9.583585176250262	1.3758390125996034	15.06826200987129	14	-0.4366598153893688	-0.4633067509273835	0.001412051041825325
Si	5.418480311006431	2.7809093609280287	13.744528180913868	14	-0.300989272518987	0.45680751089911314	-0.10904031951694801
Si	6.861892209562122	4.043214783132449	15.23118082778142	14	-0.6036878158548085	-1.0322584196859272	-0.517594868430714
Si	5.4296714557949874	5.392853736410087	0.0161394987067765	14	-0.8524476549003075	-0.37576498565538563	0.18549702131165943
Si	6.824238841005602	6.606183563046432	1.3340893245743581	14	0.4027901307859941	0.5457309881701585	1.0370172785229894
Si	8.187477574919408	8.053921174961097	0.1692435351698421	14	0.3252908457839626	0.6899792526096183	-0.13943978326971884
Si	9.586731149602242	9.52087871782302	1.526845733494682	14	0.11489395499932915	-0.37682505237888264	-0.6734516733906425
Si	8.327112912969305	5.4794990858125585	2.8795815042906763	14	-1.1303088066224345	-0.8796504634085383	-0.040234970044465274
Si	9.539787328490654	6.826516394630214	4.260745732199622	14	0.6876554876212684	0.7806456821771921	0.45560371938821986
Si	5.54982469845163	8.029179405369998	2.6880048353773454	14	-0.22673626509417452	0.6459187349593047	-0.07364494101659746
Si	6.921927867695755	9.517880211971912	3.9592074634678376	14	-0.5798138174045735	-0.21490378130032106	0.7416145036436201
Si	5.4706018799264875	5.377926748266053	5.579924453907821	14	1.3430114646581768	1.3679036208151905	-0.3950529035460725
Si	6.894007354196926	6.902609625081249	7.107343672128124	14	-0.19724980084058832	-1.3691313236055611	-0.849227859707886
Si	8.113940447816857	8.194769023573738	5.553691624030106	14	0.04916441882133955	0.08441118743418553	-0.043515443322442206
Si	9.364727019675222	9.638131766295805	6.9421309153155075	14	0.03916898977873188	-0.508198506927701	0.3870279696208263
Si	8.44764301701707	5.368128352096863	8.413152007090405	14	-1.6881304175605896	1.2587676561803327	-0.2849617732847799
Si	9.68746783797713	6.864136992630983	9.681798531832412	14	0.08343391030199726	0.9522103979800333	-0.39715092548731334
Si	5.361885561226527	8.200553026663577	8.295948114451246	14	0.2815514591881355	0.2285069853281605	0.19417912975673549
Si	6.854846540075916	9.556320073866429	9.651321914985099	14	-0.0385095012641139	-0.6834509590912303	0.3001775745694163
Si	5.66696304997929	5.488658456144629	11.028635602593443	14	0.13786703814538426	0.7666002480342872	-0.7469726871308088
Si	6.92451674159999	6.837248751638272	12.580272261512848	14	0.9065686505578284	-0.571486521493678	-1.7451971285834038
Si	8.399748849788736	8.2625549181422	11.115575886997663	14	-1.3044196880238181	-0.2895478538443281	-0.1810124994122571
Si	9.59307225213983	9.789580889693505	12.45073025463389	14	-0.19774011062514055	-0.6518572169172507	-0.3791156501086026
Si	8.197833070536344	5.269243200121842	13.85311341739083	14	-0.035293305619140666	1.107452965878978	-0.29703388409447123
Si	9.468888231125963	6.796760730009394	15.085810642475307	14	1.0584551546823842	0.49861085518886883	-0.34217349464765096
Si	5.418939098786929	8.104961315541411	13.668074474349584	14	-0.42049476202053376	0.014148792576774878	1.3739467467596664
Si	6.874377791302796	9.356124748790899	15.079092678546598	14	-0.6252653030330871	0.9912212647815759	0.16092059688795998
Si	5.509205594599752	10.851576289877274	0.08335190854961631	14	-0.08430680055818753	-0.32660930859213455	-0.13934465237287333
Si	6.905444278153606	12.2605627196178	1.3934531863151207	14	-1.0561373032362706	0.6746696059807965	-0.1458379788589073
Si	8.047252366866013	13.737711905317909	-0.07296364237692972	14	1.0122932726539136	-0.41670135323118734	0.3566909837273351
Si	9.58738656071724	15.089710338609533	1.252687264091855	14	-1.3399716468381657	-1.6272576993323595	1.1257391811369353
Si	8.259638338680467	10.986312429842576	2.7460087190544913	14	0.3056709981964447	-0.11860226020257872	0.2611458818147803
Si	9.583765414306885	12.317206625231329	4.1903545784490515	14	-0.44117056256303655	0.06839500106338711	-0.7199665681795695
Si	5.3465325558577455	13.563896877620971	2.7793527595299126	14	0.6434697571418637	-0.5235546905628173	-0.5008682856599588
Si	6.725632238754454	14.863626274491663	4.142263787886219	14	0.025387093931142135	0.9669274048325607	-0.052006518642231235
Si	5.518971220213193	10.85868750047498	5.368128352096863	14	-0.4186739052328049	0.16266149230023225	0.4481518848388346
Si	6.656060348897629	12.323203636933544	6.907508823165844	14	1.2800332682832776	-0.4911361378021343	-1.1348048984957773
Si	8.154838101392606	13.632092404136305	5.461491665428044	14	-0.6669526904729042	-0.769930857866007	0.44375555185191345
Si	9.55749981387342	15.007341546732412	6.627042021781181	14	0.12514443768969552	-0.5585209515852353	2.0347287844642152
Si	8.087265215436519	11.059472695554005	8.333503171340515	14	-0.15107352062232487	-0.26991489361967735	-0.5115905661765723
Si	9.62828421429299	12.311439007419365	9.5565986235903	14	0.3595109720424735	0.4373007919456817	0.11365596778767785
Si	5.390985814732349	13.669844084360074	8.207631466705534	14	-0.7198848070303886	0.4776658599193465	0.35997917032127247
Si	6.944474010051618	14.922990136232427	9.53382308734419	14	0.13550804901414837	-0.27985015879779357	-0.10115833904750207
Si	5.3469585730824924	10.842810166214202	10.891015653722159	14	0.5413927621634727	-0.2458449769440471	0.5310870007087232
Si	6.755699223654895	12.151322072025842	12.248093523155001	14	0.6331683665661584	0.37011652437755227	-1.3618332411543208
Si	8.322770814332456	13.612856087911172	11.025063612016716	14	-1.3295990366450923	-0.8518197909811273	-0.8888105403326297
Si	9.55535334247181	14.957972704495338	12.34933815514401	14	-0.23718729399951247	1.50069118329009	-0.5273427000309915
Si	8.011122829151859	10.98719723484782	13.710741737935823	14	0.33984561589078893	-1.4202549246808536	0.36762743731711695
Si	9.419240839165015	12.269967869117991	14.961659392017191	14	0.11045237055877334	0.6246106996185775	0.8209094486012432
Si	5.5751727233240995	13.601058687841244	13.450707378061162	14	-1.4218698359324384	0.827523359926792	0.8896708321727512
Si	6.759369525898872	15.02626654267792	14.85214019470136	14	-0.1830660412314594	-0.19949797533252578	0.9868712116904172
Si	10.9290458836698	-0.16185377484826222	-0.09201972054543842	14	0.20759669998046024	1.9246705643510205	-0.3722346009402903
Si	12.318337209404698	1.2687448364092568	1.1599138207641713	14	-0.05369419217437644	-0.43690638438957097	1.3779980374126237
Si	13.613052711245672	2.696295785982045	-0.0625426056484933	14	0.34817188335955646	0.9239783760121472	0.321598481433698
Si	15.014370830940743	4.067251985774928	1.3348594326344785	14	0.658947039837559	-0.13708645057018728	0.12462276042023748
Si	13.755244152644053	-0.12618302491460492	2.602145979312869	14	-1.3798132377686483	1.0001170320787562	0.45441072651967107
Si	14.85743263945495	1.3103962127672528	4.091240032583781	14	0.9299253426176498	0.5584124509407249	-0.49141741672415845
Si	11.061586396399868	2.641503416768379	2.7274441992222296	14	-1.1861763541239323	-0.2825683313422541	-0.797641973896031
Si	12.227448073032626	4.154929607683518	3.9672034790707884	14	0.46083643293578513	-0.04469660910651824	1.7616468033111792
Si	10.921869131960595	0.0137800186927909	5.537748748657829	14	1.626623921870943	0.37541582955290953	-0.6948319567908658
Si	12.316272664392459	1.5072489411563013	6.815341635119531	14	-0.2452816477684026	-0.40305778284982147	0.11381177677007882
Si	13.701402129547132	2.8547741935880775	5.454429610663962	14	-0.6818920979356246	0.019362994166035187	-0.5850653000209759
Si	14.990759645523013	4.327958142042462	6.760614807017365	14	-0.8432510682806698	-1.4051663931095646	1.2115994435295563
Si	13.650493071189818	0.09577194917879052	8.144941393556167	14	1.1430897711688903	0.8886452182605442	-0.3525846714205266
Si	15.112895506802516	1.5847840760603282	9.53562546791043	14	0.3114922377517919	-1.147349064242248	-1.4412487709514585
Si	10.868567823033546	2.708076800774098	8.238697953556345	14	0.17783101368910592	-0.28089582733149776	0.633196134503616
Si	12.183191437492521	4.14704828902569	9.607851772782988	14	0.33273599545951543	-0.007479345376310762	-0.46480159156051754
Si	10.786706974770546	-0.005259674197842901	10.907335390485558	14	1.1639823158898819	-0.027259115714741947	0.05858417738276606
Si	12.286598926161014	1.517489739828114	12.079947801602778	14	-0.7973740647216717	-0.8235358326857742	0.6223509551526994
Si	13.748673656216218	2.8228392870098973	10.806598702110673	14	-0.19381069036435825	1.6216737727980617	0.4825170214374019
Si	15.05087723004602	4.179622221440992	12.348289497360014	14	-0.30564117337473096	-0.8683545692949995	0.29981016361916707
Si	13.543333353887972	0.07606045989528581	13.462455622297464	14	-1.538677721732086	0.6456392558110047	1.5309425513764205
Si	14.846946061615014	1.3966319302228514	14.88307559932917	14	0.08917544559241992	-0.7891866369401921	0.44831257892134385
Si	11.003500586333347	2.687513277041098	13.714035178788679	14	0.9108641962161999	0.14522245624526386	0.7492450300127556
Si	12.330265691697624	4.239854502909124	15.148140239511427	14	-0.7827915266773876	-1.1082119561694859	-0.48374960932788086
Si	10.927079650324814	5.569274023289136	0.061559488975999305	14	-0.11607434945180913	-0.20167750131241532	0.945869280928952
Si	12.34878105569626	6.881456231344753	1.561893842869093	14	-0.4000732437941937	0.26623718456973755	-0.10105703749788823
Si	13.612167906240426	8.314250469837509	0.11148543066081962	14	-0.03742398059794738	-0.4055710383002663	-0.14886159871540147
Si	15.02241600237732	9.709735430609118	1.3649591880906697	14	-0.26926363264208386	-0.3067485484361187	-0.5375633578996442
Si	13.781624450022642	5.4292126680144905	2.840945019061662	14	-0.3881448577718986	0.6513926181859	-0.6619169235928621
Si	14.970785991793509	7.012817004067826	4.1595338707663645	14	-0.180541472917606	-0.4671441256177045	-0.1930529856265106
Si	10.990933078203298	8.32218094432896	3.0592788467447045	14	-0.4409059958255933	-1.189924254349112	-1.339160720220191
Si	12.214503703511456	9.782600761318797	4.295171201014787	14	1.2426828212974865	0.2273936967245364	-0.5540672829496747
Si	10.931421748961661	5.454937554278084	5.6031423926565544	14	-0.3966138215859344	-0.5905350694790591	-1.3454373025277364
Si	12.308800977681505	6.887617095825715	6.7759514271082715	14	-0.598435047685746	2.153379381446813	-0.6187958878265306
Si	13.711118599326946	8.45332870843966	5.515399229636465	14	-0.7893995244607004	-0.868136025342787	0.16411956612728823
Si	15.039669699979589	9.802836579494299	6.871084350449942	14	-1.5685727346210436	-0.207610069728125	0.15096064909877036
Si	13.446414435257937	5.562474132971053	8.098456360225075	14	1.440058092077698	-1.2760686238796093	1.619471878201887
Si	15.012207974261257	6.784275148268721	9.434610229811671	14	0.2540064365617931	-0.14472006226570694	0.5068535617347315
Si	10.986246888731076	8.377415716045247	8.160491022259446	14	-0.42942986722911236	-1.1174795052959596	0.41369547400140216
Si	12.387581393704025	9.58632151765537	9.619600017019293	14	-0.30217712317689543	-0.6350714987241319	0.1641090245954756
Si	10.88342927006608	5.466145084344515	11.050690186613059	14	0.2971048466013073	-0.35173774932806984	0.4670155703516971
Si	12.219648680764175	6.88352077635699	12.351648479324368	14	0.6699518848288568	-0.3914788100405346	-0.03493309376378792
Si	13.724079354125994	8.056329810808707	10.930209238398918	14	-0.31482464735723587	0.6845999860588046	0.10107683500885337
Si	15.018057518462596	9.525794301185488	12.331740366706365	14	-0.6925976662676572	0.34351252629838414	-0.14722406173699915
Si	13.619983683786753	5.509385832656377	13.757423394601414	14	0.4831703392992515	0.5617158070560512	-0.6990945923011394
Si	14.96416633953205	6.909016268730334	15.114861740147505	14	0.4742288063273725	0.13293437258868016	0.03702725904704853
Si	10.898192405431363	8.27559759933062	13.652819780648052	14	-0.259646927413134	-0.19866030921922154	0.949238971561538
Si	12.303524918205788	9.639983302695667	15.032558489381882	14	-0.5194419504927085	-0.976569821114712	0.2527396529705562
Si	10.764455767416429	10.831356856979648	-0.0967550658512845	14	0.40524245104035134	0.8287076110372522	1.0451620259561545
Si	12.181159663036034	12.330413159198498	1.3675152914391542	14	-0.4245295975994422	-0.7991416996292734	-0.32184119377591996
Si	13.54526681667721	13.68193641943175	0.0824507182664968	14	0.32209958986059484	0.4209693880626331	-0.8268052502108746
Si	15.128641758840295	14.94386498024505	1.3664338630994106	14	-0.3326354652414976	-0.6307900941450214	-0.2251727759489925
Si	13.688441374748086	11.051886311897926	2.6769939286454125	14	-1.3353827380627652	-0.2289006215526752	0.49267468722571084
Si	15.089972503055531	12.274850681924713	4.020504787997838	14	-0.9069666576613874	0.9375283581598596	0.5452432494909265
Si	10.875318557518003	13.705383752070732	2.7608373955312757	14	-0.13522831275531627	-0.027855097927952276	-0.25293402853275937
Si	12.294660482875466	15.047501862803792	4.060697874624967	14	-0.04448912090718229	0.22328712730719588	-0.03620553378672921
Si	10.715840647961603	10.921246491401348	5.633897559227742	14	0.5715371722684848	0.5882221031330538	-0.4277488785707995
Si	12.149404994514478	12.360873390767937	6.732399358516788	14	0.8494338052440299	-0.386988117488364	0.7575923805451483
Si	13.60753087260183	13.64996874229782	5.422429162974282	14	-0.18170618362763308	-0.8025777247791193	-1.0117854793531842
Si	14.884877979895407	14.997149903894224	6.703987286681711	14	0.5325923828736698	0.8726714551275282	0.7338484800241128
Si	13.525801106561829	11.02170463005236	8.220559450948832	14	0.4068457923179957	0.6204737911584592	-0.5814636956885126
Si	15.040423422761835	12.324694697220158	9.486912036788352	14	-1.3463472167005368	0.5888414824046775	0.08024214015756544
Si	11.052312329122673	13.730912014999827	8.20584547141717	14	-1.8104450967349301	-0.14455576863574948	-0.8270921855646032
Si	12.280946005294176	15.203375011227715	9.398136601262143	14	-0.6717364890315717	-0.03750188508914787	1.367706674147667
Si	10.931569216462536	10.896799656811996	10.917887509436994	14	0.5848017617256608	0.6758777683707342	0.12360614537665093
Si	12.378979122819702	12.335525365895467	12.212701322945216	14	-0.9734014480286936	-0.2635982020691376	0.410897340081485
Si	13.520410350140986	13.77674163721592	10.771239272456638	14	1.1976650811364817	-0.3135714906241957	0.09712530324231779
Si	14.78790990543175	15.304046158491099	12.102772493682512	14	1.4313975809173112	-1.470877931550313	-1.0657162132170144
Si	13.652885321759552	10.96589637361045	13.743610605352874	14	0.07150706694289434	0.14797713848527053	-1.7954169861386644
Si	14.880240946256812	12.500066326315213	14.88361631349904	14	0.19494506203160758	-0.6877087095013956	1.5746605977980903
Si	10.79067221201627	13.610824313454684	13.596421654202645	14	1.5321131756286837	-1.2316761765324646	0.47802067245352686
Si	12.187205830571871	14.962822746746307	14.905195724460285	14	1.0878829977346711	-0.11651503690368253	-0.3044021577209516
H	2.896828647781796	-3.5283893523030914	-3.198252219568456	1	0.9349845065561051	1.4893089000377946	-0.7507390993142937
H	0.9925037981885303	12.038765044192003	10.638433318225	1	-0.04469558066439017	0.38803018647462	-0.5600818696250971
H	5.073373588405288	11.31276779063872	13.905416862895299	1	0.15217652480466837	-0.49036172087970564	-0.26462304464974856
H	3.725348584998327	14.378150153391825	-0.7488711014666422	1	0.5997023454980469	0.6023043040820368	-1.0131949592896896
H	15.093978703495946	12.335525365895467	12.212701322945216	1	0.7023118163882406	0.18552761746496918	0.013149918159897349
H	14.898191018168763	4.14704828902569	9.607851772782988	1	-0.09098601795886821	-0.11184642386335762	0.2016980701549765
H	9.586198628071308	4.027058899147798	4.193369469578033	1	-0.02943992724729155	0.029635588362154817	-0.011411850963477247
