223
config_type=divacancy dft_energy=-23062.037218488786 dft_virial="56.512927535508084 -9.341337924336983 -4.861750737508155 -9.341337924336981 54.5627114779177 -7.363543053810974 -4.861750737508156 -7.363543053810974 56.40655211418497" pbc="T T T" Lattice="16.249967316 0.0 0.0 0.0 16.249967316 0.0 0.0 0.0 16.249967316" Properties=species:S:1:pos:R:3:Z:I:1:dft_force:R:3
Si	1.359992264610672	1.359992264610672	1.359992264610672	14	-0.030099672872441547	-0.4736184259243693	-0.016416764579677497
Si	2.72000077918866	2.72000077918866	0.0	14	-0.05996974603979386	-0.04739292725575753	0.4157369316255997
Si	4.079993043799332	4.079993043799332	1.359992264610672	14	-0.019761515490658136	-0.03511538513098642	0.13123230086674212
Si	2.72000077918866	0.0	2.72000077918866	14	-0.02489395593073773	0.5569142678706747	-0.024536058070173117
Si	4.079993043799332	1.359992264610672	4.079993043799332	14	-0.007996651766724556	0.07472969035116796	-0.002920261422624188
Si	0.0	2.72000077918866	2.72000077918866	14	0.4275357339397593	-0.0514850984833052	-0.06648132737360089
Si	1.359992264610672	4.079993043799332	4.079993043799332	14	0.13202985773705206	-0.024615248114033678	-0.0030678428680006877
Si	0.0	0.0	5.439985308410003	14	0.563048410943484	0.5588197140234364	-0.04917624590581223
Si	1.359992264610672	1.359992264610672	6.799993822987992	14	0.09279607610425246	0.08876252607800415	-0.008488761325000899
Si	2.72000077918866	2.72000077918866	5.439985308410003	14	-0.002071539556443307	-0.003414427865156649	0.012335134883942424
Si	4.079993043799332	4.079993043799332	6.799993822987992	14	-0.09092559698384473	0.08326370312980345	-0.09885899955969363
Si	2.72000077918866	0.0	8.159986087598664	14	-0.03239798391812192	0.5340537991376421	0.0070507421194420765
Si	4.079993043799332	1.359992264610672	9.519978352209336	14	-0.0509482516924583	0.08951791682106365	-0.00020286020975968346
Si	0.0	2.72000077918866	8.159986087598664	14	0.5371738354436417	-0.010782187270572985	0.016100518625299286
Si	1.359992264610672	4.079993043799332	9.519978352209336	14	0.09147967018033663	-0.006046468381392237	-0.003818348510951912
Si	0.0	0.0	10.879970616820007	14	0.5758795120436829	0.5581774519144634	-0.035712395786324805
Si	1.359992264610672	1.359992264610672	12.239979131397995	14	0.10520988681099142	0.11020708711123123	-0.0038582006434142073
Si	2.72000077918866	2.72000077918866	10.879970616820007	14	-0.039387790841476485	-0.04599861684064123	0.0034301116076095525
Si	4.079993043799332	4.079993043799332	12.239979131397995	14	-0.05520111700251523	-0.0628126171922816	-0.07212927443037019
Si	2.72000077918866	0.0	13.599971396008668	14	0.018058929547656078	0.735203966748895	-0.14624061395204252
Si	4.079993043799332	1.359992264610672	14.959963660619339	14	0.0010590382813689936	0.1096283313036659	-0.5197551111207025
Si	0.0	2.72000077918866	13.599971396008668	14	0.5798379857945829	-0.0451126139473182	-0.05550373609869665
Si	1.359992264610672	4.079993043799332	14.959963660619339	14	0.09643213324800587	-0.005539703522791051	-0.524644067886964
Si	0.0	5.439985308410003	0.0	14	0.5630720651124292	-0.03839997217747559	0.5586950154154092
Si	1.359992264610672	6.799993822987992	1.359992264610672	14	0.08427928973126193	0.0012163899269620562	0.09354426775241555
Si	2.72000077918866	8.159986087598664	0.0	14	-0.027770251452387384	-0.001236958769523241	0.5506546548582422
Si	4.079993043799332	9.519978352209336	1.359992264610672	14	0.0035188147411546605	-0.000852578524161103	0.08700877513913115
Si	2.72000077918866	5.439985308410003	2.72000077918866	14	-0.015964764264395467	0.026653106190783045	-0.01109637634069508
Si	4.079993043799332	6.799993822987992	4.079993043799332	14	0.006403337799828791	-0.007419695732883326	0.0016092548198806825
Si	0.0	8.159986087598664	2.72000077918866	14	0.5412860612926865	-0.0008034704125462747	-0.0024019265900823354
Si	1.359992264610672	9.519978352209336	4.079993043799332	14	0.08587208947709368	0.009511032800291773	0.018645398671181857
Si	0.0	5.439985308410003	5.439985308410003	14	0.5195735910851	0.012992309403772271	-0.006261412786156617
Si	1.359992264610672	6.799993822987992	6.799993822987992	14	0.08886459895921403	-0.004553170411450233	-0.004862217270932032
Si	2.72000077918866	8.159986087598664	5.439985308410003	14	-0.007434865254272199	-0.020876860978538372	-0.00028616402213248117
Si	4.079993043799332	9.519978352209336	6.799993822987992	14	0.02003276710193376	0.0643316262154251	0.01238989942726158
Si	2.72000077918866	5.439985308410003	8.159986087598664	14	-0.006940184590675709	-0.002587303283665012	0.015875289799254316
Si	4.079993043799332	6.799993822987992	9.519978352209336	14	-0.01350293092035368	-0.01938253456646831	-0.017347247595039087
Si	0.0	8.159986087598664	8.159986087598664	14	0.517868434036778	-0.007210664870355288	0.001568631355822343
Si	1.359992264610672	9.519978352209336	9.519978352209336	14	0.0850822459227442	-0.007405554653622512	-0.006205105579645373
Si	0.0	5.439985308410003	10.879970616820007	14	0.5347153445365161	0.0026559517957129657	0.004252351088992907
Si	1.359992264610672	6.799993822987992	12.239979131397995	14	0.08623795776415075	0.004475008809717731	0.007808703967821731
Si	2.72000077918866	8.159986087598664	10.879970616820007	14	-0.028993069142649815	0.00011749951313076723	-0.003661511086422879
Si	4.079993043799332	9.519978352209336	12.239979131397995	14	-0.0008885739986431761	0.024321370775940754	0.005121641797734973
Si	2.72000077918866	5.439985308410003	13.599971396008668	14	0.01852892760017915	0.033946303541915086	-0.1188619418399137
Si	4.079993043799332	6.799993822987992	14.959963660619339	14	-0.0667350954686995	0.0804203177562517	-0.46780489968498257
Si	0.0	8.159986087598664	13.599971396008668	14	0.5281721386072713	-0.0017851184237788113	-0.09371884580365361
Si	1.359992264610672	9.519978352209336	14.959963660619339	14	0.082561534266871	-0.005004656505668235	-0.5216718701368729
Si	0.0	10.879970616820007	0.0	14	0.5693890137735012	-0.06768049089491796	0.5688112864080638
Si	1.359992264610672	12.239979131397995	1.359992264610672	14	0.10240532512777388	0.00950229104220327	0.10743003625493927
Si	2.72000077918866	13.599971396008668	0.0	14	0.05687593500805969	-0.13955342612486937	0.6920693041243667
Si	4.079993043799332	14.959963660619339	1.359992264610672	14	0.010510935659297362	-0.5263001168236715	0.11580386917212955
Si	2.72000077918866	10.879970616820007	2.72000077918866	14	-0.006772548523802055	-0.004774028358450953	-0.016306464161443147
Si	4.079993043799332	12.239979131397995	4.079993043799332	14	0.0006556318566377602	0.015037109464886041	0.007174412285341199
Si	0.0	13.599971396008668	2.72000077918866	14	0.6903124678591095	-0.14199417640528597	0.057088051196971905
Si	1.359992264610672	14.959963660619339	4.079993043799332	14	0.11461961806166936	-0.531083915382339	0.013825090416968234
Si	0.0	10.879970616820007	5.439985308410003	14	0.49023856493487056	-0.034096456092611735	0.036364942316578386
Si	1.359992264610672	12.239979131397995	6.799993822987992	14	0.09434773816496182	0.00403586402103644	-0.005476454331915408
Si	2.72000077918866	13.599971396008668	5.439985308410003	14	-0.030107129077869978	-0.09854326782637944	-0.0052939058541848945
Si	4.079993043799332	14.959963660619339	6.799993822987992	14	-0.003771040173061188	-0.5275054509977568	-0.00547491166872332
Si	2.72000077918866	10.879970616820007	8.159986087598664	14	-0.03701620329417189	0.0011960781949328864	0.005305218717593547
Si	4.079993043799332	12.239979131397995	9.519978352209336	14	0.030687170438095383	-0.028284472516417	-0.05808049785054906
Si	0.0	13.599971396008668	8.159986087598664	14	0.5300536734805557	-0.09709496419954004	0.000948994973666656
Si	1.359992264610672	14.959963660619339	9.519978352209336	14	0.09094179494736165	-0.5275321904930864	-0.017936802044949043
Si	0.0	10.879970616820007	10.879970616820007	14	0.5415454858194896	-0.029046548133308894	-0.027663807692133256
Si	1.359992264610672	12.239979131397995	12.239979131397995	14	-0.026971151918885362	-0.08502285338984876	-0.061191792398460246
Si	2.72000077918866	13.599971396008668	10.879970616820007	14	-0.04603949741523158	-0.04183651154838551	0.05545462798708183
Si	4.079993043799332	14.959963660619339	12.239979131397995	14	-0.0061968780426209	-0.49478633602514843	0.022391499122637607
Si	2.72000077918866	10.879970616820007	13.599971396008668	14	-0.04176092105197316	0.018872684381482943	-0.04461484795733753
Si	4.079993043799332	12.239979131397995	14.959963660619339	14	0.08528253502718372	-0.09210264899940852	-0.38833434823399354
Si	0.0	13.599971396008668	13.599971396008668	14	0.271367825236093	-0.12200614653592276	-0.17185396515135767
Si	1.359992264610672	14.959963660619339	14.959963660619339	14	0.5223915225159823	-0.8410142066521409	-0.7770785306560186
Si	5.439985308410003	0.0	0.0	14	-0.03473743264892465	0.559941487274617	0.5532021060094447
Si	6.799993822987992	1.359992264610672	1.359992264610672	14	-0.0017992595030396257	0.0842090985560219	0.09975220154791309
Si	8.159986087598664	2.72000077918866	0.0	14	-0.002726400081485023	-0.03241958120281116	0.5407322452067267
Si	9.519978352209336	4.079993043799332	1.359992264610672	14	-0.008883940212707657	-0.007217349744187672	0.0958299803820272
Si	8.159986087598664	0.0	2.72000077918866	14	0.012850127279568083	0.5265495140397259	-0.00023242792094138636
Si	9.519978352209336	1.359992264610672	4.079993043799332	14	-0.004404046302881644	0.09263538202174319	0.01312574976988796
Si	5.439985308410003	2.72000077918866	2.72000077918866	14	0.021597027578711847	-0.015642604767780916	-0.0034856474825247508
Si	6.799993822987992	4.079993043799332	4.079993043799332	14	-0.00825941873044369	-0.003952303098131628	0.003863599964586519
Si	5.439985308410003	0.0	5.439985308410003	14	0.008160688286150004	0.5431722241555472	-0.017224605871268027
Si	6.799993822987992	1.359992264610672	6.799993822987992	14	-0.0003566123079045386	0.07827113081913992	-0.053811691687507206
Si	8.159986087598664	2.72000077918866	5.439985308410003	14	0.0038080640896713197	-0.027529595994421525	-0.029590079797988198
Si	9.519978352209336	4.079993043799332	6.799993822987992	14	-0.06385828572598583	-0.06500782691462403	-0.06189010460341247
Si	8.159986087598664	0.0	8.159986087598664	14	-0.20169009972848406	0.7020922439938999	0.20425991949597205
Si	9.519978352209336	1.359992264610672	9.519978352209336	14	0.03592991129640933	0.07129777896983429	0.0006965124312281147
Si	5.439985308410003	2.72000077918866	8.159986087598664	14	0.23271485629511487	-0.24507775911651491	0.23744157631567514
Si	6.799993822987992	4.079993043799332	9.519978352209336	14	-0.032018231662336034	0.02498960104864724	-0.034836934424814385
Si	5.439985308410003	0.0	10.879970616820007	14	0.23535152480092675	0.7115127738869225	-0.2339052780583434
Si	6.799993822987992	1.359992264610672	12.239979131397995	14	0.0045683399328391066	0.08127083939615667	0.04487607225786457
Si	8.159986087598664	2.72000077918866	10.879970616820007	14	-0.2291487332160695	-0.23653371902713083	-0.2257769856992273
Si	9.519978352209336	4.079993043799332	12.239979131397995	14	0.11735450279071086	0.07694058381596328	0.12039534905285
Si	8.159986087598664	0.0	13.599971396008668	14	-0.0028575264528125748	0.5323481278682558	-0.06967129774430862
Si	9.519978352209336	1.359992264610672	14.959963660619339	14	-0.0034252265075012706	0.08189021866778035	-0.5228995729272436
Si	5.439985308410003	2.72000077918866	13.599971396008668	14	0.038244163195074614	0.007348990336579254	-0.10991012444675412
Si	6.799993822987992	4.079993043799332	14.959963660619339	14	0.08125155610625556	-0.07741880940551082	-0.45779687222630616
Si	5.439985308410003	5.439985308410003	0.0	14	0.03428517522311061	0.041927271566186745	0.4800402756825032
Si	6.799993822987992	6.799993822987992	1.359992264610672	14	-0.0017529796072769603	-0.0012158757058980266	0.10417810224601598
Si	8.159986087598664	8.159986087598664	0.0	14	-0.0011210019195845625	-0.006479185406773159	0.5268408202724987
Si	9.519978352209336	9.519978352209336	1.359992264610672	14	-0.013167915897138385	-0.014820622396929571	0.09414513506573416
Si	8.159986087598664	5.439985308410003	2.72000077918866	14	0.006981836496862109	0.004902840734990373	-0.01473860413721685
Si	9.519978352209336	6.799993822987992	4.079993043799332	14	-0.004454439967156547	0.004551627748258145	0.002406811690190617
Si	5.439985308410003	8.159986087598664	2.72000077918866	14	-0.0021401880684912607	0.0070147466449600035	-0.015912313715864445
Si	6.799993822987992	9.519978352209336	4.079993043799332	14	0.0016689044633081181	0.0004591994101784469	0.008159145622957914
Si	5.439985308410003	5.439985308410003	5.439985308410003	14	0.012987167193131975	-0.00011338574461853029	0.00768194847553843
Si	6.799993822987992	6.799993822987992	6.799993822987992	14	-0.01969980896297458	-0.022232090592788425	-0.024731976295568402
Si	8.159986087598664	8.159986087598664	5.439985308410003	14	0.0013714275777669854	-0.0034902754721010173	-0.0025183976610850434
Si	9.519978352209336	9.519978352209336	6.799993822987992	14	0.015771160033788315	0.020835209072351972	-0.019646587082847517
Si	8.159986087598664	5.439985308410003	8.159986087598664	14	-0.333597058631233	0.05093102528681329	0.02943092837867103
Si	9.519978352209336	6.799993822987992	9.519978352209336	14	-0.5133132067410715	0.5228458368260526	0.4677563057944317
Si	5.439985308410003	8.159986087598664	8.159986087598664	14	0.06824356296003038	-0.1227707932581348	0.07113502800306891
Si	6.799993822987992	9.519978352209336	9.519978352209336	14	0.8331173137718382	-0.8061741869009424	0.8381106574140978
Si	5.439985308410003	5.439985308410003	10.879970616820007	14	0.0068622800994752224	0.03121578969191783	-0.29635382673729205
Si	6.799993822987992	6.799993822987992	12.239979131397995	14	-0.2927535079574887	-0.22361802856189894	0.23648563935764405
Si	9.519978352209336	9.519978352209336	12.239979131397995	14	0.8889676348676907	0.9747021702101566	0.8940882482232977
Si	8.159986087598664	5.439985308410003	13.599971396008668	14	0.30198737560426847	-0.013187713408103529	-0.07483973365887028
Si	9.519978352209336	6.799993822987992	14.959963660619339	14	0.02889331025622807	-0.028046645274303308	-0.5130139300818063
Si	5.439985308410003	8.159986087598664	13.599971396008668	14	0.023181856898051124	0.29475279945443583	-0.08024368282075751
Si	6.799993822987992	9.519978352209336	14.959963660619339	14	-0.03265509445013672	0.027631668875631406	-0.49514423388571305
Si	5.439985308410003	10.879970616820007	0.0	14	0.039071030666034234	-0.036844453458785995	0.4930868354085306
Si	6.799993822987992	12.239979131397995	1.359992264610672	14	-1.336974766477001e-05	0.015156151641208895	0.09458993628611978
Si	8.159986087598664	13.599971396008668	0.0	14	0.003402343670151953	-0.05846076432739896	0.556172761096344
Si	9.519978352209336	14.959963660619339	1.359992264610672	14	-0.016904760369441604	-0.5182564138295882	0.08878618024694951
Si	8.159986087598664	10.879970616820007	2.72000077918866	14	0.0008808606826827319	-0.0022011232645787705	-0.030481996233547567
Si	9.519978352209336	12.239979131397995	4.079993043799332	14	0.0024500062595691047	-0.01923058224204756	0.013749757031087896
Si	5.439985308410003	13.599971396008668	2.72000077918866	14	-0.0010582669497729493	-0.10704797000436526	-0.03198120774572591
Si	6.799993822987992	14.959963660619339	4.079993043799332	14	-0.012094222315444549	-0.5255205576906026	0.006646821473646813
Si	5.439985308410003	10.879970616820007	5.439985308410003	14	-0.00032447349140268757	-1.9026179369095786e-05	-0.012451605954945133
Si	6.799993822987992	12.239979131397995	6.799993822987992	14	-0.061495697047301755	-0.013842573933145244	0.00882480479034425
Si	8.159986087598664	13.599971396008668	5.439985308410003	14	0.03399001233235761	-0.07304021704529864	0.007859868963692677
Si	9.519978352209336	14.959963660619339	6.799993822987992	14	0.08335780558452087	-0.5665998787222045	-0.08249648530227126
Si	8.159986087598664	10.879970616820007	8.159986087598664	14	0.10809569542232561	-0.06156434555934972	0.06966101332302803
Si	9.519978352209336	12.239979131397995	9.519978352209336	14	0.014435213709439372	0.019442955541491787	-0.021936413480971396
Si	5.439985308410003	13.599971396008668	8.159986087598664	14	0.00732687883082598	-0.08540594808255082	0.011862051505035177
Si	6.799993822987992	14.959963660619339	9.519978352209336	14	0.015051764765210885	-0.518359000931862	-0.016746894502784514
Si	5.439985308410003	10.879970616820007	10.879970616820007	14	0.06145944446228766	-0.05395953024341572	0.1074737450453818
Si	6.799993822987992	12.239979131397995	12.239979131397995	14	-0.023502730842005607	0.008161202507214032	0.0046588428401083196
Si	8.159986087598664	13.599971396008668	10.879970616820007	14	-0.002226577207248237	-0.09753076655130515	-0.001002473964325736
Si	9.519978352209336	14.959963660619339	12.239979131397995	14	-0.00950229104220327	-0.5136816461334488	0.005534561312150754
Si	8.159986087598664	10.879970616820007	13.599971396008668	14	-0.24254547748670108	0.009086286201403311	-0.05958253757857957
Si	9.519978352209336	12.239979131397995	14.959963660619339	14	-0.09301462005646503	0.052586560002456643	-0.470104753393855
Si	5.439985308410003	13.599971396008668	13.599971396008668	14	-0.02409511350776772	-0.05239784087195778	-0.0515457765688607
Si	6.799993822987992	14.959963660619339	14.959963660619339	14	0.05707622411249922	-0.5537168412945385	-0.547162579612417
Si	10.879970616820007	0.0	0.0	14	-0.06019394642371079	0.5628643198025614	0.566886556965401
Si	12.239979131397995	1.359992264610672	1.359992264610672	14	0.013662082339670848	0.1115941984314511	0.1091912433992407
Si	13.599971396008668	2.72000077918866	0.0	14	-0.047387527934585214	-0.040634262700684265	0.5756743378391352
Si	14.959963660619339	4.079993043799332	1.359992264610672	14	-0.5467509456506613	0.005956736805719069	0.09735361739474693
Si	13.599971396008668	0.0	2.72000077918866	14	-0.1397832829404906	0.7187036412463127	0.033600746986887184
Si	14.959963660619339	1.359992264610672	4.079993043799332	14	-0.5431935643297043	0.10510267171914123	0.015020397280305076
Si	10.879970616820007	2.72000077918866	2.72000077918866	14	-0.01002525386432139	-0.028519728653210553	-0.007501971103128066
Si	12.239979131397995	4.079993043799332	4.079993043799332	14	0.025745506012770775	-0.014560940759594616	0.00602358554404292
Si	10.879970616820007	0.0	5.439985308410003	14	-0.0425898454071889	0.48005673075655214	0.026519408714135346
Si	12.239979131397995	1.359992264610672	6.799993822987992	14	0.017960456213894405	0.092145586458255	-0.018827432927848338
Si	13.599971396008668	2.72000077918866	5.439985308410003	14	-0.10043714400520054	-0.01753725227819803	0.0009603078370753075
Si	14.959963660619339	4.079993043799332	6.799993822987992	14	-0.5341365887289508	-0.023031961457886493	-0.015005741979980232
Si	13.599971396008668	0.0	8.159986087598664	14	-0.09831443945288627	0.5309242497419577	0.010878603720078536
Si	14.959963660619339	1.359992264610672	9.519978352209336	14	-0.5277764454985006	0.08350847235628155	0.003422141181117093
Si	10.879970616820007	2.72000077918866	8.159986087598664	14	-0.011376626820591219	0.016177651784903727	0.03427617635449009
Si	12.239979131397995	4.079993043799332	9.519978352209336	14	0.07796825461242647	-0.07090825651383184	0.06740563973619414
Si	10.879970616820007	0.0	10.879970616820007	14	0.019057803964533604	0.5408615718043301	-0.0023672166682603365
Si	12.239979131397995	1.359992264610672	12.239979131397995	14	0.025767360407992036	0.0678877219837219	0.01183222668332146
Si	13.599971396008668	2.72000077918866	10.879970616820007	14	-0.08511618451297014	-0.02263678257017973	-0.008887025539091835
Si	14.959963660619339	4.079993043799332	12.239979131397995	14	-0.5428202398372189	-0.01873872979430323	0.006375826972903207
Si	13.599971396008668	0.0	13.599971396008668	14	-0.05213764501355879	0.5549018637365948	-0.06559918113825809
Si	14.959963660619339	1.359992264610672	14.959963660619339	14	-1.138443783855383	0.35228513765072933	-1.1251899930405516
Si	10.879970616820007	2.72000077918866	13.599971396008668	14	-0.01112902937826096	0.0017033572745981022	-0.09470023670435412
Si	12.239979131397995	4.079993043799332	14.959963660619339	14	0.01618793620618432	-0.01350395936248174	-0.5434715008148124
Si	10.879970616820007	5.439985308410003	0.0	14	-0.0035100729830661575	0.0033491217900248876	0.5250716427017047
Si	12.239979131397995	6.799993822987992	1.359992264610672	14	0.026074607493749728	0.0073916706848937115	0.09785472582164378
Si	13.599971396008668	8.159986087598664	0.0	14	-0.05553047559402619	0.005182319883290468	0.5541883820102537
Si	14.959963660619339	9.519978352209336	1.359992264610672	14	-0.5210362929017324	-0.013543297273880006	0.09478302629566289
Si	13.599971396008668	5.439985308410003	2.72000077918866	14	-0.08575870373247516	0.008128549469648153	-0.01445423988880847
Si	14.959963660619339	6.799993822987992	4.079993043799332	14	-0.537489824287488	0.005987332959028832	-0.006848910351810452
Si	10.879970616820007	8.159986087598664	2.72000077918866	14	-0.008814263258531645	0.0004034064247312336	-0.029260206985413203
Si	12.239979131397995	9.519978352209336	4.079993043799332	14	-0.00484447664422301	0.007725143044916919	0.018011621209765353
Si	10.879970616820007	5.439985308410003	5.439985308410003	14	-0.03006830538753574	0.028768611648200885	0.028302727364190056
Si	12.239979131397995	6.799993822987992	6.799993822987992	14	0.07032075894817802	0.06295222821116564	-0.06323762090170208
Si	13.599971396008668	8.159986087598664	5.439985308410003	14	-0.06098944640976461	-0.0008389516659643181	-0.001641136525850519
Si	14.959963660619339	9.519978352209336	6.799993822987992	14	-0.5065799961286677	-0.007998194429916642	-0.002199580601386682
Si	13.599971396008668	5.439985308410003	8.159986087598664	14	-0.11903266323317152	0.04094819466027435	0.03105843804632476
Si	14.959963660619339	6.799993822987992	9.519978352209336	14	-0.5194931154885793	-0.0011618824941749168	0.007022974181984477
Si	10.879970616820007	8.159986087598664	8.159986087598664	14	-0.025159551110309025	0.3303641508016788	0.03632843262103229
Si	12.239979131397995	9.519978352209336	9.519978352209336	14	0.015671401147366572	0.037540194558418075	-0.04449940532846288
Si	10.879970616820007	5.439985308410003	10.879970616820007	14	-0.006908302884705873	0.0046033069651931205	0.3330185599341997
Si	12.239979131397995	6.799993822987992	12.239979131397995	14	0.019134937124138048	-0.035011255365520424	0.03150272504564635
Si	13.599971396008668	8.159986087598664	10.879970616820007	14	-0.08753636595082553	0.00817611491807089	-4.3451679910502534e-05
Si	14.959963660619339	9.519978352209336	12.239979131397995	14	-0.5091238477324223	-0.008284358452049126	-0.007284969814107567
Si	13.599971396008668	5.439985308410003	13.599971396008668	14	-0.0989988676891097	0.009478122652193879	-0.09444184061967925
Si	14.959963660619339	6.799993822987992	14.959963660619339	14	-0.5578257247066671	0.050411919122675404	-0.5443019678332203
Si	10.879970616820007	8.159986087598664	13.599971396008668	14	0.03873035921111462	-0.24996517321958436	-0.047830272270714715
Si	12.239979131397995	9.519978352209336	14.959963660619339	14	0.061724525420794936	-0.09708133734134326	-0.45183370765728664
Si	10.879970616820007	10.879970616820007	0.0	14	-0.08191284439459766	-0.07797699637051497	0.5046161858851387
Si	12.239979131397995	12.239979131397995	1.359992264610672	14	-0.030100187093505575	-0.05513144004833922	-0.027362474148611902
Si	13.599971396008668	13.599971396008668	0.0	14	-0.16159859736088303	-0.1398138790938004	0.2750537618230573
Si	14.959963660619339	14.959963660619339	1.359992264610672	14	-0.9024636238036801	-0.9546529480341738	0.6356402272209488
Si	13.599971396008668	10.879970616820007	2.72000077918866	14	-0.04066408752239799	0.01851350096825826	-0.04683525451181741
Si	14.959963660619339	12.239979131397995	4.079993043799332	14	-0.3926409496452416	-0.08316008758540148	0.07993617862446781
Si	10.879970616820007	13.599971396008668	2.72000077918866	14	0.01452160284819635	-0.030172435153001737	-0.04705097024817784
Si	12.239979131397995	14.959963660619339	4.079993043799332	14	-0.06023868365628136	-0.4018753315130854	0.08203265790251654
Si	10.879970616820007	10.879970616820007	5.439985308410003	14	0.006659934110779569	-0.008845373632905435	-9.48737863134641e-05
Si	12.239979131397995	12.239979131397995	6.799993822987992	14	-0.0038692563962908436	-0.008476934240528217	-0.009636502739915
Si	13.599971396008668	13.599971396008668	5.439985308410003	14	-0.05606346572689289	-0.05062249264839552	-0.032760766878794804
Si	14.959963660619339	14.959963660619339	6.799993822987992	14	-0.556989601256555	-0.5542431465535728	0.04953285821371677
Si	13.599971396008668	10.879970616820007	8.159986087598664	14	-0.07118413611468374	-0.011724497370407256	0.010094930818497402
Si	14.959963660619339	12.239979131397995	9.519978352209336	14	-0.5308373463821369	0.016112088599239953	-0.000617065276835539
Si	10.879970616820007	13.599971396008668	8.159986087598664	14	-0.0030732421891729988	-0.07710667721964484	0.009406645924293761
Si	12.239979131397995	14.959963660619339	9.519978352209336	14	0.019563026159942702	-0.5202029976674724	-0.00261018612101433
Si	10.879970616820007	10.879970616820007	10.879970616820007	14	0.01700503347692738	0.015201403094843505	-0.24574393250496523
Si	12.239979131397995	12.239979131397995	12.239979131397995	14	0.057612813792814126	0.05522399983986454	-0.08451377453645945
Si	13.599971396008668	13.599971396008668	10.879970616820007	14	-0.04208950831188809	-0.07934251040604562	0.020632091752060277
Si	14.959963660619339	14.959963660619339	12.239979131397995	14	-0.5865498562328294	-0.5479411103033579	0.03351975716930252
Si	13.599971396008668	10.879970616820007	13.599971396008668	14	-0.12551981906643714	-0.03226248666775011	-0.1397256901813193
Si	14.959963660619339	12.239979131397995	14.959963660619339	14	-0.5739802365436895	0.05386388512550621	-0.5453666625462936
Si	10.879970616820007	13.599971396008668	13.599971396008668	14	-0.03516629301632535	-0.1338309170138158	-0.11200814638799493
Si	12.239979131397995	14.959963660619339	14.959963660619339	14	0.06469852294461022	-0.5610635176363297	-0.5748495272524317
H	10.376502754458576	5.943474295728947	8.663453949960097	1	0.8360195774572212	-0.8393956958531077	-0.7671064986718245
H	7.809417417706938	8.510548257503464	10.529408446915207	1	-1.0428405749625929	1.0969872816733153	-1.0181762187369443
H	10.568598493091205	10.568598493091205	13.288592772292938	1	-0.7985362043263785	-0.8448091581046796	-0.8010258056078778
H	15.816548187747648	0.5254540681399812	15.816548187747648	1	-0.19475660001164075	-0.3335883168731445	-0.19473628827961154
H	0.4219125263958924	0.4219125263958924	0.4219125263958924	1	1.322617971479826	0.5633723702138226	1.324855861550483
H	13.911878143662166	13.911878143662166	2.3811044608200165	1	0.80776390132039	0.786652555536654	-0.7983562269539681
H	2.3487475259003974	13.945088201865875	13.945088201865875	1	-0.6585953126297628	0.6501919120013908	0.6681053169879266
H	5.8816480450817625	5.8816480450817625	13.158324909304225	1	0.06334663576727635	0.0	-0.0049727747996984
H	6.7949872080579325	1.359992264610672	9.519978352209336	1	-0.012697403623551288	0.01909328521795165	0.006682816948128887
