67
config_type=vacancy dft_energy=-6805.905014059791 dft_virial="0.34354129964886493 0.03936410725143244 6.337621267480622 0.03936410725143244 -2.7698017284189733 0.9960311986347298 6.337621267480622 0.9960311986347298 -1.2369872490828921" pbc="T T T" Lattice="10.899721676319123 0.0294947943300912 -0.014540301417716799 0.02942939567304 10.917978801412584 0.0173197443423928 -0.0145730007462424 0.0173415438947432 10.91725941618502" Properties=species:S:1:pos:R:3:Z:I:1:dft_force:R:3
Si	7.043178129696504	9.567544492320474	9.844337768423973	14	0.28261589679067683	0.09608143448233768	0.6501068084152939
Si	1.3362057412730028	1.2487132379146726	1.4257670221493863	14	1.2442447677794766	0.30487729798411495	1.4828662243265676
Si	2.779997723283318	2.827453168794903	0.34422038150090356	14	0.34065577117716755	-0.7247958753024035	-0.11030170378701266
Si	4.305529306786692	4.063920508176739	1.697212868061332	14	-0.06746426093749351	-0.15049682169901565	-0.6535749723816418
Si	2.802029440866249	0.08599814404471047	2.967331086428862	14	-1.1548880592619861	-0.7816682107630151	-0.47677085815740294
Si	4.161438625661018	1.3096342669131005	4.27899707162102	14	0.2949379190374865	0.4766579866338485	1.5410631932481191
Si	0.187121907487746	2.5888352687674248	3.035556055442292	14	-0.7074869371766347	0.12498888581782654	-1.1302936371010457
Si	1.453721678105922	4.045870478830607	4.262955871023978	14	1.233454095861347	0.2339775261178396	0.6701580874755327
Si	0.10183987873774616	-0.02801896463596912	5.817024158531644	14	-0.26476651232661286	0.38847138814755744	-0.44370438685604247
Si	1.5330088299595614	1.345686366590192	7.04292525488924	14	-0.4028420671134611	-0.04309301071834188	1.2105992835600186
Si	2.846242202965713	2.6940442683209254	5.73588840463869	14	0.4664614971552052	0.5910184372792469	-0.6362403232026713
Si	4.2666879543863665	4.131475140955393	7.046949452253124	14	-0.011253213765224113	-0.6266711834221442	0.30966238209544256
Si	2.815859076877343	-0.01567605809517264	8.575772768161409	14	-0.5092428899087451	0.6191578994556075	-0.13912250887321256
Si	4.1418549978070365	1.4968651721625985	9.838673154745722	14	0.3353952896921446	-0.49281686934991503	0.4781109182502641
Si	0.15017057627620048	2.7309803398458254	8.53230010086424	14	0.6342734276327581	-0.18680674236174286	-0.5434589023987437
Si	1.489572131923772	4.18198906366174	9.875915509981144	14	-0.23127889397381216	0.09082712365008305	-0.4120479097122513
Si	0.039408140761435596	5.5104396141860885	0.24493759025385936	14	0.44595204712691594	-0.0832194801182969	0.4803539505315613
Si	1.5456427605242358	6.799986683585913	1.6837080453802593	14	-0.5455055022335815	0.27684839333652067	-0.5684536456580312
Si	2.836727788342381	8.300837903895783	0.33376531619365174	14	0.5720135980843083	-0.6212466654176958	0.22969046510702468
Si	4.264437150606188	9.637064354743517	1.7721368395120394	14	-0.03643153394437022	-0.13565923000697308	-1.1284357563967065
Si	2.9516648381322477	5.41530745770656	2.9544922400720948	14	-0.5059274495984141	0.5420424804778741	0.999264710665127
Si	4.196329899175451	6.885034367148147	4.462492623575277	14	-0.2831067207962931	-0.588399766510676	-0.9339311247064404
Si	0.13757588490575687	8.237675880915733	3.0240044726518147	14	0.6310793434935381	-0.3096166164207439	-0.5954407384299015
Si	1.4531102006624932	9.573021629848514	4.408462433074811	14	0.5594817736433745	0.31520799916047	-0.10872355934150578
Si	0.16989917115331246	5.4356911291318015	5.669987267905814	14	-0.5364423559800596	0.23660391020237084	0.026872935695655707
Si	1.4855403047165656	6.7463663246696335	7.152682731040652	14	0.4997475408509063	0.039289060397182794	-0.5277003407810241
Si	2.809456548352031	8.168362024262402	5.757088469299455	14	-0.00724666034483736	0.6855081004578809	0.9640027725308923
Si	4.2520833442892165	9.61412032589472	7.199621527161533	14	-0.6037659774565409	-0.5949745970353587	-0.47421929323768797
Si	2.9286913798877787	5.4418625824022	8.466820785469345	14	-0.14247497310015364	0.16991766573475417	0.10192221443811804
Si	4.274019143841807	6.877330405347514	9.797947231044704	14	-0.549593045471553	0.49785417889314926	0.29073519028117245
Si	0.27399312360409	8.104852298422363	8.594425555130028	14	-1.2862985377274143	0.4419789180756911	-0.12569182601235504
Si	1.2345239092897973	9.711265671033809	10.096014690286959	14	0.29654820229949524	0.2658304357080901	-0.013111608690627143
Si	5.618363747984832	-0.036177447103106324	0.19728267883826742	14	-0.34690150022087124	0.982365092506326	1.0274008304045716
Si	7.033747643349722	1.3362460704448513	1.7552934153885027	14	-0.47124143905589244	-0.21233319020123703	-1.115748894304968
Si	8.331316948014493	2.711982029972452	0.2601405980630283	14	0.5969016404728097	-0.7655676921377158	0.188458677529938
Si	9.71433286804951	4.040743224117794	1.638787887807025	14	-0.06557192742186452	0.32521654084021034	0.014418758635390426
Si	8.396399511556613	-0.04924954867002367	3.0815618307225763	14	-0.09078881418081285	0.18000514034782314	-0.5247155446148642
Si	9.635494786974288	1.4500484535348794	4.389711548120614	14	0.006070379660869614	-0.523982008267026	0.9007715793924906
Si	5.565245868750228	2.649505602913823	3.0621645890411897	14	0.5219814312174187	0.17069182554665074	-0.522663545458854
Si	6.877211597787205	4.089938273906941	4.344741251576974	14	0.8164987174245291	0.21834237755548713	0.08141610684674504
Si	5.559193223040141	-0.023299361552107517	5.739102748632756	14	-0.244316197720687	0.1776379236795628	-0.3420261703128065
Si	6.922778112087629	1.2874150731799552	7.103424462549688	14	0.19018311786816133	0.8096698616942157	0.581575795880471
Si	8.24300369151017	2.7926828827960155	5.831366084022973	14	0.01958436633409993	-0.31189847239237534	-0.6800031068569119
Si	9.687956499683144	4.146128800045332	7.084029400823537	14	0.09773799764010907	-0.18494911876793588	0.26027170600592997
Si	8.371013932844573	0.0046280449639899204	8.505910652766465	14	-0.014859960308327837	-0.10980368068649998	-0.4006424865120744
Si	9.883968264619384	1.1892963780284223	9.842866298640322	14	-2.4744032208414573	1.877504665695032	-0.9696031541392389
Si	5.635660602797256	2.783446412465151	8.530804651573005	14	-0.856850415650529	-0.8288477362772002	-1.325515864286165
Si	6.943198842751865	4.104318348614883	9.801569226667723	14	0.7224926791566149	0.629219920126007	0.552474226093311
Si	5.5808870475616414	5.47500117190766	0.25568367958498905	14	0.266627735467868	-0.1152022305272149	0.2048186206820402
Si	6.897282445636218	6.8755025128829335	1.6576684800977064	14	-0.01811909341214754	-0.05607297881657744	0.25253833542398857
Si	8.391029191835091	8.261899543487496	0.45592128774435314	14	-0.6433985375244956	-0.3521439839686532	-1.160427248563713
Si	9.911628626619189	9.719530971307464	1.4608817410754107	14	-0.5547648238230308	-0.21590214149613457	1.2683182840025549
Si	8.319686886835555	5.485288380661815	2.9493617154264276	14	-0.3391128508745467	-0.4826080385657352	0.1213749401798264
Si	9.669065007616288	6.891461965158661	4.264900391093634	14	0.025311760545261797	-0.41335737365180264	0.9737207793094559
Si	5.548550681582675	8.249203484198624	3.131421766858411	14	0.4876294072559843	-0.48180122571627265	-0.48305592511250495
Si	7.012538858868018	9.517586458199064	4.453171134990246	14	-0.23124007028347793	0.6340983353604559	-0.2672975084037666
Si	5.576933698742896	5.4944125832980735	5.664873092924409	14	0.28378266438496	0.16760444227821694	0.5553294385513354
Si	7.003961824995754	6.871974255335021	6.994706825045391	14	-0.6128550918737965	0.23369778985900744	0.35500202464252983
Si	8.427936923941937	8.288744602229398	5.76746723617348	14	-0.04131997648956776	-1.1256165394131643	-0.2202640216717658
Si	9.747011487000378	9.5074790957518	7.195883993911057	14	0.4892402047390571	0.29326078703715386	0.3286980745542229
Si	8.268968048337115	5.506556023934864	8.390733807900743	14	-0.08823802059269394	-0.33728710898670955	0.12268183301405769
Si	9.51306523104159	6.887184892987513	9.777860033531429	14	0.792294331940655	0.2584526489919252	0.7060962263089665
Si	5.684033809462794	8.300973061120354	8.501348006459526	14	-0.13166167545520685	-1.16578903159835	-0.6092254624933434
H	2.149646227429621	8.869739731606554	9.285821247452931	1	1.272070040885715	-1.2720947234967885	-1.065972295306901
H	8.976461620093172	8.747415903502754	2.43201691900197	1	0.13281250219650514	0.14602901198419432	-0.18180285718767064
H	0.40066923233464685	0.29815247749642076	0.4401787410145118	1	3.328315377332121	0.9347590206195281	3.9819446000360186
H	10.76303194321641	0.33094336414189246	10.736171624787865	1	-2.8147352898588185	-0.14097293337212313	-3.0225335644963782
