226
config_type=divacancy dft_energy=-23075.41865975516 dft_virial="5.835968755044973 -8.314534249900992 2.101920738284761 -8.314534249900992 -1.4174802666660238 12.506225895613378 2.1019207382847616 12.506225895613378 -0.4940931215235854" pbc="T T T" Lattice="16.3999889955 0.0 0.0 0.0 16.3999889955 0.0 0.0 0.0 16.3999889955" Properties=species:S:1:pos:R:3:Z:I:1:dft_force:R:3
Si	1.263979951861176	1.0285581098307734	1.051993694105343	14	0.2919117280756722	1.3901537091452199	0.34415864506533733
Si	2.7260881707769875	2.648877022586173	-0.1962914682871395	14	-0.32054844202094956	-1.1015430231900856	0.5571916901347186
Si	4.0161441051410085	3.990199322550127	1.210843987515756	14	0.9454584182987922	0.3463186306447937	0.5364436415327196
Si	2.688368196087337	0.023615984153520002	2.611337447775474	14	0.6071634360265847	0.016032898555379392	0.5117692579963227
Si	4.112330040599615	1.3371075027921107	4.139488422376164	14	-0.5671953467143507	-0.43449005960969583	-1.0010894241108363
Si	0.061827958513035	2.674756205221072	2.5537734864012687	14	1.1550698364081204	-1.9875690564609951	1.1014075259397138
Si	1.286119937005101	4.19004958844929	3.9637789402783765	14	0.4042811147611479	-0.686326483281284	-0.4627979291845261
Si	-0.17787428064519298	0.16278629076933301	5.53926028312008	14	0.018588834354138595	-1.1594129475149146	-0.3749427461740023
Si	1.26312715243341	1.5232801778690264	6.797090239107944	14	-1.0155261804834677	-0.3616444752371324	0.36738369653276687
Si	2.5236959065835216	2.585245065283633	5.24620887975949	14	1.1154038519710041	1.9315451857560324	0.6902214507307762
Si	3.992708520866439	4.271278733944002	6.6630531290477215	14	-0.3607209342061352	-1.7385780750472146	-0.689226690082411
Si	2.2945388603494004	-0.128805513570657	8.035076208411251	14	1.8971180855192495	0.4081544849259511	0.5460752591725263
Si	4.147934416708846	1.0123221207252284	9.19842582779604	14	-0.7594253215278821	1.8226701883111698	0.38546756580202846
Si	0.0319963785302205	2.811761713289479	8.363584387980112	14	0.35289191850628426	-0.856191441356975	-0.253864254437589
Si	1.5214597790905258	4.170140001808753	9.4726336438008	14	0.6647081155284149	-0.45726902430407973	0.8480199544284803
Si	-0.07593194904916499	-0.059761559899601996	10.85700591487794	14	0.4770333680105901	-0.7656301699969953	1.312599145378805
Si	1.236952769996592	1.3483578952430235	12.452577244239132	14	-0.18124312755947442	0.7393982108576526	-1.1173072412395098
Si	2.930776433429823	2.6306402348231774	10.899662286255237	14	-0.9649556241625392	-0.09170952699595787	-0.5995938448535367
Si	4.239331555380768	4.234214758814172	12.097550282464548	14	0.13701934472133143	-1.122154546099585	0.9373411816925529
Si	2.6290002359236273	-0.195455068848369	13.60525047078785	14	-0.309601189788823	0.06678934579095464	1.0489328090186838
Si	4.110230842008192	1.1766172104821475	14.911279994433485	14	-0.8269991115520138	1.382031587438872	-0.5484851561891011
Si	-0.1634258903401575	2.868144875456008	13.943057444117159	14	0.9926307447180812	-0.3333173223724009	-1.2738253344877801
Si	1.4468234291720052	4.21512517162341	15.103061465746865	14	0.10049987897501216	0.37471571757423316	-1.6547998937428499
Si	-0.07507914962139899	5.537718684154503	-0.133758310247298	14	-0.07232030755565717	0.07981379401122876	0.8445880430471467
Si	1.351162293361254	6.930405749652363	1.3074563226882465	14	-2.2175199745369505	0.6048653820914364	-0.34001068085234243
Si	2.787473329587144	8.271974049451249	0.136021508728677	14	0.1554703678303101	0.5960290073271514	-0.21507064603559867
Si	4.234329558737141	9.686243500467187	1.4564994226793504	14	-0.020495566059560412	-0.5547396269908934	-2.322380962355998
Si	2.6540922190867424	5.547657077485776	2.4305931690560687	14	0.1507737297419956	-1.8841813119903925	0.8084904956838638
Si	3.9719789347761267	6.888405377834887	3.720009503849265	14	0.921718374435737	-0.2162430700615862	1.16759343331203
Si	-0.0012135991856669999	8.343051601757747	2.8363616967827294	14	0.500718390219794	-0.14299047971684334	-0.9723696634637182
Si	1.6215489119300626	9.567851979908673	4.064196072897824	14	-1.2033780771578506	-0.41275290679103593	0.262356101088974
Si	-0.15944069301425098	5.298229644853216	5.467559531231754	14	0.31655371568503543	0.46047493552777236	-0.4172407711273544
Si	1.2269979766763233	6.720846690267864	6.690359110725229	14	-0.35660665147283427	0.9350539263997492	0.1555174190576688
Si	2.809990514477965	7.925163482163411	5.424378360206602	14	-1.0857492374294802	1.0813996985593857	-0.4953946595438955
Si	3.9073629781338566	9.51858641296619	6.697739105773205	14	1.8741246906411655	-0.33337671490529636	0.15247888679031782
Si	2.7487201555907776	5.7164785642054525	8.011558624191705	14	0.23216438264607114	-1.3809306401407846	0.9828672293753508
Si	4.305407111043637	6.971799321877005	9.227814608075974	14	0.03318191393023506	0.170157806971656	0.8255070991347317
Si	-0.0436075707390345	8.149203731830935	8.210588890641093	14	0.5082293601915427	0.10064463220453648	-0.8612786303434201
Si	1.4248146439400444	9.689572698233274	9.364869316111369	14	-0.8411237357387792	-1.6118590924594605	1.6780113183520824
Si	-0.09887553365386949	5.158796938413475	10.866321108627385	14	1.409602064007884	2.1656715788719088	-0.6201081799819342
Si	1.493842197622104	6.636107947128115	12.132301859146011	14	-0.8940478818697715	1.0601623686149626	-0.5793029387774601
Si	2.91052244702038	8.183430508864545	10.717753608317151	14	-1.0186971246748064	0.04280581825408134	0.2722196324286581
Si	4.2655059378175855	9.500677624983105	12.185126223700518	14	-0.3650028530063098	-0.0923643875209996	0.11155126097260464
Si	2.995818789785976	5.661981400773406	13.522807726107471	14	-0.3698738120353304	-1.23010600251345	1.4500712617470146
Si	4.173731599398768	6.830136216933876	15.324510517153099	14	-0.20556989765658748	0.32839031324740114	-2.0894709591670844
Si	0.11939191988723999	7.907107094279365	13.694040011209486	14	-1.1076895075684317	0.6293682729029795	-0.7133577990646608
Si	1.368218281916574	9.46399084960017	15.044480705054939	14	0.5544148963889587	0.9104829012972219	-0.3521943776329281
Si	0.1564722950060655	11.301347216722018	-0.163606290219108	14	-0.06558529716952928	-2.480263284087139	0.44330997929993177
Si	1.539466967007585	12.374414896686579	1.2797075413078605	14	0.5010840013963193	0.8281342545508591	-0.1532476472810421
Si	2.8112041136636328	13.864681896707664	-0.1516178982633975	14	0.5812590357050288	-0.08215555673681962	0.7508733110120054
Si	4.227244763491084	15.150342634020891	1.3513098932622134	14	0.06820268238544003	-0.7418343331484929	-0.2179461702256523
Si	2.8324256994238093	10.932577064169205	2.592247860584712	14	-1.183138850298709	0.3881374015664702	0.7559587002247263
Si	3.9023445815012336	12.21904140094321	4.120316835240424	14	1.5476153980459846	1.4506983543345988	0.1638922804169871
Si	0.377626146610383	13.550244907696943	2.91478644415921	14	-2.161265218574239	0.3558222072396571	-0.6384895261367368
Si	1.3255947105172694	15.215220990487088	4.12280963356774	14	0.6741445862744223	0.02059223961959798	1.0367956492443926
Si	-0.08172114516457649	10.70889761425958	5.339557617121876	14	0.8929055397760296	1.323859301128394	0.4808049224047152
Si	1.4029862585870339	12.29456335026749	6.878598184415578	14	-0.6425806689221565	0.11406014554400513	-1.1359390130524947
Si	2.7914913268910415	13.803050738062575	5.478629523803717	14	-1.2804857828196237	-0.8539828618869679	-0.5229610223443951
Si	3.98978932282524	15.224175384478631	6.791579842805455	14	1.4057189236428644	-0.3942864570501363	0.08030873178535726
Si	2.8256689039576637	10.90784588076399	8.152204929817112	14	-0.0979033197121946	1.2272898708562918	-0.5332158759138057
Si	4.178700796064405	12.291381752402362	9.488066033445564	14	0.016570516677822354	-1.0315613930336354	0.6670635051122026
Si	-0.028421180929201498	13.738943181079165	8.120126551341915	14	-1.0534592399348042	-0.47509244060441025	-0.05402329365535539
Si	1.315443117329055	14.88200601407652	9.5943543621254	14	0.39460681677302684	-0.20562286242618252	0.8831487093071317
Si	0.009987593298259498	10.869371506580547	10.92373747010063	14	-0.9522875311396376	-0.1297456877706325	-0.2607743570960189
Si	1.244595164868495	12.193965817769092	12.372250098139173	14	1.040828170828513	-0.3532547014669572	0.8157111878649677
Si	2.8319336997539444	13.336635051030555	11.111894543846002	14	-0.9405254956315563	1.163171646382439	-1.3471329464863742
Si	4.020244102389883	14.957905163147693	12.25887697421328	14	0.857179002910444	-0.08627189635437671	-0.6532186171842691
Si	2.936811629380167	10.879916699504655	13.648841641537887	14	-1.8195036149988755	-0.9262219225145083	-0.7726891396534619
Si	4.125335231873048	12.336153722360077	14.911689994158374	14	-0.3027355672524316	-0.16586611797126483	1.5533088536669204
Si	-0.0312419790364275	13.581618086645333	13.84621550909873	14	-0.6798809793542048	-0.2139059353255716	-0.9893888380199064
Si	-0.0057235961594295	15.779331411965302	16.177654344688005	14	-0.21245480348288004	2.1060695008928962	0.51752287748175
Si	5.55041227563702	0.15183109812033901	-0.134971909432965	14	0.4543253658230422	-1.6683853571439804	1.3926813627854575
Si	6.852292602066796	1.2284411757079274	1.513489384438713	14	0.01940927406179785	0.7007601543275312	-0.07475720117809354
Si	8.146645333547639	2.755099751310027	0.096464735271531	14	0.07534058497523513	-0.2025174814205077	0.30783818287079745
Si	9.459644852516364	4.105458445210502	1.643475697217046	14	1.9022962916340282	-1.2674942447474475	-2.3237223080015195
Si	8.406060359478458	-0.24273623712239548	2.8517448864605086	14	-1.4409890893141237	0.41246931387422353	-0.7226487452495478
Si	9.506450421109522	1.449168627598362	3.9244681666561636	14	1.6042666184490635	-1.515240554075744	0.062181153725653235
Si	5.353399207834078	2.783602932184206	2.861060080209952	14	0.6099749396941666	-0.45814037189707796	-1.246859067669003
Si	6.853899800988355	4.065065272314585	4.157610410216191	14	-1.4029994655457436	-0.4150774431109818	0.41770022764806486
Si	5.621522627921508	0.0153667896887835	5.3332764213366	14	-0.8781299117222027	-0.01657385911473855	1.4152548961647615
Si	7.017965290899337	1.3469146962114193	6.721748689662616	14	0.6657039046189082	-0.6660718297902214	-0.7545528198356694
Si	8.362255988871476	2.729253368653119	5.320172830129195	14	-0.8824984767716662	0.4640989084765211	1.074163579746361
Si	9.705070687834022	4.168073603195321	6.6286623521241586	14	-1.7964423429403393	1.046328536439906	-0.8330057278009438
Si	8.423477147791678	-0.0942507367571385	8.101086164118138	14	-1.6559553484737242	0.4266998676001792	0.459651924714793
Si	9.42882927319382	1.4566142226023189	9.495052428757647	14	0.6686969283220927	-0.7324402856402679	0.2711922187427269
Si	5.483319920656429	2.65581421793127	7.714259623681281	14	-1.2054218487768364	0.5484378478512105	1.9882208316596526
Si	6.825462220070158	3.9558249456155594	9.259614186738249	14	-1.5551659630396637	0.6356718518163866	0.3622065188601168
Si	5.488239917355079	-0.0416723720375655	10.828683133882713	14	-1.7034763167744251	0.0003036475383094882	0.6082561557876476
Si	6.683799115127029	1.3744666777238594	12.19401501773608	14	0.8855074413278355	-0.15578275712670808	0.23526282166738163
Si	7.965769854916268	2.71813417611417	10.738138794638557	14	1.0924971033422088	0.35489815198759583	1.4613471012390562
Si	9.512206817246941	4.241463553950183	12.172235832350054	14	-0.0333076409803903	-1.7612953332139154	-1.0422103970486245
Si	7.990943838024361	0.07934314676022901	13.766363962679641	14	0.38925531815967057	-0.7605756340481162	-1.2298609761764399
Si	9.404770489337421	1.341945499545783	15.0745090849057	14	0.7643009085464788	-0.007736713018857584	0.29498728425963333
Si	5.558103870475909	2.674346205496185	13.69012041383956	14	-2.2134925951634705	-0.040304904109173305	-1.3869148877734292
Si	6.850652603167246	4.018079303842478	14.859505229174694	14	1.5479758670118693	0.8659647268999219	1.3021648286580483
Si	5.611338234755302	5.361681202276806	-0.07594834903816049	14	-0.788509407798865	-0.23554641458419398	0.7806449108455962
Si	6.748185471923362	6.862624595133962	1.4044786575856245	14	-0.22967992357521205	-0.39152149038884915	-0.9393777542166419
Si	8.11423895529253	8.15520612780329	0.019581586860627	14	0.32468380781787565	0.11006696187128313	-0.44608317349824356
Si	9.447722060516634	9.511682017599085	1.415056650487722	14	0.6943570736382344	0.011127229604536857	-0.3057728139671225
Si	7.862777924024528	5.256639272760628	2.5910998613550267	14	0.8742917657002856	1.6637185438773794	1.0058462260636423
Si	9.414233282987823	6.791284643003536	3.833038228006251	14	2.720908714742251	-2.7501424393428664	1.4786910063971792
Si	5.476071125520418	8.32302721519424	2.706752583751293	14	0.4142678020456671	-0.6764272135776498	0.2334216531476236
Si	6.816327426199665	9.744315861500253	3.944886152955561	14	-0.6460020387716775	-0.6536145674035719	1.6932859979485502
Si	5.269086864408213	5.529633489579721	5.186381719903906	14	-0.026034498250755416	-0.7178369216428907	-0.49200799961619646
Si	6.664086328354438	6.578461985808932	6.611950763337744	14	1.1822577325054942	2.180343591381334	0.24305481345062238
Si	8.100315364635351	8.09291896959838	5.098592578810995	14	-0.7877504175083573	-0.020849864372676816	1.9264641674223557
Si	9.590828364491367	8.799299295612556	6.8595905971697935	14	2.7573006536646907	-4.535547798475406	-1.969389542073824
Si	8.1595357248981	5.368191997908019	8.029926611866665	14	0.1897331744371354	0.44788911787511554	-0.8213493647215204
Si	8.469528316891042	8.054313395502973	10.654859650519409	14	-1.0627237037348942	-0.4560737174407429	-0.18827458638901537
Si	5.689254582472922	8.371767982488866	7.881145911699488	14	-0.6643473894519981	-0.651427328107722	0.05732150756004135
Si	7.116086425059414	9.541628397504867	9.37438130972876	14	-0.411783342974808	-0.5900763842899446	0.11572056535975675
Si	5.5724374608579765	5.530027089315614	10.688348428048219	14	-0.05241840971451897	-0.43114376603552307	-0.568154368998766
Si	6.757435065716824	6.825445820081162	12.2445925837982	14	1.3610500824738037	-0.29358551763908863	-0.6886440776168654
Si	9.292758564498156	9.349371326510623	12.324378530261308	14	1.2447998694180964	1.0714286950173193	-0.44642641605848327
Si	8.269448451145943	5.493766713646563	13.573565692048543	14	-1.5677672073242412	-0.0958927153518388	0.36981339106030686
Si	9.493281229946135	6.7353114805618945	15.08065908077901	14	-0.2515615725128643	-0.43985724196550496	0.9245411909667277
Si	5.517907497447938	8.14379173546242	13.710505600160968	14	-1.5608439920286787	-0.8888827883921259	-0.9675969206579272
Si	6.834679013885629	9.438406866767192	14.872756420283057	14	1.0043112761875137	1.9766194902340801	1.5733110246155446
Si	5.510297902554027	10.924557469550404	-0.0929059376595075	14	-0.14993246408124314	-0.34621887175837196	-0.5036921306330774
Si	6.825544220015136	12.2311117928439	1.2897443345731066	14	0.038327209896915404	0.09233970490992617	0.8768962953895956
Si	8.13734653978719	13.664290431171649	0.076456748697021	14	0.17585743324536024	-0.17811332105325817	-1.1133114864614675
Si	9.649835524897176	14.769108489831497	1.4335394380856505	14	0.47523308006542236	-0.37822887588368354	0.8659220465516074
Si	8.265086054073139	10.994864222374114	2.772090139909365	14	-0.15729096750750693	0.25098435936849106	-1.1021348916347837
Si	9.61272234980036	12.148423048328588	4.2569943435289215	14	0.4656587980742549	-0.3578772917220514	-0.7168557878527222
Si	5.477809524353941	13.535812917380902	2.779388135012362	14	0.12191692918131364	0.8703253215228931	0.21534472586272646
Si	7.065984458678161	14.919922788634116	4.400740247074479	14	-0.7841894366399522	-0.7472948466274233	-2.2697432373576705
Si	5.374948793374165	10.95453664943418	5.495882312226982	14	-0.49194629308851295	-0.8438390800673878	-1.1965098835161394
Si	6.851882602341909	12.174941830534312	6.744249474564443	14	-2.575163552785401	0.8105679487825435	0.982801923300219
Si	8.27051445043065	13.358561836317538	5.59141224812577	14	0.5843237932466453	2.0124707257076935	-0.26200026011266553
Si	9.627236340061378	14.763007693925172	6.9152849597985115	14	0.5180764364571778	-0.4546182147190071	-0.17061494949757833
Si	8.274565247712538	11.047754186884601	7.991386637727239	14	-1.9363199854460795	3.9642831633708573	4.292050240688654
Si	9.569081979083336	12.229717793779283	9.594747961861293	14	-0.8108872800633058	-0.3502866174853782	1.2644965930546868
Si	5.380819989434554	13.722838391885585	8.176837713288354	14	1.0659321860639068	0.8520128809906704	-0.4841550726368682
Si	6.862427795266015	15.18204381274919	9.55842198623626	14	0.7224075755705179	-1.7438105314842482	-1.1700622086404362
Si	5.619325029396111	10.77628516904209	10.70146841924462	14	0.07496674626168559	1.0845444174764587	0.8583007761616245
Si	6.841189809516843	12.287576954955405	12.312685338107517	14	-1.6624041948377195	-0.77991291716095	-1.2809640084091711
Si	8.012936223267326	13.709488800843248	11.030927798175219	14	1.0922279086151894	-0.22739318250347237	-1.5339612861328062
Si	9.378661706856585	14.903227599836697	12.447083247925638	14	-0.8380492079969463	1.5092375373742624	-0.10841219848723585
Si	8.161520123566556	10.987713827172076	13.563938898508184	14	0.13979125336698306	-1.154294133933032	0.7681300556997753
Si	9.43276527055274	12.470814032002128	14.806910464466124	14	0.33594653467278435	-0.8535840834518128	2.0543625160204617
Si	5.394497580256801	13.601035673616005	13.576845689847643	14	0.8908836225522652	0.7630397813869461	-0.13325550364316666
Si	6.797680638711781	14.920693588116904	14.978159149557136	14	-0.6139758366828489	0.5774180614672596	0.6908207753809028
Si	10.775137169812405	-0.2675986204395735	-0.051692765313815996	14	1.1278662565682938	1.319177832561468	0.054204813690957844
Si	12.289561353623862	1.155969624336813	1.405610256826314	14	-0.9868850956591463	0.46652423212501676	-2.1608240169013015
Si	13.50178294021524	2.5470002909461273	-0.1655250889315815	14	0.7899854793631621	0.3917559751940466	0.5846613793751807
Si	15.198837401480583	3.886534992109572	1.3065379233044985	14	-2.033827354938971	1.3500179837661122	-2.435531193727203
Si	13.687299615732336	-0.011119192538949	2.713935778931322	14	-0.7100644702600831	-2.757497343221682	-0.1166469346066061
Si	14.978093549601153	1.2598635546233055	3.9171537715641707	14	1.7999660427816022	1.7545011874054237	0.854835183300597
Si	11.09218175707341	2.6408410279783783	2.7007993877459264	14	-0.4477482213035714	0.7997245692053508	0.7965564532298645
Si	12.492806417245093	3.9335865605376616	4.217585169972735	14	0.1532180795698604	0.8970105665301781	-1.5708440490608624
Si	10.723575604410554	-0.20823066027586348	5.363993600725172	14	0.38089074122163286	0.801757799292524	0.17364319734364872
Si	12.111113073363827	1.2570919564830658	6.688456712001751	14	0.3179598531846244	0.6351288343727712	0.6571421239028151
Si	13.891184278924392	2.569107476112061	5.4943899132283915	14	-1.4164016091375475	-0.09905774600094108	0.4874597143048545
Si	15.07716588312297	3.9750457327182858	6.992463308011335	14	-1.220723782089698	0.8522075136634056	-0.7095348225641326
Si	13.402595806770455	0.108502327194228	8.39551516655435	14	-0.5907952653374581	-0.8380600066392908	-1.0387538030562176
Si	15.017469923179348	1.296747129874185	9.54435079567812	14	-0.2507110508729593	0.8179588481358412	0.4804935615504453
Si	10.662223245578389	2.8454308906972408	8.031189411019318	14	2.6253934376514096	-1.9489592820893955	1.67349105808873
Si	12.214416604046482	3.936030158897991	9.59712596026564	14	0.195769101286715	0.904545447781404	-1.2608466519422048
Si	10.542322926032286	-0.11734192126280249	11.028943399506764	14	0.7394897422070499	0.8383417997823791	-0.8495001397612897
Si	12.150817446721932	1.1079996565249755	12.298023747945539	14	-0.05399064061778951	0.4779612799206315	-1.0284616684596648
Si	13.588899681759335	2.56299028021674	11.00126021808236	14	0.024072744891482433	0.23857851908824457	-0.08189664643108072
Si	14.921316787698734	4.146704417534184	12.292742951488988	14	-0.7820309937236879	-1.5735689064791554	1.1179636444277434
Si	13.62660325645999	-0.164196689822946	13.475641357756412	14	1.7845628079191271	0.22297705200558604	0.5161704760833521
Si	15.118887455127522	1.1739276122868856	15.088219475705936	14	-1.192684593020823	-0.47427894288111544	-0.5258362894239167
Si	10.767461974962512	2.529435902731947	13.465014164887329	14	-0.3253620654013308	1.1721247493282587	0.7820237946287916
Si	12.137205455855666	4.029624896095309	14.79013327572373	14	-0.2019081294596326	-0.6308065492190703	0.9565401393391626
Si	10.862237511367507	5.340968016175489	0.0389827738423035	14	0.23990392388078094	0.14734593212917416	-0.21295256947286068
Si	12.432257657873707	6.810882629853158	1.1799464082482338	14	0.46609048665750785	-0.09978254059069082	0.10542097455777556
Si	13.717836395241957	8.596152631925296	-0.0322259783761575	14	-0.236935839899202	-1.523296598375364	-0.0348459332934349
Si	15.223470184951825	9.981935302056051	1.3761066766234094	14	0.3924064648400441	-1.804281128840407	-0.2926092689490284
Si	13.930675452425556	5.414259566996378	2.51477431256997	14	-1.2654872399345398	-0.02181737130464854	1.0234377286640954
Si	15.03142631381452	6.844207407492014	4.096553251185945	14	0.04334626459237646	-0.46772673808325	-0.7352332773495447
Si	11.042850590174947	8.120831750868721	2.549509489262439	14	-0.5401905133157714	-0.1318064286847312	0.20290340432906193
Si	12.145471050309398	9.566015181141177	4.017964503919509	14	0.6553636903528687	0.12481199377180036	-0.12613174213263234
Si	11.172754903008304	5.462508334621139	5.453799940464529	14	0.42678831362319225	0.04960870582066114	0.22757547387067087
Si	12.186274222930203	7.130190415595544	6.929274150411673	14	-0.35716201022198624	-0.8131436820922677	-0.23077238622574298
Si	13.48311975273836	8.107777359628303	5.286995652391298	14	0.03339685833499944	0.028998468463822126	-0.3408784288978924
Si	14.956642363995039	9.236605002177564	6.594697974914477	14	0.7533914515625585	1.0053654293687744	1.0976711956884748
Si	13.623634858451803	5.617242230793683	8.12521054793052	14	-0.5502275942645656	-1.5534332951644159	0.17085354807128805
Si	15.000495934569006	6.79633583961415	9.546203994434613	14	0.06516646411287716	-0.003119779195467679	0.9716613239480173
Si	10.434640598287835	7.67388285077436	9.02261794576428	14	-0.4747803084185443	0.33965509698656593	-0.45004216147020754
Si	12.08518469076194	9.567556780106754	9.300810959094948	14	1.0833966760615446	-0.7893542730070657	0.32982781823189594
Si	10.94943625285658	5.571929061199116	10.815563142686313	14	-1.0526938218809962	-0.1973783561065957	-0.9217057760196682
Si	12.163527438193444	6.961910128512718	12.21667980252786	14	0.7847316827519715	-0.09445880991479222	-0.09831932455299455
Si	13.497240143263486	8.290473237038173	10.780450766246947	14	0.39448957437042803	-0.40221446030481295	-0.217802188327724
Si	14.910492794961703	9.405344488952263	12.25577737629313	14	1.1507274966329226	0.13683293958562068	0.3768345654685672
Si	13.49128694725812	5.537899084033453	13.573155692323656	14	-0.7786240220639598	-0.7300314170658212	-0.9453275490379967
Si	14.699014936864732	6.763732661491096	14.955674764644305	14	2.181220338295504	1.8243084966211682	1.3931554746064927
Si	10.669144040934489	7.980054245331349	13.611121666848238	14	0.5641802115054132	1.4917547925288512	0.6924462281643005
Si	11.848401649644911	9.465811248378673	15.177140216039538	14	1.582765493098793	-0.19282492858461345	-1.5746911939514
Si	10.703354417979101	10.980793031815974	0.021647985474059998	14	-1.1887394890175877	0.2920891343427624	-0.7484431022634014
Si	12.28952855364587	12.10584867689627	1.2011187940414245	14	-0.05478459794065124	1.0872638755735795	0.9707982038920436
Si	13.66435603112763	13.611416866650156	0.026600782150700997	14	-0.30353338123327356	0.05017460610162573	0.4896598091273052
Si	15.107079463050761	14.803171266975152	1.480197406777848	14	-0.11901929348550673	-0.0573762721033605	0.6074125761321071
Si	13.683084818560493	11.024351402588023	2.6798238018206817	14	-0.2815375752194067	0.21255276259557768	1.217013934223256
Si	15.040479107740035	12.465090435842699	4.174649998782516	14	0.46392767286219927	-1.401026399323062	-0.5802254513663292
Si	11.197912486127398	13.358857036119456	2.9586072147551863	14	-1.2168054175817922	0.08871418929798536	-1.7305572548904808
Si	12.30607614254233	14.91665919082401	4.185801991299456	14	-0.2026372949284266	1.7401096824864268	-1.2451978765216554
Si	10.684100830898384	10.59173609287573	5.639415015915598	14	1.047877884505827	0.30838788518824517	-0.3192778017717324
Si	12.23690098895931	12.129071061313898	6.690178710846279	14	0.5378068415734623	-0.4551627748258144	0.7497330258025198
Si	13.600494473979154	13.721181992997039	5.509035103401374	14	0.3615740269513603	-1.0917980198056605	0.769599956611304
Si	14.711757728314234	15.17490981753615	6.8951949732790245	14	1.4524845012005057	0.012717201134516427	0.6984875543350524
Si	13.790865546238917	10.768462374291238	7.990615838244452	14	-0.6544473484167679	0.5731148024929278	0.23156377244328458
Si	15.003316732676232	12.333792123944725	9.547975193246126	14	-0.10252925240420503	-0.823459727968298	-0.6200462163437187
Si	11.046458587753957	13.357266237186893	8.326766412685215	14	-0.2184812172427751	0.8322891607482186	-1.5361850351242023
Si	11.922234400102653	14.9914103406655	9.6333535359567	14	1.5542308520347257	0.5387982597849112	0.3579719083978328
Si	10.86910910675662	10.648201254987235	10.93193746459838	14	-1.0063308794164902	0.6864082444304647	0.27293002882861495
Si	12.131235859861304	12.125807463503794	12.220812599754725	14	0.0015904857510436016	0.384019005064657	0.547249997193302
Si	13.386081017851987	13.508457735736407	10.826452735379325	14	0.8757783787963952	0.36300356150936264	0.29699300351988084
Si	15.03518191129449	14.685616145855406	12.202034612354877	14	-0.4741961532898066	1.2318281288568853	-0.16647726970586402
Si	13.421078594368383	10.684871630381174	13.616123663491866	14	0.19182476861507586	0.4791565867839683	0.8192536567750678
Si	14.841629241169597	12.180550626770772	15.087268276344197	14	-0.15434088126316906	0.16838991495352218	-1.624170573174458
Si	10.902187884560544	13.752194372187528	13.61377846506551	14	1.7295606944683914	-0.7934508151136576	0.3842583749699628
Si	12.487410820865573	15.070031887909927	15.037789509544773	14	-1.8218716029987319	-0.7336823866204314	0.10642550540635744
H	1.8519785973102347	14.816901337762184	-1.0608874081376027	1	1.4040834435487182	-0.6095401657845295	1.019001029323648
H	7.370602774277277	4.366315030174025	7.085605405512377	1	0.008576950237481977	-0.07854932441477992	-0.21761681163414132
H	12.028678528677945	4.6369656885656605	6.523723742538652	1	-0.06497183144014197	-0.29892390361531207	0.1499563753607205
H	8.695651365160996	7.5771967156513895	3.012148258828795	1	-2.4543288018333373	2.6325292833569485	-2.840412147359541
H	11.75875930979551	4.767739200815777	11.76021562881831	1	0.9417308298056417	-0.9619222341058286	0.9371743169572752
H	9.176592522446331	10.293917212714147	7.146027884968498	1	2.5691034575458116	2.8194023602359515	-2.224941470043558
H	3.4410292910468145	0.676138746306474	12.717181226688126	1	0.6874641973854495	0.9215913618329218	-0.9062935422885726
H	0.8507969891096494	14.567880624856713	14.761695694805532	1	-1.0340918748897248	-0.7929566486711251	-1.1091372969742073
H	-0.9037771535596122	16.822127992241967	17.208726572831786	1	0.19022554110594378	-0.2693813892657466	-0.24499934040425034
H	8.620783775397639	9.657597639688747	7.528306708456904	1	-2.651888163754472	-3.0158887999069877	1.3122885558561315
H	9.85938474428828	9.156743615765077	9.143735144493846	1	-0.26656705738231257	0.3162914629423803	0.1588495715525807
H	13.235415958949227	6.15673462879075	6.023125558443311	1	0.31360594343548565	0.3841763567102501	0.005481596542555704
