72
config_type=liquid dft_energy=-6935.150228565607 dft_virial="-3.721233370545643 5.905411681925842 0.4504593096910875 5.905411681925843 8.326905141826225 1.7029559268809409 0.45045930969108755 1.7029559268809409 4.25958717968865" pbc="T T T" Lattice="10.6165606448 0.0 0.0 0.0 10.6165606448 0.0 0.0 0.0 10.6165606448" Properties=species:S:1:pos:R:3:Z:I:1:dft_force:R:3
Si	-4.645971494854474	4.233678423869731	1.758956014254722	14	0.8044862562582652	-0.21586768868484457	0.2045836216557787
Si	-4.389431861777463	-1.601985918497096	-0.9957824289911449	14	0.63329872160589	0.2499263495292501	-0.5894030118065978
Si	-0.8021161913647679	1.019048621644224	-2.0056540956140037	14	0.5514259864542865	-0.13500411237139937	-1.3353194888718898
Si	-2.9854862038924015	-1.0193575635589878	3.628043982014341	14	-0.3432258480551876	-0.626475779417813	0.2537871212779845
Si	-4.687914340993886	-0.917250668245495	-3.3183504147570093	14	0.11459622100325602	-1.6595749505434287	-0.2867453490453667
Si	-2.2618508137821887	-4.903210759277979	4.569098040881542	14	-0.03707868115345149	-0.23291591673115045	-0.023457222277838984
Si	1.4416503730150687	3.3635461750779876	-3.3954542480959335	14	0.39056092544124177	-0.1511678801875743	-0.3442455484251583
Si	3.0957954539600667	-0.08477217509266352	1.6223017689469852	14	0.12800839190580846	-0.39429185637130865	-0.12730185216383175
Si	4.475520490390081	1.6660547386763351	3.9548482600628967	14	1.9125300621398134	0.5701384909743243	-0.17797396714490615
Si	-1.9389321969296296	4.373812777756833	-3.590290430705368	14	-0.06907480131003427	-0.47306101029096126	-0.4847320286707095
Si	-4.878354205840308	-0.6241221205622445	1.7292614941312163	14	1.2443463264396224	1.4139341193618014	0.5897277424085325
Si	4.784876451018909	-3.339688639996993	-0.2231388716324064	14	0.04108754856862638	-0.3920907331067299	0.4050496181413402
Si	0.4825502843638365	2.7248475167504322	-1.1180045217583405	14	1.6364825681105188	1.402952414318385	-0.6419322361604152
Si	-2.7744491497390027	-3.654771173437625	-1.3619146942922982	14	0.9545120514626297	1.2424167118968512	-0.4605836932828146
Si	0.2694854671272808	-0.6595867413961989	1.5088733733618775	14	0.19144913012780224	-0.5359245353685818	-0.20897866909003981
Si	-2.2370632679887095	2.7115417812943043	0.0449027432471816	14	-0.857040163223156	1.1568202449100773	1.0884242154045622
Si	-2.488459177433316	3.613017302077691	2.795031475861076	14	-0.02635305819992177	0.6967530866860805	0.35398978047798757
Si	3.081742312634545	2.1222090683090054	-1.7163963459418476	14	-1.4402406405554284	1.1764930572671906	-0.8190225144067864
Si	3.754610371397389	4.098005148765574	4.731887073528583	14	-0.6920006556123188	-0.3829111157822052	-3.404112847722747
Si	0.7260018214779387	0.9392651683985521	3.805832091540355	14	0.19534615446155068	-0.3115667998060762	0.7789294693759934
Si	-1.9659810701404508	-1.0039157761011261	-2.2480599015045932	14	-0.6044180097657306	-0.9118954665601112	-0.321512349405473
Si	0.2812157049837203	5.246170257659727	-4.556012068230761	14	-0.5458173773089154	-0.49143052936129117	-1.1224265690424566
Si	-4.126970311172782	-5.150786830202586	-0.18856179526835726	14	-1.0695831556185171	0.4052272815189624	0.8546328373119014
Si	4.261207165621697	-3.96127340256513	-2.4193273194825715	14	0.3394702345140473	0.42721717399059295	0.1189838122320887
Si	3.082348518247363	-0.08856228724285711	4.205695293322167	14	-1.423475491204871	-2.1061016397093977	-5.0560793834027935
Si	-4.860108584716155	-4.0980348751353795	3.122311375826519	14	-0.1371211604920093	0.18852372649453775	0.19915190455643386
Si	1.7218808611709513	2.753517538771715	2.3776721821366342	14	0.5792697715188301	0.24163042110326036	0.11399998167951367
Si	2.337003323274599	-3.3953374659288413	-3.9825670382504055	14	-0.6481088024710069	0.8807105301320352	0.342642464258046
Si	2.040643094531071	-1.9630933656450653	0.26620282657590866	14	0.5804352535604533	0.14460899051587653	0.4678810044024589
Si	-2.3359321123055388	1.1290882110715117	2.875338325546537	14	0.6074375158537125	-0.15900640897710974	-0.6887800890883012
Si	4.210978093899019	2.417453496528764	1.7392017798629427	14	-0.6429311105772927	0.43341250937002174	0.49537640469612243
Si	0.29401290718496226	-2.6266591939709354	5.27977910369297	14	0.738485211358468	-1.5033039405164246	-0.41723100092713783
Si	-0.8153401793039308	-0.6739212215788078	-5.063624867308778	14	-0.5257601847064404	1.2843684089635794	-0.0557215087193132
Si	4.428187616411305	-2.409780908150767	1.8831952535444294	14	-0.9681705342548523	-0.9116558395442734	0.7577895843232038
Si	-5.153846522980417	4.2256236393085205	-1.7259788535798442	14	-0.14675997722671244	-1.579913108856621	-1.8631674110982903
Si	1.0039869070574463	0.9002588629334924	-3.9722997624508194	14	-1.5342744467608005	0.28377777928485176	-0.21893938821082548
Si	-2.6791166817729564	-3.182822586533686	2.573882147693505	14	0.4687204702894872	-0.14553818797857807	0.3218789890241261
Si	1.4580062463444472	4.945380799815188	3.7318930549296456	14	-0.4825363047273029	-0.021387225384587767	-0.16903731927313545
Si	3.4587873406224885	-1.7820003207903248	-4.758315939597749	14	2.345229089783494	0.8339069002156555	-1.2772181650682475
Si	3.6048255638841633	4.952782665896743	-0.37070481797086846	14	-0.5747711085401671	0.419404613364791	0.02490089791510213
Si	-3.6311503876590097	0.5847145091048114	-0.08161693326902895	14	-0.641340110605185	-0.34889333551239	0.5274738264023191
Si	-2.622739559780875	0.8475136663379971	-4.10369668692725	14	1.5877081859662456	-0.47886630899332355	-0.2742168670413491
Si	-0.28129639084462077	1.6950475041412192	1.6081774966651434	14	-0.2420721369972618	-0.13236898652877957	0.38289928869773254
Si	4.863549412021134	1.7437053248884666	-0.3829956102293534	14	0.9687989123950965	-0.08784926946828754	-0.04119347810781648
Si	-3.563933757248587	2.087936687235462	4.626689697411389	14	-1.0314264100043273	0.7458534849849484	0.4254845061153451
Si	-4.863388040299333	1.305308254590289	-3.6889278340001397	14	-0.9397608489093442	1.3468858632651077	0.08321125258127242
Si	3.8159666603318816	2.5508739374640945	-4.403579490492723	14	-0.5298387290757913	-1.7199619869766825	2.6213771140308064
Si	-0.2273525845523275	4.454679120188275	1.997650270543889	14	0.032297967921168146	-0.20067348468489749	-0.0497364897550725
Si	1.185804001348162	-4.211060903072049	0.3370768621284645	14	-0.12107052130992087	-0.6468831565648923	0.16690510163113664
Si	-0.3665240163889462	5.175143343633885	-1.9935682029759636	14	-0.8493371316839924	-2.143831838950975	1.0523829752477905
Si	-3.1974511454461556	2.0913488498267006	-2.015578456504763	14	-0.9753102366183717	1.070989036007574	-1.1846576022113207
Si	-0.8718043570932994	-3.0877215595896965	0.9131155178743453	14	-0.539904092183107	0.4080174450123871	0.007981225134803668
Si	-0.5886203417660333	2.6972763087558866	5.202191155188642	14	-0.13836043325632066	-0.05050345047207267	0.5022484549958143
Si	-3.760792394660856	-3.0373841989484416	-5.2373478957638975	14	-0.11345387890951421	0.3248226475051637	-0.029783941139127364
Si	0.4614562400186834	-3.4040356140651253	-2.2468485519350216	14	0.5774067486038509	2.444983091105131	0.2516358774566166
Si	-1.9471695863339298	5.265312978158366	0.42805760188620706	14	1.5245050178758335	-0.33760489760427986	-0.1214006512330279
Si	3.8771000014928334	4.941461165625128	2.644251896615433	14	-0.42605323461216194	0.6857279299627536	-1.1172195665480926
Si	3.2068478632728685	-0.17290130666121278	-1.154977755859921	14	-0.0482017969894761	-0.35632948631932226	0.5777502482746226
Si	-4.263251915201885	4.6406504746593	-4.4146016037541544	14	2.2895338063384463	-0.24083646378039864	0.7839631793717792
Si	3.5678937343690977	5.123380178898034	-3.8980719553905714	14	-1.0172508779322231	-0.9564761188166909	2.035486746312595
Si	3.1928276332853454	0.1054808382864104	-3.552408419012593	14	-0.029872901383204486	0.3664421577645287	2.3124294992143652
Si	-1.6327282931562435	-2.9649495289811005	-3.6898079468775937	14	-0.14645941501478713	-0.11253676564181739	0.05136528497538631
Si	0.6523653568456059	-0.7166528781741278	-1.21589239587159	14	0.01763084051185142	-0.39202928368957835	-0.015768588928468167
Si	1.0892888485262853	-3.2089871002427954	2.8078998090186387	14	-0.24522456923029534	-0.2535678059941759	0.40572504750894317
H	-5.698146970678668	4.805380214592211	-4.92348202017316	1	0.2505614125433267	0.6893056230157395	-0.5521582372494648
H	1.581405715687151	-4.482031627033537	-3.4600464647149614	1	-1.3836994634600521	-2.296876111801193	0.9061629301383091
H	-1.926187015875547	1.0929791650064178	-0.7816655105946896	1	0.449547480806611	-0.6963566222457137	0.24264755036791094
H	2.6000689561799692	-2.6844854764910315	2.9123519025785676	1	0.015635405672884496	-0.11267380555538128	0.01027876484888799
H	3.3178875327128963	5.571266331100535	5.202612632646241	1	-0.4846623517165334	1.1092421980712692	-0.25279441751387527
H	3.207996575134636	-2.822222610984538	-0.552830854176348	1	0.005242483747781933	0.17695169566961527	-0.4796114153151025
H	3.18370269941114	0.2866673088748251	-5.112780604750266	1	0.26373369931950935	2.02595617311187	2.8714423032473446
H	-0.6871972306651303	2.1626496711171774	-0.03514293904641696	1	0.23226182753770475	0.05880272133497865	0.6218827568739005
