72
config_type=liquid dft_energy=-6931.4985007197865 dft_virial="4.220671378512817 -13.738667298269943 7.657128646255577 -13.738667298269945 -16.93520518052597 10.363085098486504 7.657128646255577 10.363085098486504 -11.770373434251946" pbc="T T T" Lattice="10.914011036500002 0.0 0.0 0.0 10.914011036500002 0.0 0.0 0.0 10.914011036500002" Properties=species:S:1:pos:R:3:Z:I:1:dft_force:R:3
Si	-2.0240906588072174	-5.356542046659018	0.6968923467136345	14	1.59479492356017	0.17395661508217478	3.1083241499348233
Si	-5.207707678154268	2.70692575930584	-1.1699710691017637	14	0.15112982782883613	0.7254826175334151	-0.9426703116896236
Si	-3.15330881069869	-3.9709974315643066	-4.1621126788244585	14	0.7559815830620756	0.37987566884123836	0.3052999876987473
Si	2.943268668301247	-2.402544905508891	-4.124022780307073	14	-3.770820343556315	0.2496080466906158	-1.4504224747337469
Si	-4.049054438497355	-0.7040301099315055	1.4554706838055673	14	0.7158792820521299	-0.380304014987575	1.1628348315855
Si	1.6534945000518233	-1.0120453294036087	-2.1252635411155723	14	-0.38760415432307144	-0.708709497756365	-0.5161946444733615
Si	0.133216418711519	2.77063084172589	-3.2627872554058213	14	-0.05299845107474436	0.1668691061566546	3.255017535533744
Si	-5.336372954263567	4.863523426107204	3.113712778658268	14	1.3424684472145616	-0.43811146145312435	-1.3809486378780256
Si	-0.12894904039624752	-4.502116864644543	2.2721224736227166	14	-3.1363684812143386	1.479491648593873	1.1064294088510271
Si	3.3174773647097227	-0.6853125810039081	5.0472280598735715	14	-0.3865811115161846	0.3044029290525477	-0.23265777775700758
Si	0.5238507017299271	2.716137184620646	5.558036518414881	14	-0.7525738400707515	-0.8728048954936439	-3.04617744902046
Si	1.9279600495977254	-0.8002916872734357	3.0296094096109987	14	0.27000333964269047	-0.6918605303723707	0.0021633280163725938
Si	4.937946067365097	3.8994779172421223	-3.1161684311414803	14	0.5551929128588354	-0.6709654145460593	-1.2850266119255374
Si	0.5964070471005791	5.205350251770383	-1.6330634713914953	14	-0.17825730295118647	-0.14803987345508215	-0.9416539537565691
Si	3.721863301634121	2.09726910280695	-4.4041963576250645	14	0.4147308581138259	-0.5308383748242649	0.5504014009842075
Si	3.038526156627819	-4.520736167472812	-2.6257146031832432	14	-2.7469702095988677	0.19167667294863533	-0.6576478603192882
Si	-6.000348643691117	-2.589109010166822	-3.4378043363871353	14	3.52803446772218	-0.2669308687851135	1.9124405876746724
Si	-3.0148209246565414	3.8425395216647016	4.571388092693208	14	-0.06520323091895529	0.278173541018525	0.06565420279210926
Si	-4.9559105295311765	2.2291867542051254	3.2393003036552734	14	1.159815839718582	0.5909546738673072	-1.694810149182334
Si	-5.839825369366275	-0.022526518779336	3.5220277595558063	14	0.2512340136950774	-1.3208477654669044	0.34414090443862827
Si	-1.1605413635662276	3.321122644395914	1.8770789301455624	14	-0.5324319459016926	-0.17431554138486746	-1.4547031079812616
Si	-0.08653719350840852	-2.96992068325238	0.285619668825205	14	0.34300653277137894	-0.30566791287006045	0.16257870270892347
Si	-3.007519451273123	1.3246990035662243	2.700290040595648	14	1.9414660527443557	-0.14184273830192923	-0.9991286991936914
Si	-1.7322390896801707	4.382957692148036	-1.709439720624922	14	3.130071587174764	-3.038189281901292	2.4867465832624243
Si	0.5447728608868976	0.8462505877481371	3.9935785203988248	14	-0.12331818158079433	0.45017971560483544	0.24613268362937163
Si	-0.5661643225184375	-4.180622841542362	-3.7211429769057123	14	-0.5566892961551617	-0.5066445308722034	0.5865861088178436
Si	1.9450077348367383	-4.024759849930105	-0.4888931243800176	14	-1.4079956374038554	1.9719796735733413	-1.2617784205102263
Si	-3.3477310033029006	-5.200526258892251	-1.8637310946479229	14	-4.178501745103358	2.001608577061664	-1.5426647347520395
Si	-4.852718555181069	4.778808872441891	0.45477592587991855	14	-0.669433035775251	0.5637858039493024	0.4045510808197635
Si	5.217235609789132	-3.474529983524958	-5.576011894591997	14	-0.32527387648884964	0.21665907490238617	-1.5732894273308553
Si	-5.268029417153003	-3.636995951814297	-0.17693794692373804	14	-0.503874679110808	-0.39383677072964246	0.5583106351700471
Si	0.8702395840063641	1.2128849604972816	-1.1224187230157332	14	-0.18657405733026947	1.1032072996638176	-0.18224071642369188
Si	-3.2508473273318907	-0.9046296327823756	3.951843342195249	14	-0.44670049588561106	1.398543482915395	-0.31810434930361675
Si	5.3114453530562	0.30080105817697655	-0.9811477641592772	14	-1.849393228566661	-0.45500156652224116	-0.6843364477634893
Si	-2.120450462248476	4.036525153827453	-3.8146323954443715	14	-0.014294317137895259	-0.6935083517720536	-2.7844453551926858
Si	2.267003802446598	3.827205336158419	-4.607404329113658	14	0.2607190783316357	2.2397011572444	0.5144640334823698
Si	1.4827120553526711	3.09175378845283	0.5239925838734015	14	-0.7376763416247495	0.31342519473147923	-0.22092171041265965
Si	-1.3029692075925527	0.35529471528222106	-0.6858691955667695	14	0.02856626565950523	1.7444407093982164	1.919045500131601
Si	5.159533233439157	-4.838224748524596	-2.2677459551970798	14	1.9218312927459809	0.48909750839378885	0.5460922284676394
Si	-3.2009048128288664	6.099775284233632	2.861489983604753	14	-0.11847190516284722	0.054912124764530584	-0.041848595743390206
Si	4.315116199545152	2.8522239882347646	4.386897650132212	14	-2.808051701579094	1.4169600532130837	1.4085054875888408
Si	-1.639480909880957	-3.9156415675871785	-1.2501890502200386	14	1.3364266068227455	1.2954992381155643	-0.07841999781717648
Si	-4.805897447834484	-5.59673760155031	-5.358244632380712	14	0.41766783172103095	-1.219760131815706	0.822992815242159
Si	-3.8038820945734186	2.2597678131293986	-3.422983109399569	14	-0.22473260271818316	0.33390764815390694	0.08437673462289555
Si	-2.9808019522557707	-1.1085251869662687	-3.5698202138846393	14	0.02853309840087532	-0.5861834737247084	-0.41349055690738634
Si	3.6632004923129333	5.6336706148978255	4.0497856772368	14	-1.024943110829042	0.24027184905209412	0.7103678606878606
Si	-2.7287319533567667	2.267636815086715	-0.05080472137490751	14	0.21486032962041055	0.4554270844527257	-0.11705548324197763
Si	4.618733072569545	1.0652729612286191	1.4743410088876758	14	-0.5880976616355585	0.3785078408109196	-0.003598776116611266
Si	1.0576658955361786	-3.608390328887631	-5.3889675734484594	14	1.228836647816893	-1.9871468809674266	-1.8466112926102607
Si	-1.2056707992021551	-0.21343439982979404	5.651580507008722	14	0.8677642435134935	-1.158826478391389	0.08262272657349054
Si	3.521820393346112	-2.7007375150481443	1.6366650950335404	14	-0.37034303875625735	-0.13216612631901992	-0.06205799778081814
Si	-1.6536472962063344	-1.5251457302625833	1.183406216687695	14	-0.2581587716538322	1.3851976465301024	0.11042974483195604
Si	-0.17122991915164854	-2.1289415628348727	3.571959360047794	14	-0.32724231472195503	-0.06237604350892045	0.046622109880777134
Si	1.9394634172301963	-4.91679471397636	2.25093837820087	14	4.0869966209803525	-0.33277841869729785	0.07262986863620301
Si	-5.125677971203934	0.18121623925004604	-3.6351733119712013	14	0.9233857362358531	-0.4108885983233965	1.1759189294492014
Si	-1.5386027058705876	-1.5433939567156114	-1.6402558046645488	14	-0.4728049282010745	-1.9407998793559056	-1.5394577950862187
Si	-5.071970122893317	-2.7172067577022228	2.644694068375717	14	-0.24825410262902584	-0.050831266400391546	-0.07863828465885705
Si	2.501371275444399	2.261546796928348	2.693436041664726	14	1.275544118394299	-0.4476512906330018	0.46853586492750066
Si	2.7365791272920106	0.9707030555973467	-2.54121832973866	14	0.8413571921018487	0.1567865166436939	0.11884240143948055
Si	-2.959770652988435	-3.026400690366268	4.550967978043917	14	0.18194863885932308	-1.5912285433705924	0.08678663163947034
Si	-3.0442669264330187	1.104803509202822	5.26800758913093	14	-0.594615413622134	0.9916215858799229	0.21510638439954874
Si	3.442519189154903	-1.6427005431367248	-0.6132691941519716	14	0.6808168616907386	-0.17379129301008925	-0.012007833176687573
Si	3.4651330200225314	5.542713246919635	0.18548361756531753	14	2.057258351942545	-1.6166524041078127	1.3894865073146414
Si	0.36906819721028405	-1.9483692502359804	-4.238074195638498	14	-1.3099169683088265	3.0559041975571124	2.2304153532701534
H	-4.543993924991593	-0.5796453089507224	-0.09244167347915501	1	0.2543152263107429	-0.11306229956925566	-0.8128194657113972
H	-6.300643291756	-0.059742205012697364	-4.69397535605628	1	0.062351875118911056	-0.13559160993705321	-0.20295791176184905
H	-4.7121319048166015	1.9377531917007766	0.08528753924472926	1	1.450439701139392	-1.0635531423111737	1.096064769084446
H	-6.0177564912943335	2.9649493512252545	0.13008300614293986	1	-0.7000111913477721	0.2470153440857785	0.2713341437563991
H	0.4370242869290513	-5.177416931923566	1.01971242215675	1	0.37033095456125265	-0.7372767918579984	-0.9874592234771352
H	-3.0980337104032323	-5.840730140881201	-0.1957624331594932	1	-1.7704767503121641	-1.011122391291118	-0.44714966798504097
H	-0.29867719162927364	3.9001098384811357	2.9366274925855373	1	0.388359802176663	0.29715369760239013	0.8967989645623298
H	1.4044029347646803	1.9043006564728007	1.6692161329499016	1	-1.2064654604262846	-0.832178603219452	-0.7116562415637868
