72
config_type=liquid dft_energy=-6932.14635072421 dft_virial="7.160579072312892 -5.4381727376992055 -6.970792095733839 -5.4381727376992055 -5.352231465286049 -2.081688598452023 -6.970792095733838 -2.081688598452023 3.869744516159092" pbc="T T T" Lattice="10.914011036500002 0.0 0.0 0.0 10.914011036500002 0.0 0.0 0.0 10.914011036500002" Properties=species:S:1:pos:R:3:Z:I:1:dft_force:R:3
Si	-0.6198939988511271	1.1724267215849762	-5.18294378711245	14	-0.7843251910008561	-0.6861179666398199	-0.8877193632347588
Si	4.036699778004037	0.7943762932916526	0.3827434530390186	14	0.4207634425264893	1.2412093208385095	-0.8692117758087369
Si	4.290199512348822	3.689339548745351	3.6135526561078954	14	0.36292437146550205	0.4732065348520817	-0.975857367830499
Si	-1.3692499966172171	3.2850518379202813	1.9195344330775475	14	-1.2911198744237562	-0.4026970567734048	-0.27410348129673057
Si	3.2843096851698	-1.1052728116773916	2.942111783131378	14	-0.07036163952276837	-0.5760492049948127	-0.2872320592824707
Si	4.57609203144994	-3.308200455328698	-5.930979189543123	14	1.5582595169608655	-2.352828762888788	-0.8731645931279326
Si	-5.008385094594669	2.393562674425852	-1.3935554991955026	14	0.3072062051831051	-0.054789483040759514	-0.18297528121365816
Si	3.8184195572740367	-3.65731784036426	-0.5060172076962861	14	-0.14581895267953823	0.45317042531323165	0.3821503257179734
Si	4.366772213780906	0.11440066368459302	-5.088221085326666	14	-0.09271971427624405	0.9376605129733152	0.7065361424292439
Si	-2.8553999654463857	5.255336422317554	-1.884685995838003	14	1.61598211695085	-0.9435372884035776	-0.5660051820616542
Si	3.9847272574482235	2.9789574843906026	-3.1726375242443314	14	0.7588915600634192	0.6120400514873096	1.1363516754563785
Si	3.169919935496243	-1.7116880068984412	5.184613630801034	14	-0.9974289414665414	0.7905449518808263	-0.22729085251173048
Si	-1.5345317797539733	-1.753947057631769	-3.3893461273850756	14	3.6281756775050313	-0.8667975079131178	0.0664101077562328
Si	4.911632386756096	-1.3881203216993256	0.6087398795718241	14	0.006335460619376882	-1.4149728459111413	0.21999431272368225
Si	2.133132543072889	2.6247978262561773	2.1452580093344404	14	0.4849310322224889	-0.49585797272258625	1.0936024215193405
Si	-3.3076329267548004	1.5053368002313356	-3.229303069545839	14	-0.17184676605646126	0.6045938733696287	0.18024322470046886
Si	1.3400550170945797	-1.6974997925509914	-4.4450365869236474	14	-0.8953802286466721	-0.512869176852282	0.8875090468195708
Si	-0.7740325767196166	-2.8528570008748817	-5.4776766551531315	14	0.5972004029110108	-0.1355653846627877	0.15602881190584625
Si	-5.065127037973432	5.171112999148883	1.2912475597393518	14	0.14761409841406561	-0.8051357174621345	0.39840151111503336
Si	2.961615120853604	4.793171710965924	-1.6480047525004637	14	-1.1881170244195798	1.2664863714619494	-2.0572462677475403
Si	-2.2176943005836907	-0.9206841430170671	5.2156312501667665	14	1.0100291573089912	1.0410284599329527	-1.1817676798314742
Si	4.190325397353811	0.6806959543354686	-2.2557951131121126	14	1.0319791976481594	-0.19786712322795585	0.7404755039867946
Si	1.9449531647815559	1.8582304330855268	5.5690487555507096	14	0.5254637362630273	-0.6553901727376662	0.6058915102247073
Si	-4.256344250113599	4.032279603534254	-3.4057389719618985	14	-0.4988085731879881	-0.5355679230606772	-0.22811334910364586
Si	2.0383989272760688	-5.532050258136975	-4.184049841007823	14	-0.2798529870136457	1.0885118900959794	1.043449669812936
Si	-4.077452695214327	1.1641539012193092	3.880367483917211	14	0.22139170846518275	-0.02414730694576673	-0.8150702113086548
Si	3.84809475328228	1.080116016238259	3.6497871727490754	14	0.12107052130992087	0.31314134470413496	0.044803052866772365
Si	-4.60905234478017	-4.0465660439810325	-4.505925854496281	14	-0.792955877339529	-0.47728533633196457	1.1138976984744613
Si	-3.591560923869347	-2.4018027527584094	0.793819678728791	14	-0.8005455231340741	0.7374349148351874	4.176852123929952
Si	-3.1623565258479487	4.655600601850842	3.228069786298715	14	0.10796791148791424	-0.19833789261207496	-0.20578612761401197
Si	0.6990314928767886	-1.9638016618415914	-1.4531678274768656	14	-0.2054531694750528	-0.7280760914698484	-0.9736439032603836
Si	-3.5519648918289257	-1.3227344815796542	-2.9435306045661234	14	-3.071792857104031	0.1287373002640704	0.6973866070369649
Si	-4.431983429723994	-0.6172637221913306	-0.9060811962502301	14	0.6171269833632225	1.2035261728242914	-0.5759900695724494
Si	-2.463717937368474	0.519528753359473	0.06236265906256101	14	0.0351827480903743	0.5926397762941322	0.8146783748578642
Si	3.6110315195584635	-3.746059664102041	2.1750969155082314	14	0.7841925219663364	1.7690940098709884	0.07902343623581523
Si	-4.51144834408075	-4.60643298213141	-0.7557625222445157	14	-2.5877681395068945	-3.018744783696608	-0.404490145623676
Si	-0.4904210859251276	-0.9408204933794097	0.3586671446924996	14	0.8613781321193097	1.9031247017681796	-0.7528564045454357
Si	-5.314217511859471	-3.068878021320326	-2.2700706395478543	14	-0.00488561432934538	0.9831981306300539	-1.4302529248287812
Si	3.7962095448147593	3.753022803143329	0.06047453515324651	14	1.9591807112896438	-1.536752735178891	0.9814495219018213
Si	-4.289119025256209	-0.2874641366903736	-4.899812512803566	14	-0.11933245411350078	0.814345159608373	0.03958113796155162
Si	3.349029770616245	-1.9066559000544772	-2.3342995944976566	14	-0.2631955669760024	-0.07632866074976803	0.22586800282756053
Si	0.37580214201980455	-4.832287526520741	-1.3544069416075772	14	0.13278396292745148	-0.007559563862299381	0.1802080005575828
Si	-0.03754419796556	0.3861377104713701	-3.1428750161477956	14	-0.484273857702659	-0.9091271574619079	1.2221977967697386
Si	-0.11844976177913452	2.690216408408958	-2.5942931654091597	14	-0.5188516247112025	-0.3371061031721711	1.6641281209548788
Si	-2.3296611398071443	2.9437270567647804	-1.1322522469596197	14	0.45084357499849764	-0.7581667654736695	-0.01939230476668487
Si	1.7399552954829764	0.4914360889515221	0.9341192906029986	14	-1.0123948313140594	0.29695443694007867	0.08465981331864386
Si	-0.4285495573592091	4.844271110638817	-3.324200395508207	14	-0.3878684639499827	0.6839734076922844	1.1676726233558905
Si	0.11949750683863852	-6.180222459583674	-5.490773468396932	14	-0.4457805544020621	-0.15156331618581306	-1.5043724918874781
Si	0.03514311553753001	4.624823090727912	0.7919861248746591	14	1.0764019840380816	0.597706653548548	-1.0934658958268406
Si	1.3683223056791147	-4.148655703216454	4.863425200007875	14	-0.24948540496684476	0.1462616970156677	-0.594788706120712
Si	1.2999241985133692	-4.564610491839542	1.9719326000637838	14	-0.8796473780821541	0.6043820142912484	0.7178510627221516
Si	-5.34814917217195	2.5263752747290202	1.8943558096163418	14	0.32534252500089766	-0.2703010736387636	0.13166476078159106
Si	0.5680197043946426	2.150616788753362	3.771565707894342	14	-0.23621541618849648	-0.1933409494223672	-0.32205536684908825
Si	3.1635788950840364	4.955615851233191	1.8940283892852467	14	0.30935487789915284	-0.6420955013482446	0.49328069674966973
Si	-1.9728166349577403	-3.512761764185817	-1.0735566956053226	14	1.2430772288535972	0.29921495273755283	-1.4634888319707395
Si	2.284444392082925	0.34980496773086156	-3.400249224410539	14	-0.6785095517764378	0.13779967518599637	-0.9988965283832821
Si	-4.7483151256059095	-3.7957511563512263	2.506337150466006	14	-0.8322094564832938	0.5950015936412202	-0.4452732753223969
Si	-3.0856965123275724	-0.6172200661471846	2.4071178761331846	14	0.13375738340165957	0.8230856321442164	0.33730150717650237
Si	-1.5094622964031328	2.924594795417796	-6.611511433713044	14	-1.5849118518200525	1.332841457564331	-0.15326513079721907
Si	-3.533356503011693	-3.903985403800197	4.391514276800652	14	0.44624746712820096	-0.5173624405097728	0.4163804792872329
Si	-0.38748013382885954	-2.901544404108708	1.3903904359949177	14	1.6010558221252624	-0.08233861943561417	0.5446230988877068
Si	3.2738977186409786	3.8102886190518443	-5.2342832950281455	14	-0.7614310407881295	0.9135710558972517	0.6475411024163182
Si	-1.7960751402326591	-3.0867006013429306	3.0926596513688596	14	-0.2554205444878746	-0.08705454081382978	1.4507106956401354
Si	1.5905643124153643	2.9318744407791413	-0.04980063235954951	14	-1.5494305984020091	-0.28823067658881624	-1.9613597230484696
H	-1.151132394651661	-3.731024522498159	0.37464853105324647	1	-0.2988367431449591	-0.9300310150463077	-0.09729705307770369
H	4.0905647880735785	2.7714101021138964	-5.928489703625697	1	1.5049512476950435	-2.01022563654214	-0.4028076143021711
H	-5.448940064094027	-5.597487394108518	-1.4343247874223484	1	-0.6059377901204701	-0.6261772740901437	-0.5976768287268344
H	-1.604962075774715	2.679085208552832	-4.988455019040916	1	-0.01911642516583298	-0.3936218263248781	0.3608188933188329
H	-2.9087487427939016	-1.5789790897001197	-0.21704912028508283	1	0.8234905812321397	0.9287279788700568	-1.5348146359885635
H	-3.8943472406538633	-3.4699690183128045	-0.17182364135203415	1	0.7567809397061097	0.9526968511066051	0.09906905886434973
H	-1.2410332863615188	-4.614731996123564	3.164076573987301	1	-0.2803674651882073	-0.11048990869644751	-0.07419104378659692
H	3.3633871521347602	-0.6860601907599083	1.3918780156991926	1	-0.6249369728837043	-0.2554033180822296	-0.2767692032926601
