72
config_type=liquid dft_energy=-6935.618758055474 dft_virial="32.92266910694019 -2.8778389970572404 15.027786384467298 -2.8778389970572404 11.150880095607107 -1.4741315476423442 15.027786384467298 -1.4741315476423442 11.11984574723569" pbc="T T T" Lattice="10.914011036500002 0.0 0.0 0.0 10.914011036500002 0.0 0.0 0.0 10.914011036500002" Properties=species:S:1:pos:R:3:Z:I:1:dft_force:R:3
Si	-1.5404799157688656	-4.984843572788938	1.2396352015477432	14	-2.2550431998002556	0.2237959490500532	-0.37504327639202006
Si	-4.782235871907352	2.300837236659748	-1.0817312898716611	14	-1.5340389335134748	-1.2359861203806286	-0.16935973588028203
Si	-3.351703703320187	-3.9345882907465426	-4.244447978083814	14	2.1156646088371565	2.3090294695390012	0.7006735080782422
Si	1.880145767246819	-2.733861538543922	-4.413964397502732	14	1.560087315732959	0.6050199055211771	0.25012946684954185
Si	-3.287267382160691	-0.7761608088717341	1.5035905584654958	14	-0.22271042838388666	-1.110854795328066	0.24518857375581327
Si	1.3561422693623808	-0.9872268683066076	-2.444181857613139	14	0.14701323110074702	0.11012069797247426	-0.43773736562904286
Si	-0.11712916644371801	2.8593617514526355	-3.149859983211156	14	0.1253400988045588	0.6055508387697878	-0.3047921943980181
Si	-5.076935997914925	4.621843565714948	3.2227983189680853	14	-0.3321235581722562	-0.22872912882782134	-0.1904273728735754
Si	0.23699774965759754	-4.0541512816514	2.064166907333245	14	1.7565125630973757	0.8613591059399406	0.3682301044041597
Si	3.5142678977088546	-0.9240893144604551	4.8362493125269905	14	0.23230527921761526	-0.9476507998052824	0.2658584607560797
Si	0.438044746960964	2.186938617482834	5.446724519853618	14	-0.19732179178955248	0.07761061386239386	-0.10826024616281509
Si	2.5278377522079114	-1.2164756701282902	2.79598408936368	14	-0.9797690474645725	0.6301984828108553	-0.15960059141659597
Si	5.129159540724578	4.112453928608383	-3.65557159859842	14	1.1144196328544513	1.2547976124554923	-0.677838750398411
Si	-0.08587143883518202	5.174201664272213	-2.2386492017737707	14	2.81569636902749	-0.0512297877250145	-2.295623212178685
Si	3.6616725307678237	0.6032173899873551	-4.389320560582315	14	1.0860477427571493	0.9947218246749575	0.45991314901532
Si	2.415161502267085	-4.151558830152163	-2.54274629128377	14	-0.9326334878513617	-0.9460266325745451	-0.1829943073930273
Si	-5.0631188599427155	-3.2087192447310002	-1.7751202390425793	14	-3.8525758363053195	3.510786979013563	-0.3146901785489921
Si	-1.9440254738434533	2.9174461181888884	4.050615142075574	14	0.27690804297994814	0.30492563476413376	-0.06317077216337823
Si	-4.98430878624815	2.486877468787927	2.185476140003943	14	0.26523831015286004	0.970005017900778	0.020086503203124852
Si	-5.460705367991374	-0.8074731065354526	3.1804519561464657	14	-1.34845063796295	0.04264512417157208	-0.19835151947027177
Si	-1.2257634935203516	3.710130739769884	1.7173196365932752	14	0.7722011438636978	-1.1502248455428337	0.3690382028062822
Si	-0.1853963054770255	-2.2073696461431616	0.426672347460931	14	1.1194255749127795	-1.4244059742202326	0.8714200981682121
Si	-2.890586737028062	1.4412278994029348	2.3940210628893848	14	-0.8337832300497566	0.2811583371846849	-0.0058142975709828655
Si	-1.7349675924392958	4.941176614631901	-0.9236745820410681	14	-2.6190219815575504	-0.49463181259540756	1.6929494402621432
Si	-0.39948554596900954	1.393784693427269	2.771165628266679	14	1.5271044053545033	1.6465641291813515	1.4797629002051487
Si	-1.1988058862601967	-4.165092203837423	-3.6190205756371814	14	0.7298038742449879	-0.44117827587899694	1.455790942642216
Si	2.0574547905457976	-2.572748907623109	-0.8619449356186242	14	-1.0322239668746376	-0.10695566732337196	0.6336131677865441
Si	-3.9266319767009343	-4.791327243100756	-1.2139763616009316	14	3.8483286274269672	-3.143757580793912	2.1335597589759194
Si	-5.2658247869236305	4.435104836880432	-0.37356476975732206	14	-0.5000964398428503	-0.046582257748314836	1.3218425261152695
Si	3.796253200858905	-4.064454108069856	-4.883550636359181	14	-2.0270627768416616	0.4813805928858964	-0.8093140207179074
Si	-3.517247422721819	-3.4657769466736847	1.2708929291562792	14	0.5630039308214454	0.17507478878590715	-0.5366896963118578
Si	1.0006074458373566	1.6190935372647755	-1.3771735686297162	14	-1.9986353508694443	1.4081838423132902	1.1591193272873537
Si	-3.6097654942782293	-1.6631206577860163	4.1254852577859635	14	1.5548638581645462	0.27921252467839686	0.06366930948495494
Si	4.886846667692204	0.42207754881456455	-0.506213659894943	14	-1.1552724395073481	0.37565468523715123	0.30671101029844455
Si	-2.136974274957737	3.401689873867357	-4.581723661144774	14	-0.20529427516626758	-0.15733313363475737	1.2653409440418235
Si	3.279736714545506	3.045150961326975	-4.090593164502274	14	-2.1193515738662487	-1.7249396468764893	-1.3280496885791708
Si	1.3770753425303879	3.253455775969614	0.6314082804946346	14	0.0032133674291210694	-0.12224705910442063	-0.35384656991165525
Si	-1.0752592813270165	0.9529787016740707	-0.23914780983178804	14	1.1338188796055007	-1.3219607969599962	-1.898179952016471
Si	4.541243594210395	-5.214889097416285	-2.116925236683686	14	-1.0908271704367727	0.6948419841016144	-0.17900960836786178
Si	-2.99025348581338	5.354446556540011	3.8420811332011686	14	0.6861591043249423	-0.6454687915282789	0.19619307655400745
Si	2.7633184543314355	3.0398358379521992	4.232933696440307	14	-0.37925860356440283	0.3267738593326241	1.1300797211384093
Si	-1.4606002689927222	-2.571471968331838	-1.5006546894966772	14	-0.7791405571227774	-0.54245539999229	-1.2041229263690976
Si	-5.104144627428919	-4.8572696977832885	-4.931550456897709	14	-0.27067079858380083	-2.619651645250455	-1.1119539428524294
Si	-4.14037196883975	2.650129245871894	-3.1937670496109956	14	1.645825193512341	-0.3585439793315658	-1.1901595104859055
Si	-3.6822126995385167	-1.8809424900524832	-2.911257873931193	14	0.772551842629366	1.3835012312398687	-1.1161908673095013
Si	3.618791381405415	5.349120519154199	3.874266551747807	14	-1.4707272647785523	0.547021683040873	-0.9291570963479895
Si	-2.7638314128501507	2.412662193739727	-0.16224768806860904	14	0.9722202822446175	0.6386116536394438	0.45465163908816897
Si	4.307705586051369	0.8844168843427775	1.956576586535428	14	-0.19885262789716862	-0.14401557940798637	-1.0527969232043342
Si	-0.11631061561598051	-3.1334343966012237	-5.415303082079534	14	1.1048306955629592	0.21562420501102655	0.6352553327545226
Si	-0.4622520234399211	-0.0384718889036625	4.91414260929449	14	-0.9460909102075488	2.469009813211383	-4.431429860093882
Si	4.085234385083353	-2.565196411985851	1.6299748062681658	14	-0.37059269308284376	0.5857103903458012	-0.26758110132057894
Si	-0.9105450267641587	-0.3712291713955111	1.6425040909380677	14	-0.8381199133932502	-2.011349209567044	0.02285815473824448
Si	0.37755929779668107	-2.1102349479183116	3.345766481316331	14	-0.22549313567188295	0.76893969676509	0.004914153598399023
Si	2.5769071458280153	-4.470968277146372	1.56441434197191	14	-0.5304737920898679	0.4981974214533889	0.7499202022698265
Si	-4.825433527589819	0.42418395294460903	-3.6339400287240773	14	0.10343042481891693	-0.7283344875545233	-0.6262276677544186
Si	-1.6801574290139927	-0.28462649382088356	-2.461284112907334	14	-0.30976934007676077	-0.3327128555116341	0.08307395555717652
Si	-5.343892707867715	-3.896673016405742	2.76717110022732	14	0.567166550334765	-0.9968905520125024	-1.1355376635120196
Si	2.124859722707222	1.7218052951292768	2.3973498362555175	14	-0.5487800619693222	-0.21710696144915592	-0.2680732108788553
Si	2.8980410065659914	0.8605588562169887	-2.170425718784609	14	1.960497631434624	-0.6159926116959731	-0.008575921795353917
Si	-2.0138860584880898	-3.4866117937423637	4.487503003866669	14	-2.655194090975118	-0.22847098985367845	-0.9563413928979151
Si	-3.0643050506960328	0.4511197321826911	5.320940542657955	14	0.30054987061977373	-0.3119182699033405	-0.21079386944606437
Si	4.1581836348513175	-1.7440153075885543	-0.6264533194840636	14	1.519182572752595	-0.964570729696113	0.3766306768166795
Si	3.4966745119180165	4.986666212632033	0.05300935160428051	14	-0.7185349767373109	-0.01365796857115861	0.0048372775493265956
Si	-0.20130893356824253	-1.0191503505883701	-4.244120557752719	14	0.26101475544345276	-2.0602470047666848	4.489646112305335
H	4.5533537808564954	6.318495339608403	0.3477116604140608	1	-0.22152386327863832	-0.36291151593890136	-0.03820713927846448
H	0.9911067992300834	3.5540330969203424	5.773894920095882	1	-0.07287309519948902	0.9030354376268811	-0.06292343183157999
H	-0.45583895055487367	-1.0249467818498552	-0.6217515635295393	1	0.13525813757703	0.18553713055465373	-0.6821587215573239
H	0.3160479315949671	-3.477070765294255	-0.4140819443292246	1	0.057889978946326096	-0.10476508559060578	-0.7758917084402384
H	-1.3015034559103507	2.4936790804658737	0.5039151691706562	1	1.5298991968375042	0.560219680870257	0.5512660637033733
H	-3.9803158141872705	3.464250076529679	-0.10684707664623137	1	0.28586525969428	1.1795202766711326	0.7050063347637558
H	-5.020161312503052	-3.207386643983444	4.023950030311197	1	0.34433759399561964	0.49929245520924	1.170461758407187
H	4.345505171875183	4.635814591242772	4.968462733624255	1	0.7786559037699294	-0.6898751228441524	1.019225743928629
