145
config_type=liquid dft_energy=-13866.573975907044 dft_virial="22.314795447576838 -3.8272752576790627 8.549776786593442 -3.827275257679062 6.56661886148632 -11.920901328411455 8.549776786593442 -11.920901328411455 30.620641370073464" pbc="T T T" Lattice="13.849990867899999 0.0 0.0 0.0 13.849990867899999 0.0 0.0 0.0 13.849990867899999" Properties=species:S:1:pos:R:3:Z:I:1:dft_force:R:3
Si	1.14565739460182	-0.3428412889449098	-2.31470880877861	14	-0.2208846864960495	-0.1771936366802412	0.03565300325342938
Si	-5.320399201953098	1.6615113844694498	-4.9064769898759515	14	-0.55947226055369	-0.1716788728790556	-0.17116130937810978
Si	-0.19567544097986478	6.7858168757184725	5.404249816665538	14	-0.5013082017802362	-0.23320130942168688	-0.1716842722002279
Si	3.4069578685956343	-0.7613464630002441	6.122666847971639	14	0.22690852915062446	0.6841528708436309	-0.20411233805059556
Si	5.81587847025496	6.871704824087581	-3.808247504002168	14	0.009597679049580764	0.16479062461584687	-1.6566161225410023
Si	-0.569867569253353	-5.635615299112894	0.06674449099149689	14	1.079894059283907	-2.050603302931873	0.4562986891562559
Si	3.3827051495868545	-0.42780267292495555	-1.2019202125044903	14	1.792370483444821	-0.5570294533890173	1.325736722233166
Si	4.118924959154554	1.2532011886919767	-5.799830485836324	14	0.7007483272430587	-2.0912848739704484	-0.6987336091141906
Si	3.193087694612609	2.1261397981130647	5.458757840725245	14	0.04572145168712926	-1.606344071547743	0.9961351612694429
Si	-0.6171528230754503	5.680733029364165	1.9456467171225917	14	0.11866345250919827	0.012283198556475432	-0.10807769768508459
Si	3.2172268436962717	-5.94599913445888	6.028434280104621	14	0.7891884367139161	-0.7884960380512004	-0.23286192351942733
Si	3.9402420719705153	2.7325533382695455	-2.6438718467423814	14	0.16969038002445305	-1.0311834405515736	-1.3627814647963912
Si	-1.7298721693952306	-3.6693251706016974	2.1368112160767816	14	1.949267043396217	-0.1326312392714347	1.8365559568136935
Si	-6.2510091733481215	-2.562762145222699	-6.594612211790766	14	1.5490194786613174	0.7459874395721281	1.1852438142243142
Si	1.0472933744589075	5.758405163150436	-0.8643654650738578	14	-0.9175482987169887	-0.1356677146545296	0.2690322331632705
Si	-3.9963968599444164	6.125447926137914	-0.03526623174693377	14	-1.5689182911760713	-8.066894878292066	6.393452414093885
Si	5.875322631059987	-6.789259983448233	6.3076833359795685	14	-0.6059588731840954	0.024259921358789214	0.8897685341749169
Si	-1.9293452778710738	-4.216491219823475	-3.1767460903875735	14	-0.5029819913436525	0.1443341393571527	0.5865277447270763
Si	-1.0092045145730957	2.3469058825492173	-4.4666594498730925	14	-0.16104889504343536	-0.8909129331529149	1.1900921475265176
Si	-2.179850062698781	2.255633057730669	-1.5617041952781021	14	-1.5526907599479571	-0.654586445214588	-1.9108989529247111
Si	5.672488129800504	-3.7400432239731947	-2.3626796371486685	14	-1.344737961880656	3.2480619243111475	-2.023764562936976
Si	-1.2451100240269495	2.578713179705259	-6.759123788318769	14	-0.4202474216887355	0.6739982903817059	-0.8238029705285378
Si	5.215186361326008	5.030327763213974	3.9219836290093633	14	0.5779132563519201	1.0140773626355641	2.0043640306332664
Si	-3.2548074089172316	-1.9770017114484308	-0.24846191117469205	14	1.7754994045550734	1.9359723720067952	-0.6171182416051341
Si	4.025027561066539	3.7744396762936248	-0.6250722478537156	14	0.268485359061675	0.43309960585255974	1.2261704115998995
Si	1.4839711215320133	-2.5449967619364435	-0.11296329551676598	14	-0.4410924009613041	-0.6511984997342288	0.6883921092954909
Si	-6.456904522589409	-1.3135802238805867	4.13586626798417	14	0.5419262665174034	-0.25244603274299526	0.22468375171710034
Si	5.782182827472446	5.7074870567236875	-1.8981800284201251	14	0.15439384603276407	-0.4413448835037426	1.237133604685011
Si	-2.879859071142356	4.381224396205365	-3.3263066017736787	14	-0.7468161068168118	-1.0950532962515	0.9400956068220273
Si	-0.8514198786096316	-1.308342157334347	2.838835398191636	14	-0.6410693732149734	-2.585836468079867	0.8286219932300912
Si	5.303227983275075	1.5772314200401047	-0.6370898849297925	14	0.7004968731427481	-0.22047562363961398	-0.21821587917373583
Si	1.1013346538263664	-0.14470608958690598	0.245639283035814	14	0.191809599093687	0.30804258574374926	1.402833372142062
Si	-1.1665598008196547	-0.19380569221269828	-2.050273703135969	14	-1.2681519334883413	0.28144398698575335	0.05210396353386485
Si	0.16775108939200478	6.370270059712522	-5.400873188891944	14	-1.217477761623011	0.6260044958126298	-0.8644688578246598
Si	-2.192150239588563	-4.1235314661172175	-0.24524317329699208	14	-1.0342021753079593	0.6052734165057438	-0.8040160010952101
Si	-0.42858935240625223	3.4677233185294587	-0.8815145237664916	14	0.6945321659105365	1.2340158823737994	0.5935414629299081
Si	4.313970225549929	3.375888184081674	-5.129594802761473	14	2.588816636256451	-0.0770868797086797	3.615412710695816
Si	-6.726231445006593	6.364153903745257	0.9936814448083534	14	2.151342037591127	-3.119613616285061	3.210391117602466
Si	0.8009214269061815	-0.3635345603006392	-5.354463254492698	14	-0.7639579230967711	-0.696447639374047	-2.515329046885447
Si	3.1470420149731884	-0.13487675106795735	-4.010565400602278	14	0.34414553242820456	-0.038003764847640766	-0.5256827944363038
Si	-6.560240689453899	3.575134152707283	3.758825196589154	14	0.6511203381324964	0.5254483096311064	-0.474601359488262
Si	3.361462033593669	-3.259290650961171	-1.4647902691790586	14	0.47948311715962716	-0.4467436904549896	-0.6911444775407095
Si	-6.843954982384656	4.150605428265788	-0.3314842964332318	14	-0.268450134918789	-0.17837994467495752	-0.017556535568099142
Si	-2.7740174409298644	6.534609896353762	4.297643856314849	14	0.10803424600517407	-0.942187715221032	0.5112177559051507
Si	0.3137133731506293	6.535101571029573	-2.898782313665168	14	0.2789469294988255	0.950403682271565	-0.36501519431184654
Si	-0.2436185693681874	-4.469731377847594	-4.685595950515596	14	0.76147449246804	0.2620455115663001	-0.6194368643828436
Si	6.869839230317675	2.1743987062931756	1.7254678722992385	14	-2.9215120082519084	0.2714670699014507	-0.2487179300287805
Si	-4.453161248773237	2.0608509411617844	-2.780932741370207	14	-0.41149975005799566	0.7304150259795871	0.4223660124725376
Si	-2.878878491788909	-0.4724979784547556	-5.648098295882132	14	0.36272948168223484	-0.49563505789132933	-0.03155157604672917
Si	3.041474614579881	-5.280091573530249	3.6132119326004006	14	1.0921386912605802	-0.6347837920388074	-0.04715741400843196
Si	6.432804153480177	4.427987505371743	-4.887145172622537	14	0.32274699418020814	0.6998494688231348	0.27258550071571513
Si	-3.037170037418138	-5.847869179161636	-1.7217546897475544	14	1.5032836287843954	1.5656478452088431	-1.5645990913487549
Si	-4.643630478185859	5.591900572936542	-5.587341155942829	14	-0.08214732919979514	0.9032529531369655	0.03937622086753581
Si	-4.832770108475161	4.404263856014117	1.4254161301407058	14	-0.010728965390445919	-0.7392727409180292	0.5638577948982666
Si	-0.06205349908453915	-3.974957074080907	-1.4339560345098528	14	0.30225039967851963	0.44119781627943017	-1.0251590836759346
Si	1.2069976191566623	0.3772211212762979	4.834542907306253	14	1.8077071266795044	-0.3414949799536639	-2.2356444672702707
Si	5.511788070759348	4.4812698052396405	1.8216699088676718	14	0.2080546138379786	-0.6482630687902158	-2.2354328653024225
Si	2.9984856279250067	3.7337165481447383	-6.677651217038347	14	-3.0904433979858537	-0.11907508647095394	-1.724289928562088
Si	3.395045491450153	-3.3486244770582125	4.940161552665772	14	1.6198243767412794	-0.30825958703276973	1.2325346685988618
Si	2.8514652048640747	-1.4537088914856517	3.779981057639872	14	-0.29190015810173153	1.1727654687740396	-1.2928597413939005
Si	-0.2494771155053091	-2.3755338136731665	-6.217777505259682	14	-0.2015746570996094	0.36223994322927866	0.5215931943140764
Si	4.892768268914904	-1.3101440411462606	-2.7800712719382235	14	0.7080559227839834	-0.45048901957484927	-0.3490064641464765
Si	-3.5935338655752886	0.8632422308144712	5.256981478768071	14	-6.398335971538975	-0.9644066931766877	2.3093788827520094
Si	-3.44786658662215	-1.760365694289086	4.837434785399471	14	-0.3125083385743144	0.38482504658252337	-0.46377597764831047
Si	-5.218265214295943	-3.4444414838805186	3.645104306571914	14	0.6248958351985819	0.05756730522864751	0.02195981053938474
Si	-4.585525611497758	4.172129699073592	5.108164711891572	14	0.4419367519484407	0.18867362193470238	-0.6952561891686903
Si	-4.714966241150064	1.0422353577939505	3.2964266314752715	14	0.9456165412759815	-0.2744436385305862	-1.3621137487447488
Si	3.401377707274957	5.828318532052508	-2.3922452126543745	14	-0.16317905580117806	3.528928183931463	2.292401617212539
Si	-6.88207292725129	1.1003845444528284	3.871791262104094	14	-0.7467425732046555	0.3850973266359271	-0.7295105111279591
Si	2.54592609632368	5.929279425483152	-6.333211639147281	14	-0.11325333269454267	0.5320678773883597	-0.5554567082646827
Si	3.8863919224770345	1.8848604922024654	3.2431110916292902	14	5.17398975916372	1.587138171916769	0.28633371508361094
Si	-3.2389186993935772	-0.8442386583446255	2.069570895412214	14	0.036638250812110126	0.037694975098690985	0.6797182283874393
Si	-5.084050492791471	-4.7780695695423905	-2.000862475715649	14	-0.6442174345689627	0.606526573238784	-0.5504998743179692
Si	2.3429309351701297	-4.562727141530107	-3.492545272162909	14	-1.0806697617589955	0.2875205372993913	0.8637394352453338
Si	1.4838270816269872	-3.44427251399193	3.708814264564254	14	-1.0389083264859584	0.9759995499547031	0.24185076482919704
Si	-0.7720414259484364	-6.058812850074274	3.1228543909214883	14	-0.8556751634086894	-0.2629019467484415	0.778909414754496
Si	2.9428169746305692	5.810596083737943	0.3577729640995928	14	0.7473984621718254	0.48534626573169276	0.973375994086024
Si	5.8689447102653185	-3.6434256876787248	1.8753760184561277	14	1.59809493723858	-0.5673115606748215	-0.4348361303857878
Si	6.363369994262134	-4.055965670667254	4.680773383695393	14	0.05760407203472561	-0.8736621020073813	-0.9930138394107831
Si	-6.366826951982762	-4.650290938794232	0.5267594726770143	14	1.395970834932055	0.855581575175036	0.43190815564720314
Si	-1.1297880750653801	1.816472007294949	4.582125438739689	14	1.0358443402759379	1.073264464215905	0.04408957114043127
Si	6.250902528418439	3.3493377515879095	5.893244519243049	14	-2.0450633422985502	-1.9422304423560357	-0.5346379542663797
Si	-2.295126306690486	5.041176461060799	-5.5007814830166275	14	-0.616007266996298	-0.14341111254721955	-1.2840737602938903
Si	-0.8026291307801936	0.8051138191418948	2.4268688048250375	14	0.4814523267243285	1.840693379494876	-0.28459333389240277
Si	-3.1625304597607613	0.7522774889799432	0.13260396756653497	14	-2.3990112137598194	-1.3079369601017805	-0.1480478438815746
Si	-5.314780260657991	6.326465308595528	3.4723229004966885	14	1.4597373321981113	-1.7386233265008495	-2.017969291545362
Si	-1.0418004680806983	1.0019415793619688	0.076867449316845	14	3.231716893569902	0.45885719606033515	0.4123140191128866
Si	-6.08089666051314	-0.5663621365646875	0.47543140652057686	14	0.45161207837868994	0.19880917621725813	-0.5243586751964276
Si	-3.523727141602899	1.729988509318521	-6.4789384730611514	14	0.18280121738348418	0.18694995292807512	0.342556332229821
Si	6.506909914617962	0.01402588575192233	-4.860151540421	14	-0.15763163896242657	-0.30573913248742857	-1.0161131638280574
Si	3.1267683983407566	4.03559371909966	2.700727444254198	14	2.2201651276903194	-0.8767469141704949	-2.0096234836761613
Si	-0.08979503079294286	4.309895558236594	-3.494617230796747	14	2.254173137759918	-1.750838904987405	1.3577994340175403
Si	4.8020508287301595	-3.584553531496542	-5.8932182042604	14	-0.8975764668111426	0.8271533778712227	-0.7973681511794353
Si	6.45361653475737	-5.397736165960365	-1.3378107829039778	14	0.6175314182300817	-2.7759823049208867	0.11223594631936006
Si	-3.1476223295905537	-5.031114442695271	4.061731421865561	14	-0.19791931666595486	0.9862078665178192	-0.5790985359045084
Si	2.636237731775995	-5.855305239258611	-5.45326354934795	14	0.40490589335394395	1.1650956044935061	-0.2035420668905867
Si	-3.7782941287521616	-3.356668551754289	1.4454085919585193	14	-3.3344281802307734	-0.8017832532351936	1.1009293003501663
Si	0.09701918602963949	0.7025712567541368	6.570985512369216	14	-1.7324806987804835	0.3152146840343023	2.170677263819705
Si	-6.197141018866511	4.810254178321216	6.64728372706139	14	0.377386838891335	2.093759819951623	1.5008873586260172
Si	6.750146224238196	-3.2204206515904095	-4.58269467336436	14	0.5136479646537548	1.1651262006468157	2.420321820205867
Si	2.1104976184268587	1.515431375788448	-1.3318912968070373	14	0.02713467421724678	1.7509852008801217	0.17008684446481992
Si	1.498502531950614	-6.709668240927671	2.4958376043499193	14	0.5362513228547727	-0.5393412772285265	-0.5313063159925319
Si	6.334197758497076	-5.227148598438614	-5.400306724265447	14	0.0019370707481995626	-2.9939721839369815	-0.9863531339684075
Si	3.1508549174591214	-2.5704558151498174	-4.449558866148497	14	0.4182211335859269	0.6213901330945599	-0.010566728644744575
Si	5.898780360592949	-5.940632262997569	2.9021160064670717	14	-0.5123896657100743	-0.13416696047915913	0.32291720135240193
Si	-4.567153598611489	-3.1547398398975672	-4.477592632664214	14	0.05294625763674536	0.23343373734262826	0.5670094557997041
Si	6.50018020405525	1.2726798158485912	-2.979876780194896	14	-0.16124327060563856	1.0297222813981333	1.6892732738753953
Si	2.245967149103962	0.8071137578232196	2.654098679999239	14	-4.157100892860574	-3.464215519907592	-1.980625529433403
Si	-4.685342495682713	-6.099747883083438	1.4320378107746485	14	-0.2993208822767429	0.7029916166348877	1.2029255626215047
Si	-4.950860670611224	1.9840236568184557	0.927507573440614	14	1.3095837530593355	-0.09786655290611648	-0.023424826350805117
Si	-6.219246989290766	-6.183676057744739	4.929933334409827	14	-0.46527030406038056	1.6060936458895607	1.17690263434469
Si	0.5179841184631128	-4.427889170436581	1.9042020044494878	14	0.32121075875141963	0.10233333417880973	-1.2567804488783902
Si	3.4662746094846764	-5.918797752394325	-0.9532547064640401	14	0.13912225176268053	-0.39702854087407424	-0.4400698723754812
Si	-2.305243725019487	4.549569650205602	0.5265932727865994	14	0.5381675676498789	0.05411045412570842	0.15919384255494853
Si	4.21350793179053	-1.8841679926590704	1.0450953809081718	14	-0.48845781739013605	0.6006369422819208	0.1077311126879286
Si	1.6253102783389328	3.4498568303098676	0.37604525705161324	14	0.758470413011979	-0.2138048908864898	0.11466641217849603
Si	-4.956522546878022	4.762909369538387	-1.743759555238474	14	-0.4069884886632639	0.36528593170205814	-1.3221939962125338
Si	3.7732319570899437	-4.519799094835052	0.97563906170474	14	-0.8106733641006695	0.03861671635596407	0.7557154736614403
Si	1.410989979652701	4.97764793794883	3.5351298390844406	14	-2.820923683253883	1.5815673580196041	1.6430674259459501
Si	5.670783195924666	0.3829217775175256	5.5293041542099814	14	-1.1189987714296352	0.2759575053430894	1.5728739367111193
Si	0.529208151062459	4.03940385158742	-6.0648500610935905	14	-0.12669198598189263	-0.3328432105513656	-0.2985305245013294
Si	-5.066055199656809	-2.350105230439702	-1.4280670183928217	14	-2.076574037770689	-0.35110500030878133	-0.7215848218680706
Si	5.751247487869905	-1.989106603466975	5.912879651296471	14	-3.209977940977518	1.1187023229862219	0.33482399009000774
Si	-1.7335050219998807	-6.44956541242851	-5.958063861503908	14	-1.2986215884163521	1.228937692255975	-0.6073177023457936
Si	-4.202911303777499	-5.50941418232459	-4.797186711937353	14	0.25686679123045786	-0.7229739900725466	-0.1549790296036298
Si	3.39669502536252	5.096962839277615	5.279941993628875	14	-0.8512718884374038	0.5179789915655442	-0.30491175079540495
Si	-4.166906867517307	-6.749150409894794	6.2631833153210055	14	0.1335303548018905	0.22517560416484467	0.3397970220002381
Si	6.19581695973954	-1.012888612143957	2.2005765740325933	14	-0.1906515732574923	0.15949826142485404	-1.1439112393186779
H	7.05506900818497	-2.6719485482297887	5.7962017882289345	1	2.000401186003322	-1.434969360428061	-1.0032144426579386
H	-7.527666706573973	7.178507051795129	0.3124377889916957	1	-2.9330953519402394	2.3437435051295124	-2.2702700568377687
H	-2.390912843532883	0.8451015127756958	4.831867089070575	1	5.95853632233264	-0.8578392627566581	-2.0285180224528654
H	1.1740858858572716	-0.46992049515423945	-3.956855136016562	1	-0.0527593382799706	-0.16522642696761197	1.7814281163128027
H	-3.724607409150921	-6.860185786682748	-0.8188890200591082	1	1.9084746577183438	6.301907952059482	-6.1248608683824886
H	3.3665782202202714	4.700695210559781	-3.1638739088749475	1	-0.49504627477301544	-2.53833889683758	-2.3078369908915164
H	5.754225235906503	4.457640335819916	-2.86680545474936	1	0.3687798067216073	-0.6495985008935007	-0.33095627635690894
H	3.411924475320863	-3.416983876984907	6.527823400828492	1	-0.011386911241871812	-0.1688627412218974	0.1941436485033174
H	1.367751693162204	5.720073928424435	-5.049195605773313	1	2.9798840694457622	-1.3291472934403423	1.446502053341585
H	4.871065333224905	-3.021002943078038	2.709063753757587	1	-1.5433422210038987	0.8423740642559673	1.7235152545291272
H	2.4443918132711047	2.2738804206991277	3.5471128511833476	1	-1.6439251466807516	0.8054748462538621	0.13013418178450686
H	3.666613342389763	6.02100930000034	3.997222319400143	1	0.10330932575833796	0.8630794325096518	-0.4432595856356569
H	4.765209853021545	-4.131455045892744	-0.17934630174661065	1	0.5213692510406915	0.07368556448065582	-0.5048686684275772
H	-1.3001124927606407	4.895985621793518	-4.0389897368604695	1	-1.5540878985789255	1.3387897097224937	-0.5042243494343481
H	1.3218542084250704	-1.8344548354378303	-1.6210334011589254	1	-0.2150377358875008	0.010427117625860535	-0.8671137538674961
H	-5.713327597872682	5.990241545287301	-2.650993512046656	1	0.5411834741904127	-1.0028496028130096	0.519085338184804
H	1.0538748901193336	-5.615905377108786	-5.849337278193633	1	0.16948623426203333	0.012437207765152301	0.13811412136665047
