72
config_type=liquid dft_energy=-6926.438314010258 dft_virial="10.946883993260245 2.1276407712908085 -6.5418992083648915 2.127640771290809 -13.079823994367471 -1.3407051435531125 -6.541899208364891 -1.3407051435531125 -6.9804104756732706" pbc="T T T" Lattice="11.2999927403 0.0 0.0 0.0 11.2999927403 0.0 0.0 0.0 11.2999927403" Properties=species:S:1:pos:R:3:Z:I:1:dft_force:R:3
Si	5.608016897119786	-1.2615876894907936	0.9079431166903648	14	-0.9217394574993623	0.5699191756905158	-0.5164301577206871
Si	5.255016423905555	2.249681654688106	3.525100535293027	14	-0.4595470236177309	0.3663904785475937	-0.48813977166203365
Si	-2.4441093297777083	-5.177724473561902	-1.2680625853309855	14	0.1604783667728945	0.1924089237438135	-0.0018195712350687957
Si	4.670309599551471	-5.084250933614141	2.771052019732808	14	-2.064735126213535	-0.1529964502912636	-0.7024899939869269
Si	1.5542575014645637	4.474627625267695	5.368423151047205	14	1.5105824825672318	0.29554418567197743	-1.6788548980076234
Si	-3.434090393762651	-3.1500650762352103	3.6706331417953506	14	0.8178416057332424	0.3333551176206071	-0.2477259975962674
Si	4.217044290752558	-4.191212507348231	-4.178036715813041	14	0.08396484355060782	0.5894837445136505	-0.6048263012905701
Si	4.416116262858423	1.1117384857616752	-4.823209801320471	14	-0.2712688376812673	-0.08526402306887865	-0.5308977673571603
Si	-4.728504562164016	-4.39830747429971	-5.065662445556347	14	-0.6487274104110344	-0.07518606154549423	-0.7655011005099239
Si	5.323324880020667	3.331441259709766	5.521820552496777	14	-1.5304496704865482	0.881226293859257	0.4065578285221391
Si	-4.825989599534584	0.6995147505955313	2.3463078926104113	14	0.7051688286199891	-0.46738632373886246	-0.6180276415568703
Si	4.535195586355703	-4.56820286515012	-1.8631541030134045	14	0.4707560143714485	-0.5205840354759184	0.23151980654231002
Si	-0.3172133962057016	-3.290693485888244	-3.5448077226321097	14	2.943785750750883	0.9483295716098016	0.7069734874442011
Si	-3.465639973493569	-1.7555216721620468	1.41400199157196	14	0.20785792428098726	0.6963093139078229	0.9256909892658978
Si	4.6612922053447114	-0.7581052129539867	3.084039218653637	14	-0.6647824204721672	0.10885160038644916	0.6794315501442428
Si	-0.6930737547335603	3.917786583011192	-0.5913060201144185	14	0.01627175423962115	1.8374663852075581	1.587902561528449
Si	-3.010668365790869	-0.2214459577316591	-0.8559631500849847	14	-0.7791660110654468	0.37849164284740267	-0.42012092330698425
Si	3.350696447339237	2.6943815689898725	0.8214303722706279	14	-0.21036166664174746	1.2150485813165348	-1.5131096219864053
Si	2.887961744623952	-4.099908566006607	4.022627915655695	14	-0.42856083363090225	1.2267237134647953	-0.5513555381685146
Si	-2.4493186264309865	0.4581582056554635	1.609989065659723	14	0.9967805087048002	-0.7506419115331922	0.17865145339676516
Si	-1.926230662489759	-1.6608842329620344	-4.387515981232723	14	-0.7189424969305545	0.9962223217397959	0.22832006597138574
Si	-3.7780169728064217	3.153421174079079	-5.224325643622899	14	0.7660250917741702	-0.10412025237631266	0.1299074102952698
Si	3.1290583897309925	-0.321597793388938	-2.604603126668189	14	0.3306508290448753	-0.9272627059481043	-0.6421014148904809
Si	-4.7795240293864705	5.514656357099427	1.644420143539417	14	1.2230773718997612	-0.8568936102199076	0.10417450269856778
Si	-1.6569405354956699	2.5000216938567124	-1.9472938489576783	14	-0.2930784956699554	-1.3275676063316433	-1.0459580401632722
Si	2.694923968641407	-0.1798167844763939	4.9799181006429505	14	0.6371152703431178	0.594044114019997	-0.11162068081624862
Si	1.3790285140407315	-2.567584350450966	0.5701298337190962	14	-0.45507535724492937	-0.15610980172343092	-0.34702285639198227
Si	2.784725010948571	5.343190267258115	1.1497177613618235	14	-0.4579197710606092	-0.7334738699789674	-0.5892292050869558
Si	-3.8491730270920907	3.0819826199749025	-2.5432441660883596	14	0.00772899970289714	1.899029445214248	-4.108477434598593
Si	2.6189089174774085	2.4588106203328386	5.073188240721387	14	0.591422357925042	-1.6138031051920245	-0.4327959583142502
Si	-1.4725246539739738	-3.7571910861860487	-5.586196611138266	14	-0.2720041738028297	-1.0477979231303705	-1.191399554581813
Si	3.3541881450959896	2.097866252222176	-2.969061792521085	14	-0.6017396893537323	0.26136545420912094	0.3480957786420801
Si	-3.2727151974384268	2.5105758870761528	1.0320961369280408	14	-1.699217795032664	-0.655732129745246	0.020964535669955424
Si	2.1419701238875666	-2.5851445391693924	-3.3942014193893915	14	0.38872438491106004	-0.15663276454554903	0.14885234273624892
Si	-0.8041526833707093	0.7782079000389804	-0.475311594635239	14	-0.01987927211432092	-0.6723234723761615	0.0422512308365254
Si	-2.5934387338407725	5.165565681373339	-4.921022538480507	14	0.28376029576867473	0.7822734489553778	-0.3955894932263874
Si	-5.321087481458088	-0.2460234419418116	5.2647231176694715	14	-3.5506825631557684	-0.380389889905268	-3.3703889447910247
Si	-2.6458255001848032	-2.626084412867499	-0.5781641285574496	14	0.05784524171375551	-0.43396761100864173	-1.497131230863813
Si	-4.787027224566029	-5.393712534799996	-0.8346287637912982	14	0.5791880103696495	0.5997329416513568	-0.809915659362822
Si	0.49104118452973655	2.026020898379348	-2.9565075005866115	14	0.36839285537092503	0.2777205122611149	-0.27818973898204197
Si	1.546550906415679	4.1205762527286165	-1.1132187848106545	14	0.807678026402697	-0.012092936762784475	0.23218880814661255
Si	1.8606003046540964	1.507690231381787	-0.8849815314420751	14	0.4130532118924292	2.6653908375642934	-0.5359677299379603
Si	4.875472267744358	4.050493697753276	-2.4102206515495483	14	0.5861181676495766	0.08545351353097357	0.6200127919745567
Si	3.154720673244214	-0.76274950997025	-0.1108981287533042	14	1.9443950559250684	-1.7263668674397037	1.0780068679789183
Si	-3.30224207846883	-3.6386767623257823	-3.417569804376332	14	-1.1911990083668413	0.6267118068862026	0.9313127110484016
Si	3.8182901469328505	5.468767086581069	5.206132655311016	14	0.5398750386929893	-1.1089346938749796	1.1832897741810018
Si	-1.9748319312657894	0.659388476374726	-3.7281727048289586	14	2.131101782289858	-0.7461936422188039	0.6608265178265873
Si	3.2591891061282876	1.396114103064065	2.635768506645936	14	-0.3760159255346321	-0.7455094710931125	1.7731848955458762
Si	-0.7596759119448884	-1.7066831035384702	-1.5407879101181259	14	1.1734758651739965	0.33890047757510244	0.3234008262631218
Si	1.3810512127412453	5.448268899750165	3.1455563791318304	14	0.3805863223517273	0.41050858895707865	-0.7152277639640046
Si	5.482959877462886	-0.1430692080849383	-1.9665264366016686	14	0.12366399524635424	0.19244954720787183	0.3126659473304395
Si	-4.0897724725185585	1.049046126038491	-4.169143621526425	14	-1.7523779686320455	0.9510572572439467	1.0986273897570378
Si	5.60103350160628	-2.9063355328196794	3.764976781184115	14	-1.0148823757113026	0.08056764209109617	0.5615018910934149
Si	-4.7259168638264875	1.8728494967845817	-0.9865910661628527	14	-2.7428379291283256	-3.8571215505113416	1.9835609603774162
Si	2.78995690758733	-3.282376691231383	-1.1638766522654196	14	-0.6401535454999366	0.810856426799464	0.009688696177914005
Si	-3.1029102065299385	-1.0801211060743159	4.848894684819172	14	0.7194024676723288	-0.3085547499235228	-0.5548409285405073
Si	0.0287923815022844	4.685474189808954	-4.433134051925315	14	-2.2277612012481645	0.15026902176765053	1.7292858433096678
Si	-0.29563041007172863	-4.694265584160907	1.2356090061808438	14	-0.13327195871721562	-0.1395536832354014	-0.020509707138821227
Si	-3.147579077832344	-4.104247763218882	1.146904063169489	14	0.8944965397481371	-1.2521501453073358	0.3994160692743638
Si	4.932559831068353	4.571864062797977	0.14802990489793	14	-0.9894541440950382	-1.4567785041956849	-0.3599089791460325
Si	-3.00315387061857	-5.498237467647772	3.823341243687765	14	-0.7186005399229747	-0.4997976774046492	0.19617405037463834
Si	-3.633162365868516	2.4692518136248753	3.746230093227958	14	0.39647138235119816	0.08863757035944496	-0.6801494027496282
Si	-2.071164369376847	4.320823424079472	1.3908257064616045	14	1.022839946677161	1.9128627631682404	0.25593939354148043
Si	-0.7406580241629636	5.374129647381056	3.9965814323893043	14	-0.22755567635970575	0.1988713969660057	0.5328443511950444
H	4.842948628639226	-5.62481659632679	-3.8561134826331824	1	0.15517546205008909	-0.9638608475172201	0.06107326444320142
H	-1.816245573149871	-3.7207712095840617	-3.6366122536521295	1	0.3293567917372448	-1.3634288691160046	0.314045602445231
H	5.732706667012627	-4.5926277994582785	3.6845626428463185	1	1.1673941726497183	0.018410913865984348	1.454882314022076
H	-3.8882032020170865	3.042797635149365	-1.0726382508816892	1	1.4632129523698878	2.6616804754767878	1.938358100633361
H	2.041677038321034	0.00113338927185209	-0.7533829459878153	1	-1.4778222299095012	-0.6179949885193046	-0.6976768848276096
H	0.99597797013222	1.166043990873009	0.32147123347024664	1	-0.8511785573142823	0.07954974149484956	0.7684784404706554
H	2.7414381287583036	-1.7944196371719816	4.922845227309518	1	-0.1866131381311357	-0.06238118571956075	0.007746226108542134
H	-4.240507595678516	-0.22458509571491447	-5.187766777110207	1	3.181886815581176	-0.34326184352966965	2.857595615545687
