72
config_type=liquid dft_energy=-6950.519193733302 dft_virial="-26.13977587692338 -4.165194635702554 -0.18679785102864513 -4.165194635702555 -24.663940373051673 -8.582102687684845 -0.18679785102864516 -8.582102687684845 -24.93287628623476" pbc="T T T" Lattice="11.2999927403 0.0 0.0 0.0 11.2999927403 0.0 0.0 0.0 11.2999927403" Properties=species:S:1:pos:R:3:Z:I:1:dft_force:R:3
Si	-0.35387057265523475	-2.876786051803795	-4.967770608447128	14	0.03379589388068642	-0.057862725229932514	1.06216937342787
Si	-0.055855864115302904	4.561513269447862	1.465563858445949	14	-0.3641857557355668	0.9199566530703716	-0.14338900104146626
Si	-0.7068032459130247	-4.963781711009802	-3.856924822111936	14	-0.1585279262770302	-0.5979563078751344	-0.4903776617326905
Si	4.598046145977253	4.305319834039781	0.5568184422710228	14	0.9937620310589462	-0.46876932129057003	-0.9339483511120854
Si	1.136892269601583	2.8769555516948992	0.0957787384667828	14	-1.0089894023175232	1.263949204732027	0.12862237185625983
Si	3.915006784797079	-3.3679741362391558	0.7888750931858236	14	-0.24648775327408406	0.35618139065288174	0.9453280632590609
Si	1.2570224924237123	0.43925331780094157	3.2756983955218657	14	0.5854789908669877	0.20474560129094801	0.9733973342601815
Si	4.9081518467493055	3.011753165093938	4.744708751753606	14	0.23632931615417901	-0.40749551063239703	-0.11432111273400015
Si	-1.7799522564665753	2.7738657179251427	-2.7636392244951713	14	0.16860151692137035	0.04574356319288253	-0.8252209351125993
Si	2.399169258649535	-0.3512941743104464	-3.971438948542137	14	0.25756458921434605	-0.3659626466223211	-0.8548410968428334
Si	4.173245518891154	-5.273446712064984	2.0960469533909873	14	-0.4015536862375349	-0.12728616842137885	0.8260575727837755
Si	1.9125463712812558	-2.686494174057143	-4.184432511704052	14	-0.0863084060499228	-0.5248376721175713	0.8753839712402844
Si	-1.217834117600352	-1.496073838844759	-1.1832674398077743	14	-0.971672636811426	-0.2718745900946942	-0.17180202882389067
Si	4.803559113945089	-0.49307518322299054	-4.614193835603141	14	0.0019519831590564217	-0.3537678940888587	0.49389030582107685
Si	-5.693964641902507	-2.0579659778561763	-2.6267398124464365	14	-0.7969140939798972	-0.11213438765921421	0.15177466104312923
Si	-1.5733657891884107	-1.3722259184110708	-3.5948779904643793	14	-0.8813149969928021	-0.497658260667754	0.45546410836933576
Si	0.8210235725319771	-5.650312769946729	-2.158761913099652	14	0.031140456306037487	0.2533286931994021	-0.19978208247040216
Si	0.4662829004357392	3.2545787090902447	-2.132150430196246	14	0.5825728705236244	0.4339470421660806	-0.9112678597514632
Si	-3.870168413603568	-5.901432508614416	-1.339761039268189	14	3.2327031695707102	1.7622808378831278	-0.8267903378000178
Si	-1.5424716090364308	0.9146553123781029	-4.326281320573037	14	2.093373382822005	-0.6802057099561395	0.5978066695455019
Si	-0.6936048543923543	-2.8723338546641166	4.023362415183815	14	1.6651203104979242	-0.6686971854326246	-0.20821607925208388
Si	-0.4377843187447026	4.6035944424127395	-5.599745302433886	14	0.10892667666179748	-0.18915261885584594	-0.40451071446623715
Si	-2.8927303415603585	-2.207679581672411	3.672599340532163	14	1.8869686472679652	-1.8323146614775776	0.24845156351761322
Si	-5.451941397390762	1.6237524568174084	-4.646138915079969	14	0.378046841627017	0.4624063498442676	-2.0596204264001647
Si	5.483163277332211	-0.37237996076384616	3.037697948425667	14	-1.359542900535133	-0.3751183526673684	-1.3832047827964558
Si	2.6424016023844925	-5.3811582428655225	3.9084527890077045	14	0.8613750467929256	1.36331342648713	1.1846771426117537
Si	-3.866495915962971	-2.8441629727625486	-3.7576317859029205	14	1.1815835886905515	0.18885257086498466	-0.9304488196608318
Si	3.4076710107358292	1.3651747229411237	2.6508313969687562	14	1.517302323431971	-0.5642357473803283	2.3301133044958116
Si	2.1738022034369915	0.3543112723721065	-1.7884611510000212	14	0.47610956986906083	-0.055485481250923605	0.49104074979475676
Si	-2.608004424483019	4.923169537101164	-3.5646618098768172	14	-0.4419688907649426	0.7086961280087004	0.8033503419278238
Si	-4.487148017223948	-3.2196617315227183	5.144841494687629	14	0.5443703592347362	0.19285603895898726	0.7866821232478357
Si	4.558179771589474	-5.872481927213767	-3.9527487605496803	14	0.11739641180742927	0.3092147526592048	-0.9630013270086945
Si	-5.703603535709983	2.1416311241053574	-2.4317019377488585	14	0.27352781081554944	0.9913804162008932	0.3978829191719595
Si	-3.589759093753024	2.098205252004385	-1.5200637234324157	14	0.4041193922365106	0.042605014928577774	0.964848409070689
Si	0.9516062886388839	0.9531882876225259	-5.436132707547082	14	-0.6345122833169997	0.15489469734912892	-0.1047026077313262
Si	-2.2629478461652184	3.5417906245704502	1.9851601246304236	14	0.37560737689926055	-1.0533754219013676	0.2439302748121328
Si	4.547230078624123	-3.7430999952388944	-1.3030473628549541	14	-0.012906691596611343	-0.6550613283672193	-1.6302661496674649
Si	-3.4746573677003276	-3.7026799212068413	1.8512213106796476	14	0.014464267199557047	1.763987023373578	-1.2977199017805763
Si	1.6662404295209365	-3.020307259598346	1.054097222793405	14	-1.562921959348422	1.241829214331197	-0.43747279889159957
Si	3.266229001605494	2.146015521288594	0.5414730521296954	14	1.04699136739144	0.7196798899363729	-0.42963581276525625
Si	4.915711541892565	-1.8737760961892864	4.747002650279887	14	-0.8049392850156754	-0.5869550624312848	0.7107170167903367
Si	-2.4051356548164136	1.0218696434980694	1.5778292863208294	14	1.2695794111620875	0.8911703007954617	0.7759603569522863
Si	-3.1216003945223942	1.654205937252517	5.624401886593221	14	-2.071548298201396	-1.5951895882268126	-0.6555161568983535
Si	-4.786055425190364	-5.41569102067988	2.428029440108261	14	-0.5211558492991192	-1.1928126340657663	0.609356331754139
Si	5.863261133137683	-2.1365122273940016	1.1177613818922552	14	0.22524065312944438	0.1233770598926257	1.7207369181201755
Si	1.3809269128211017	3.2120003364447944	-4.725781263913603	14	-0.6489516107949513	0.06339677232101924	0.09681059995113166
Si	1.5030911343364852	-1.9146255699454708	3.2573133073333977	14	-0.8469912551898892	-1.110506153446654	0.3261282547867349
Si	-0.1263565188220346	-4.68006149328635	-0.18476618129664532	14	0.3146169020473679	-0.6886548762592101	1.3556692732597977
Si	3.2749412960082656	4.465553731097234	-5.686427546744728	14	0.18191470026909712	-1.0712913979932235	0.5927310505329975
Si	2.7504182329890203	-3.131883387916068	5.074883239632431	14	0.9239871177702357	0.338405539800974	-2.6176690659380886
Si	0.31668229654690755	1.0587076198314473	1.1876292370055301	14	-1.735747545200264	-1.7807981955093666	0.45089294022064447
Si	-2.413068249720104	3.495370254393298	4.585593553977442	14	0.5323093041779215	1.7256495290553822	-1.1319756542014863
Si	-2.965942994524762	0.0889874428298625	-0.4481351120948174	14	0.7795028258623864	-0.021798088014747426	-0.2267995142850502
Si	4.539783383408266	0.5398006532041311	-1.0872740014789257	14	-2.0083929526699382	1.1331881874704683	-0.21229745183728696
Si	-2.4952756969057863	-4.021769116207433	-0.4085964374965077	14	0.783768289588512	0.9962364628190569	0.20259641435383624
Si	-5.0480683568597	-0.8199952731926099	-0.7447147215567312	14	1.0416311270199952	-0.9449454827874227	0.6910133511693819
Si	-4.109705659712447	4.220761988364115	0.5377892544963576	14	-0.4722331143778735	-1.0637909695532874	1.4204948088072231
Si	0.4428919154633182	-5.690405144189313	3.7030189209890505	14	-1.8645740628189431	0.1955274173866211	-0.7680742627143281
Si	-4.478480922792138	4.698209281627271	4.500741908490529	14	-0.4378551222527057	-0.4676282647494883	0.1577450247070451
Si	-4.537625084794868	-5.216539948624833	-4.734798658120363	14	0.06555804345313572	-0.25673823596445045	-0.2080993510705492
Si	0.9516853885880661	-0.8986658226505785	-0.1676353923023505	14	-0.371048550056106	-0.29067862596412924	0.2465710570864569
Si	-3.657604250165785	0.24143564488924982	3.535360928701219	14	0.7862599477542674	1.5548301766848522	0.3595464532958915
Si	2.9896390793011713	-4.690197586774398	-2.7952792041680112	14	-1.2405313203655866	1.512083493853134	0.174689637208949
Si	5.552985932474525	4.637268420778834	-2.0428578875623953	14	-2.985155863794194	-1.4529701829954818	0.5268205085404695
H	5.1948936825315135	-5.2015629382468385	0.8864912104721792	1	0.8416443845661092	-0.26920141189333624	-1.3775460370973418
H	2.417530616853248	0.7700018453109746	0.5316940384122398	1	0.4977227954112896	-0.4425695009677292	0.47757972789112146
H	4.766256707910085	1.6310997120971518	0.855445610417479	1	0.03655726099452546	-0.44081960668683634	-0.5094688900663861
H	-4.767373147192825	0.13080306596534266	-2.0898082273990677	1	0.09299713654028803	0.4722873647001287	-0.5537111848628341
H	-4.1229888011786695	1.7315905475366393	3.4518585023474984	1	-0.13918035874291587	0.5833395741300926	-0.15445760944470377
H	-4.865059324434171	-0.7387189454087281	-3.6630237266840324	1	-0.4172387142430983	-0.008830975443112607	-0.2560563788335472
H	-7.188280201876876	-1.415094700869947	-1.7020128165389041	1	0.003851772880113837	0.00039877843515496704	-0.38201071469908937
H	-4.251572548569818	-1.7969892555211258	3.455862089775387	1	-1.9529745772678708	0.5756923355763762	-0.4827095972258809
