72
config_type=liquid dft_energy=-6925.122751451072 dft_virial="-9.109376054418183 2.5330318522465918 -7.611018823826711 2.533031852246592 -4.1161767599007115 -0.25966226100435774 -7.611018823826711 -0.25966226100435774 -6.522027096553334" pbc="T T T" Lattice="11.2999927403 0.0 0.0 0.0 11.2999927403 0.0 0.0 0.0 11.2999927403" Properties=species:S:1:pos:R:3:Z:I:1:dft_force:R:3
Si	3.7884920660766794	-0.2861610161553572	3.3367183563194858	14	-0.18864688243937286	3.5532212725488823	0.3625654451628094
Si	3.744252594498405	5.1416774967203445	-2.15415151606161	14	0.20854929450157508	-1.0179756725219729	3.5555221546998825
Si	5.072306841287643	0.2083944661166126	1.3037366624121125	14	0.3537933480315282	-0.37242614828664133	-0.3294714630345234
Si	2.8973972385621023	-3.4184173038318546	4.926265735112006	14	0.0778402135674831	-0.42720817512197246	-0.11575476106051472
Si	-3.0099338662627497	4.372746890721151	0.6168214037220159	14	-0.06886294223165405	-0.1315691156636815	-0.17842313924433603
Si	4.505533105412416	1.5202784232944813	5.583541112844296	14	-0.4206246028392013	-0.4512899188820754	1.050361315134558
Si	-0.4864081875062135	-1.9887987222927999	1.9009525787297077	14	-1.8809959696092609	-0.8764550937166581	1.0352990088375347
Si	-4.807446311447752	-0.6123918065678182	-5.394187134495089	14	0.15332966554075478	0.5467362903503364	-1.6966862847344462
Si	-1.2729667821802757	3.1496808764820403	4.197890803057749	14	1.0071878288196954	-1.1584696089729523	-0.2540167209830737
Si	3.8001988585556306	-5.625531885867251	4.051499397107162	14	0.6740790230887587	0.02612500115802463	0.36259835531090734
Si	0.1419053088326874	-2.297243324132029	-5.4119959230538015	14	-0.11169421442840487	0.288625855476523	0.01503608102275798
Si	-3.720161009976086	-3.831669338337366	-2.8853514463009424	14	-0.41289483180470804	0.5514259864542865	0.4178223551507719
Si	-1.075115209290363	-4.529737689862139	2.5843309396920904	14	-0.2019099292333567	2.2928561886331416	-2.960808267743987
Si	-2.106205646864517	-5.1469432933373245	-4.0402559043305635	14	0.903262723337182	-0.03147290022393264	-1.9520003854620667
Si	2.9928256772539354	-0.8043560832400346	-1.5830724829523286	14	-0.24790108986856949	0.6075861257412171	-0.49941201160662685
Si	4.381538285073105	1.1202812802733422	-1.0373393335595402	14	-1.9232957943363371	-1.084011941564656	2.357712834554941
Si	3.5782331011579176	5.579405315501346	-4.225971285017394	14	-0.3399975682152096	1.0900648377093487	-3.7035697414709254
Si	2.06224867510475	1.6261593552710925	-4.641811017860434	14	0.6199274312779277	-0.20792297324558698	-0.11005513478681046
Si	-1.1457627639027186	3.0390878475327243	0.2256382550383104	14	0.5077213097802814	-0.6281665382763424	-0.531084686713935
Si	-5.537120742667144	3.7107481160234155	5.385610440005201	14	-0.09253253780893728	-0.2741775291299508	-0.32906934216245226
Si	-4.508877903263545	-5.426290413870281	-4.648387613635289	14	-0.8087766597059962	-0.10417090315111956	-0.3926802875566398
Si	5.0935056276684465	-0.17287858893384972	-3.5909229930052744	14	-0.22900166599175703	0.199414414409621	0.33286763605190706
Si	-2.1171892398080887	-0.5771471292108226	4.815232006445818	14	0.9267999069904777	0.7512072975930927	0.19097373275410684
Si	-4.677541594905263	2.120816537477725	-2.6886976726415015	14	2.0530867335606047	0.3780589258220217	-1.5819183138958044
Si	-2.061073475859759	3.8892541013419346	-5.12602700677503	14	-0.02758101810082449	0.6568986402289971	2.1551418741437742
Si	0.8420980589926367	1.3542024299902924	4.616566834078604	14	-0.4475523030781761	1.0464756036642182	-0.03310143833371442
Si	2.827732783318153	-0.6462578848104973	-4.244062573394614	14	-0.31045762497096435	-0.7042756266317698	0.4180943780936435
Si	-4.206569197482299	-1.6245321563164894	-2.696878867385479	14	0.5878706330357896	2.992478885967039	-1.983433947774601
Si	0.7217079363374803	-1.6068363676851793	-2.849892069081881	14	0.7498014172040357	0.17101167104847714	-0.2603280132124412
Si	1.364056023659834	-3.1575343714365487	0.2778894214694576	14	-0.02839785826103553	-1.6321011475344545	-0.7879211389016152
Si	-5.0820022350588205	-2.2250250705287717	1.3063356607423815	14	0.8569869413430289	1.5217642196045558	-0.5557765537665091
Si	4.07703738070024	-2.6417688027910353	-0.5742204310910848	14	-2.379555402691727	-0.4545289973643979	0.7003996853616464
Si	3.1221992941376304	-4.748595949256269	1.6013784711916146	14	1.8992086512550623	0.5120772764136763	0.48751293618498154
Si	-0.0660597575597938	0.50134677790889	-0.0150967903010408	14	-0.19416858822492286	0.040595953231414066	-0.2680981506004607
Si	1.3680901210681211	-1.1175014820592282	1.1660349508788168	14	2.2313916019602136	2.3343898239748135	0.14962161744803723
Si	4.792858020820025	4.679372193729192	0.5278791608631145	14	-1.2969066611678135	0.5521232702171106	-0.661114995843508
Si	3.233199122825597	-3.877129209131593	-2.5062366898638775	14	-0.09692295725362213	0.6441734686679883	-0.33864156726936356
Si	-1.0256099410951085	5.404899527612893	4.686965788850673	14	-0.07617953664119945	-0.5846307832218709	0.8989856896371158
Si	-0.8189895738387232	-3.5338354296812784	-2.6948448686922246	14	-0.2709590194901895	0.3672412572980307	-0.10893618975148202
Si	-1.243824100903042	5.546364136728709	-1.950977646591016	14	0.5914434409886673	-1.8309769153795044	-0.18231939224648844
Si	0.7813266980353032	-4.609730338470722	5.471964984526574	14	0.7344349491476387	-0.04140867962311287	0.8491882646859557
Si	0.9085420163056006	-5.447839500026033	1.4385116758256706	14	-2.238085731771751	0.8754703603790415	0.8910062642760362
Si	-3.396642217821297	2.2059619827758854	5.347981464180002	14	-0.5808324893324162	0.07074601976813051	-0.1791489622762138
Si	0.48315378959700717	-0.8090116802490382	3.922385680056494	14	-0.3346864359553797	-1.0619875962817356	-0.39596230349780887
Si	-0.1076776308223187	3.39450651919338	-2.506406189754982	14	-0.23826767245503871	0.06415293439567478	0.7007447276956104
Si	-3.828471440391861	-1.8590070056777142	3.976343145391427	14	-1.0852334737022586	-0.531049205460517	-0.7512610336942838
Si	3.023697257420435	2.821449987354546	-0.08531494518926501	14	1.6611993748846983	0.4119697481105188	-0.29347316033659815
Si	1.488355943803134	1.1944205326424504	-2.240607760517645	14	-0.48616516277616	-0.011601855646636192	0.17699463312846175
Si	1.5004017360642938	3.0362176493766877	3.0714058267699818	14	0.6367524873824448	-1.2434484964618266	0.7154681623114383
Si	-1.4390766754626856	1.5749477881720528	2.6104452229149238	14	0.02129595114572251	-0.8736921839396271	-0.9802513868226322
Si	1.4756886519412578	5.209398353212963	3.74068179679247	14	0.27146861256464283	0.2407660154946266	-0.4026949998891486
Si	-5.150321991166674	-2.752068031929104	-1.137005269528986	14	1.534234080407274	-1.5385491664660786	1.6063379008949745
Si	-3.036714849057261	0.49577588148792223	-4.254006567006078	14	-0.07965721369723174	0.2110224407090255	-0.040161950653373066
Si	1.6875183158509215	4.389730779809821	-1.157153156584941	14	-0.4005810370949229	0.050578783857953016	-0.8947037708369412
Si	4.584938154398505	2.2018148854401955	3.3321531592524045	14	-0.20198526261923705	0.6234449604664224	-0.9574793641126126
Si	-5.4510486979642785	2.6700300846345257	0.9766922725223499	14	-0.13589242925951053	0.1521592983990234	1.1980587173609965
Si	5.453636396301808	4.037363106189047	-3.477346765972519	14	0.5282238178242062	0.465000338001765	-0.4293979855231425
Si	4.53430288692922	-2.8841762470559513	2.6121628218114497	14	-0.8541597539329941	-1.6763020475352481	0.1264274192444494
Si	-5.56149482700797	-3.9450760654790167	4.357424100565304	14	-0.056960524373092555	-0.04287600942932138	1.0468602410201122
Si	4.392826977820664	-3.0147137631918968	-4.588508952104439	14	-0.08896410073510375	-0.06295814175340199	0.11514155244165941
Si	-4.097524267538405	1.479508049487479	-0.4010254423605067	14	0.9757972039660076	-0.06886962710548644	0.020255167712126564
Si	-2.604840426515735	-3.781915470301825	4.92789293406661	14	-0.5958785976659228	0.21641019190739583	0.19043508618953583
Si	-0.9966028597307585	-4.814712206779764	0.0479910691680541	14	0.1317835458473819	0.653494239674589	1.2961949792151966
Si	1.1002350931520497	2.2872089305786427	0.9610869825479956	14	-0.9595259639474505	-0.15013198185408663	0.1567091263735574
H	-0.2686087374318492	-0.8126062079397277	-5.144900254649879	1	-0.34742729125884153	0.21463741478915369	0.44283098237878826
H	-3.3693357853643615	-5.423581805610431	-3.0212880989682036	1	-0.40697229069974694	-1.0028827700716396	0.9535825968893961
H	3.625962010494397	-1.7091080819805389	3.131857397932765	1	-0.7930546077838229	-2.1794894701939804	-0.2302550798353292
H	-4.391035928971326	-1.7940128374333306	-4.595147697839366	1	0.5400002515220806	-1.4668605794875815	0.5495951023558091
H	5.4891228935034455	1.4946805497398798	-1.9665219166045727	1	-0.7037374942882627	-0.2731799402657334	-0.23416804502206257
H	-1.4002397304135485	-5.93302050832065	2.96173939722537	1	-0.8002467606958731	-1.460933153282512	0.1659648484155585
H	-1.1208993898762365	-4.363555476626191	4.063394899464876	1	0.4918079676222889	1.5596579411444942	1.2673392070966427
H	2.0767510857876514	-5.98852494266173	0.7637201793466418	1	1.5148515458408056	-1.276012830894162	-1.3560693372476127
