72
config_type=liquid dft_energy=-6932.810808387841 dft_virial="7.986570190506011 -6.1280901745714935 2.310865324887108 -6.1280901745714935 -9.284044678187977 4.26841652985346 2.310865324887108 4.26841652985346 -5.35819960920363" pbc="T T T" Lattice="10.914011036500002 0.0 0.0 0.0 10.914011036500002 0.0 0.0 0.0 10.914011036500002" Properties=species:S:1:pos:R:3:Z:I:1:dft_force:R:3
Si	-2.0656402988231726	-5.153923431766396	0.8405425599760477	14	0.17038175024504087	-0.8030963167221932	0.4659097379535014
Si	-5.129989005563351	2.636355763943831	-1.3257794906588376	14	1.029764961746448	0.6448321858510101	1.222153573758232
Si	-3.2584653070353675	-3.854184771440647	-4.023450168605725	14	-0.30190150068657556	0.004400446755433438	1.0919348026086926
Si	2.6705930165653315	-2.274468985995564	-4.09871318871343	14	-0.05723820374766855	-0.7882785225411157	0.2273281335388726
Si	-3.8732624627324492	-0.6454109566544641	1.5276559528009783	14	0.7475481005014579	-0.29201045851996593	-0.9964100124281668
Si	1.6986894197539697	-1.0937912720669938	-2.2514949927637313	14	-0.14487895657449207	0.7041432147077822	0.7193415324762414
Si	0.18349726755667453	2.871869208100464	-3.0153447971862937	14	-0.046029212993950984	0.6015900510240997	-0.7171015855213284
Si	-5.348280140304388	4.868685753327468	2.8733862556345375	14	-1.707482098863216	4.723902860460942	-0.23454702594625237
Si	-0.152425078135759	-4.3930094963126525	2.0947370522464817	14	0.5743443050570226	0.7572177705000029	0.4506435430045902
Si	3.503735877058632	-0.7586874772022976	5.202043306426324	14	0.4249273475924691	1.2701499394326285	-0.8426987948579019
Si	0.5097279714486961	2.573632942517065	5.5392971614652105	14	0.5483843688605513	0.4826311785136165	1.7460651337394861
Si	2.041694958609092	-0.7285866347636306	2.888796839218076	14	1.40359236243257	-1.0272843593335688	0.5200158212001655
Si	5.114611164012922	3.7796093340282426	-3.380167444103379	14	0.043228507968713685	0.7564348689300178	-0.4759817859346495
Si	0.4043968509354346	4.983555719486631	-1.8162878886722573	14	3.130372149386689	0.23393484576952514	-0.278573347895808
Si	3.8142940611022396	1.8864868076590253	-4.274516078489372	14	0.7497643932874255	-0.7819991120177181	-0.9280507497287297
Si	2.75451084742498	-4.595551713128019	-2.524858227194947	14	0.33781187158255177	-0.784600556380644	-0.9167358294358219
Si	-5.93604329066406	-2.455816193378048	-3.126940560034506	14	-0.05463238850569847	-0.3127376811688717	0.2235684062292201
Si	-2.793790373145343	3.824564145487586	4.4687309048838895	14	0.42739766558406733	0.43382414333177743	0.5314860362544102
Si	-5.0503822090631205	2.166824095142564	3.06203493640044	14	-1.5114278619964965	-2.765572156590139	-0.7628382067298466
Si	-5.469436576820574	-0.295005718316595	3.306170449275909	14	-1.5254437284282196	-0.9464374952047047	1.0373085847557622
Si	-1.3827724562914407	3.3681838599853022	1.801761339982676	14	-0.5498128749764256	0.43171146609021177	0.4297671962471158
Si	-0.19858043080911753	-2.7468382976663204	0.20366635995212654	14	1.97393834160623	-1.185829254905712	0.27447732001028013
Si	-2.7189966555122087	1.3311600980998322	2.597021668168285	14	0.13930660001413517	0.3068310809168955	-0.22848641648559936
Si	-1.678815005656503	4.5015275080485715	-1.5791046008270393	14	-2.546065325435157	-1.979429965459534	1.3305254058919418
Si	0.5349065949099016	0.9721218770320916	3.8847330883318105	14	0.7631161432149545	-0.46220220408184787	0.07102627024802666
Si	-0.8345180258838997	-4.411705197218177	-3.764024126268121	14	-0.3992841715714402	-0.3044551224905467	-0.769635694975254
Si	1.960385576387167	-3.6425620974429123	-0.6592935786928922	14	-0.4031338875672979	0.12019120329043022	1.157317496678994
Si	-3.4451822078478096	-4.928690986006146	-1.7922006663147017	14	1.3382996570484733	-0.4373038772720658	0.16798985096570712
Si	-5.017072647379722	4.646672940822985	0.5874903000837586	14	-0.3896479259420572	0.4676064103542671	-1.7515775835458833
Si	4.882099072891327	-3.4350321775838646	-5.982809827955462	14	-0.4160125541159197	-0.26784798205281035	3.740104376738634
Si	-4.768975348498004	-3.6201556327849773	-0.025800722090286006	14	-0.38227373877334053	-0.5485075248053866	0.2866566459118216
Si	0.9326568131241076	1.4321910982647128	-1.3587834600332136	14	-0.22670001250916047	0.13026582237689846	1.1557092703012413
Si	-3.3128607380412833	-0.9025668846964771	3.8838599674488905	14	0.3991620440687331	-0.7624893077379025	0.14889656574775548
Si	5.395166731717191	0.22421744273385602	-1.198074647520751	14	1.818381584637163	-1.2417945044093754	1.2621879975877257
Si	-2.1327178106535016	4.267563853459121	-3.9537532941266362	14	0.11869430577304002	-0.5132754114928654	-0.5065452862068457
Si	2.324695264785537	3.5831243933381334	-4.558651441813613	14	0.0852126009624757	1.718732484412588	0.23864408227390838
Si	1.5246982558100866	3.100223061017154	0.4370952280007886	14	0.3175675025127699	0.3603046722548032	-0.01769100437634289
Si	-1.1868004741200466	0.6293782744418456	-0.5747863912372726	14	0.17202365810248746	-1.165305663798162	0.5561316234112216
Si	5.38874929322773	-4.8791195478783616	-2.1609960132490733	14	-3.632376349377089	0.38032638360386034	-0.7038447093801128
Si	-3.1132871322278444	5.7880711290311915	2.968316323630015	14	-0.11707142409496256	0.7038272258639359	1.065690502163813
Si	3.9162090961610763	3.0117650015663213	4.324251226782702	14	-0.588451959948675	0.208582718870737	-0.1019628379021764
Si	-1.6978599549151958	-3.7241443299407493	-1.148983425878574	14	-0.1321938942564775	0.4604919048228853	-0.013588291616982598
Si	-4.821395343506314	-5.485120010680025	-5.32195554568435	14	0.4719901449251196	-0.4625590735002844	0.6156496262462655
Si	-4.032967186229554	2.1252635411155723	-3.5094002487865756	14	0.8824889636819816	0.5639272147419105	-0.27588448595199716
Si	-3.1962772721493904	-1.1468770217485296	-3.4174715338261357	14	0.17800662018247204	-0.7298288139665934	-0.45493368934178924
Si	3.6842536196023423	5.783694610605555	3.9928472816593796	14	-0.9474664515538279	-1.5658255085864654	-0.6172287991339004
Si	-2.6201048015104824	2.373055247688268	0.050204450767900005	14	-0.49646578202026914	0.3294866325559123	-1.0596599746354056
Si	4.3304612990624705	0.8573719649943307	1.6090089910670493	14	-0.447793729867738	0.3350700448691459	-0.4801510903218016
Si	0.7553259618030557	-3.7900213005570635	-5.380181794564077	14	0.34354209400956576	0.9320074237059057	0.03497474566997432
Si	-1.1715426866910197	-0.4670651023070176	5.283374516670322	14	1.0620688432098522	-0.1220642535161581	0.23234487423954556
Si	3.70774057135289	-2.844202190122937	1.65939898002257	14	-0.7761506187459772	0.45710575911625034	-0.7578551475088675
Si	-1.4609386033348537	-1.3676128949617423	1.4113999072401802	14	-0.6050427883585265	1.71262276684032	0.8142268887636461
Si	-0.11620147550561552	-2.0180442966929966	3.726883746710911	14	-0.1337661251597481	-1.289709880266187	-0.42415910132280876
Si	2.2750365145694618	-4.796380430210656	2.0212530159377273	14	-0.7861576177625255	0.7806932476256149	1.0617430841657893
Si	-5.260476921515745	0.05009531065753501	-3.5549116748087806	14	-0.2638571123748764	-0.531137137262466	-0.3932582720326091
Si	-1.5441361094660933	-1.4969984957994498	-1.6762392990518893	14	-0.10241560954905447	1.2569018050495013	-1.078715721715683
Si	-5.290948840329653	-2.8461121420543245	3.041527509662857	14	1.5444205425751687	0.9588266233003703	-2.945542844126672
Si	2.3197293897639293	2.1364940584721306	2.6078374531054562	14	0.3836145701977977	-0.5048077332314896	0.17148115487993618
Si	2.968032559343066	0.8918274978365611	-2.3794617721666937	14	-0.7532366710222856	-0.4388851070439569	-0.7785386613673307
Si	-2.783520288759997	-3.0392246533341556	4.856342006845187	14	0.5335948568379956	0.0055816125395094646	-2.013177522560202
Si	-3.0780457905909864	0.8518494754098616	5.405676924345341	14	0.10657385818332997	0.8144665157794839	0.40354063642894533
Si	3.4289530734365337	-1.7381217416288444	-0.7408648971796931	14	1.243853959770814	-0.41755727419226457	0.4334898996401582
Si	3.5249418005025515	5.348105516127804	0.34919378311281757	14	0.14094876498211373	-0.7515191726684266	-1.4763227612867906
Si	0.27887481000464803	-1.6307387870407206	-4.013998635048116	14	-1.3247193358579832	-0.35364859480200384	-0.18712478808984517
H	0.24739880217538204	3.111093416009508	1.759885371036729	1	-0.05175583587351681	0.11715755612318753	-0.43873212627740815
H	3.3444578913930547	-3.093086389200387	-5.379474566648912	1	0.013238621293442459	-0.42160985039788196	-0.4976896281526597
H	4.074872623005299	0.8435515528188107	-1.293086570599002	1	-1.9461963723123643	1.145702785505757	0.7187170109939773
H	-0.4278237756252818	2.0587535578591414	4.521065770606114	1	-2.4463828008414197	0.937102326008311	-1.071370588037084
H	0.5522380444358636	-0.13023798509965817	2.745856036673035	1	-0.6417242337400152	-0.22139890756007916	-1.1398278098492187
H	-4.799586966653179	3.6401784774325407	2.9159247050504002	1	1.6765488736459824	-1.864497443880403	-0.7076193491006223
H	-4.123996586680585	2.9580342338325285	3.9399961832151282	1	1.4587279162494213	0.39115382232806795	2.2313687191228646
H	-0.32870163599068514	-4.170139933941804	-2.2561803777017007	1	0.10235081769498676	0.4057672136361935	0.20564523104246785
