72
config_type=liquid dft_energy=-6926.413313812297 dft_virial="103.76004939821875 9.2379022908883 -7.169960271983185 9.237902290888302 130.80316579588558 2.196702303408612 -7.169960271983185 2.196702303408612 110.08485827258839" pbc="T T T" Lattice="9.799987616100001 0.0 0.0 0.0 9.799987616100001 0.0 0.0 0.0 9.799987616100001" Properties=species:S:1:pos:R:3:Z:I:1:dft_force:R:3
Si	33.11571635283286	24.131391506008484	-8.848408818576692	14	0.4106746823607602	-0.2619588653170111	0.1372324893523717
Si	27.446345117018083	8.199933838031738	11.182305269313755	14	1.503502686957672	-0.8254603050179051	-0.9052830978977544
Si	3.587442266675263	-6.922691652037808	8.939440903542645	14	0.16095864924669817	-0.5944212951704628	0.058298527581697616
Si	27.852231204114094	7.95829554338156	37.92377647705623	14	1.0969664557202223	0.3767039533183037	0.5425191634042296
Si	18.833557400695284	8.779867705189687	-5.144709298811633	14	-0.6921029856040607	-1.2769523127781441	0.27220857667578147
Si	22.757374442305565	13.363586512905293	3.3584851560003184	14	0.5653091838514902	-0.37548987738612977	0.36347201689869363
Si	1.2336812410403648	-11.134442129796723	-0.5522489021424672	14	0.3251844020237085	0.4926551468252778	-1.8962467379262515
Si	17.718554009685892	7.287741190737533	6.229812927604307	14	0.11684233861093736	1.4173436621268498	-0.07433888234250545
Si	23.575800808088925	6.797908409722007	0.1924129568545074	14	-2.0740396992566192	-0.4776146949234755	-1.9953420220648665
Si	27.331459862194542	5.686815213771438	8.562317780099884	14	-0.36933413702863127	-0.706451553064211	-0.29395935635263815
Si	18.65709882367979	-8.67734023475005	3.841173746043708	14	-0.19146687075451124	1.0619641992233224	-1.140459273315847
Si	10.83067191366047	11.911777147505775	18.82787340787795	14	1.3884567796339222	-0.009386591302796607	2.0776572444420673
Si	7.083587848718938	19.586804048843963	-1.9955420783035949	14	0.3946011603413225	0.43441138378689925	1.3807583760843347
Si	25.26450527413243	22.463796213290056	14.068097822639105	14	-1.996488992148185	2.1953781297408996	0.6095177971682443
Si	8.966145869796517	-4.852003268693959	-9.106344492632443	14	1.1746755429163778	0.03426537771214547	0.39021048378610557
Si	21.923699295791554	-11.817413066750346	21.78473547139526	14	8.660246336538814	-1.1304633300521754	3.644948283061017
Si	12.419367506081674	28.206520356411342	-2.742203134774254	14	1.3735975906571902	0.6700519008258107	0.6350439878972064
Si	1.8659078421178241	22.596899645091927	30.502236055396086	14	0.7738638776742375	-0.00627658230754549	-0.05726468613246608
Si	32.812984935383916	4.071718454712461	6.016192797548559	14	1.8727254951259409	0.4035367797709651	-0.06633014638077618
Si	16.516918728150173	-4.251705027269753	14.000370108224239	14	-0.2662883495656085	-2.4060285315100995	1.2492537951641889
Si	11.017743877264202	6.689618546564102	-13.075476676979568	14	-0.5927166523432046	-2.8490957984678094	4.573412466525227
Si	10.492415541103163	2.90235453239656	-16.584244643072783	14	-1.2019883947323107	-0.036486298487689375	0.9567846514551085
Si	30.61694491044253	17.13066255258367	4.442902785659864	14	0.06026799425693105	0.16969115135604915	-3.8183369409779715
Si	17.078879418020197	-21.977422827903013	-6.297168242489761	14	0.9820532174309919	3.05555169901772	-0.6191067344597366
Si	15.995608386911734	10.606555996867879	-5.709609984966486	14	2.3058258723100966	-0.6313251411621442	-0.24712693005667294
Si	52.26013916069846	-9.263310894279517	-8.03601924516485	14	-2.866991205717104	-1.463336365425255	3.163486700357536
Si	11.130600534651212	31.34976838439926	5.270619539703287	14	-1.8816803978454846	1.7381749257330155	-1.5013923237108944
Si	6.950945016335026	-3.869319310477147	30.786827695767627	14	-0.7726546868421719	-0.26740523771668084	0.39044573992289916
Si	8.702849602514759	2.066317588867069	8.44628592672526	14	-2.4647793165176113	-0.08869593445021232	-1.1314084683678618
Si	20.080272625265064	29.754046200857314	17.580893583642535	14	-0.42227705222846046	-1.242693877050363	-1.5340345626344305
Si	27.39192578578588	23.14370955410746	3.6061896429848623	14	1.2119668544798055	-1.0067479126994183	-0.682333556719094
Si	26.752652993612443	20.073589033710885	-7.929689379530164	14	-1.805669011492223	1.1206249955446288	0.733572600423261
Si	25.040350157389373	23.996925875927975	8.834649635963686	14	-0.07904426218890845	1.689339865503187	0.6073439276200591
Si	25.49514798267734	13.490986351914593	11.771539324719383	14	-1.1035847379248154	-0.09668384445884837	-0.21667681552909518
Si	1.9958948778577745	2.780236886712338	-12.450002267369603	14	0.6195919020336486	0.4913323131380616	1.0309209306983864
Si	9.973878596360079	4.2939527738827605	17.9994118547757	14	-1.269221770412055	-0.8622790474234896	-0.5013511392390826
Si	6.029579580632151	7.472911956743743	29.050122890380464	14	3.216895242730845	-2.8992454648478296	-1.8688079019496313
Si	-0.9280784272199022	22.721036088225066	-13.918265811976553	14	-0.16040534738180232	-2.182351624636369	0.7769723440062966
Si	10.128346001165047	17.06992222933908	10.809670540199168	14	-2.863087496509523	-2.4487042518349815	0.2061795067279946
Si	24.439454116720587	-10.54968666873165	22.99482814224367	14	-1.540866503691128	-2.3933506682869816	-0.011027727828647126
Si	15.886377724942685	12.065186153648204	-1.6270527439506188	14	2.170024203068387	-0.6038335975264609	2.8439700429015624
Si	3.5635694968424434	0.9457184049288824	4.290444378316196	14	-0.24941367112841262	0.6044210950921147	-3.038487273007897
Si	20.53771644720938	0.11428745557895821	22.261671468707995	14	-0.03684753878517018	0.8685306900094298	-0.7169920564346901
Si	22.61574502127769	0.18196617005574484	-0.43304185278022683	14	-2.1082297435828847	0.38116147861184446	-0.4943934711322298
Si	25.74141187148232	-5.998405820025337	16.351543937128486	14	0.03620321979194107	-3.802358806965911	-1.9722085019468347
Si	3.4948029837402697	-3.6232612214121085	-2.2895025068361305	14	0.3007699572351784	-0.02837857497113442	0.17977476931113787
Si	40.54265656766948	14.67011106189613	24.716284166900177	14	-0.6848396130746423	-2.384679615594782	-3.1616450176167143
Si	28.641110607234918	24.915841314726823	-13.516505519666918	14	-0.6615297151316478	0.6312773186031895	0.5677105962205085
Si	5.32651866906552	-20.77940374179764	-8.54897999695437	14	-1.1063666738812155	2.8533301518195615	1.0008055740834918
Si	14.475669507605089	-22.747339254986677	-7.3923854585022495	14	1.7728267405747793	0.06354126844001157	0.8613364802131236
Si	4.623957556867312	11.341221868496433	-12.812974208694714	14	-1.9756152164960306	0.6289242430141899	-1.306690231132041
Si	9.0007104261185	10.951084361499491	0.9101346498948232	14	1.7739582840261767	0.47739692230285896	-0.33119127538317045
Si	7.433447406613708	13.002466769239623	19.941926200088577	14	0.004009638746770929	-0.4911644199606559	-0.10926272012714082
Si	-4.60064338632861	9.306979639096859	-4.008655534402857	14	0.9817382570292738	-1.031333850212802	1.36529009225726
Si	30.85864200501841	15.621591859543278	-0.6024150387492831	14	1.5486834351959742	0.9187366635959612	0.293730785089677
Si	18.90714550770458	5.436748929771414	-6.464483431059437	14	0.9250227589931913	0.750639340427872	-0.5006813663031839
Si	4.148481757709372	7.327195940879951	-14.381413226713438	14	-0.5121461820362563	0.9059209891276832	0.7002207364313642
Si	-4.982235304124312	-18.161180250354665	30.10486615753846	14	3.701199182365749	1.7948438867628034	-1.1635637399437617
Si	11.25825517333853	-10.005542356347698	-14.54552381933265	14	0.7616619260458788	-0.6936320219379527	0.05106986497410129
Si	27.302383298937574	-9.019016802985377	-3.9012966700684815	14	1.0135248321022645	0.8799913919739897	-1.3709467810721176
Si	4.469362752223335	15.14229406521506	-5.559278174935511	14	-0.5218040249503285	-1.12304337720876	0.11016672075770488
Si	6.17527599652071	5.845731812954115	-3.1964913607061853	14	-1.2412504585236321	4.062484474189657	0.5282526142037919
Si	14.61078193686826	19.241393685326905	8.300618910799548	14	-4.170040237494751	7.624232046201214	-1.6123301189541117
Si	31.092479509526168	-4.517490491406002	-17.155015521809677	14	-1.0688110526908765	0.3395494245579079	-0.028284729626949015
H	5.4615693584067095	8.423686175283772	27.979465423332684	1	4.087916048242838	-7.856673079779734	-0.656722005293503
H	3.473052891225097	10.771477048462941	-13.903675590413702	1	-0.7825863524728399	0.3437873774571079	2.932167954251262
H	41.63814916333398	15.765603657560629	24.716284166900177	1	1.1084163590424376	0.5189554973661364	-0.2824413187394388
H	40.54265656766948	14.67011106189613	26.265544609154194	1	0.39060823377913245	-0.41935267703732393	1.2234355268708579
H	2.5306713820794973	1.8541919569227765	3.3427199159222987	1	0.08953000101606835	-0.04511312816838222	-0.09883200295383208
H	11.002681296298258	17.94425752447229	11.684005835332378	1	-8.043288531905658	3.841887751489464	-1.1683053723751786
H	22.7412887426325	-13.074907297699074	21.503391546919687	1	-0.3268265669916871	-1.4276021152437086	0.04856586550280908
H	11.046190301317457	27.6833823174825	-3.5209846306554424	1	-0.7760153786061375	2.605433689940568	0.06706805360765869
