72
config_type=liquid dft_energy=-6927.29925999424 dft_virial="-17.22647132571257 -6.871776264436755 1.6904543114365334 -6.871776264436754 -18.381703425691146 -1.6467356654511054 1.6904543114365331 -1.6467356654511054 -15.587684504986088" pbc="T T T" Lattice="11.2999927403 0.0 0.0 0.0 11.2999927403 0.0 0.0 0.0 11.2999927403" Properties=species:S:1:pos:R:3:Z:I:1:dft_force:R:3
Si	4.621843930688324	-4.470311028040901	1.9100038729146882	14	-1.0739483782310646	0.14069422555541908	-0.4456543131308428
Si	1.1182133816018671	4.797558817799989	4.520460395822353	14	0.3897343150808142	-0.809099847644739	-0.9602564149689045
Si	3.35157784677298	-0.8259955693377091	-4.386374681965952	14	-0.45423332025258095	-1.2983133128884665	0.26891653342386385
Si	2.427317540565622	1.238513104315101	-5.025999471037894	14	0.1426305249720226	0.9131331966612305	-0.06766969225257334
Si	-1.658918034225222	-4.399945973247053	-4.72677566327475	14	0.24080509629549282	-0.3851112106046559	0.0651515517020203
Si	0.9087454161749261	-5.266101716783789	-4.8764440671200235	14	-0.31885151250965177	0.55856877414419	0.8154252809533672
Si	-3.433389794212752	-2.9974925742556793	2.4753538097046377	14	0.8921388361695614	0.7175332741045813	1.599936877089934
Si	-3.762411682832067	4.533997787125232	3.781113170817264	14	-0.10570713857990804	0.308992866270076	0.4948912371222105
Si	2.4177577467073283	-5.2164495486829106	-2.794284804806865	14	-5.047426328447835	5.256277470713995	-3.451862901507473
Si	-5.345303365900551	-2.312012414643601	1.6447478433288858	14	-1.8340290745050523	1.0389929158509912	-0.6928992569217105
Si	-1.4776661506708102	4.849809984231136	-1.9503561469902995	14	1.0277762117813132	0.3120468251693479	-0.3147367155552868
Si	5.505232163154017	-1.3130026564591586	-0.6377489902770515	14	-0.44643464359550766	1.6996538544949613	0.7139851487627769
Si	0.8847442315945289	-3.5718486052596483	4.786021525212142	14	0.24425886207204775	-0.04659562749597961	2.089910875287361
Si	2.7499097333157065	-0.6571171778339256	-1.5261431195266972	14	1.7680671104061212	-0.8716571540787299	-0.2482715861452028
Si	-4.918039340397067	1.1465198634163185	-0.8345270638566357	14	-0.7156460827995925	0.2561849340995546	0.10293831526064058
Si	0.015017690351858702	0.8822017332279614	-4.645958115196124	14	-0.5286493357546908	1.854167771146176	-0.1763426008192722
Si	1.4625354603915484	0.45507330763736165	3.16737666511335	14	-0.7074946504925951	0.5405844066508182	-0.19265960651252792
Si	0.3465820773377413	2.3205439091625277	4.255848465822748	14	0.4979634508692555	0.5488317411862571	-0.16451885878350722
Si	3.4860590603752906	5.2140991501929275	3.758400185409261	14	-0.3529675090026966	0.790072125612451	0.6503474638732598
Si	-3.3617139402610294	1.0786521070180768	-2.538622469057577	14	-0.028221223325541358	-0.6354947026598283	-0.432740422439335
Si	5.630662082571347	-3.2846027898012222	-1.5844510820666453	14	-0.3053547522420665	-2.869900668497384	-0.40113999539152306
Si	-5.488044874196021	5.1880752669120165	-1.3612988254312008	14	-0.38368707536782587	-0.13903689106605163	-0.8776959091441616
Si	0.7508506176147142	-2.459025320194904	2.9380998124126627	14	0.12287235191828064	0.886905094179868	-1.875057230540783
Si	-1.1212869796272287	5.288170602605594	0.2826354184203836	14	0.5854908179514605	0.2305155328042602	0.09202217340288789
Si	0.2573234346821116	-1.226953211741774	-5.0959690260858315	14	-0.3292014969759079	-2.39312081147136	-0.12679277331044245
Si	0.0095484938655535	-4.967770608447128	3.0226463580955873	14	0.16031201625868094	-0.2778480390849943	-1.114761846972563
Si	-3.437638591483105	3.8438620305041495	-2.4052373547510757	14	-1.306013516211778	0.10898349808937274	-0.883902043165935
Si	-1.6539912373904513	2.478653407584805	1.9502544470556367	14	2.2701453582297417	-0.7043846414973439	0.10667824505932798
Si	5.050769055124632	0.9882069651247156	-3.0550321372892872	14	0.717076388689191	-0.5192406329461409	-0.5807910945367618
Si	-2.8793963501268043	4.446264643489543	1.5779422862482322	14	0.3130174174277038	0.7590823360781742	0.3719458658128377
Si	-5.608254196967333	4.756811043978468	2.3067127180484004	14	-0.1630325027979296	-0.9149447974698068	-0.5287524370780287
Si	-4.974121204367177	-1.4534615662210875	-3.0208496592498797	14	0.18218080966973246	0.8870652740413133	-0.26946546440971547
Si	4.896591954175978	-5.106534519298012	-5.60179060111988	14	-0.09345582172940245	-1.0474744780810956	-1.3681782148633823
Si	-4.979251401071273	3.464815074023526	0.11502262610351371	14	-2.357890240822031	-0.21079361233553237	0.44299039090863734
Si	-4.407957668099926	-1.6679806284029426	4.0788905795096495	14	-0.2327313113691638	0.2500142813311992	0.8704376788253836
Si	4.641517218049186	1.082652304448143	4.8253341999556465	14	0.03935848024082679	-0.6940431416786444	-1.377692075879526
Si	4.5770846594439965	2.6405258035896026	-4.774100032871126	14	-0.4273295312930834	0.8346635765113752	0.6554259111016163
Si	2.50257549221602	0.626245597667426	0.6741236669080771	14	0.09932488384370446	0.44901397645268026	0.10186539301054279
Si	-1.9972172168843236	-0.5201725658142299	3.549587619561257	14	-0.39678685697398036	-0.4427253099501301	-0.014476094284029729
Si	-2.9054993333568975	4.00319192814238	-5.003580285441139	14	0.031111917036983842	0.5147805365472801	-0.14248602885303027
Si	0.8683027421573924	4.45820873581604	-2.5057959901470057	14	-1.0322841307391288	-1.3761985207990521	0.15174406488981948
Si	3.786367667441503	1.6011411713440682	-1.2081613238146551	14	-0.43580646553361163	0.0979331445339083	0.4920398813221663
Si	3.588369194645966	3.249979612044943	2.55604705786312	14	0.7319818575616854	-0.9659475565950523	-0.1478912635675776
Si	-1.1120548855584036	-0.7679588066235282	-2.4770488086156823	14	-0.6179438235234336	0.13164779148647804	-1.3085691949000053
Si	3.49959645167817	3.8894462012185196	-1.8953364823377787	14	1.2524591921668176	-1.5072238476875224	1.0176748531995155
Si	3.0755868240838926	-5.0086087822105725	-0.2365314480399596	14	2.4966995890672496	0.24511992524376527	-0.19934628011863706
Si	1.4873615444419874	1.8436164155654255	-2.6794768785654166	14	0.2586118004112424	1.2564156090334613	0.30471377568575353
Si	-1.2301963096582402	1.983329525806495	-2.9495919050295476	14	0.3166079660072906	0.16306772694081564	-0.016438618974898758
Si	1.0951048964479537	-5.055729751937623	0.6637841735507026	14	-2.5747714592240785	-0.829278396418325	2.090231235010252
Si	4.371639491432601	-2.7169137545140307	5.3322970742564655	14	0.4377677046718206	0.32677411644315607	-0.44112685377259403
Si	3.0866495169766464	-0.8280860679946647	4.250978168951678	14	-0.08992595123537114	2.039418994789229	2.3982311404056866
Si	3.40732071096088	-2.1686833067256357	2.622378015248681	14	0.7345228809495877	-2.019063296859085	-2.1152537462069967
Si	1.5369572125791642	3.4152307058790896	1.2807750771638229	14	-0.08195655318504017	0.1260301834724865	-0.12881366209207884
Si	-2.677375079915721	0.3307846874868019	-4.817209505175371	14	0.4866385032655992	-0.3645642224386926	0.08386328489046198
Si	3.193705648198249	-3.0417320458339536	-2.193509390776075	14	0.367835439737517	-0.1677587085974258	0.33121775776796797
Si	-0.0017175988965256002	0.4834701893937355	1.2241847135204005	14	-0.49621304236729863	0.42050247533649426	-0.1684896738399439
Si	-3.6698195423180495	2.128963832243481	2.9616941972544093	14	-0.8365376551792312	-0.49095076110855157	0.4200826138377141
Si	-3.863603117821454	-4.87931426527606	5.556850529991707	14	0.0038785123754433775	-0.6792281757134191	-0.5281546550910943
Si	-1.991883620310902	2.0727802683387098	4.852612382430731	14	-0.09627195338656064	0.1263996513069918	-0.09783955630025491
Si	0.6593658763892454	0.0573135631788016	-1.2951599679222248	14	-1.2744202882588624	0.2837451262472859	1.1943609536895594
Si	-4.533116387691488	0.45122001011291935	1.3039513622741783	14	-0.18672626676522222	-0.4708915116218203	1.6010046571293914
Si	4.396872375221691	0.4066415387524358	2.1185000389659634	14	0.1304419430913286	0.28485198708760967	0.6024192324898474
Si	-2.075537466567343	-2.5529960598232386	5.0164057772013795	14	0.23999288412485806	0.17519280252010197	0.007076196062111543
Si	5.054554552692632	-3.695504425816751	-3.885016604064322	14	0.0027289711868051713	1.210328803280339	1.7013289296110377
H	-4.053075746094434	2.4384401234198996	-3.206096090237988	1	-0.301578826968897	0.15797590996479438	0.05106626542665308
H	4.706313636420615	-0.0849567354193975	-4.701849009288922	1	0.5933964525898519	-0.11514643754176769	-0.3237731223134792
H	1.2040356964651717	4.425191287028158	-1.004377254736085	1	-0.21190381561277227	-0.34928902862116085	0.5171364403521317
H	-3.549325459729682	1.907767604351383	5.2500636370874805	1	-0.6847090009243788	-0.17324364757689772	0.27558778039805204
H	0.8870822000924969	2.2300501773003827	-1.1809283413105323	1	0.11786255320197211	-0.16852001288272167	-0.18783312760554596
H	-3.554698606277695	3.675034488967698	0.18642502023092133	1	2.456391599631692	0.09585132055618441	-0.17809917997399735
H	-2.832840380036768	-3.816765777912184	1.487221424532008	1	1.073649101571799	-1.2349057419251026	-1.0519507724434736
H	3.3208576865092008	5.315699644919513	-2.3236389771740957	1	5.104409478547744	-1.826018024548535	0.9197355380128387
