72
config_type=liquid dft_energy=-6927.7030386067545 dft_virial="23.736501989000534 -14.574207446731194 5.154089087222382 -14.574207446731192 -3.9532985310052178 -11.680851275488243 5.154089087222383 -11.680851275488243 22.40083138024605" pbc="T T T" Lattice="10.914011036500002 0.0 0.0 0.0 10.914011036500002 0.0 0.0 0.0 10.914011036500002" Properties=species:S:1:pos:R:3:Z:I:1:dft_force:R:3
Si	-0.5511466433322136	1.3496702608177362	-5.325142436907008	14	-0.3256628847237881	-1.178101283644943	0.3724174065285528
Si	4.090287572193252	0.7362046144671076	0.5646909310285101	14	1.004815212830263	3.3996753770507033	-0.9666826356060826
Si	4.346745003528929	3.9195269555161727	3.6990202765347266	14	1.2938740424426987	0.5156912220516765	1.6705779957610023
Si	-1.4759671965321142	3.057953096272789	1.9436434834571756	14	-0.213114291997498	-0.17046839649432988	-1.5371581984878784
Si	3.7249083107133045	-1.5237378228388745	2.8311053768791368	14	1.0695412466017986	2.4008503253953215	1.9380058592045006
Si	4.701843266612493	-3.4942843435010227	-6.243752917827139	14	-0.6935381765937673	-0.5899054057861547	-0.7471133265918208
Si	-4.785117170820987	2.551030025660474	-1.5085127774429572	14	-0.8921771456388315	1.0751349433363129	1.1554022803260156
Si	3.820264025139205	-3.7698740361836847	-0.04452916502892001	14	0.07245349081124085	0.5496030727823016	-0.13071705136058445
Si	4.110511234643886	0.38391125221992406	-5.196073342389359	14	1.568665037302037	-2.4066975331144023	3.6846032117452574
Si	-2.8789851432962625	5.262506927568534	-1.9676652217485124	14	0.6077167378914805	-1.5809518354059606	-1.2733123989764106
Si	4.136835829263925	3.0837319903410028	-2.9970965707332655	14	0.550217566953817	0.11429077369122241	0.6614831781253531
Si	3.196484638359084	-1.9980825705072376	5.343205125172415	14	0.11076218874985118	1.2143453840114742	-0.33028984585792653
Si	-1.3462869173964211	-1.5117542387207976	-3.3385741480432776	14	1.3128074049097374	-4.65892588681016	3.083820230681152
Si	4.930895616235518	-1.3388544758805647	0.8127227458440092	14	0.8024843936559979	-2.0071256548576373	-0.09752279612481268
Si	2.1450506431247467	2.609245360529165	2.119118952902023	14	0.7668465599239574	-0.6663880757445996	0.19561792029389033
Si	-3.5838119760334326	1.5131730601555426	-3.044517948686858	14	1.2579898968209882	-0.3878201271699639	-1.6975982557915026
Si	1.2778124121534202	-1.7480971477162053	-4.329915598510646	14	-0.7932248149560166	-1.0785977079814881	0.34513335109220544
Si	-0.6836973073705062	-2.947601530682738	-5.352089130156126	14	0.1911740218585464	-0.003241392477110683	-0.14397007084381974
Si	-5.382943039356312	5.516596018509291	1.0151994785931573	14	-0.08512389782893058	-0.33341862392201477	0.9152132208652303
Si	2.4500863375838855	4.7388635920483	-1.6924138634079824	14	1.3683705335413294	-0.9256220836433179	-0.3025602178695975
Si	-2.073367418637015	-0.6880956538182157	4.895283198223418	14	0.1087744672268447	0.28477202571215304	-0.6278515778746242
Si	4.2836183636938125	0.4149943556518761	-2.217781612671983	14	-0.9189112416471994	0.8990952187237541	-0.03304615956933124
Si	1.9996105320523476	1.5726435062934312	5.469141898522589	14	-0.6943660725068549	0.049258521276056975	-0.13367845046833102
Si	-4.226756366193648	3.932001670130892	-3.662032693132028	14	-0.2164220189918685	0.0718950467357047	0.30133508618454696
Si	2.0817493791130466	-5.368361920611547	-3.8934315551279015	14	0.2827408525092361	-0.37525950634944455	-1.2040316521302323
Si	-3.820831553713103	1.1753844185758677	3.8177428885897737	14	-0.22221214817284196	0.4134247366111906	0.23615422388187696
Si	3.880553022104831	1.1096820721361378	3.7888644153871947	14	-0.5242689436207545	1.3605929399478813	-4.133385788719124
Si	-4.770590622131406	-4.044557865950317	-4.541341820309724	14	9.717896992366523	-7.907953261169024	5.227019320612839
Si	-3.604755963212476	-2.5580913908010894	0.7694268640622137	14	-0.0836048888057871	0.8142852528544136	0.7546469222903868
Si	-2.925053183881329	4.650765694961673	3.109674594574763	14	-0.7663073991383224	0.41088705566020445	-0.16657445748696562
Si	0.4219684087041996	-2.3444168827284924	-1.743033046595269	14	0.06260281499815752	0.11902315014348695	0.21070722319677537
Si	-3.8477345909180753	-1.2543363744139087	-2.7588000537623243	14	1.5053528543460506	-1.4261090743842988	-4.225695925917869
Si	-4.429626003340109	-0.7293615295472221	-0.8837402156585147	14	0.22036635166350768	1.3121975387277982	4.630769455338687
Si	-2.4934149613987904	0.6486633319433411	0.42025490897146905	14	0.8424170017148137	1.4640290211985025	-2.9304036617805758
Si	3.8393526304420433	-3.6652304983657227	2.65650302831721	14	-1.497666277880936	-2.5416455953898223	-2.25334009963619
Si	-4.302565086853177	-4.4217351733607195	-0.7583491428601662	14	-1.8408972681467635	0.24651732098526577	0.44093890597369123
Si	-0.5282272201555636	-0.8898193198058452	0.3498704517970806	14	0.9514699196478303	-0.12878589415462122	-0.5203693481816859
Si	-5.428836455764794	-3.0860457606807405	-2.3364714826939204	14	-0.282132271879957	0.10671938274445035	-0.5939682664130528
Si	3.741966909963354	3.9501953265287373	0.09071725973538801	14	0.7916117034781557	-0.39687196056007723	0.08564248977200445
Si	-4.459945125999507	-0.363763987846545	-5.01439871467578	14	0.3426445211423021	0.635453822085238	0.10394593143560661
Si	3.357586355268861	-1.7819196679183187	-2.2899559676563572	14	-0.13847998965370753	-0.9735048064625634	0.3659569901906167
Si	0.7184802605438316	-4.772664284228341	-1.3385925396156886	14	-1.5469597661893468	0.42535209419135755	0.24532252834299298
Si	-0.1371127206515495	0.20739895172660952	-3.139666296903065	14	1.7940836109196356	3.1897543978608294	0.5710021252513621
Si	0.07914840803669801	2.6503147840595145	-2.6516899494501134	14	-0.5840563982933499	0.3089267888633482	0.7108818246413583
Si	-2.3330990532836418	3.066880757300646	-1.0219661654357872	14	0.41136913790773216	-0.6098378997806027	-0.1671958936428454
Si	1.8064107086842247	0.4047788413217121	0.42496976173923706	14	-1.7090856972513921	1.0970291906900338	-0.08534964087603959
Si	-0.29991702328302006	5.063271656097227	-3.618136540743225	14	0.002059455361438611	-0.28292725764494675	1.742647363437413
Si	-0.023366897629146503	-6.212255081975801	-5.841778977341809	14	1.030825285580477	0.7372973607005595	-0.5748068469041171
Si	-0.09046623748154851	4.595158808730705	0.719320639393642	14	0.5657994936360424	0.04638042598068321	-0.348494299966703
Si	1.3752308746652193	-4.252917250648138	4.90216993918745	14	-0.18108011948217703	0.311093716427169	-0.5700037650555486
Si	1.1681266012365952	-4.64834278451157	2.118813360593001	14	-0.4604440822639306	-0.1531373468628077	0.31878440666079594
Si	-5.404017994667793	2.7794493626433825	1.984658336932343	14	0.3675284497622912	-0.439041944468486	-0.06311446495686698
Si	0.45963266079116105	2.328820760957334	3.668777551952585	14	0.06816977223734214	-0.0027569962347947854	-0.1332179655054925
Si	3.189303219097067	5.0400138985784455	2.1143386160680357	14	-0.8825761241523346	-0.07201948823319985	-0.38801964494280744
Si	-2.2170831159656466	-3.4915776687639712	-1.1597228127384902	14	1.6225559190334047	0.9436509312587282	-0.1675219097974402
Si	2.311358343298934	0.14251515611461701	-3.487735936879123	14	-0.6978545482052319	1.1898702611373888	-0.07808729678874932
Si	-4.796827904663152	-3.6595115565825966	2.8115038130575827	14	0.2295981624260314	0.45993654607373335	-3.121881588287964
Si	-2.9508975620157605	-0.3006810040555751	2.2441716913582397	14	-0.6089426409081271	-2.0877912560614313	2.8404458288392354
Si	-1.5704934461192408	3.2050412230117002	-6.616564620822944	14	-1.9430657944745517	-0.4556793098846322	0.3506589135357357
Si	-3.424401930834313	-4.073785587506063	4.394351919670141	14	1.2297103094046795	-1.2975610074717912	1.7268795458405413
Si	-0.46918242044809855	-3.1266895377806665	1.2920224545229433	14	0.07571725190463682	0.28724594325119945	-0.8028312357636859
Si	3.194803880659463	3.5118122452256415	-5.131276858865658	14	-0.0983774315332299	0.9409558986621489	0.08937650602845551
Si	-1.6682065869290255	-3.1899471457482202	3.2314422157089937	14	0.15699734727994602	0.9164887462145558	0.9955736318675225
Si	1.516763769786551	2.855585503634006	-0.13626142779070252	14	-0.9347420513244151	-0.07316208743747367	-1.2353222609869667
H	-1.6311600678667295	3.2994419614719064	-5.1058941433980705	1	-0.2556748268040372	-0.11975437249653709	0.9109014772433419
H	5.264520562604768	-3.382761704526755	-4.93000503293494	1	-7.696830033131447	7.462692841373228	-1.4326391676764108
H	5.513656875337161	5.0896137131349235	4.184712321477739	1	-0.9305056410884072	-1.0285228607662842	-0.2934803594314946
H	5.611452962630823	0.5984425101588863	-1.3627779880725728	1	0.7685370616719548	0.44837377122796346	0.6286853873299482
H	-2.275718640259243	-1.0740892993439037	-4.1772242185055966	1	-3.3876647156581634	1.9220608924510705	-3.6644377756088033
H	-2.0908975031638413	-4.507589149778244	0.022014651661724154	1	0.42171423727387997	-0.4274367463849336	0.33983121770099606
H	3.3539574465992246	-0.5304558612092168	0.8414298690733152	1	-1.2041550651855997	-1.8129845774596403	0.03164979226995882
H	2.4215418331190235	-1.2794866214464193	2.3676768230494813	1	-2.2381356112149624	0.45515583284145006	-0.7063566792778976
