72
config_type=liquid dft_energy=-6925.51488889232 dft_virial="-21.69769648331312 -9.195488538934937 0.3497491678834207 -9.195488538934935 2.424397641010075 6.314032326259027 0.3497491678834207 6.314032326259027 -21.737440706936233" pbc="T T T" Lattice="11.2999927403 0.0 0.0 0.0 11.2999927403 0.0 0.0 0.0 11.2999927403" Properties=species:S:1:pos:R:3:Z:I:1:dft_force:R:3
Si	0.6016907134427542	-0.317755795857236	3.7379923985202788	14	0.6611101107433998	-0.11082595216179085	-0.7746130977645286
Si	-1.2822779761982828	-1.8569843069772007	0.6283586963098621	14	2.0721681916940833	-1.6345475542465753	-0.815508070544676
Si	5.635871379224626	4.09550156883789	-3.817001947760456	14	0.4004774215505209	0.09835352025375253	0.5525631863373881
Si	-0.9881956651319753	4.365978195069711	1.4850676459157068	14	1.2510895643627746	1.4921977939755129	-2.966531291076105
Si	3.1382452838288564	-1.435166877974542	3.2677771006109153	14	-0.736680809644788	-1.5869587087654227	-0.20675260610385565
Si	0.828515467718796	1.6006891716344562	-0.8822808331771433	14	0.6304728197485151	-0.32013912205398193	-1.5180759690228034
Si	-4.492278213928044	-4.506448404824381	4.436456249790962	14	0.7211474768531134	0.8124757089300934	0.00040443486685929285
Si	3.459865677203275	3.080943020642795	-0.9463065920436833	14	1.7327043849433363	-4.410855875322057	0.021795259798895263
Si	2.2923843272537	1.4730783536182483	-4.5905316508049525	14	-1.1118914649931497	-0.1767856022659337	-0.8017467435396475
Si	-2.1467500208167136	1.049735425595649	-3.2552002086909617	14	0.5465090046400354	0.435326954391404	-0.34263500805261754
Si	2.7532319311813547	-5.380932243010717	-3.330367760399437	14	-0.6084960399140175	0.5021209281719349	0.13448654887045355
Si	-0.9688952775315429	3.9569975578200336	-0.997676359041087	14	0.2869063002384079	0.37346178950959696	-0.9017354867770142
Si	5.540228240670726	-2.1929443911390596	3.813928349735095	14	0.14636017034942939	-0.04125955551454428	-0.21540231862189776
Si	-3.3189886677099545	-4.409494467112606	-2.673307082529213	14	-0.22632206002709868	0.035871032984577944	-2.1741423424596684
Si	-4.871404270357849	-2.23212146596968	-5.049040156235366	14	-0.46310080539123955	0.05917038939575983	0.2979795366312217
Si	0.0973381374649442	0.5503887464017921	1.021632343650523	14	0.01470235155220276	-0.5301668021146422	1.101147072970783
Si	-1.6618447323449599	-4.326993220115676	-4.593322749011807	14	0.9100692104512101	0.18158508456705413	0.07131911914399151
Si	5.362174255061818	3.1556924726198794	0.6911866559459301	14	0.1039266481457055	0.028050501932283527	-0.6440590544812416
Si	-3.1060629045044816	5.2680679155206	1.7754548593559363	14	-1.009138783536624	0.7082279297299013	-0.6324196606969313
Si	0.2664990287872352	4.3079414323555305	-4.8973038537186175	14	-0.6434417320938741	-1.3478510562022916	0.10336640429644524
Si	2.6752054813095834	3.93654457096009	-4.476537324040806	14	0.4498547278923687	-0.5580756361437855	-0.8424915637690981
Si	-5.602039200960167	-4.7868012247112235	-4.205958997874323	14	-0.20031712948752498	-0.3786813904200296	-0.8982624377105581
Si	-1.0392942323036118	2.0220885009057237	3.790831164573922	14	1.1922241080579843	0.33000985248856246	1.2875846046085524
Si	4.049024698697036	-5.45485679551776	5.323234480078745	14	-0.013537383731643668	-0.3300299071100596	-0.01325430503589536
Si	-2.564951452142476	2.0067205107789157	-0.6703946693037781	14	-2.070922491166472	0.8384436155530569	-0.48600524002524675
Si	5.4953672694917355	1.2375639049249159	2.3646364808351783	14	0.7396028708411363	1.2121154643673098	0.17336577507960474
Si	-1.6806931202357802	2.3618566826210645	1.5325615154031875	14	-1.1515255677242964	-3.0708924560209154	0.5409099085843488
Si	-4.56743446564378	3.9052661910549396	-1.5237023210947922	14	0.29348575875266686	-0.1452641081514503	0.31080626685237644
Si	-1.9494069476001143	0.4348011206612634	5.547855735770428	14	1.244030594706308	-0.7142538292687324	-0.2395264856197832
Si	4.1011402652153	5.22851794092955	1.2078449240179268	14	-0.18771151432390296	-0.7828511763208151	-0.00021622995742445346
Si	0.7335842287075358	-0.35848096969327725	-5.1901544655762315	14	-1.1156555631818468	1.8430166302621618	-0.3703834051097837
Si	4.722334766127812	2.011737707555609	-4.616544234093124	14	-0.20479496651309487	1.133011809645506	0.6671403811612749
Si	-1.7165253972152716	-1.135683170378371	3.575035203212413	14	-0.7020277092503642	-0.9018840966645186	0.37584931790988646
Si	4.14671313593693	-0.9869187659523214	-5.021841073709464	14	-0.04911556782025674	-0.8931276832756905	0.1655082201107002
Si	5.1043197207209134	-4.788993423302841	2.857564764152545	14	0.3181992230899302	-0.06326873127607588	0.7750887522487561
Si	5.447421400294642	-0.826967368713375	1.3308792449743132	14	0.060452856729449694	-1.284537844804177	-0.7137660905895004
Si	-3.5004326511409523	-1.8815730911800932	1.827061926200886	14	-0.03097153468650376	0.0594526967599121	0.5071631228152773
Si	-1.846757813547229	-3.5554975157644337	4.201619800662048	14	-1.2285869934903069	0.33017131790266774	1.534150262373837
Si	1.2195630164896178	3.6160541768597017	0.849985453925366	14	-0.10666076154315096	0.8705585207754305	-0.21599392995606387
Si	-3.204576241214417	1.1654586512490615	3.556141615350631	14	-1.7440267614416727	-0.16765817837940802	-0.5722609384161065
Si	2.195351289592744	-0.27304172458386894	-2.0838881612024247	14	-0.3928260692282923	-0.8670044818913899	0.23853866695578227
Si	0.40270914127881147	-3.392291720616281	0.3056309036468941	14	1.224429773298159	-0.5587109562683942	0.7274744528249338
Si	1.1207219799902137	-4.507397604214566	-1.7012591070231262	14	-0.3208068381056244	-0.1589120494118603	0.20222566096667088
Si	-3.6897188295337173	1.9948668183943412	-5.36789205138841	14	-0.47857500276055076	0.33679037143885693	0.19345382094592167
Si	0.1932524758446106	2.2060636827105484	-3.3930601201226214	14	-0.38810629119209644	0.05726108658501787	0.32859111657290474
Si	1.0292259387720046	-4.861166476935138	-4.9909355935647435	14	0.158333807825359	1.7004390700597345	-0.08363394229590476
Si	2.7761596164514235	5.011083480620698	-0.808661380474089	14	-1.7417845004919714	4.544735129115891	0.17516246347732423
Si	-0.0803881483544942	-2.951072204078527	-3.1136451996332233	14	0.09081683922880246	-0.4236849895017735	-0.7075707552100715
Si	2.5275145761938624	-1.5182105246230067	0.9164972111947718	14	0.010079504186576516	-0.3668774458952298	-0.7447587083396292
Si	-1.260129990427295	0.07017295491726301	-1.0581426201944324	14	0.7000505292591703	-0.651949262487712	-0.21186524903297005
Si	-2.8237664858663076	5.5896205089385775	-0.8046046830803213	14	-0.41373404058120444	-3.025812238000631	0.8487514338920626
Si	-2.391372263658728	3.643976458920983	-3.146776778347783	14	-0.1541976706968368	-0.23088371508610542	0.1811086587512307
Si	3.706363718840179	0.614945604927126	3.8477718279922937	14	0.18974782973746027	1.9102662039054232	0.6043647878856035
Si	3.3727427331755617	-3.5815213990453447	1.8972235811254088	14	-1.0614767176546223	-0.00945086893580031	0.016943069838711813
Si	-2.7427116379401353	-3.527835133536179	-0.6662927719390492	14	2.3472507498967263	2.318105471319124	1.9153544213339964
Si	5.351224562096468	-1.3754012163710951	-1.4479923697347825	14	-1.20374677366076	1.702933042220278	0.5240087477623555
Si	1.5722470899071213	-5.556511530209499	2.3857448672740587	14	0.200716936364808	0.6339096162299571	-0.3159263659869193
Si	-1.0583460200637578	-4.815254606431298	2.4798625068080176	14	0.9538178530261896	0.42951522792574126	-1.0514653477590297
Si	5.055481152097337	3.8982601955559537	3.1715802624127414	14	-0.2825115099146788	0.40198897436823594	-0.19865670967177335
Si	4.599266545193204	-4.663314904045225	-2.154795615647807	14	0.5954998738522649	0.09259038767864061	1.1620046216776239
Si	-5.6291252835586665	0.5496429468809323	5.261852919513435	14	1.0056407947485624	-0.7809493297155016	-0.5956338284394447
Si	1.9181511676804446	-2.127822532976711	-4.602611343044333	14	0.5745523074774225	-1.2454603863748426	0.9670212501767462
Si	3.5587971136446015	1.4381387760652407	-2.674900381505595	14	1.09730944116993	0.34744606032767866	0.8514096996825636
Si	-4.8613020768480215	-3.221910430078038	-1.0419836305758035	14	-1.3332430642153381	-1.2956614748612658	-0.32332729265096555
H	-0.9988594682809965	4.59193849990112	2.8567748946599973	1	0.4331813670017405	0.3850489898559083	3.8132803481448363
H	-0.7930108905287735	0.5038011363320832	3.078643472120144	1	0.15801704764991678	0.16602141273260176	0.025479139501603434
H	-4.209836025383519	-3.9782505841659894	-4.573846081524626	1	0.0566833592195806	-0.018006993220189088	-0.10238707028000082
H	-1.022641433002232	1.88559588859564	-0.3128787189905225	1	0.925175225538676	-0.07301476310262918	-0.22727799698512977
H	-4.301376136573416	-2.2572594298197513	-3.4852917908682244	1	-0.25212104503052857	0.3348281038585199	-0.5407127048062935
H	-2.297854653739279	-0.9316222514776634	0.8228733813435642	1	-3.1676711742660775	2.4686711986407195	0.4104566526296117
H	2.3494764105747916	2.3257080058448447	0.03394404819258717	1	0.6669236369827864	-0.1951016423456046	-0.22194938120912283
H	-1.9998388152000732	-0.5082770634565161	-3.3203152868576664	1	-0.36799433404630205	0.17722423283355096	-0.1353087883518369
