
     Program PWSCF v.6.2 (svn rev. 14038) starts on  1Oct2020 at  7:54:52 

     This program is part of the open-source Quantum ESPRESSO suite
     for quantum simulation of materials; please cite
         "P. Giannozzi et al., J. Phys.:Condens. Matter 21 395502 (2009);
         "P. Giannozzi et al., J. Phys.:Condens. Matter 29 465901 (2017);
          URL http://www.quantum-espresso.org", 
     in publications or presentations arising from this work. More details at
     http://www.quantum-espresso.org/quote

     Parallel version (MPI), running on     8 processors

     MPI processes distributed on     1 nodes
     R & G space division:  proc/nbgrp/npool/nimage =       8
     Waiting for input...
     Reading input from standard input

     Current dimensions of program PWSCF are:
     Max number of different atomic species (ntypx) = 10
     Max number of k-points (npk) =  40000
     Max angular momentum in pseudopotentials (lmaxx) =  3

     Subspace diagonalization in iterative solution of the eigenvalue problem:
     a serial algorithm will be used


     Parallelization info
     --------------------
     sticks:   dense  smooth     PW     G-vecs:    dense   smooth      PW
     Min        2386    2386    623               248152   248152   33108
     Max        2387    2387    625               248157   248157   33111
     Sum       19089   19089   4989              1985227  1985227  264875



     bravais-lattice index     =            1
     lattice parameter (alat)  =      37.7945  a.u.
     unit-cell volume          =   53986.6767 (a.u.)^3
     number of atoms/cell      =            2
     number of atomic types    =            1
     number of electrons       =         2.00
     number of Kohn-Sham states=            5
     kinetic-energy cutoff     =      42.0000  Ry
     charge density cutoff     =     168.0000  Ry
     convergence threshold     =      1.0E-08
     mixing beta               =       0.3000
     number of iterations used =            8  plain     mixing
     Exchange-correlation      = SLA-PW-PBX-PBC ( 1  4  3  4 0 0)

     celldm(1)=  37.794523  celldm(2)=   0.000000  celldm(3)=   0.000000
     celldm(4)=   0.000000  celldm(5)=   0.000000  celldm(6)=   0.000000

     crystal axes: (cart. coord. in units of alat)
               a(1) = (   1.000000   0.000000   0.000000 )  
               a(2) = (   0.000000   1.000000   0.000000 )  
               a(3) = (   0.000000   0.000000   1.000000 )  

     reciprocal axes: (cart. coord. in units 2 pi/alat)
               b(1) = (  1.000000  0.000000  0.000000 )  
               b(2) = (  0.000000  1.000000  0.000000 )  
               b(3) = (  0.000000  0.000000  1.000000 )  


     PseudoPot. # 1 for H  read from file:
     ./H.pbe-hgh.UPF
     MD5 check sum: 5f350582108a937bec95f27f5610ab08
     Pseudo is Norm-conserving, Zval =  1.0
     Generated in analytical, separable form
     Using radial grid of  929 points,  0 beta functions with: 

     atomic species   valence    mass     pseudopotential
        H              1.00     1.00784     H ( 1.00)

      8 Sym. Ops. (no inversion) found


                                    s                        frac. trans.

      isym =  1     identity                                     

 cryst.   s( 1) = (     1          0          0      )
                  (     0          1          0      )
                  (     0          0          1      )

 cart.    s( 1) = (  1.0000000  0.0000000  0.0000000 )
                  (  0.0000000  1.0000000  0.0000000 )
                  (  0.0000000  0.0000000  1.0000000 )


      isym =  2     180 deg rotation - cart. axis [1,0,0]        

 cryst.   s( 2) = (     1          0          0      )
                  (     0         -1          0      )
                  (     0          0         -1      )

 cart.    s( 2) = (  1.0000000  0.0000000  0.0000000 )
                  (  0.0000000 -1.0000000  0.0000000 )
                  (  0.0000000  0.0000000 -1.0000000 )


      isym =  3      90 deg rotation - cart. axis [-1,0,0]       

 cryst.   s( 3) = (     1          0          0      )
                  (     0          0         -1      )
                  (     0          1          0      )

 cart.    s( 3) = (  1.0000000  0.0000000  0.0000000 )
                  (  0.0000000  0.0000000  1.0000000 )
                  (  0.0000000 -1.0000000  0.0000000 )


      isym =  4      90 deg rotation - cart. axis [1,0,0]        

 cryst.   s( 4) = (     1          0          0      )
                  (     0          0          1      )
                  (     0         -1          0      )

 cart.    s( 4) = (  1.0000000  0.0000000  0.0000000 )
                  (  0.0000000  0.0000000 -1.0000000 )
                  (  0.0000000  1.0000000  0.0000000 )


      isym =  5     inv. 180 deg rotation - cart. axis [0,0,1]   

 cryst.   s( 5) = (     1          0          0      )
                  (     0          1          0      )
                  (     0          0         -1      )

 cart.    s( 5) = (  1.0000000  0.0000000  0.0000000 )
                  (  0.0000000  1.0000000  0.0000000 )
                  (  0.0000000  0.0000000 -1.0000000 )


      isym =  6     inv. 180 deg rotation - cart. axis [0,1,0]   

 cryst.   s( 6) = (     1          0          0      )
                  (     0         -1          0      )
                  (     0          0          1      )

 cart.    s( 6) = (  1.0000000  0.0000000  0.0000000 )
                  (  0.0000000 -1.0000000  0.0000000 )
                  (  0.0000000  0.0000000  1.0000000 )


      isym =  7     inv. 180 deg rotation - cart. axis [0,1,1]   

 cryst.   s( 7) = (     1          0          0      )
                  (     0          0         -1      )
                  (     0         -1          0      )

 cart.    s( 7) = (  1.0000000  0.0000000  0.0000000 )
                  (  0.0000000  0.0000000 -1.0000000 )
                  (  0.0000000 -1.0000000  0.0000000 )


      isym =  8     inv. 180 deg rotation - cart. axis [0,1,-1]  

 cryst.   s( 8) = (     1          0          0      )
                  (     0          0          1      )
                  (     0          1          0      )

 cart.    s( 8) = (  1.0000000  0.0000000  0.0000000 )
                  (  0.0000000  0.0000000  1.0000000 )
                  (  0.0000000  1.0000000  0.0000000 )


     point group C_4v (4mm) 
     there are  5 classes
     the character table:

       E     2C4   C2    2s_v  2s_d 
A_1    1.00  1.00  1.00  1.00  1.00
A_2    1.00  1.00  1.00 -1.00 -1.00
B_1    1.00 -1.00  1.00  1.00 -1.00
B_2    1.00 -1.00  1.00 -1.00  1.00
E      2.00  0.00 -2.00  0.00  0.00

     the symmetry operations in each class and the name of the first element:

     E        1
          identity                                               
     2C4      3    4
           90 deg rotation - cart. axis [-1,0,0]                 
     C2       2
          180 deg rotation - cart. axis [1,0,0]                  
     2s_v     5    6
          inv. 180 deg rotation - cart. axis [0,0,1]             
     2s_d     7    8
          inv. 180 deg rotation - cart. axis [0,1,1]             

   Cartesian axes

     site n.     atom                  positions (alat units)
         1           H   tau(   1) = (   0.0000000   0.0000000   0.0000000  )
         2           H   tau(   2) = (   0.0262500   0.0000000   0.0000000  )

   Crystallographic axes

     site n.     atom                  positions (cryst. coord.)
         1           H   tau(   1) = (  0.0000000  0.0000000  0.0000000  )
         2           H   tau(   2) = (  0.0262500  0.0000000  0.0000000  )

     number of k points=     6  Marzari-Vanderbilt smearing, width (Ry)=  0.0500
                       cart. coord. in units 2pi/alat
        k(    1) = (   0.0000000   0.0000000   0.0000000), wk =   0.2500000
        k(    2) = (   0.0000000   0.0000000  -0.5000000), wk =   0.5000000
        k(    3) = (   0.0000000  -0.5000000  -0.5000000), wk =   0.2500000
        k(    4) = (  -0.5000000  -0.5000000  -0.5000000), wk =   0.2500000
        k(    5) = (  -0.5000000   0.0000000   0.0000000), wk =   0.2500000
        k(    6) = (  -0.5000000   0.5000000   0.0000000), wk =   0.5000000

                       cryst. coord.
        k(    1) = (   0.0000000   0.0000000   0.0000000), wk =   0.2500000
        k(    2) = (   0.0000000   0.0000000  -0.5000000), wk =   0.5000000
        k(    3) = (   0.0000000  -0.5000000  -0.5000000), wk =   0.2500000
        k(    4) = (  -0.5000000  -0.5000000  -0.5000000), wk =   0.2500000
        k(    5) = (  -0.5000000   0.0000000   0.0000000), wk =   0.2500000
        k(    6) = (  -0.5000000   0.5000000   0.0000000), wk =   0.5000000

     Dense  grid:  1985227 G-vectors     FFT dimensions: ( 160, 160, 160)

     Dynamical RAM for                 wfc:       2.37 MB

     Dynamical RAM for     wfc (w. buffer):      16.57 MB

     Dynamical RAM for           str. fact:       3.79 MB

     Dynamical RAM for           local pot:       0.00 MB

     Dynamical RAM for          nlocal pot:       0.00 MB

     Dynamical RAM for          rho,v,vnew:      23.08 MB

     Dynamical RAM for               rhoin:       7.69 MB

     Dynamical RAM for            rho*nmix:      60.58 MB

     Dynamical RAM for           G-vectors:      16.09 MB

     Dynamical RAM for          h,s,v(r/c):       0.02 MB

     Dynamical RAM for          <psi|beta>:       0.00 MB

     Dynamical RAM for                 psi:       9.47 MB

     Dynamical RAM for                hpsi:       9.47 MB

     Dynamical RAM for      wfcinit/wfcrot:       4.73 MB

     Estimated static dynamical RAM per process >     154.90 MB

     Estimated max dynamical RAM per process >     173.85 MB

     Estimated total dynamical RAM >       1.36 GB

     Initial potential from superposition of free atoms
     Check: negative starting charge=   -0.019106

     starting charge    1.99998, renormalised to    2.00000

     negative rho (up, down):  1.911E-02 0.000E+00
     Starting wfc are    2 randomized atomic wfcs +    3 random wfc

     total cpu time spent up to now is        3.1 secs

     Self-consistent Calculation

     iteration #  1     ecut=    42.00 Ry     beta= 0.30
     Davidson diagonalization with overlap
     ethr =  1.00E-02,  avg # of iterations =  6.2

     negative rho (up, down):  1.337E-02 0.000E+00

     total cpu time spent up to now is       10.0 secs

     total energy              =      -2.22818185 Ry
     Harris-Foulkes estimate   =      -2.28925570 Ry
     estimated scf accuracy    <       0.22156876 Ry

     iteration #  2     ecut=    42.00 Ry     beta= 0.30
     Davidson diagonalization with overlap
     ethr =  1.00E-02,  avg # of iterations =  1.0

     negative rho (up, down):  2.660E-03 0.000E+00

     total cpu time spent up to now is       13.4 secs

     total energy              =      -2.17939334 Ry
     Harris-Foulkes estimate   =      -2.23072774 Ry
     estimated scf accuracy    <       0.08657649 Ry

     iteration #  3     ecut=    42.00 Ry     beta= 0.30
     Davidson diagonalization with overlap
     ethr =  4.33E-03,  avg # of iterations =  2.0

     negative rho (up, down):  2.066E-03 0.000E+00

     total cpu time spent up to now is       16.9 secs

     total energy              =      -2.19062827 Ry
     Harris-Foulkes estimate   =      -2.19078094 Ry
     estimated scf accuracy    <       0.00054739 Ry

     iteration #  4     ecut=    42.00 Ry     beta= 0.30
     Davidson diagonalization with overlap
     ethr =  2.74E-05,  avg # of iterations = 14.0

     negative rho (up, down):  1.967E-04 0.000E+00

     total cpu time spent up to now is       30.1 secs

     total energy              =      -2.19047902 Ry
     Harris-Foulkes estimate   =      -2.19093966 Ry
     estimated scf accuracy    <       0.00075093 Ry

     iteration #  5     ecut=    42.00 Ry     beta= 0.30
     Davidson diagonalization with overlap
     ethr =  2.74E-05,  avg # of iterations =  2.0

     negative rho (up, down):  5.405E-05 0.000E+00

     total cpu time spent up to now is       33.7 secs

     total energy              =      -2.19058860 Ry
     Harris-Foulkes estimate   =      -2.19059007 Ry
     estimated scf accuracy    <       0.00000313 Ry

     iteration #  6     ecut=    42.00 Ry     beta= 0.30
     Davidson diagonalization with overlap
     c_bands:  1 eigenvalues not converged
     c_bands:  1 eigenvalues not converged
     c_bands:  1 eigenvalues not converged
     ethr =  1.57E-07,  avg # of iterations = 15.5

     negative rho (up, down):  5.900E-06 0.000E+00

     total cpu time spent up to now is       44.3 secs

     total energy              =      -2.19058893 Ry
     Harris-Foulkes estimate   =      -2.19058889 Ry
     estimated scf accuracy    <       0.00000010 Ry

     iteration #  7     ecut=    42.00 Ry     beta= 0.30
     Davidson diagonalization with overlap
     ethr =  5.24E-09,  avg # of iterations =  2.8

     negative rho (up, down):  3.453E-07 0.000E+00

     total cpu time spent up to now is       48.9 secs

     total energy              =      -2.19058889 Ry
     Harris-Foulkes estimate   =      -2.19058893 Ry
     estimated scf accuracy    <       0.00000011 Ry

     iteration #  8     ecut=    42.00 Ry     beta= 0.30
     Davidson diagonalization with overlap
     ethr =  5.24E-09,  avg # of iterations =  2.3

     total cpu time spent up to now is       52.5 secs

     End of self-consistent calculation

          k = 0.0000 0.0000 0.0000 (248049 PWs)   bands (ev):

   -11.5241  -0.0465   0.2693   0.3134   0.3290

     occupation numbers 
     1.0000   0.0000   0.0000   0.0000   0.0000

          k = 0.0000 0.0000-0.5000 (247982 PWs)   bands (ev):

   -11.5241   0.0240   0.0705   0.3570   0.3676

     occupation numbers 
     1.0000   0.0000   0.0000   0.0000   0.0000

          k = 0.0000-0.5000-0.5000 (248312 PWs)   bands (ev):

   -11.5245   0.0847   0.1566   0.1706   0.4067

     occupation numbers 
     1.0000   0.0000   0.0000   0.0000   0.0000

          k =-0.5000-0.5000-0.5000 (248296 PWs)   bands (ev):

   -11.5245   0.1351   0.2194   0.2350   0.2647

     occupation numbers 
     1.0000   0.0000   0.0000   0.0000   0.0000

          k =-0.5000 0.0000 0.0000 (247982 PWs)   bands (ev):

   -11.5241   0.0243   0.0679   0.3541   0.4050

     occupation numbers 
     1.0000   0.0000   0.0000   0.0000   0.0000

          k =-0.5000 0.5000 0.0000 (248312 PWs)   bands (ev):

   -11.5244   0.0849   0.1483   0.1540   0.1756

     occupation numbers 
     1.0000   0.0000   0.0000   0.0000   0.0000

     the Fermi energy is    -5.5589 ev

!    total energy              =      -2.19058890 Ry
     Harris-Foulkes estimate   =      -2.19058890 Ry
     estimated scf accuracy    <          4.0E-10 Ry

     The total energy is the sum of the following terms:

     one-electron contribution =      -5.02215941 Ry
     hartree contribution      =       2.64663109 Ry
     xc contribution           =      -1.53076352 Ry
     ewald contribution        =       1.71570294 Ry
     smearing contrib. (-TS)   =       0.00000000 Ry

     convergence has been achieved in   8 iterations

     Forces acting on atoms (cartesian axes, Ry/au):

     atom    1 type  1   force =    -0.70669492    0.00000000    0.00000000
     atom    2 type  1   force =     0.70669492    0.00000000    0.00000000
     The non-local contrib.  to forces
     atom    1 type  1   force =     0.00000000    0.00000000    0.00000000
     atom    2 type  1   force =     0.00000000    0.00000000    0.00000000
     The ionic contribution  to forces
     atom    1 type  1   force =    -2.03179870    0.00000000   -0.00000000
     atom    2 type  1   force =     2.03179870   -0.00000000   -0.00000000
     The local contribution  to forces
     atom    1 type  1   force =     1.32508887   -0.00000000   -0.00000000
     atom    2 type  1   force =    -1.32509022    0.00000000   -0.00000000
     The core correction contribution to forces
     atom    1 type  1   force =     0.00000000    0.00000000    0.00000000
     atom    2 type  1   force =     0.00000000    0.00000000    0.00000000
     The Hubbard contrib.    to forces
     atom    1 type  1   force =     0.00000000    0.00000000    0.00000000
     atom    2 type  1   force =     0.00000000    0.00000000    0.00000000
     The SCF correction term to forces
     atom    1 type  1   force =     0.00001440   -0.00000000   -0.00000000
     atom    2 type  1   force =    -0.00001407    0.00000000    0.00000000

     Total force =     0.999418     Total SCF correction =     0.000020


     Computing stress (Cartesian axis) and pressure

          total   stress  (Ry/bohr**3)                   (kbar)     P=    0.54
   0.00001228   0.00000000   0.00000000          1.81      0.00      0.00
   0.00000000  -0.00000067   0.00000000          0.00     -0.10      0.00
   0.00000000   0.00000000  -0.00000067          0.00      0.00     -0.10

     kinetic stress (kbar)      4.01      0.00      0.00
                                0.00      5.43      0.00
                                0.00      0.00      5.43

     local   stress (kbar)     -8.73     -0.00     -0.00
                               -0.00     -6.22     -0.00
                               -0.00     -0.00     -6.22

     nonloc. stress (kbar)      0.00      0.00      0.00
                                0.00      0.00      0.00
                                0.00      0.00      0.00

     hartree stress (kbar)      2.61      0.00      0.00
                                0.00      2.30      0.00
                                0.00      0.00      2.30

     exc-cor stress (kbar)     -1.30      0.00     -0.00
                                0.00     -1.34      0.00
                               -0.00      0.00     -1.34

     corecor stress (kbar)      0.00      0.00      0.00
                                0.00      0.00      0.00
                                0.00      0.00      0.00

     ewald   stress (kbar)      5.22      0.00     -0.00
                                0.00     -0.27     -0.00
                               -0.00     -0.00     -0.27

     hubbard stress (kbar)      0.00      0.00      0.00
                                0.00      0.00      0.00
                                0.00      0.00      0.00

     london  stress (kbar)      0.00      0.00      0.00
                                0.00      0.00      0.00
                                0.00      0.00      0.00

     DFT-D3  stress (kbar)      0.00      0.00      0.00
                                0.00      0.00      0.00
                                0.00      0.00      0.00

     XDM     stress (kbar)      0.00      0.00      0.00
                                0.00      0.00      0.00
                                0.00      0.00      0.00

     dft-nl  stress (kbar)      0.00      0.00      0.00
                                0.00      0.00      0.00
                                0.00      0.00      0.00

     TS-vdW  stress (kbar)      0.00      0.00      0.00
                                0.00      0.00      0.00
                                0.00      0.00      0.00



     Writing output data file HH12.save

     init_run     :      2.78s CPU      2.96s WALL (       1 calls)
     electrons    :     48.32s CPU     49.88s WALL (       1 calls)
     forces       :      0.27s CPU      0.28s WALL (       1 calls)
     stress       :      0.56s CPU      0.57s WALL (       1 calls)

     Called by init_run:
     wfcinit      :      1.10s CPU      1.11s WALL (       1 calls)
     wfcinit:atom :      0.01s CPU      0.01s WALL (       6 calls)
     wfcinit:wfcr :      1.04s CPU      1.05s WALL (       6 calls)
     potinit      :      0.60s CPU      0.68s WALL (       1 calls)

     Called by electrons:
     c_bands      :     39.29s CPU     39.51s WALL (       8 calls)
     sum_band     :      5.15s CPU      5.17s WALL (       8 calls)
     v_of_rho     :      3.42s CPU      3.49s WALL (       9 calls)
     v_h          :      0.33s CPU      0.34s WALL (       9 calls)
     v_xc         :      3.08s CPU      3.14s WALL (       9 calls)
     mix_rho      :      0.64s CPU      0.70s WALL (       8 calls)

     Called by c_bands:
     cegterg      :     39.21s CPU     39.30s WALL (      48 calls)

     Called by sum_band:

     Called by *egterg:
     h_psi        :     37.82s CPU     37.89s WALL (     329 calls)
     g_psi        :      0.18s CPU      0.18s WALL (     275 calls)
     cdiaghg      :      0.04s CPU      0.04s WALL (     323 calls)
     cegterg:over :      0.78s CPU      0.78s WALL (     275 calls)
     cegterg:upda :      0.64s CPU      0.65s WALL (     275 calls)
     cegterg:last :      0.35s CPU      0.35s WALL (      88 calls)

     Called by h_psi:
     h_psi:pot    :     37.58s CPU     37.65s WALL (     329 calls)
     vloc_psi     :     37.57s CPU     37.65s WALL (     329 calls)

     General routines
     fft          :      3.06s CPU      3.11s WALL (     106 calls)
     fftw         :     36.75s CPU     36.81s WALL (    2460 calls)

     Parallel routines
     fft_scatt_xy :      6.06s CPU      6.08s WALL (    2566 calls)
     fft_scatt_yz :      7.56s CPU      7.59s WALL (    2566 calls)

     PWSCF        :    52.30s CPU        54.90s WALL


   This run was terminated on:   7:55:47   1Oct2020            

=------------------------------------------------------------------------------=
   JOB DONE.
=------------------------------------------------------------------------------=
