
     Program PWSCF v.6.2 (svn rev. 14038) starts on  1Oct2020 at  7:20:17 

     This program is part of the open-source Quantum ESPRESSO suite
     for quantum simulation of materials; please cite
         "P. Giannozzi et al., J. Phys.:Condens. Matter 21 395502 (2009);
         "P. Giannozzi et al., J. Phys.:Condens. Matter 29 465901 (2017);
          URL http://www.quantum-espresso.org", 
     in publications or presentations arising from this work. More details at
     http://www.quantum-espresso.org/quote

     Parallel version (MPI), running on     8 processors

     MPI processes distributed on     1 nodes
     R & G space division:  proc/nbgrp/npool/nimage =       8
     Waiting for input...
     Reading input from standard input

     Current dimensions of program PWSCF are:
     Max number of different atomic species (ntypx) = 10
     Max number of k-points (npk) =  40000
     Max angular momentum in pseudopotentials (lmaxx) =  3

     Subspace diagonalization in iterative solution of the eigenvalue problem:
     a serial algorithm will be used


     Parallelization info
     --------------------
     sticks:   dense  smooth     PW     G-vecs:    dense   smooth      PW
     Min        2386    2386    623               248152   248152   33108
     Max        2387    2387    625               248157   248157   33111
     Sum       19089   19089   4989              1985227  1985227  264875



     bravais-lattice index     =            1
     lattice parameter (alat)  =      37.7945  a.u.
     unit-cell volume          =   53986.6767 (a.u.)^3
     number of atoms/cell      =            2
     number of atomic types    =            1
     number of electrons       =         2.00
     number of Kohn-Sham states=            5
     kinetic-energy cutoff     =      42.0000  Ry
     charge density cutoff     =     168.0000  Ry
     convergence threshold     =      1.0E-08
     mixing beta               =       0.3000
     number of iterations used =            8  plain     mixing
     Exchange-correlation      = SLA-PW-PBX-PBC ( 1  4  3  4 0 0)

     celldm(1)=  37.794523  celldm(2)=   0.000000  celldm(3)=   0.000000
     celldm(4)=   0.000000  celldm(5)=   0.000000  celldm(6)=   0.000000

     crystal axes: (cart. coord. in units of alat)
               a(1) = (   1.000000   0.000000   0.000000 )  
               a(2) = (   0.000000   1.000000   0.000000 )  
               a(3) = (   0.000000   0.000000   1.000000 )  

     reciprocal axes: (cart. coord. in units 2 pi/alat)
               b(1) = (  1.000000  0.000000  0.000000 )  
               b(2) = (  0.000000  1.000000  0.000000 )  
               b(3) = (  0.000000  0.000000  1.000000 )  


     PseudoPot. # 1 for H  read from file:
     ./H.pbe-hgh.UPF
     MD5 check sum: 5f350582108a937bec95f27f5610ab08
     Pseudo is Norm-conserving, Zval =  1.0
     Generated in analytical, separable form
     Using radial grid of  929 points,  0 beta functions with: 

     atomic species   valence    mass     pseudopotential
        H              1.00     1.00784     H ( 1.00)

      8 Sym. Ops. (no inversion) found


                                    s                        frac. trans.

      isym =  1     identity                                     

 cryst.   s( 1) = (     1          0          0      )
                  (     0          1          0      )
                  (     0          0          1      )

 cart.    s( 1) = (  1.0000000  0.0000000  0.0000000 )
                  (  0.0000000  1.0000000  0.0000000 )
                  (  0.0000000  0.0000000  1.0000000 )


      isym =  2     180 deg rotation - cart. axis [1,0,0]        

 cryst.   s( 2) = (     1          0          0      )
                  (     0         -1          0      )
                  (     0          0         -1      )

 cart.    s( 2) = (  1.0000000  0.0000000  0.0000000 )
                  (  0.0000000 -1.0000000  0.0000000 )
                  (  0.0000000  0.0000000 -1.0000000 )


      isym =  3      90 deg rotation - cart. axis [-1,0,0]       

 cryst.   s( 3) = (     1          0          0      )
                  (     0          0         -1      )
                  (     0          1          0      )

 cart.    s( 3) = (  1.0000000  0.0000000  0.0000000 )
                  (  0.0000000  0.0000000  1.0000000 )
                  (  0.0000000 -1.0000000  0.0000000 )


      isym =  4      90 deg rotation - cart. axis [1,0,0]        

 cryst.   s( 4) = (     1          0          0      )
                  (     0          0          1      )
                  (     0         -1          0      )

 cart.    s( 4) = (  1.0000000  0.0000000  0.0000000 )
                  (  0.0000000  0.0000000 -1.0000000 )
                  (  0.0000000  1.0000000  0.0000000 )


      isym =  5     inv. 180 deg rotation - cart. axis [0,0,1]   

 cryst.   s( 5) = (     1          0          0      )
                  (     0          1          0      )
                  (     0          0         -1      )

 cart.    s( 5) = (  1.0000000  0.0000000  0.0000000 )
                  (  0.0000000  1.0000000  0.0000000 )
                  (  0.0000000  0.0000000 -1.0000000 )


      isym =  6     inv. 180 deg rotation - cart. axis [0,1,0]   

 cryst.   s( 6) = (     1          0          0      )
                  (     0         -1          0      )
                  (     0          0          1      )

 cart.    s( 6) = (  1.0000000  0.0000000  0.0000000 )
                  (  0.0000000 -1.0000000  0.0000000 )
                  (  0.0000000  0.0000000  1.0000000 )


      isym =  7     inv. 180 deg rotation - cart. axis [0,1,1]   

 cryst.   s( 7) = (     1          0          0      )
                  (     0          0         -1      )
                  (     0         -1          0      )

 cart.    s( 7) = (  1.0000000  0.0000000  0.0000000 )
                  (  0.0000000  0.0000000 -1.0000000 )
                  (  0.0000000 -1.0000000  0.0000000 )


      isym =  8     inv. 180 deg rotation - cart. axis [0,1,-1]  

 cryst.   s( 8) = (     1          0          0      )
                  (     0          0          1      )
                  (     0          1          0      )

 cart.    s( 8) = (  1.0000000  0.0000000  0.0000000 )
                  (  0.0000000  0.0000000  1.0000000 )
                  (  0.0000000  1.0000000  0.0000000 )


     point group C_4v (4mm) 
     there are  5 classes
     the character table:

       E     2C4   C2    2s_v  2s_d 
A_1    1.00  1.00  1.00  1.00  1.00
A_2    1.00  1.00  1.00 -1.00 -1.00
B_1    1.00 -1.00  1.00  1.00 -1.00
B_2    1.00 -1.00  1.00 -1.00  1.00
E      2.00  0.00 -2.00  0.00  0.00

     the symmetry operations in each class and the name of the first element:

     E        1
          identity                                               
     2C4      3    4
           90 deg rotation - cart. axis [-1,0,0]                 
     C2       2
          180 deg rotation - cart. axis [1,0,0]                  
     2s_v     5    6
          inv. 180 deg rotation - cart. axis [0,0,1]             
     2s_d     7    8
          inv. 180 deg rotation - cart. axis [0,1,1]             

   Cartesian axes

     site n.     atom                  positions (alat units)
         1           H   tau(   1) = (   0.0000000   0.0000000   0.0000000  )
         2           H   tau(   2) = (   0.0351500   0.0000000   0.0000000  )

   Crystallographic axes

     site n.     atom                  positions (cryst. coord.)
         1           H   tau(   1) = (  0.0000000  0.0000000  0.0000000  )
         2           H   tau(   2) = (  0.0351500  0.0000000  0.0000000  )

     number of k points=     6  Marzari-Vanderbilt smearing, width (Ry)=  0.0500
                       cart. coord. in units 2pi/alat
        k(    1) = (   0.0000000   0.0000000   0.0000000), wk =   0.2500000
        k(    2) = (   0.0000000   0.0000000  -0.5000000), wk =   0.5000000
        k(    3) = (   0.0000000  -0.5000000  -0.5000000), wk =   0.2500000
        k(    4) = (  -0.5000000  -0.5000000  -0.5000000), wk =   0.2500000
        k(    5) = (  -0.5000000   0.0000000   0.0000000), wk =   0.2500000
        k(    6) = (  -0.5000000   0.5000000   0.0000000), wk =   0.5000000

                       cryst. coord.
        k(    1) = (   0.0000000   0.0000000   0.0000000), wk =   0.2500000
        k(    2) = (   0.0000000   0.0000000  -0.5000000), wk =   0.5000000
        k(    3) = (   0.0000000  -0.5000000  -0.5000000), wk =   0.2500000
        k(    4) = (  -0.5000000  -0.5000000  -0.5000000), wk =   0.2500000
        k(    5) = (  -0.5000000   0.0000000   0.0000000), wk =   0.2500000
        k(    6) = (  -0.5000000   0.5000000   0.0000000), wk =   0.5000000

     Dense  grid:  1985227 G-vectors     FFT dimensions: ( 160, 160, 160)

     Dynamical RAM for                 wfc:       2.37 MB

     Dynamical RAM for     wfc (w. buffer):      16.57 MB

     Dynamical RAM for           str. fact:       3.79 MB

     Dynamical RAM for           local pot:       0.00 MB

     Dynamical RAM for          nlocal pot:       0.00 MB

     Dynamical RAM for          rho,v,vnew:      23.08 MB

     Dynamical RAM for               rhoin:       7.69 MB

     Dynamical RAM for            rho*nmix:      60.58 MB

     Dynamical RAM for           G-vectors:      16.09 MB

     Dynamical RAM for          h,s,v(r/c):       0.02 MB

     Dynamical RAM for          <psi|beta>:       0.00 MB

     Dynamical RAM for                 psi:       9.47 MB

     Dynamical RAM for                hpsi:       9.47 MB

     Dynamical RAM for      wfcinit/wfcrot:       4.73 MB

     Estimated static dynamical RAM per process >     154.90 MB

     Estimated max dynamical RAM per process >     173.85 MB

     Estimated total dynamical RAM >       1.36 GB

     Initial potential from superposition of free atoms
     Check: negative starting charge=   -0.018388

     starting charge    1.99998, renormalised to    2.00000

     negative rho (up, down):  1.839E-02 0.000E+00
     Starting wfc are    2 randomized atomic wfcs +    3 random wfc

     total cpu time spent up to now is        2.8 secs

     Self-consistent Calculation

     iteration #  1     ecut=    42.00 Ry     beta= 0.30
     Davidson diagonalization with overlap
     ethr =  1.00E-02,  avg # of iterations =  6.2

     negative rho (up, down):  1.286E-02 0.000E+00

     total cpu time spent up to now is        9.1 secs

     total energy              =      -2.32755039 Ry
     Harris-Foulkes estimate   =      -2.36173954 Ry
     estimated scf accuracy    <       0.12703390 Ry

     iteration #  2     ecut=    42.00 Ry     beta= 0.30
     Davidson diagonalization with overlap
     ethr =  6.35E-03,  avg # of iterations =  1.0

     negative rho (up, down):  2.617E-03 0.000E+00

     total cpu time spent up to now is       11.9 secs

     total energy              =      -2.30122244 Ry
     Harris-Foulkes estimate   =      -2.32906689 Ry
     estimated scf accuracy    <       0.04926179 Ry

     iteration #  3     ecut=    42.00 Ry     beta= 0.30
     Davidson diagonalization with overlap
     ethr =  2.46E-03,  avg # of iterations =  2.0

     negative rho (up, down):  2.234E-03 0.000E+00

     total cpu time spent up to now is       15.0 secs

     total energy              =      -2.30710365 Ry
     Harris-Foulkes estimate   =      -2.30718473 Ry
     estimated scf accuracy    <       0.00018957 Ry

     iteration #  4     ecut=    42.00 Ry     beta= 0.30
     Davidson diagonalization with overlap
     c_bands:  1 eigenvalues not converged
     c_bands:  1 eigenvalues not converged
     c_bands:  3 eigenvalues not converged
     c_bands:  1 eigenvalues not converged
     ethr =  9.48E-06,  avg # of iterations = 19.0

     negative rho (up, down):  5.654E-05 0.000E+00

     total cpu time spent up to now is       30.0 secs

     total energy              =      -2.30713187 Ry
     Harris-Foulkes estimate   =      -2.30712209 Ry
     estimated scf accuracy    <       0.00001594 Ry

     iteration #  5     ecut=    42.00 Ry     beta= 0.30
     Davidson diagonalization with overlap
     c_bands:  1 eigenvalues not converged
     c_bands:  1 eigenvalues not converged
     ethr =  7.97E-07,  avg # of iterations = 15.2

     negative rho (up, down):  3.441E-05 0.000E+00

     total cpu time spent up to now is       38.5 secs

     total energy              =      -2.30713076 Ry
     Harris-Foulkes estimate   =      -2.30713247 Ry
     estimated scf accuracy    <       0.00000298 Ry

     iteration #  6     ecut=    42.00 Ry     beta= 0.30
     Davidson diagonalization with overlap
     ethr =  1.49E-07,  avg # of iterations =  6.7

     negative rho (up, down):  2.141E-05 0.000E+00

     total cpu time spent up to now is       42.6 secs

     total energy              =      -2.30713113 Ry
     Harris-Foulkes estimate   =      -2.30713118 Ry
     estimated scf accuracy    <       0.00000005 Ry

     iteration #  7     ecut=    42.00 Ry     beta= 0.30
     Davidson diagonalization with overlap
     ethr =  2.75E-09,  avg # of iterations =  2.0

     total cpu time spent up to now is       45.5 secs

     End of self-consistent calculation

          k = 0.0000 0.0000 0.0000 (248049 PWs)   bands (ev):

   -10.4993  -0.0668   0.2157   0.2478   0.3020

     occupation numbers 
     1.0000   0.0000   0.0000   0.0000   0.0000

          k = 0.0000 0.0000-0.5000 (247982 PWs)   bands (ev):

   -10.4994   0.0043   0.0478   0.2369   0.3364

     occupation numbers 
     1.0000   0.0000   0.0000   0.0000   0.0000

          k = 0.0000-0.5000-0.5000 (248312 PWs)   bands (ev):

   -10.4997   0.0657   0.1325   0.1484   0.2505

     occupation numbers 
     1.0000   0.0000   0.0000   0.0000   0.0000

          k =-0.5000-0.5000-0.5000 (248296 PWs)   bands (ev):

   -10.4995   0.1144   0.1532   0.2126   0.2430

     occupation numbers 
     1.0000   0.0000   0.0000   0.0000   0.0000

          k =-0.5000 0.0000 0.0000 (247982 PWs)   bands (ev):

   -10.4992   0.0054   0.0340   0.3005   0.3372

     occupation numbers 
     1.0000   0.0000   0.0000   0.0000   0.0000

          k =-0.5000 0.5000 0.0000 (248312 PWs)   bands (ev):

   -10.4996   0.0657   0.1027   0.1330   0.1501

     occupation numbers 
     1.0000   0.0000   0.0000   0.0000   0.0000

     the Fermi energy is    -5.0812 ev

!    total energy              =      -2.30713113 Ry
     Harris-Foulkes estimate   =      -2.30713114 Ry
     estimated scf accuracy    <          3.2E-09 Ry

     The total energy is the sum of the following terms:

     one-electron contribution =      -4.48106822 Ry
     hartree contribution      =       2.36585266 Ry
     xc contribution           =      -1.39724890 Ry
     ewald contribution        =       1.20533332 Ry
     smearing contrib. (-TS)   =       0.00000000 Ry

     convergence has been achieved in   7 iterations

     Forces acting on atoms (cartesian axes, Ry/au):

     atom    1 type  1   force =    -0.09668699    0.00000000    0.00000000
     atom    2 type  1   force =     0.09668699    0.00000000    0.00000000
     The non-local contrib.  to forces
     atom    1 type  1   force =     0.00000000    0.00000000    0.00000000
     atom    2 type  1   force =     0.00000000    0.00000000    0.00000000
     The ionic contribution  to forces
     atom    1 type  1   force =    -1.13303234    0.00000000   -0.00000000
     atom    2 type  1   force =     1.13303234   -0.00000000   -0.00000000
     The local contribution  to forces
     atom    1 type  1   force =     1.03635212   -0.00000000   -0.00000000
     atom    2 type  1   force =    -1.03635144   -0.00000000   -0.00000000
     The core correction contribution to forces
     atom    1 type  1   force =     0.00000000    0.00000000    0.00000000
     atom    2 type  1   force =     0.00000000    0.00000000    0.00000000
     The Hubbard contrib.    to forces
     atom    1 type  1   force =     0.00000000    0.00000000    0.00000000
     atom    2 type  1   force =     0.00000000    0.00000000    0.00000000
     The SCF correction term to forces
     atom    1 type  1   force =    -0.00000645   -0.00000000   -0.00000000
     atom    2 type  1   force =     0.00000641   -0.00000000   -0.00000000

     Total force =     0.136736     Total SCF correction =     0.000009


     Computing stress (Cartesian axis) and pressure

          total   stress  (Ry/bohr**3)                   (kbar)     P=    0.03
   0.00000174   0.00000000   0.00000000          0.26      0.00      0.00
   0.00000000  -0.00000054   0.00000000          0.00     -0.08      0.00
   0.00000000   0.00000000  -0.00000054          0.00      0.00     -0.08

     kinetic stress (kbar)      3.15      0.00      0.00
                                0.00      4.66      0.00
                                0.00      0.00      4.66

     local   stress (kbar)     -7.97     -0.00      0.00
                               -0.00     -5.25      0.00
                                0.00      0.00     -5.25

     nonloc. stress (kbar)      0.00      0.00      0.00
                                0.00      0.00      0.00
                                0.00      0.00      0.00

     hartree stress (kbar)      2.43     -0.00     -0.00
                               -0.00      2.01     -0.00
                               -0.00     -0.00      2.01

     exc-cor stress (kbar)     -1.18     -0.00     -0.00
                               -0.00     -1.22      0.00
                               -0.00      0.00     -1.22

     corecor stress (kbar)      0.00      0.00      0.00
                                0.00      0.00      0.00
                                0.00      0.00      0.00

     ewald   stress (kbar)      3.83      0.00     -0.00
                                0.00     -0.27     -0.00
                               -0.00     -0.00     -0.27

     hubbard stress (kbar)      0.00      0.00      0.00
                                0.00      0.00      0.00
                                0.00      0.00      0.00

     london  stress (kbar)      0.00      0.00      0.00
                                0.00      0.00      0.00
                                0.00      0.00      0.00

     DFT-D3  stress (kbar)      0.00      0.00      0.00
                                0.00      0.00      0.00
                                0.00      0.00      0.00

     XDM     stress (kbar)      0.00      0.00      0.00
                                0.00      0.00      0.00
                                0.00      0.00      0.00

     dft-nl  stress (kbar)      0.00      0.00      0.00
                                0.00      0.00      0.00
                                0.00      0.00      0.00

     TS-vdW  stress (kbar)      0.00      0.00      0.00
                                0.00      0.00      0.00
                                0.00      0.00      0.00



     Writing output data file HH24.save

     init_run     :      2.55s CPU      2.67s WALL (       1 calls)
     electrons    :     42.15s CPU     43.19s WALL (       1 calls)
     forces       :      0.22s CPU      0.23s WALL (       1 calls)
     stress       :      0.48s CPU      0.49s WALL (       1 calls)

     Called by init_run:
     wfcinit      :      0.97s CPU      0.98s WALL (       1 calls)
     wfcinit:atom :      0.01s CPU      0.01s WALL (       6 calls)
     wfcinit:wfcr :      0.91s CPU      0.92s WALL (       6 calls)
     potinit      :      0.52s CPU      0.56s WALL (       1 calls)

     Called by electrons:
     c_bands      :     35.17s CPU     35.78s WALL (       7 calls)
     sum_band     :      3.96s CPU      3.99s WALL (       7 calls)
     v_of_rho     :      2.75s CPU      2.80s WALL (       8 calls)
     v_h          :      0.25s CPU      0.26s WALL (       8 calls)
     v_xc         :      2.50s CPU      2.53s WALL (       8 calls)
     mix_rho      :      0.44s CPU      0.50s WALL (       7 calls)

     Called by c_bands:
     cegterg      :     35.12s CPU     35.19s WALL (      42 calls)

     Called by sum_band:

     Called by *egterg:
     h_psi        :     33.54s CPU     33.60s WALL (     360 calls)
     g_psi        :      0.19s CPU      0.19s WALL (     312 calls)
     cdiaghg      :      0.04s CPU      0.04s WALL (     354 calls)
     cegterg:over :      0.85s CPU      0.86s WALL (     312 calls)
     cegterg:upda :      0.70s CPU      0.70s WALL (     312 calls)
     cegterg:last :      0.35s CPU      0.35s WALL (      86 calls)

     Called by h_psi:
     h_psi:pot    :     33.33s CPU     33.39s WALL (     360 calls)
     vloc_psi     :     33.33s CPU     33.39s WALL (     360 calls)

     General routines
     fft          :      2.42s CPU      2.45s WALL (      95 calls)
     fftw         :     32.57s CPU     32.63s WALL (    2466 calls)

     Parallel routines
     fft_scatt_xy :      4.65s CPU      4.66s WALL (    2561 calls)
     fft_scatt_yz :      6.55s CPU      6.57s WALL (    2561 calls)

     PWSCF        :    45.78s CPU        48.00s WALL


   This run was terminated on:   7:21: 5   1Oct2020            

=------------------------------------------------------------------------------=
   JOB DONE.
=------------------------------------------------------------------------------=
