
     Program PWSCF v.6.2 (svn rev. 14038) starts on  1Oct2020 at 20:27:37 

     This program is part of the open-source Quantum ESPRESSO suite
     for quantum simulation of materials; please cite
         "P. Giannozzi et al., J. Phys.:Condens. Matter 21 395502 (2009);
         "P. Giannozzi et al., J. Phys.:Condens. Matter 29 465901 (2017);
          URL http://www.quantum-espresso.org", 
     in publications or presentations arising from this work. More details at
     http://www.quantum-espresso.org/quote

     Parallel version (MPI), running on     8 processors

     MPI processes distributed on     1 nodes
     R & G space division:  proc/nbgrp/npool/nimage =       8
     Waiting for input...
     Reading input from standard input

     Current dimensions of program PWSCF are:
     Max number of different atomic species (ntypx) = 10
     Max number of k-points (npk) =  40000
     Max angular momentum in pseudopotentials (lmaxx) =  3

     Subspace diagonalization in iterative solution of the eigenvalue problem:
     a serial algorithm will be used


     Parallelization info
     --------------------
     sticks:   dense  smooth     PW     G-vecs:    dense   smooth      PW
     Min        2386    2386    623               248152   248152   33108
     Max        2387    2387    625               248157   248157   33111
     Sum       19089   19089   4989              1985227  1985227  264875



     bravais-lattice index     =            1
     lattice parameter (alat)  =      37.7945  a.u.
     unit-cell volume          =   53986.6767 (a.u.)^3
     number of atoms/cell      =            2
     number of atomic types    =            1
     number of electrons       =         2.00
     number of Kohn-Sham states=            5
     kinetic-energy cutoff     =      42.0000  Ry
     charge density cutoff     =     168.0000  Ry
     convergence threshold     =      1.0E-08
     mixing beta               =       0.3000
     number of iterations used =            8  plain     mixing
     Exchange-correlation      = SLA-PW-PBX-PBC ( 1  4  3  4 0 0)

     celldm(1)=  37.794523  celldm(2)=   0.000000  celldm(3)=   0.000000
     celldm(4)=   0.000000  celldm(5)=   0.000000  celldm(6)=   0.000000

     crystal axes: (cart. coord. in units of alat)
               a(1) = (   1.000000   0.000000   0.000000 )  
               a(2) = (   0.000000   1.000000   0.000000 )  
               a(3) = (   0.000000   0.000000   1.000000 )  

     reciprocal axes: (cart. coord. in units 2 pi/alat)
               b(1) = (  1.000000  0.000000  0.000000 )  
               b(2) = (  0.000000  1.000000  0.000000 )  
               b(3) = (  0.000000  0.000000  1.000000 )  


     PseudoPot. # 1 for H  read from file:
     ./H.pbe-hgh.UPF
     MD5 check sum: 5f350582108a937bec95f27f5610ab08
     Pseudo is Norm-conserving, Zval =  1.0
     Generated in analytical, separable form
     Using radial grid of  929 points,  0 beta functions with: 

     atomic species   valence    mass     pseudopotential
        H              1.00     1.00784     H ( 1.00)

      8 Sym. Ops. (no inversion) found


                                    s                        frac. trans.

      isym =  1     identity                                     

 cryst.   s( 1) = (     1          0          0      )
                  (     0          1          0      )
                  (     0          0          1      )

 cart.    s( 1) = (  1.0000000  0.0000000  0.0000000 )
                  (  0.0000000  1.0000000  0.0000000 )
                  (  0.0000000  0.0000000  1.0000000 )


      isym =  2     180 deg rotation - cart. axis [1,0,0]        

 cryst.   s( 2) = (     1          0          0      )
                  (     0         -1          0      )
                  (     0          0         -1      )

 cart.    s( 2) = (  1.0000000  0.0000000  0.0000000 )
                  (  0.0000000 -1.0000000  0.0000000 )
                  (  0.0000000  0.0000000 -1.0000000 )


      isym =  3      90 deg rotation - cart. axis [-1,0,0]       

 cryst.   s( 3) = (     1          0          0      )
                  (     0          0         -1      )
                  (     0          1          0      )

 cart.    s( 3) = (  1.0000000  0.0000000  0.0000000 )
                  (  0.0000000  0.0000000  1.0000000 )
                  (  0.0000000 -1.0000000  0.0000000 )


      isym =  4      90 deg rotation - cart. axis [1,0,0]        

 cryst.   s( 4) = (     1          0          0      )
                  (     0          0          1      )
                  (     0         -1          0      )

 cart.    s( 4) = (  1.0000000  0.0000000  0.0000000 )
                  (  0.0000000  0.0000000 -1.0000000 )
                  (  0.0000000  1.0000000  0.0000000 )


      isym =  5     inv. 180 deg rotation - cart. axis [0,0,1]   

 cryst.   s( 5) = (     1          0          0      )
                  (     0          1          0      )
                  (     0          0         -1      )

 cart.    s( 5) = (  1.0000000  0.0000000  0.0000000 )
                  (  0.0000000  1.0000000  0.0000000 )
                  (  0.0000000  0.0000000 -1.0000000 )


      isym =  6     inv. 180 deg rotation - cart. axis [0,1,0]   

 cryst.   s( 6) = (     1          0          0      )
                  (     0         -1          0      )
                  (     0          0          1      )

 cart.    s( 6) = (  1.0000000  0.0000000  0.0000000 )
                  (  0.0000000 -1.0000000  0.0000000 )
                  (  0.0000000  0.0000000  1.0000000 )


      isym =  7     inv. 180 deg rotation - cart. axis [0,1,1]   

 cryst.   s( 7) = (     1          0          0      )
                  (     0          0         -1      )
                  (     0         -1          0      )

 cart.    s( 7) = (  1.0000000  0.0000000  0.0000000 )
                  (  0.0000000  0.0000000 -1.0000000 )
                  (  0.0000000 -1.0000000  0.0000000 )


      isym =  8     inv. 180 deg rotation - cart. axis [0,1,-1]  

 cryst.   s( 8) = (     1          0          0      )
                  (     0          0          1      )
                  (     0          1          0      )

 cart.    s( 8) = (  1.0000000  0.0000000  0.0000000 )
                  (  0.0000000  0.0000000  1.0000000 )
                  (  0.0000000  1.0000000  0.0000000 )


     point group C_4v (4mm) 
     there are  5 classes
     the character table:

       E     2C4   C2    2s_v  2s_d 
A_1    1.00  1.00  1.00  1.00  1.00
A_2    1.00  1.00  1.00 -1.00 -1.00
B_1    1.00 -1.00  1.00  1.00 -1.00
B_2    1.00 -1.00  1.00 -1.00  1.00
E      2.00  0.00 -2.00  0.00  0.00

     the symmetry operations in each class and the name of the first element:

     E        1
          identity                                               
     2C4      3    4
           90 deg rotation - cart. axis [-1,0,0]                 
     C2       2
          180 deg rotation - cart. axis [1,0,0]                  
     2s_v     5    6
          inv. 180 deg rotation - cart. axis [0,0,1]             
     2s_d     7    8
          inv. 180 deg rotation - cart. axis [0,1,1]             

   Cartesian axes

     site n.     atom                  positions (alat units)
         1           H   tau(   1) = (   0.0000000   0.0000000   0.0000000  )
         2           H   tau(   2) = (   0.0155500   0.0000000   0.0000000  )

   Crystallographic axes

     site n.     atom                  positions (cryst. coord.)
         1           H   tau(   1) = (  0.0000000  0.0000000  0.0000000  )
         2           H   tau(   2) = (  0.0155500  0.0000000  0.0000000  )

     number of k points=     6  Marzari-Vanderbilt smearing, width (Ry)=  0.0500
                       cart. coord. in units 2pi/alat
        k(    1) = (   0.0000000   0.0000000   0.0000000), wk =   0.2500000
        k(    2) = (   0.0000000   0.0000000  -0.5000000), wk =   0.5000000
        k(    3) = (   0.0000000  -0.5000000  -0.5000000), wk =   0.2500000
        k(    4) = (  -0.5000000  -0.5000000  -0.5000000), wk =   0.2500000
        k(    5) = (  -0.5000000   0.0000000   0.0000000), wk =   0.2500000
        k(    6) = (  -0.5000000   0.5000000   0.0000000), wk =   0.5000000

                       cryst. coord.
        k(    1) = (   0.0000000   0.0000000   0.0000000), wk =   0.2500000
        k(    2) = (   0.0000000   0.0000000  -0.5000000), wk =   0.5000000
        k(    3) = (   0.0000000  -0.5000000  -0.5000000), wk =   0.2500000
        k(    4) = (  -0.5000000  -0.5000000  -0.5000000), wk =   0.2500000
        k(    5) = (  -0.5000000   0.0000000   0.0000000), wk =   0.2500000
        k(    6) = (  -0.5000000   0.5000000   0.0000000), wk =   0.5000000

     Dense  grid:  1985227 G-vectors     FFT dimensions: ( 160, 160, 160)

     Dynamical RAM for                 wfc:       2.37 MB

     Dynamical RAM for     wfc (w. buffer):      16.57 MB

     Dynamical RAM for           str. fact:       3.79 MB

     Dynamical RAM for           local pot:       0.00 MB

     Dynamical RAM for          nlocal pot:       0.00 MB

     Dynamical RAM for          rho,v,vnew:      23.08 MB

     Dynamical RAM for               rhoin:       7.69 MB

     Dynamical RAM for            rho*nmix:      60.58 MB

     Dynamical RAM for           G-vectors:      16.09 MB

     Dynamical RAM for          h,s,v(r/c):       0.02 MB

     Dynamical RAM for          <psi|beta>:       0.00 MB

     Dynamical RAM for                 psi:       9.47 MB

     Dynamical RAM for                hpsi:       9.47 MB

     Dynamical RAM for      wfcinit/wfcrot:       4.73 MB

     Estimated static dynamical RAM per process >     154.90 MB

     Estimated max dynamical RAM per process >     173.85 MB

     Estimated total dynamical RAM >       1.36 GB

     Initial potential from superposition of free atoms
     Check: negative starting charge=   -0.020217

     starting charge    1.99998, renormalised to    2.00000

     negative rho (up, down):  2.022E-02 0.000E+00
     Starting wfc are    2 randomized atomic wfcs +    3 random wfc

     total cpu time spent up to now is        2.8 secs

     Self-consistent Calculation

     iteration #  1     ecut=    42.00 Ry     beta= 0.30
     Davidson diagonalization with overlap
     ethr =  1.00E-02,  avg # of iterations =  6.3

     negative rho (up, down):  1.414E-02 0.000E+00

     total cpu time spent up to now is        9.6 secs

     total energy              =      -1.50121495 Ry
     Harris-Foulkes estimate   =      -1.62177446 Ry
     estimated scf accuracy    <       0.43600284 Ry

     iteration #  2     ecut=    42.00 Ry     beta= 0.30
     Davidson diagonalization with overlap
     ethr =  1.00E-02,  avg # of iterations =  1.0

     negative rho (up, down):  2.646E-03 0.000E+00

     total cpu time spent up to now is       13.3 secs

     total energy              =      -1.39787660 Ry
     Harris-Foulkes estimate   =      -1.50581848 Ry
     estimated scf accuracy    <       0.17336955 Ry

     iteration #  3     ecut=    42.00 Ry     beta= 0.30
     Davidson diagonalization with overlap
     ethr =  8.67E-03,  avg # of iterations =  2.0

     negative rho (up, down):  2.541E-03 0.000E+00

     total cpu time spent up to now is       16.4 secs

     total energy              =      -1.42223441 Ry
     Harris-Foulkes estimate   =      -1.42292053 Ry
     estimated scf accuracy    <       0.00198632 Ry

     iteration #  4     ecut=    42.00 Ry     beta= 0.30
     Davidson diagonalization with overlap
     ethr =  9.93E-05,  avg # of iterations = 11.0

     negative rho (up, down):  4.968E-04 0.000E+00

     total cpu time spent up to now is       25.4 secs

     total energy              =      -1.42170750 Ry
     Harris-Foulkes estimate   =      -1.42341768 Ry
     estimated scf accuracy    <       0.00258244 Ry

     iteration #  5     ecut=    42.00 Ry     beta= 0.30
     Davidson diagonalization with overlap
     ethr =  9.93E-05,  avg # of iterations =  2.0

     negative rho (up, down):  2.289E-05 0.000E+00

     total cpu time spent up to now is       28.9 secs

     total energy              =      -1.42215472 Ry
     Harris-Foulkes estimate   =      -1.42220253 Ry
     estimated scf accuracy    <       0.00007884 Ry

     iteration #  6     ecut=    42.00 Ry     beta= 0.30
     Davidson diagonalization with overlap
     c_bands:  1 eigenvalues not converged
     c_bands:  1 eigenvalues not converged
     c_bands:  2 eigenvalues not converged
     ethr =  3.94E-06,  avg # of iterations = 16.8

     negative rho (up, down):  9.846E-06 0.000E+00

     total cpu time spent up to now is       40.1 secs

     total energy              =      -1.42216656 Ry
     Harris-Foulkes estimate   =      -1.42216661 Ry
     estimated scf accuracy    <       0.00000015 Ry

     iteration #  7     ecut=    42.00 Ry     beta= 0.30
     Davidson diagonalization with overlap
     ethr =  7.30E-09,  avg # of iterations =  4.5

     total cpu time spent up to now is       43.8 secs

     total energy              =      -1.42216654 Ry
     Harris-Foulkes estimate   =      -1.42216657 Ry
     estimated scf accuracy    <       0.00000003 Ry

     iteration #  8     ecut=    42.00 Ry     beta= 0.30
     Davidson diagonalization with overlap
     ethr =  1.44E-09,  avg # of iterations =  3.2

     total cpu time spent up to now is       47.1 secs

     End of self-consistent calculation

          k = 0.0000 0.0000 0.0000 (248049 PWs)   bands (ev):

   -13.1812  -0.0479   0.2737   0.3301   0.3306

     occupation numbers 
     1.0000   0.0000   0.0000   0.0000   0.0000

          k = 0.0000 0.0000-0.5000 (247982 PWs)   bands (ev):

   -13.1812   0.0294   0.0629   0.3613   0.4065

     occupation numbers 
     1.0000   0.0000   0.0000   0.0000   0.0000

          k = 0.0000-0.5000-0.5000 (248312 PWs)   bands (ev):

   -13.1818   0.0960   0.1515   0.1523   0.1616

     occupation numbers 
     1.0000   0.0000   0.0000   0.0000   0.0000

          k =-0.5000-0.5000-0.5000 (248296 PWs)   bands (ev):

   -13.1818   0.1469   0.2369   0.2441   0.2524

     occupation numbers 
     1.0000   0.0000   0.0000   0.0000   0.0000

          k =-0.5000 0.0000 0.0000 (247982 PWs)   bands (ev):

   -13.1810   0.0242   0.0693   0.3571   0.4063

     occupation numbers 
     1.0000   0.0000   0.0000   0.0000   0.0000

          k =-0.5000 0.5000 0.0000 (248312 PWs)   bands (ev):

   -13.1817   0.0916   0.1468   0.1591   0.1670

     occupation numbers 
     1.0000   0.0000   0.0000   0.0000   0.0000

     the Fermi energy is    -6.3876 ev

!    total energy              =      -1.42216655 Ry
     Harris-Foulkes estimate   =      -1.42216654 Ry
     estimated scf accuracy    <          5.4E-12 Ry

     The total energy is the sum of the following terms:

     one-electron contribution =      -5.86111907 Ry
     hartree contribution      =       3.08036667 Ry
     xc contribution           =      -1.74422313 Ry
     ewald contribution        =       3.10280899 Ry
     smearing contrib. (-TS)   =       0.00000000 Ry

     convergence has been achieved in   8 iterations

     Forces acting on atoms (cartesian axes, Ry/au):

     atom    1 type  1   force =    -4.10365025    0.00000000    0.00000000
     atom    2 type  1   force =     4.10365025    0.00000000    0.00000000
     The non-local contrib.  to forces
     atom    1 type  1   force =     0.00000000    0.00000000    0.00000000
     atom    2 type  1   force =     0.00000000    0.00000000    0.00000000
     The ionic contribution  to forces
     atom    1 type  1   force =    -5.79034759   -0.00000000   -0.00000000
     atom    2 type  1   force =     5.79034759    0.00000000   -0.00000000
     The local contribution  to forces
     atom    1 type  1   force =     1.68669664    0.00000000   -0.00000000
     atom    2 type  1   force =    -1.68669768    0.00000000   -0.00000000
     The core correction contribution to forces
     atom    1 type  1   force =     0.00000000    0.00000000    0.00000000
     atom    2 type  1   force =     0.00000000    0.00000000    0.00000000
     The Hubbard contrib.    to forces
     atom    1 type  1   force =     0.00000000    0.00000000    0.00000000
     atom    2 type  1   force =     0.00000000    0.00000000    0.00000000
     The SCF correction term to forces
     atom    1 type  1   force =     0.00000053   -0.00000000    0.00000000
     atom    2 type  1   force =     0.00000019    0.00000000   -0.00000000

     Total force =     5.803438     Total SCF correction =     0.000001


     Computing stress (Cartesian axis) and pressure

          total   stress  (Ry/bohr**3)                   (kbar)     P=    2.02
   0.00004430   0.00000000   0.00000000          6.52      0.00      0.00
   0.00000000  -0.00000152   0.00000000          0.00     -0.22      0.00
   0.00000000   0.00000000  -0.00000152          0.00      0.00     -0.22

     kinetic stress (kbar)      5.91      0.00      0.00
                                0.00      6.89      0.00
                                0.00      0.00      6.89

     local   stress (kbar)     -9.79      0.00      0.00
                                0.00     -8.06     -0.00
                                0.00     -0.00     -8.06

     nonloc. stress (kbar)      0.00      0.00      0.00
                                0.00      0.00      0.00
                                0.00      0.00      0.00

     hartree stress (kbar)      2.90      0.00     -0.00
                                0.00      2.75      0.00
                               -0.00      0.00      2.75

     exc-cor stress (kbar)     -1.50      0.00     -0.00
                                0.00     -1.52     -0.00
                               -0.00     -0.00     -1.52

     corecor stress (kbar)      0.00      0.00      0.00
                                0.00      0.00      0.00
                                0.00      0.00      0.00

     ewald   stress (kbar)      9.00      0.00     -0.00
                                0.00     -0.27     -0.00
                               -0.00     -0.00     -0.27

     hubbard stress (kbar)      0.00      0.00      0.00
                                0.00      0.00      0.00
                                0.00      0.00      0.00

     london  stress (kbar)      0.00      0.00      0.00
                                0.00      0.00      0.00
                                0.00      0.00      0.00

     DFT-D3  stress (kbar)      0.00      0.00      0.00
                                0.00      0.00      0.00
                                0.00      0.00      0.00

     XDM     stress (kbar)      0.00      0.00      0.00
                                0.00      0.00      0.00
                                0.00      0.00      0.00

     dft-nl  stress (kbar)      0.00      0.00      0.00
                                0.00      0.00      0.00
                                0.00      0.00      0.00

     TS-vdW  stress (kbar)      0.00      0.00      0.00
                                0.00      0.00      0.00
                                0.00      0.00      0.00



     Writing output data file HH30.save

     init_run     :      2.55s CPU      2.68s WALL (       1 calls)
     electrons    :     43.57s CPU     44.66s WALL (       1 calls)
     forces       :      0.23s CPU      0.24s WALL (       1 calls)
     stress       :      0.48s CPU      0.50s WALL (       1 calls)

     Called by init_run:
     wfcinit      :      0.99s CPU      0.99s WALL (       1 calls)
     wfcinit:atom :      0.01s CPU      0.01s WALL (       6 calls)
     wfcinit:wfcr :      0.93s CPU      0.93s WALL (       6 calls)
     potinit      :      0.53s CPU      0.57s WALL (       1 calls)

     Called by electrons:
     c_bands      :     35.25s CPU     36.06s WALL (       8 calls)
     sum_band     :      4.72s CPU      4.73s WALL (       8 calls)
     v_of_rho     :      3.18s CPU      3.23s WALL (       9 calls)
     v_h          :      0.30s CPU      0.31s WALL (       9 calls)
     v_xc         :      2.89s CPU      2.92s WALL (       9 calls)
     mix_rho      :      0.59s CPU      0.65s WALL (       8 calls)

     Called by c_bands:
     cegterg      :     35.18s CPU     35.31s WALL (      48 calls)

     Called by sum_band:

     Called by *egterg:
     h_psi        :     33.69s CPU     33.78s WALL (     335 calls)
     g_psi        :      0.17s CPU      0.17s WALL (     281 calls)
     cdiaghg      :      0.04s CPU      0.04s WALL (     329 calls)
     cegterg:over :      0.86s CPU      0.87s WALL (     281 calls)
     cegterg:upda :      0.63s CPU      0.64s WALL (     281 calls)
     cegterg:last :      0.30s CPU      0.30s WALL (      81 calls)

     Called by h_psi:
     h_psi:pot    :     33.49s CPU     33.57s WALL (     335 calls)
     vloc_psi     :     33.48s CPU     33.57s WALL (     335 calls)

     General routines
     fft          :      2.81s CPU      2.84s WALL (     106 calls)
     fftw         :     33.27s CPU     33.35s WALL (    2354 calls)

     Parallel routines
     fft_scatt_xy :      4.82s CPU      4.83s WALL (    2460 calls)
     fft_scatt_yz :      7.70s CPU      7.72s WALL (    2460 calls)

     PWSCF        :    47.16s CPU        48.98s WALL


   This run was terminated on:  20:28:26   1Oct2020            

=------------------------------------------------------------------------------=
   JOB DONE.
=------------------------------------------------------------------------------=
