
     Program PWSCF v.6.2 (svn rev. 14038) starts on  1Oct2020 at 20:41: 9 

     This program is part of the open-source Quantum ESPRESSO suite
     for quantum simulation of materials; please cite
         "P. Giannozzi et al., J. Phys.:Condens. Matter 21 395502 (2009);
         "P. Giannozzi et al., J. Phys.:Condens. Matter 29 465901 (2017);
          URL http://www.quantum-espresso.org", 
     in publications or presentations arising from this work. More details at
     http://www.quantum-espresso.org/quote

     Parallel version (MPI), running on     8 processors

     MPI processes distributed on     1 nodes
     R & G space division:  proc/nbgrp/npool/nimage =       8
     Waiting for input...
     Reading input from standard input

     Current dimensions of program PWSCF are:
     Max number of different atomic species (ntypx) = 10
     Max number of k-points (npk) =  40000
     Max angular momentum in pseudopotentials (lmaxx) =  3

     Subspace diagonalization in iterative solution of the eigenvalue problem:
     a serial algorithm will be used


     Parallelization info
     --------------------
     sticks:   dense  smooth     PW     G-vecs:    dense   smooth      PW
     Min        2386    2386    623               248152   248152   33108
     Max        2387    2387    625               248157   248157   33111
     Sum       19089   19089   4989              1985227  1985227  264875



     bravais-lattice index     =            1
     lattice parameter (alat)  =      37.7945  a.u.
     unit-cell volume          =   53986.6767 (a.u.)^3
     number of atoms/cell      =            2
     number of atomic types    =            1
     number of electrons       =         2.00
     number of Kohn-Sham states=            5
     kinetic-energy cutoff     =      42.0000  Ry
     charge density cutoff     =     168.0000  Ry
     convergence threshold     =      1.0E-08
     mixing beta               =       0.3000
     number of iterations used =            8  plain     mixing
     Exchange-correlation      = SLA-PW-PBX-PBC ( 1  4  3  4 0 0)

     celldm(1)=  37.794523  celldm(2)=   0.000000  celldm(3)=   0.000000
     celldm(4)=   0.000000  celldm(5)=   0.000000  celldm(6)=   0.000000

     crystal axes: (cart. coord. in units of alat)
               a(1) = (   1.000000   0.000000   0.000000 )  
               a(2) = (   0.000000   1.000000   0.000000 )  
               a(3) = (   0.000000   0.000000   1.000000 )  

     reciprocal axes: (cart. coord. in units 2 pi/alat)
               b(1) = (  1.000000  0.000000  0.000000 )  
               b(2) = (  0.000000  1.000000  0.000000 )  
               b(3) = (  0.000000  0.000000  1.000000 )  


     PseudoPot. # 1 for H  read from file:
     ./H.pbe-hgh.UPF
     MD5 check sum: 5f350582108a937bec95f27f5610ab08
     Pseudo is Norm-conserving, Zval =  1.0
     Generated in analytical, separable form
     Using radial grid of  929 points,  0 beta functions with: 

     atomic species   valence    mass     pseudopotential
        H              1.00     1.00784     H ( 1.00)

      8 Sym. Ops. (no inversion) found


                                    s                        frac. trans.

      isym =  1     identity                                     

 cryst.   s( 1) = (     1          0          0      )
                  (     0          1          0      )
                  (     0          0          1      )

 cart.    s( 1) = (  1.0000000  0.0000000  0.0000000 )
                  (  0.0000000  1.0000000  0.0000000 )
                  (  0.0000000  0.0000000  1.0000000 )


      isym =  2     180 deg rotation - cart. axis [1,0,0]        

 cryst.   s( 2) = (     1          0          0      )
                  (     0         -1          0      )
                  (     0          0         -1      )

 cart.    s( 2) = (  1.0000000  0.0000000  0.0000000 )
                  (  0.0000000 -1.0000000  0.0000000 )
                  (  0.0000000  0.0000000 -1.0000000 )


      isym =  3      90 deg rotation - cart. axis [-1,0,0]       

 cryst.   s( 3) = (     1          0          0      )
                  (     0          0         -1      )
                  (     0          1          0      )

 cart.    s( 3) = (  1.0000000  0.0000000  0.0000000 )
                  (  0.0000000  0.0000000  1.0000000 )
                  (  0.0000000 -1.0000000  0.0000000 )


      isym =  4      90 deg rotation - cart. axis [1,0,0]        

 cryst.   s( 4) = (     1          0          0      )
                  (     0          0          1      )
                  (     0         -1          0      )

 cart.    s( 4) = (  1.0000000  0.0000000  0.0000000 )
                  (  0.0000000  0.0000000 -1.0000000 )
                  (  0.0000000  1.0000000  0.0000000 )


      isym =  5     inv. 180 deg rotation - cart. axis [0,0,1]   

 cryst.   s( 5) = (     1          0          0      )
                  (     0          1          0      )
                  (     0          0         -1      )

 cart.    s( 5) = (  1.0000000  0.0000000  0.0000000 )
                  (  0.0000000  1.0000000  0.0000000 )
                  (  0.0000000  0.0000000 -1.0000000 )


      isym =  6     inv. 180 deg rotation - cart. axis [0,1,0]   

 cryst.   s( 6) = (     1          0          0      )
                  (     0         -1          0      )
                  (     0          0          1      )

 cart.    s( 6) = (  1.0000000  0.0000000  0.0000000 )
                  (  0.0000000 -1.0000000  0.0000000 )
                  (  0.0000000  0.0000000  1.0000000 )


      isym =  7     inv. 180 deg rotation - cart. axis [0,1,1]   

 cryst.   s( 7) = (     1          0          0      )
                  (     0          0         -1      )
                  (     0         -1          0      )

 cart.    s( 7) = (  1.0000000  0.0000000  0.0000000 )
                  (  0.0000000  0.0000000 -1.0000000 )
                  (  0.0000000 -1.0000000  0.0000000 )


      isym =  8     inv. 180 deg rotation - cart. axis [0,1,-1]  

 cryst.   s( 8) = (     1          0          0      )
                  (     0          0          1      )
                  (     0          1          0      )

 cart.    s( 8) = (  1.0000000  0.0000000  0.0000000 )
                  (  0.0000000  0.0000000  1.0000000 )
                  (  0.0000000  1.0000000  0.0000000 )


     point group C_4v (4mm) 
     there are  5 classes
     the character table:

       E     2C4   C2    2s_v  2s_d 
A_1    1.00  1.00  1.00  1.00  1.00
A_2    1.00  1.00  1.00 -1.00 -1.00
B_1    1.00 -1.00  1.00  1.00 -1.00
B_2    1.00 -1.00  1.00 -1.00  1.00
E      2.00  0.00 -2.00  0.00  0.00

     the symmetry operations in each class and the name of the first element:

     E        1
          identity                                               
     2C4      3    4
           90 deg rotation - cart. axis [-1,0,0]                 
     C2       2
          180 deg rotation - cart. axis [1,0,0]                  
     2s_v     5    6
          inv. 180 deg rotation - cart. axis [0,0,1]             
     2s_d     7    8
          inv. 180 deg rotation - cart. axis [0,1,1]             

   Cartesian axes

     site n.     atom                  positions (alat units)
         1           H   tau(   1) = (   0.0000000   0.0000000   0.0000000  )
         2           H   tau(   2) = (   0.0211000   0.0000000   0.0000000  )

   Crystallographic axes

     site n.     atom                  positions (cryst. coord.)
         1           H   tau(   1) = (  0.0000000  0.0000000  0.0000000  )
         2           H   tau(   2) = (  0.0211000  0.0000000  0.0000000  )

     number of k points=     6  Marzari-Vanderbilt smearing, width (Ry)=  0.0500
                       cart. coord. in units 2pi/alat
        k(    1) = (   0.0000000   0.0000000   0.0000000), wk =   0.2500000
        k(    2) = (   0.0000000   0.0000000  -0.5000000), wk =   0.5000000
        k(    3) = (   0.0000000  -0.5000000  -0.5000000), wk =   0.2500000
        k(    4) = (  -0.5000000  -0.5000000  -0.5000000), wk =   0.2500000
        k(    5) = (  -0.5000000   0.0000000   0.0000000), wk =   0.2500000
        k(    6) = (  -0.5000000   0.5000000   0.0000000), wk =   0.5000000

                       cryst. coord.
        k(    1) = (   0.0000000   0.0000000   0.0000000), wk =   0.2500000
        k(    2) = (   0.0000000   0.0000000  -0.5000000), wk =   0.5000000
        k(    3) = (   0.0000000  -0.5000000  -0.5000000), wk =   0.2500000
        k(    4) = (  -0.5000000  -0.5000000  -0.5000000), wk =   0.2500000
        k(    5) = (  -0.5000000   0.0000000   0.0000000), wk =   0.2500000
        k(    6) = (  -0.5000000   0.5000000   0.0000000), wk =   0.5000000

     Dense  grid:  1985227 G-vectors     FFT dimensions: ( 160, 160, 160)

     Dynamical RAM for                 wfc:       2.37 MB

     Dynamical RAM for     wfc (w. buffer):      16.57 MB

     Dynamical RAM for           str. fact:       3.79 MB

     Dynamical RAM for           local pot:       0.00 MB

     Dynamical RAM for          nlocal pot:       0.00 MB

     Dynamical RAM for          rho,v,vnew:      23.08 MB

     Dynamical RAM for               rhoin:       7.69 MB

     Dynamical RAM for            rho*nmix:      60.58 MB

     Dynamical RAM for           G-vectors:      16.09 MB

     Dynamical RAM for          h,s,v(r/c):       0.02 MB

     Dynamical RAM for          <psi|beta>:       0.00 MB

     Dynamical RAM for                 psi:       9.47 MB

     Dynamical RAM for                hpsi:       9.47 MB

     Dynamical RAM for      wfcinit/wfcrot:       4.73 MB

     Estimated static dynamical RAM per process >     154.90 MB

     Estimated max dynamical RAM per process >     173.85 MB

     Estimated total dynamical RAM >       1.36 GB

     Initial potential from superposition of free atoms
     Check: negative starting charge=   -0.018108

     starting charge    1.99998, renormalised to    2.00000

     negative rho (up, down):  1.811E-02 0.000E+00
     Starting wfc are    2 randomized atomic wfcs +    3 random wfc

     total cpu time spent up to now is        2.4 secs

     Self-consistent Calculation

     iteration #  1     ecut=    42.00 Ry     beta= 0.30
     Davidson diagonalization with overlap
     ethr =  1.00E-02,  avg # of iterations =  6.0

     negative rho (up, down):  1.267E-02 0.000E+00

     total cpu time spent up to now is        8.2 secs

     total energy              =      -2.03073848 Ry
     Harris-Foulkes estimate   =      -2.11629693 Ry
     estimated scf accuracy    <       0.30894657 Ry

     iteration #  2     ecut=    42.00 Ry     beta= 0.30
     Davidson diagonalization with overlap
     ethr =  1.00E-02,  avg # of iterations =  1.0

     negative rho (up, down):  2.465E-03 0.000E+00

     total cpu time spent up to now is       10.8 secs

     total energy              =      -1.96031712 Ry
     Harris-Foulkes estimate   =      -2.03416753 Ry
     estimated scf accuracy    <       0.12155392 Ry

     iteration #  3     ecut=    42.00 Ry     beta= 0.30
     Davidson diagonalization with overlap
     ethr =  6.08E-03,  avg # of iterations =  2.0

     negative rho (up, down):  2.091E-03 0.000E+00

     total cpu time spent up to now is       13.6 secs

     total energy              =      -1.97685245 Ry
     Harris-Foulkes estimate   =      -1.97708151 Ry
     estimated scf accuracy    <       0.00103438 Ry

     iteration #  4     ecut=    42.00 Ry     beta= 0.30
     Davidson diagonalization with overlap
     ethr =  5.17E-05,  avg # of iterations = 13.2

     negative rho (up, down):  3.165E-04 0.000E+00

     total cpu time spent up to now is       22.6 secs

     total energy              =      -1.97641902 Ry
     Harris-Foulkes estimate   =      -1.97754519 Ry
     estimated scf accuracy    <       0.00176991 Ry

     iteration #  5     ecut=    42.00 Ry     beta= 0.30
     Davidson diagonalization with overlap
     ethr =  5.17E-05,  avg # of iterations =  2.0

     negative rho (up, down):  3.940E-05 0.000E+00

     total cpu time spent up to now is       25.4 secs

     total energy              =      -1.97669904 Ry
     Harris-Foulkes estimate   =      -1.97671162 Ry
     estimated scf accuracy    <       0.00002135 Ry

     iteration #  6     ecut=    42.00 Ry     beta= 0.30
     Davidson diagonalization with overlap
     c_bands:  1 eigenvalues not converged
     c_bands:  1 eigenvalues not converged
     c_bands:  1 eigenvalues not converged
     c_bands:  1 eigenvalues not converged
     ethr =  1.07E-06,  avg # of iterations = 18.0

     negative rho (up, down):  1.049E-05 0.000E+00

     total cpu time spent up to now is       35.6 secs

     total energy              =      -1.97670173 Ry
     Harris-Foulkes estimate   =      -1.97670185 Ry
     estimated scf accuracy    <       0.00000002 Ry

     iteration #  7     ecut=    42.00 Ry     beta= 0.30
     Davidson diagonalization with overlap
     ethr =  7.77E-10,  avg # of iterations =  5.0

     total cpu time spent up to now is       38.9 secs

     End of self-consistent calculation

          k = 0.0000 0.0000 0.0000 (248049 PWs)   bands (ev):

   -12.2616  -0.0560   0.2622   0.3142   0.3207

     occupation numbers 
     1.0000   0.0000   0.0000   0.0000   0.0000

          k = 0.0000 0.0000-0.5000 (247982 PWs)   bands (ev):

   -12.2616   0.0188   0.0563   0.3501   0.3825

     occupation numbers 
     1.0000   0.0000   0.0000   0.0000   0.0000

          k = 0.0000-0.5000-0.5000 (248312 PWs)   bands (ev):

   -12.2620   0.0827   0.1437   0.1439   0.1564

     occupation numbers 
     1.0000   0.0000   0.0000   0.0000   0.0000

          k =-0.5000-0.5000-0.5000 (248296 PWs)   bands (ev):

   -12.2621   0.1350   0.2239   0.2270   0.2493

     occupation numbers 
     1.0000   0.0000   0.0000   0.0000   0.0000

          k =-0.5000 0.0000 0.0000 (247982 PWs)   bands (ev):

   -12.2615   0.0182   0.0554   0.3494   0.3974

     occupation numbers 
     1.0000   0.0000   0.0000   0.0000   0.0000

          k =-0.5000 0.5000 0.0000 (248312 PWs)   bands (ev):

   -12.2619   0.0823   0.1425   0.1443   0.1562

     occupation numbers 
     1.0000   0.0000   0.0000   0.0000   0.0000

     the Fermi energy is    -5.9324 ev

!    total energy              =      -1.97670177 Ry
     Harris-Foulkes estimate   =      -1.97670174 Ry
     estimated scf accuracy    <          4.7E-09 Ry

     The total energy is the sum of the following terms:

     one-electron contribution =      -5.40089416 Ry
     hartree contribution      =       2.84293053 Ry
     xc contribution           =      -1.62644970 Ry
     ewald contribution        =       2.20771156 Ry
     smearing contrib. (-TS)   =       0.00000000 Ry

     convergence has been achieved in   7 iterations

     Forces acting on atoms (cartesian axes, Ry/au):

     atom    1 type  1   force =    -1.61173619    0.00000000    0.00000000
     atom    2 type  1   force =     1.61173619    0.00000000    0.00000000
     The non-local contrib.  to forces
     atom    1 type  1   force =     0.00000000    0.00000000    0.00000000
     atom    2 type  1   force =     0.00000000    0.00000000    0.00000000
     The ionic contribution  to forces
     atom    1 type  1   force =    -3.14477982   -0.00000000   -0.00000000
     atom    2 type  1   force =     3.14477982    0.00000000   -0.00000000
     The local contribution  to forces
     atom    1 type  1   force =     1.53304547    0.00000000   -0.00000000
     atom    2 type  1   force =    -1.53304887    0.00000000   -0.00000000
     The core correction contribution to forces
     atom    1 type  1   force =     0.00000000    0.00000000    0.00000000
     atom    2 type  1   force =     0.00000000    0.00000000    0.00000000
     The Hubbard contrib.    to forces
     atom    1 type  1   force =     0.00000000    0.00000000    0.00000000
     atom    2 type  1   force =     0.00000000    0.00000000    0.00000000
     The SCF correction term to forces
     atom    1 type  1   force =    -0.00000247   -0.00000000    0.00000000
     atom    2 type  1   force =     0.00000462   -0.00000000   -0.00000000

     Total force =     2.279339     Total SCF correction =     0.000005


     Computing stress (Cartesian axis) and pressure

          total   stress  (Ry/bohr**3)                   (kbar)     P=    1.06
   0.00002342   0.00000000   0.00000000          3.45      0.00      0.00
   0.00000000  -0.00000089   0.00000000          0.00     -0.13      0.00
   0.00000000   0.00000000  -0.00000089          0.00      0.00     -0.13

     kinetic stress (kbar)      4.78      0.00      0.00
                                0.00      6.06      0.00
                                0.00      0.00      6.06

     local   stress (kbar)     -9.24     -0.00     -0.00
                               -0.00     -7.00      0.00
                               -0.00      0.00     -7.00

     nonloc. stress (kbar)      0.00      0.00      0.00
                                0.00      0.00      0.00
                                0.00      0.00      0.00

     hartree stress (kbar)      2.74      0.00      0.00
                                0.00      2.50     -0.00
                                0.00     -0.00      2.50

     exc-cor stress (kbar)     -1.39     -0.00     -0.00
                               -0.00     -1.42     -0.00
                               -0.00     -0.00     -1.42

     corecor stress (kbar)      0.00      0.00      0.00
                                0.00      0.00      0.00
                                0.00      0.00      0.00

     ewald   stress (kbar)      6.56      0.00     -0.00
                                0.00     -0.27     -0.00
                               -0.00     -0.00     -0.27

     hubbard stress (kbar)      0.00      0.00      0.00
                                0.00      0.00      0.00
                                0.00      0.00      0.00

     london  stress (kbar)      0.00      0.00      0.00
                                0.00      0.00      0.00
                                0.00      0.00      0.00

     DFT-D3  stress (kbar)      0.00      0.00      0.00
                                0.00      0.00      0.00
                                0.00      0.00      0.00

     XDM     stress (kbar)      0.00      0.00      0.00
                                0.00      0.00      0.00
                                0.00      0.00      0.00

     dft-nl  stress (kbar)      0.00      0.00      0.00
                                0.00      0.00      0.00
                                0.00      0.00      0.00

     TS-vdW  stress (kbar)      0.00      0.00      0.00
                                0.00      0.00      0.00
                                0.00      0.00      0.00



     Writing output data file HH35.save

     init_run     :      2.31s CPU      2.37s WALL (       1 calls)
     electrons    :     35.36s CPU     36.62s WALL (       1 calls)
     forces       :      0.20s CPU      0.20s WALL (       1 calls)
     stress       :      0.45s CPU      0.46s WALL (       1 calls)

     Called by init_run:
     wfcinit      :      0.86s CPU      0.87s WALL (       1 calls)
     wfcinit:atom :      0.01s CPU      0.01s WALL (       6 calls)
     wfcinit:wfcr :      0.80s CPU      0.81s WALL (       6 calls)
     potinit      :      0.51s CPU      0.52s WALL (       1 calls)

     Called by electrons:
     c_bands      :     28.84s CPU     29.85s WALL (       7 calls)
     sum_band     :      3.64s CPU      3.66s WALL (       7 calls)
     v_of_rho     :      2.63s CPU      2.65s WALL (       8 calls)
     v_h          :      0.27s CPU      0.27s WALL (       8 calls)
     v_xc         :      2.36s CPU      2.38s WALL (       8 calls)
     mix_rho      :      0.47s CPU      0.51s WALL (       7 calls)

     Called by c_bands:
     cegterg      :     28.78s CPU     28.92s WALL (      42 calls)

     Called by sum_band:

     Called by *egterg:
     h_psi        :     27.55s CPU     27.67s WALL (     331 calls)
     g_psi        :      0.11s CPU      0.11s WALL (     283 calls)
     cdiaghg      :      0.03s CPU      0.03s WALL (     325 calls)
     cegterg:over :      0.70s CPU      0.71s WALL (     283 calls)
     cegterg:upda :      0.59s CPU      0.59s WALL (     283 calls)
     cegterg:last :      0.29s CPU      0.29s WALL (      77 calls)

     Called by h_psi:
     h_psi:pot    :     27.34s CPU     27.46s WALL (     331 calls)
     vloc_psi     :     27.34s CPU     27.45s WALL (     331 calls)

     General routines
     fft          :      2.39s CPU      2.42s WALL (      95 calls)
     fftw         :     26.53s CPU     26.64s WALL (    2300 calls)

     Parallel routines
     fft_scatt_xy :      4.51s CPU      4.53s WALL (    2395 calls)
     fft_scatt_yz :      6.29s CPU      6.33s WALL (    2395 calls)

     PWSCF        :    38.58s CPU        40.21s WALL


   This run was terminated on:  20:41:49   1Oct2020            

=------------------------------------------------------------------------------=
   JOB DONE.
=------------------------------------------------------------------------------=
