
     Program PWSCF v.6.2 (svn rev. 14038) starts on  1Oct2020 at  7:30:46 

     This program is part of the open-source Quantum ESPRESSO suite
     for quantum simulation of materials; please cite
         "P. Giannozzi et al., J. Phys.:Condens. Matter 21 395502 (2009);
         "P. Giannozzi et al., J. Phys.:Condens. Matter 29 465901 (2017);
          URL http://www.quantum-espresso.org", 
     in publications or presentations arising from this work. More details at
     http://www.quantum-espresso.org/quote

     Parallel version (MPI), running on     8 processors

     MPI processes distributed on     1 nodes
     R & G space division:  proc/nbgrp/npool/nimage =       8
     Waiting for input...
     Reading input from standard input

     Current dimensions of program PWSCF are:
     Max number of different atomic species (ntypx) = 10
     Max number of k-points (npk) =  40000
     Max angular momentum in pseudopotentials (lmaxx) =  3

     Subspace diagonalization in iterative solution of the eigenvalue problem:
     a serial algorithm will be used


     Parallelization info
     --------------------
     sticks:   dense  smooth     PW     G-vecs:    dense   smooth      PW
     Min        2386    2386    623               248152   248152   33108
     Max        2387    2387    625               248157   248157   33111
     Sum       19089   19089   4989              1985227  1985227  264875



     bravais-lattice index     =            1
     lattice parameter (alat)  =      37.7945  a.u.
     unit-cell volume          =   53986.6767 (a.u.)^3
     number of atoms/cell      =            2
     number of atomic types    =            1
     number of electrons       =         2.00
     number of Kohn-Sham states=            5
     kinetic-energy cutoff     =      42.0000  Ry
     charge density cutoff     =     168.0000  Ry
     convergence threshold     =      1.0E-08
     mixing beta               =       0.3000
     number of iterations used =            8  plain     mixing
     Exchange-correlation      = SLA-PW-PBX-PBC ( 1  4  3  4 0 0)

     celldm(1)=  37.794523  celldm(2)=   0.000000  celldm(3)=   0.000000
     celldm(4)=   0.000000  celldm(5)=   0.000000  celldm(6)=   0.000000

     crystal axes: (cart. coord. in units of alat)
               a(1) = (   1.000000   0.000000   0.000000 )  
               a(2) = (   0.000000   1.000000   0.000000 )  
               a(3) = (   0.000000   0.000000   1.000000 )  

     reciprocal axes: (cart. coord. in units 2 pi/alat)
               b(1) = (  1.000000  0.000000  0.000000 )  
               b(2) = (  0.000000  1.000000  0.000000 )  
               b(3) = (  0.000000  0.000000  1.000000 )  


     PseudoPot. # 1 for H  read from file:
     ./H.pbe-hgh.UPF
     MD5 check sum: 5f350582108a937bec95f27f5610ab08
     Pseudo is Norm-conserving, Zval =  1.0
     Generated in analytical, separable form
     Using radial grid of  929 points,  0 beta functions with: 

     atomic species   valence    mass     pseudopotential
        H              1.00     1.00784     H ( 1.00)

      8 Sym. Ops. (no inversion) found


                                    s                        frac. trans.

      isym =  1     identity                                     

 cryst.   s( 1) = (     1          0          0      )
                  (     0          1          0      )
                  (     0          0          1      )

 cart.    s( 1) = (  1.0000000  0.0000000  0.0000000 )
                  (  0.0000000  1.0000000  0.0000000 )
                  (  0.0000000  0.0000000  1.0000000 )


      isym =  2     180 deg rotation - cart. axis [1,0,0]        

 cryst.   s( 2) = (     1          0          0      )
                  (     0         -1          0      )
                  (     0          0         -1      )

 cart.    s( 2) = (  1.0000000  0.0000000  0.0000000 )
                  (  0.0000000 -1.0000000  0.0000000 )
                  (  0.0000000  0.0000000 -1.0000000 )


      isym =  3      90 deg rotation - cart. axis [-1,0,0]       

 cryst.   s( 3) = (     1          0          0      )
                  (     0          0         -1      )
                  (     0          1          0      )

 cart.    s( 3) = (  1.0000000  0.0000000  0.0000000 )
                  (  0.0000000  0.0000000  1.0000000 )
                  (  0.0000000 -1.0000000  0.0000000 )


      isym =  4      90 deg rotation - cart. axis [1,0,0]        

 cryst.   s( 4) = (     1          0          0      )
                  (     0          0          1      )
                  (     0         -1          0      )

 cart.    s( 4) = (  1.0000000  0.0000000  0.0000000 )
                  (  0.0000000  0.0000000 -1.0000000 )
                  (  0.0000000  1.0000000  0.0000000 )


      isym =  5     inv. 180 deg rotation - cart. axis [0,0,1]   

 cryst.   s( 5) = (     1          0          0      )
                  (     0          1          0      )
                  (     0          0         -1      )

 cart.    s( 5) = (  1.0000000  0.0000000  0.0000000 )
                  (  0.0000000  1.0000000  0.0000000 )
                  (  0.0000000  0.0000000 -1.0000000 )


      isym =  6     inv. 180 deg rotation - cart. axis [0,1,0]   

 cryst.   s( 6) = (     1          0          0      )
                  (     0         -1          0      )
                  (     0          0          1      )

 cart.    s( 6) = (  1.0000000  0.0000000  0.0000000 )
                  (  0.0000000 -1.0000000  0.0000000 )
                  (  0.0000000  0.0000000  1.0000000 )


      isym =  7     inv. 180 deg rotation - cart. axis [0,1,1]   

 cryst.   s( 7) = (     1          0          0      )
                  (     0          0         -1      )
                  (     0         -1          0      )

 cart.    s( 7) = (  1.0000000  0.0000000  0.0000000 )
                  (  0.0000000  0.0000000 -1.0000000 )
                  (  0.0000000 -1.0000000  0.0000000 )


      isym =  8     inv. 180 deg rotation - cart. axis [0,1,-1]  

 cryst.   s( 8) = (     1          0          0      )
                  (     0          0          1      )
                  (     0          1          0      )

 cart.    s( 8) = (  1.0000000  0.0000000  0.0000000 )
                  (  0.0000000  0.0000000  1.0000000 )
                  (  0.0000000  1.0000000  0.0000000 )


     point group C_4v (4mm) 
     there are  5 classes
     the character table:

       E     2C4   C2    2s_v  2s_d 
A_1    1.00  1.00  1.00  1.00  1.00
A_2    1.00  1.00  1.00 -1.00 -1.00
B_1    1.00 -1.00  1.00  1.00 -1.00
B_2    1.00 -1.00  1.00 -1.00  1.00
E      2.00  0.00 -2.00  0.00  0.00

     the symmetry operations in each class and the name of the first element:

     E        1
          identity                                               
     2C4      3    4
           90 deg rotation - cart. axis [-1,0,0]                 
     C2       2
          180 deg rotation - cart. axis [1,0,0]                  
     2s_v     5    6
          inv. 180 deg rotation - cart. axis [0,0,1]             
     2s_d     7    8
          inv. 180 deg rotation - cart. axis [0,1,1]             

   Cartesian axes

     site n.     atom                  positions (alat units)
         1           H   tau(   1) = (   0.0000000   0.0000000   0.0000000  )
         2           H   tau(   2) = (   0.0251500   0.0000000   0.0000000  )

   Crystallographic axes

     site n.     atom                  positions (cryst. coord.)
         1           H   tau(   1) = (  0.0000000  0.0000000  0.0000000  )
         2           H   tau(   2) = (  0.0251500  0.0000000  0.0000000  )

     number of k points=     6  Marzari-Vanderbilt smearing, width (Ry)=  0.0500
                       cart. coord. in units 2pi/alat
        k(    1) = (   0.0000000   0.0000000   0.0000000), wk =   0.2500000
        k(    2) = (   0.0000000   0.0000000  -0.5000000), wk =   0.5000000
        k(    3) = (   0.0000000  -0.5000000  -0.5000000), wk =   0.2500000
        k(    4) = (  -0.5000000  -0.5000000  -0.5000000), wk =   0.2500000
        k(    5) = (  -0.5000000   0.0000000   0.0000000), wk =   0.2500000
        k(    6) = (  -0.5000000   0.5000000   0.0000000), wk =   0.5000000

                       cryst. coord.
        k(    1) = (   0.0000000   0.0000000   0.0000000), wk =   0.2500000
        k(    2) = (   0.0000000   0.0000000  -0.5000000), wk =   0.5000000
        k(    3) = (   0.0000000  -0.5000000  -0.5000000), wk =   0.2500000
        k(    4) = (  -0.5000000  -0.5000000  -0.5000000), wk =   0.2500000
        k(    5) = (  -0.5000000   0.0000000   0.0000000), wk =   0.2500000
        k(    6) = (  -0.5000000   0.5000000   0.0000000), wk =   0.5000000

     Dense  grid:  1985227 G-vectors     FFT dimensions: ( 160, 160, 160)

     Dynamical RAM for                 wfc:       2.37 MB

     Dynamical RAM for     wfc (w. buffer):      16.57 MB

     Dynamical RAM for           str. fact:       3.79 MB

     Dynamical RAM for           local pot:       0.00 MB

     Dynamical RAM for          nlocal pot:       0.00 MB

     Dynamical RAM for          rho,v,vnew:      23.08 MB

     Dynamical RAM for               rhoin:       7.69 MB

     Dynamical RAM for            rho*nmix:      60.58 MB

     Dynamical RAM for           G-vectors:      16.09 MB

     Dynamical RAM for          h,s,v(r/c):       0.02 MB

     Dynamical RAM for          <psi|beta>:       0.00 MB

     Dynamical RAM for                 psi:       9.47 MB

     Dynamical RAM for                hpsi:       9.47 MB

     Dynamical RAM for      wfcinit/wfcrot:       4.73 MB

     Estimated static dynamical RAM per process >     154.90 MB

     Estimated max dynamical RAM per process >     173.85 MB

     Estimated total dynamical RAM >       1.36 GB

     Initial potential from superposition of free atoms
     Check: negative starting charge=   -0.018674

     starting charge    1.99998, renormalised to    2.00000

     negative rho (up, down):  1.867E-02 0.000E+00
     Starting wfc are    2 randomized atomic wfcs +    3 random wfc

     total cpu time spent up to now is        2.8 secs

     Self-consistent Calculation

     iteration #  1     ecut=    42.00 Ry     beta= 0.30
     Davidson diagonalization with overlap
     ethr =  1.00E-02,  avg # of iterations =  6.2

     negative rho (up, down):  1.307E-02 0.000E+00

     total cpu time spent up to now is        8.9 secs

     total energy              =      -2.19902478 Ry
     Harris-Foulkes estimate   =      -2.26467328 Ry
     estimated scf accuracy    <       0.23781836 Ry

     iteration #  2     ecut=    42.00 Ry     beta= 0.30
     Davidson diagonalization with overlap
     ethr =  1.00E-02,  avg # of iterations =  1.0

     negative rho (up, down):  2.589E-03 0.000E+00

     total cpu time spent up to now is       11.8 secs

     total energy              =      -2.14627296 Ry
     Harris-Foulkes estimate   =      -2.20173877 Ry
     estimated scf accuracy    <       0.09304688 Ry

     iteration #  3     ecut=    42.00 Ry     beta= 0.30
     Davidson diagonalization with overlap
     ethr =  4.65E-03,  avg # of iterations =  2.0

     negative rho (up, down):  2.036E-03 0.000E+00

     total cpu time spent up to now is       14.8 secs

     total energy              =      -2.15848528 Ry
     Harris-Foulkes estimate   =      -2.15863782 Ry
     estimated scf accuracy    <       0.00062750 Ry

     iteration #  4     ecut=    42.00 Ry     beta= 0.30
     Davidson diagonalization with overlap
     ethr =  3.14E-05,  avg # of iterations = 14.3

     negative rho (up, down):  2.158E-04 0.000E+00

     total cpu time spent up to now is       27.1 secs

     total energy              =      -2.15827168 Ry
     Harris-Foulkes estimate   =      -2.15886947 Ry
     estimated scf accuracy    <       0.00096697 Ry

     iteration #  5     ecut=    42.00 Ry     beta= 0.30
     Davidson diagonalization with overlap
     ethr =  3.14E-05,  avg # of iterations =  2.0

     negative rho (up, down):  5.103E-05 0.000E+00

     total cpu time spent up to now is       30.3 secs

     total energy              =      -2.15841452 Ry
     Harris-Foulkes estimate   =      -2.15841716 Ry
     estimated scf accuracy    <       0.00000493 Ry

     iteration #  6     ecut=    42.00 Ry     beta= 0.30
     Davidson diagonalization with overlap
     c_bands:  1 eigenvalues not converged
     c_bands:  2 eigenvalues not converged
     ethr =  2.46E-07,  avg # of iterations = 15.8

     negative rho (up, down):  4.414E-06 0.000E+00

     total cpu time spent up to now is       40.2 secs

     total energy              =      -2.15841502 Ry
     Harris-Foulkes estimate   =      -2.15841504 Ry
     estimated scf accuracy    <       0.00000009 Ry

     iteration #  7     ecut=    42.00 Ry     beta= 0.30
     Davidson diagonalization with overlap
     c_bands:  1 eigenvalues not converged
     ethr =  4.31E-09,  avg # of iterations =  6.2

     negative rho (up, down):  2.174E-07 0.000E+00

     total cpu time spent up to now is       44.3 secs

     total energy              =      -2.15841499 Ry
     Harris-Foulkes estimate   =      -2.15841502 Ry
     estimated scf accuracy    <       0.00000008 Ry

     iteration #  8     ecut=    42.00 Ry     beta= 0.30
     Davidson diagonalization with overlap
     ethr =  4.16E-09,  avg # of iterations =  2.2

     total cpu time spent up to now is       47.3 secs

     End of self-consistent calculation

          k = 0.0000 0.0000 0.0000 (248049 PWs)   bands (ev):

   -11.6715  -0.0455   0.2717   0.3183   0.3306

     occupation numbers 
     1.0000   0.0000   0.0000   0.0000   0.0000

          k = 0.0000 0.0000-0.5000 (247982 PWs)   bands (ev):

   -11.6715   0.0255   0.0712   0.3592   0.3753

     occupation numbers 
     1.0000   0.0000   0.0000   0.0000   0.0000

          k = 0.0000-0.5000-0.5000 (248312 PWs)   bands (ev):

   -11.6719   0.0854   0.1574   0.1575   0.1732

     occupation numbers 
     1.0000   0.0000   0.0000   0.0000   0.0000

          k =-0.5000-0.5000-0.5000 (248296 PWs)   bands (ev):

   -11.6719   0.1359   0.2232   0.2357   0.2651

     occupation numbers 
     1.0000   0.0000   0.0000   0.0000   0.0000

          k =-0.5000 0.0000 0.0000 (247982 PWs)   bands (ev):

   -11.6715   0.0253   0.0698   0.3546   0.4086

     occupation numbers 
     1.0000   0.0000   0.0000   0.0000   0.0000

          k =-0.5000 0.5000 0.0000 (248312 PWs)   bands (ev):

   -11.6718   0.0865   0.1509   0.1541   0.1769

     occupation numbers 
     1.0000   0.0000   0.0000   0.0000   0.0000

     the Fermi energy is    -5.6317 ev

!    total energy              =      -2.15841500 Ry
     Harris-Foulkes estimate   =      -2.15841500 Ry
     estimated scf accuracy    <          5.6E-10 Ry

     The total energy is the sum of the following terms:

     one-electron contribution =      -5.09862548 Ry
     hartree contribution      =       2.68629319 Ry
     xc contribution           =      -1.54995053 Ry
     ewald contribution        =       1.80386782 Ry
     smearing contrib. (-TS)   =       0.00000000 Ry

     convergence has been achieved in   8 iterations

     Forces acting on atoms (cartesian axes, Ry/au):

     atom    1 type  1   force =    -0.84468667    0.00000000    0.00000000
     atom    2 type  1   force =     0.84468667    0.00000000    0.00000000
     The non-local contrib.  to forces
     atom    1 type  1   force =     0.00000000    0.00000000    0.00000000
     atom    2 type  1   force =     0.00000000    0.00000000    0.00000000
     The ionic contribution  to forces
     atom    1 type  1   force =    -2.21343765    0.00000000   -0.00000000
     atom    2 type  1   force =     2.21343765   -0.00000000   -0.00000000
     The local contribution  to forces
     atom    1 type  1   force =     1.36874050    0.00000000   -0.00000000
     atom    2 type  1   force =    -1.36874150   -0.00000000   -0.00000000
     The core correction contribution to forces
     atom    1 type  1   force =     0.00000000    0.00000000    0.00000000
     atom    2 type  1   force =     0.00000000    0.00000000    0.00000000
     The Hubbard contrib.    to forces
     atom    1 type  1   force =     0.00000000    0.00000000    0.00000000
     atom    2 type  1   force =     0.00000000    0.00000000    0.00000000
     The SCF correction term to forces
     atom    1 type  1   force =     0.00001029   -0.00000000    0.00000000
     atom    2 type  1   force =    -0.00000969    0.00000000   -0.00000000

     Total force =     1.194567     Total SCF correction =     0.000014


     Computing stress (Cartesian axis) and pressure

          total   stress  (Ry/bohr**3)                   (kbar)     P=    0.63
   0.00001422   0.00000000   0.00000000          2.09      0.00      0.00
   0.00000000  -0.00000070   0.00000000          0.00     -0.10      0.00
   0.00000000   0.00000000  -0.00000070          0.00      0.00     -0.10

     kinetic stress (kbar)      4.15      0.00      0.00
                                0.00      5.55      0.00
                                0.00      0.00      5.55

     local   stress (kbar)     -8.84     -0.00     -0.00
                               -0.00     -6.37      0.00
                               -0.00      0.00     -6.37

     nonloc. stress (kbar)      0.00      0.00      0.00
                                0.00      0.00      0.00
                                0.00      0.00      0.00

     hartree stress (kbar)      2.63     -0.00      0.00
                               -0.00      2.34     -0.00
                                0.00     -0.00      2.34

     exc-cor stress (kbar)     -1.32      0.00     -0.00
                                0.00     -1.35      0.00
                               -0.00      0.00     -1.35

     corecor stress (kbar)      0.00      0.00      0.00
                                0.00      0.00      0.00
                                0.00      0.00      0.00

     ewald   stress (kbar)      5.46      0.00     -0.00
                                0.00     -0.27     -0.00
                               -0.00     -0.00     -0.27

     hubbard stress (kbar)      0.00      0.00      0.00
                                0.00      0.00      0.00
                                0.00      0.00      0.00

     london  stress (kbar)      0.00      0.00      0.00
                                0.00      0.00      0.00
                                0.00      0.00      0.00

     DFT-D3  stress (kbar)      0.00      0.00      0.00
                                0.00      0.00      0.00
                                0.00      0.00      0.00

     XDM     stress (kbar)      0.00      0.00      0.00
                                0.00      0.00      0.00
                                0.00      0.00      0.00

     dft-nl  stress (kbar)      0.00      0.00      0.00
                                0.00      0.00      0.00
                                0.00      0.00      0.00

     TS-vdW  stress (kbar)      0.00      0.00      0.00
                                0.00      0.00      0.00
                                0.00      0.00      0.00



     Writing output data file HH9.save

     init_run     :      2.52s CPU      2.66s WALL (       1 calls)
     electrons    :     43.68s CPU     44.99s WALL (       1 calls)
     forces       :      0.22s CPU      0.22s WALL (       1 calls)
     stress       :      0.48s CPU      0.49s WALL (       1 calls)

     Called by init_run:
     wfcinit      :      0.97s CPU      0.98s WALL (       1 calls)
     wfcinit:atom :      0.01s CPU      0.01s WALL (       6 calls)
     wfcinit:wfcr :      0.90s CPU      0.91s WALL (       6 calls)
     potinit      :      0.52s CPU      0.57s WALL (       1 calls)

     Called by electrons:
     c_bands      :     35.65s CPU     36.55s WALL (       8 calls)
     sum_band     :      4.53s CPU      4.55s WALL (       8 calls)
     v_of_rho     :      3.10s CPU      3.14s WALL (       9 calls)
     v_h          :      0.29s CPU      0.30s WALL (       9 calls)
     v_xc         :      2.81s CPU      2.85s WALL (       9 calls)
     mix_rho      :      0.57s CPU      0.65s WALL (       8 calls)

     Called by c_bands:
     cegterg      :     35.59s CPU     35.67s WALL (      48 calls)

     Called by sum_band:

     Called by *egterg:
     h_psi        :     34.06s CPU     34.13s WALL (     352 calls)
     g_psi        :      0.19s CPU      0.19s WALL (     298 calls)
     cdiaghg      :      0.04s CPU      0.04s WALL (     346 calls)
     cegterg:over :      0.81s CPU      0.82s WALL (     298 calls)
     cegterg:upda :      0.66s CPU      0.66s WALL (     298 calls)
     cegterg:last :      0.34s CPU      0.34s WALL (      89 calls)

     Called by h_psi:
     h_psi:pot    :     33.85s CPU     33.90s WALL (     352 calls)
     vloc_psi     :     33.85s CPU     33.90s WALL (     352 calls)

     General routines
     fft          :      2.73s CPU      2.76s WALL (     106 calls)
     fftw         :     33.40s CPU     33.45s WALL (    2524 calls)

     Parallel routines
     fft_scatt_xy :      4.87s CPU      4.88s WALL (    2630 calls)
     fft_scatt_yz :      6.83s CPU      6.85s WALL (    2630 calls)

     PWSCF        :    47.25s CPU        49.53s WALL


   This run was terminated on:   7:31:35   1Oct2020            

=------------------------------------------------------------------------------=
   JOB DONE.
=------------------------------------------------------------------------------=
