145
config_type=liquid dft_energy=-13879.142501208173 dft_virial="-37.445752801822564 -6.4031725037316285 5.9519012987067335 -6.4031725037316285 -40.772963199952066 2.9491183074329674 5.9519012987067335 2.9491183074329674 -37.35793786462853" pbc="T T T" Lattice="13.849990867899999 0.0 0.0 0.0 13.849990867899999 0.0 0.0 0.0 13.849990867899999" Properties=species:S:1:pos:R:3:Z:I:1:dft_force:R:3
Si	12.661800151342858	11.413846724190728	11.417143022017289	14	-0.06701868838551185	0.24995360324564372	0.24127766545333607
Si	13.725701049851464	0.9451787767889676	1.3071413631261002	14	0.6015152318592835	0.08046839742573846	-0.18661005280475154
Si	13.843786071991179	4.47789594746422	12.903205492170356	14	-0.49979407785720087	1.4544359701384983	0.08486241641787153
Si	12.388387481619644	0.18282818945080073	13.396320567031067	14	-0.8467022629519045	-0.5859376760561021	0.032729399393889004
Si	7.1194493057353165	11.683381396470931	11.625363784725298	14	0.40674757609476603	-0.9512125520052838	1.2612292324138428
Si	8.976982380956327	2.671483188536627	7.150196285462054	14	-0.686064487649161	-0.06352712736075075	0.42382305785746555
Si	6.098704978771086	3.8499512115045027	8.441250884195089	14	-0.4219628631583383	-0.3270268560961266	0.5268878714998573
Si	3.586593635151384	4.8455855050252294	11.72249377068188	14	1.073644473582223	0.3113230590217262	-0.7233146615274663
Si	2.849275521307859	7.279472100223032	8.581301991851292	14	1.2108039435435023	-0.32870141699113903	-0.2966551602808134
Si	10.40891908679764	7.480809417469695	5.392881744161166	14	-0.7741359006171092	0.028264932115983875	-0.5208118354072834
Si	0.39300180087118325	7.710899315758117	8.611494971943316	14	-0.37569530870120965	1.550695067998458	-0.5471641222756091
Si	12.86986856415132	0.2591167091493675	5.884320970126861	14	0.5789445266958314	-2.1622607505542	-0.49449580112397173
Si	12.595223245240863	10.031492985656499	9.494736589571033	14	1.0321200942197033	-0.7152794431809395	0.45219931883381176
Si	1.233823666468698	2.3218540190673593	13.090429668722628	14	0.16268308958492148	-0.7293917260621682	0.8559803536101909
Si	9.575412786376551	6.464289337720174	8.668833934136421	14	-0.37362634025008645	-0.43684287808816336	0.1692620338781164
Si	4.384948658749743	7.551582870804663	10.817590767336766	14	-0.33491037922876465	-0.1149366353476436	0.06876704000321254
Si	5.257733533272198	12.20606620183461	10.575672976847157	14	-1.660049062364464	0.6125663567463439	-1.2592695359388257
Si	4.001913311307101	9.995192159591731	13.175759462459759	14	-0.6564846922724533	-0.766770198095949	0.5976115226517026
Si	10.183468935449964	3.573408443845143	9.705104100863565	14	-1.2561068192845117	1.3976034868103488	0.32758658572432287
Si	5.626115590376602	11.542319239481369	7.926515973589585	14	0.06471497801865916	-0.6675311891699375	0.604410810670834
Si	13.8443816215985	3.9474274472327826	8.866916503529126	14	0.653008043658549	-1.1672890144421244	-0.7264820061713566
Si	11.1118338233253	7.910546934118895	7.662064247957901	14	0.4851688594646026	0.8617177751321013	0.1747433733101401
Si	13.668943787274811	10.822701413967021	7.081098681022101	14	0.14350032990182868	-1.1112108934149063	-0.019011524068770942
Si	9.270671437310147	11.388210391094246	4.024128696659212	14	0.6700462443941064	-0.27092508089996353	0.06010884283761388
Si	10.28698376719665	8.335021454238294	2.695332872811151	14	1.213329540299484	-0.3374562877167753	0.5490073476796232
Si	7.697146274826292	13.804105848154647	11.64435212220519	14	1.2233617361481697	0.871522685270486	-0.4207192195149827
Si	13.494364652384931	11.540186340887713	4.687820259048981	14	-0.08816165876468554	-0.18198694832859327	0.3288189165042698
Si	2.4519469832895444	4.427675880577215	13.732764545194094	14	-0.34807829512590305	0.4395116854104771	1.4543454672312288
Si	10.914125203686028	11.22462814895348	1.5724310132052906	14	-0.5819552910257247	-0.47242851838220484	0.07230025293416002
Si	11.77980503289325	8.415531451153399	0.4089874603309134	14	2.8039883267311314	0.08166421851013933	0.651114938811324
Si	4.811043627800687	12.299096590494292	13.009047122382846	14	0.015017054843388885	0.019604678066129106	-0.06479313962039167
Si	12.284263250274773	3.806088290425863	10.636502136738972	14	0.46619641619669794	0.6887842028568135	1.0928367463550004
Si	0.1804903109922992	7.963813998996839	10.990037003632988	14	0.48995368646539816	0.6466715545970441	0.8871076972790958
Si	12.568146513094119	5.795791828499245	8.22153462906672	14	-0.3448114487061229	-0.0813407734608647	-1.4504831528193025
Si	10.453585307346618	13.605677028990243	3.645594596248638	14	0.591316685496384	0.3662819779030835	0.8210300334407581
Si	6.710874575132266	3.622977561161357	1.3515555138412818	14	0.8000364442806849	0.9630905443633039	-0.2097908812606746
Si	10.762869453417693	2.196733201566751	2.804013751151562	14	0.5466121059633733	0.06412593778981324	0.48145078406113645
Si	12.745509496148445	2.308890427615005	6.6396440720986565	14	0.08796496920769421	2.404029497123685	0.49149043611525073
Si	4.07987490990251	2.3886525250232413	0.8030972604715286	14	-0.14549293652494344	0.08697740765422533	0.32708290619210584
Si	10.71619498419287	3.0061543678685627	5.27519837175662	14	0.611129108872381	-0.43048504885250116	-0.5723426995652872
Si	12.669846996037109	12.445892643703164	2.566985007438322	14	-0.22333854941359887	0.3261917610881425	0.3130066187853592
Si	6.818322804285434	1.9484998152413793	4.379838012119489	14	2.506915618946326	0.5451488899256771	0.7162693187291964
Si	11.303102197211	4.061828371801637	0.5408781533677515	14	-0.79769288178137	1.2883813901472663	1.3633766756780055
Si	8.344010098311562	6.116986966716714	6.185696771412365	14	3.5408120898317197	-1.425402534642322	-0.4082370174067278
Si	3.6033382741106745	0.8287086635844493	7.049229852035063	14	0.8532102447382632	0.059383276916268095	0.5684191928467413
Si	11.329971179494727	12.149128889376673	5.868684330437002	14	-0.11801913351596914	0.19367724999824257	-0.7188841328397871
Si	6.982805295832614	12.201080205122164	4.115386286487806	14	-0.031435362086258474	1.637338489071596	-0.49068979391855655
Si	7.2809678992367655	13.043159649890486	1.8171465018502158	14	0.9394775131030638	1.0127565858326042	0.500560267242605
Si	6.6045204952576615	11.201263214359331	0.6877642315172648	14	0.21774485267908467	-0.8249478837275995	-1.1259870356897976
Si	4.663181125294987	5.127834468922163	7.055448497934749	14	0.07846704904453519	0.4562534377026213	0.8581274836630466
Si	7.922901125973062	4.659995627395369	11.080477444000376	14	0.5005111591309902	-0.6213101717191034	-0.037628640581431165
Si	2.5380385265244105	11.32130108521142	3.410532551238639	14	0.15490935264945377	0.11436662129816677	0.170644260098228
Si	5.099441987642968	4.444808319280807	3.2672405457193454	14	3.9951199721385846	-0.5498807521568776	-0.9489348098021646
Si	2.0967639674822487	1.4034749746077784	3.7171990490356808	14	0.15319776783783118	-0.17503982175355318	0.47204928034748295
Si	3.0430091935680443	4.348509332776298	2.997567373530465	14	-2.3775116310727413	-0.9496794019028795	0.2658954846726899
Si	6.614824888463379	1.6339388226496345	6.964370957987439	14	2.1027160082238265	-1.3119897934179303	1.0976015187342987
Si	1.3630551612588993	1.4419363992479368	6.457669042085318	14	-0.399559279840696	0.4703531221677813	-0.34367142060716926
Si	13.023548062821538	0.824456716388004	3.5556250555707596	14	-0.46919972432116286	0.2433386634779667	0.04924206620200802
Si	2.3415210060997773	0.48227191701023264	1.3421901500164077	14	-0.17126543914357578	-0.01918841611479713	-0.15794788491680475
Si	0.5677526756478247	4.926469451693766	5.053335368043729	14	-0.27661056609440693	-0.03962510386252614	-0.4972389133900377
Si	4.32528289809083	9.943088493946693	2.323294418117621	14	-0.30924946258102676	0.38776844795302895	-0.4063734802706845
Si	11.29961199951229	10.900579912617223	7.845438127048898	14	-0.6515376285259563	0.03777056559510334	-0.2534456784914688
Si	10.195047527815529	13.570913551911813	1.368682412548527	14	-0.7657260722254369	0.9144079506789599	-1.6877342102307547
Si	10.049955023483408	0.7436752596518904	10.96379127093832	14	-0.7411447627016292	2.9049337782581253	-0.8193408172454207
Si	3.286755182852217	3.781338356744926	9.480235649132343	14	1.0431215967740852	-0.08792820240161608	-0.26850104280412795
Si	7.451572086747558	2.1360286915927453	11.77545613576073	14	-1.0872844444161405	1.0944197759006156	0.37107580377249955
Si	9.5643466436731	9.761196563878562	6.699794582437946	14	0.563570602434006	-0.3870102289941173	-0.6588267121085761
Si	8.495792148232878	3.6905655165967093	5.097544538894066	14	-1.210362227649501	1.2421151212427977	-0.612307703551137
Si	7.997954226486213	13.298179531741127	7.534436582110203	14	-0.2805836951456318	0.6211633616053229	0.08824341991386625
Si	7.281701948752763	9.71766604258075	7.292671141520141	14	-0.3380111322448633	-0.5985021535346018	0.5387548081050008
Si	13.84636217029261	6.57920271195114	3.148698473880989	14	-0.7690456263042801	-1.684214881268536	-0.511288975522519
Si	7.675817288889727	9.574027787289761	10.96970521703891	14	0.9828489745275777	-1.0156444513281946	-0.012311480714997061
Si	10.768270949856174	1.6615834044219628	8.611716571797201	14	0.5776011241660541	-1.5021042627740435	0.29201534362007425
Si	0.508366684804443	1.6879260870527086	10.822022764414495	14	-0.2781776547870372	-0.1378870927668814	-1.2031039973307232
Si	13.651146549009558	10.338048683526596	13.418328202520161	14	0.028338979949204143	-0.061599312591703724	-0.18651954989748232
Si	4.949169586726254	11.540740340522428	5.487781881588017	14	-0.9540873048637412	-0.2649292632933782	0.34747948469684053
Si	1.3149430629819883	3.9635903865756217	10.937670188161459	14	-0.1842585198789441	0.6995975005017603	-0.48901394747088406
Si	0.15164632001081066	7.352932451786374	13.351405046646468	14	0.2658826291460891	-0.3426753744061439	0.4412176137903953
Si	10.260280984803337	0.5143263358749004	6.497086116095361	14	-0.6925223328817768	-0.09658614245668273	0.07495877583519314
Si	0.1454664540855537	13.435100541461187	11.776647234975368	14	0.3282031367800944	-0.9232885484547515	0.22679745740079407
Si	6.089674784725215	8.529780025822705	12.42067181033272	14	0.01717086977007693	0.08679537339755886	-0.08523239847344084
Si	1.8081994077495522	5.977863808448658	6.74282650406451	14	0.7168596445107025	-0.2881103488598333	-0.25643407420507697
Si	9.73330268227061	7.949119158685997	13.739537190728496	14	-2.561266471419468	-0.34874858228286565	-0.4449542011521665
Si	2.199489349749463	11.87412347070365	11.916338242869008	14	0.769792789510315	0.5317850558031434	-1.6979124448616247
Si	6.271594414775081	8.166647115257234	1.309411376629349	14	0.4028592935191061	-0.7198819788145365	-2.311996525078452
Si	11.711579977877975	4.905445165556293	3.076069121769722	14	0.30403166144431826	-0.004966604146930044	-0.300155205953131
Si	9.489321243141685	5.785778285101753	12.5795450555784	14	0.08656808768725775	0.39015160547427424	0.29238404012298347
Si	10.641488133451418	12.748611894102856	11.896989805626552	14	1.0704071948736245	-1.797384910150706	1.6354291862608543
Si	5.199757471499168	0.26284928168826655	4.538088007776114	14	-0.3408084948331843	-2.5427578555513186	1.39470559400401
Si	3.098630756893531	12.441917696324078	9.052063181451214	14	0.8017876241142377	1.332963327956506	0.007282655819319433
Si	12.237159431333044	6.627663829997923	10.27748267346127	14	-1.4481272490144508	-0.12005467759793038	1.4569934486004494
Si	6.715292722219125	6.140919750936445	13.146439031792415	14	0.2845146580696062	0.282132528990489	-0.047345618917866795
Si	1.0548388494837393	4.595925569640464	2.0587318925589955	14	-1.5855176042334795	0.07092548291947685	-0.4305842935178588
Si	2.8639565116278334	13.155940125527794	5.373034707247465	14	0.7917204612331981	-0.29675389072510705	-1.5437803373504517
Si	3.8274449763441645	5.4656495961811125	4.951385585265117	14	-1.0141845777274145	0.9215437963844989	0.16986830051260732
Si	5.94190923215559	8.625220312893402	3.4346038353670494	14	-0.6066471580782989	-0.6812151259048296	2.0888526083375885
Si	2.2890572406921725	3.561178901908787	7.263018311071967	14	-0.3072416864365231	0.31245665935737943	0.30350227085889975
Si	9.8278842699075	10.184258384929436	12.59723149391671	14	-1.5542452502245185	-0.03166830422826389	0.6678872872567779
Si	0.9598943920861112	8.418855448961693	4.051094628879014	14	0.7032111890292284	1.0201176603641882	0.5866658130827681
Si	12.504436555101778	2.5724419038402746	13.242710318315188	14	-0.08168761556855268	-1.282814947129146	-0.9745265637167906
Si	5.929167240557121	5.683925452259216	10.148165308727688	14	0.3893273091086347	0.5497146587531959	-0.08679743028181497
Si	8.347541845982876	9.375723618043168	1.9475026158988904	14	-0.5562460375979681	0.5621279552388708	-0.5339337285191911
Si	13.241879318863113	0.9830363418272854	8.625483462719894	14	0.1812215302747852	0.27248162806078124	0.30853058153351337
Si	0.8945999951384835	8.524475479320298	1.620019581827395	14	0.5888108862513678	0.0887460710039552	-1.059130841160519
Si	2.050144898220897	6.437281855527768	10.629300141487665	14	-0.1505428444842463	-0.18831700962679784	0.3957540439668769
Si	0.9054902429579134	11.612787993017244	9.587531528385963	14	-0.8776321457322219	0.07194286929465944	0.2154552833914928
Si	4.73880207543372	1.9878753392788189	3.2103309332431444	14	-3.046230928011119	1.6956341884374415	-0.06577041675257995
Si	2.2915640890392623	9.387025210591375	11.267355370780951	14	0.1813765679255901	0.1514021078822398	-0.27374352655190987
Si	4.963601277210605	2.862377612668893	6.1831206731109365	14	-1.7726056255172464	0.35928754299015264	-0.7865754223770496
Si	4.292153719934813	7.388582328280347	13.571467551546531	14	-0.2861359970844916	-0.42717963585291874	0.3459373357258157
Si	1.540659134154328	12.10007222172257	0.16981889302858225	14	-0.5829012006730073	0.5008400035014372	1.8084830862651249
Si	7.618035126988847	7.835521533587481	9.183291844924566	14	-0.40400317827603993	-0.05206385429087054	-0.12215424220236329
Si	4.600523766608607	1.6973717808246165	12.487414916325129	14	0.4238436267000267	-0.15859631767854612	-0.9169073221606759
Si	9.919211109690432	7.9699495449513185	10.82192581447842	14	0.11457410949750273	-0.9944127778154757	0.18081940940271402
Si	12.727102858285006	9.223207518605854	2.7255951028575125	14	-1.1264668039425372	0.0625920163558129	-0.037344790554086814
Si	6.435827606486639	1.4702734805636601	1.8647073704905843	14	1.0170295057641583	-1.694778267476364	-0.6063843911145799
Si	6.925300133749093	10.081297552817466	4.937687944296765	14	-0.1272103208144345	-0.8739796335144195	0.4403768623507069
Si	6.632940676518592	6.107998322643446	3.7635965184431455	14	0.4477250813556901	1.1172427064959738	0.7560815990590295
Si	4.7797841984118365	12.351394156011484	2.563203959931385	14	-0.019586166107824036	0.027873866996789357	0.049647015289931345
Si	2.749070837378603	10.09010614700945	8.94516895193276	14	1.2757156111191528	-0.6075766126515325	0.20036495204647972
Si	6.348115614320228	6.79929291683294	6.269683116035311	14	-2.697907606548206	1.2801055163427737	-0.2205555850150706
Si	3.2330449182665006	7.76351543106527	4.548156951137077	14	0.25674646350147495	0.26401086447302136	0.44026913303779264
Si	2.3900790740826348	8.879686195109329	6.861991825491922	14	0.2602495945001767	0.8297404240443557	-0.8216501840439776
Si	1.0330071088786685	12.790397316551308	6.723062567096018	14	-0.8024242297915064	0.4112084438252229	0.6289404409777068
Si	2.577594100443133	0.6522971749027466	11.379567996792677	14	0.6778176673347859	-0.4502193106267657	0.09396104392481155
Si	12.678170840548715	6.4851751239489674	5.84152449834505	14	-0.23076698690457068	0.22988406933763184	0.1267904593156543
Si	4.993821957284363	4.983586814032985	0.7008829428673398	14	-1.0869653702459101	0.5756401421383771	-0.6518081088056359
Si	13.396528316894084	3.1492524735157055	3.7754936605986718	14	0.2553567810759349	0.8464605790518107	-0.3837968615649962
H	8.034005752715355	12.010268880935106	0.10940523286280246	1	-0.457395008464767	-0.38710535989096273	0.06380095007734651
H	11.698020836818301	9.8144220787839	13.41820355260235	1	0.40952488406159	0.2510746051652282	0.22834063481394695
H	10.83991695261582	2.126555297839102	12.073535639219672	1	-0.3633722580122719	-0.8397214548971705	-0.6421003864483528
H	0.22320645282707635	11.512334009252365	2.171221518388079	1	0.07079229966389318	-0.4746838919690387	-0.07420878441330593
H	1.7921888183062598	6.455619243436868	13.16923611676098	1	-0.5099854251252038	0.3281676555266763	0.2591874708924235
H	9.114845190055405	4.154387860771812	7.628505720084981	1	-0.00047205493677918733	-0.010842608245596465	0.25359094594205717
H	10.996449549404826	10.231597653715916	11.684960295429871	1	0.9263144823060336	-0.45498845388510833	-0.9268006783220737
H	3.6688764308975776	10.01605024583879	6.336218472164703	1	-0.3137015885533952	-0.17225017248119248	-0.04695198269335213
H	4.705659047286836	9.891511127954631	8.76315237194682	1	-0.49915490107461213	0.7601074357693173	-0.23029467485725946
H	0.6116543767008941	6.177816126608531	8.330908006950528	1	-0.13380392040795425	-1.0036111642088377	-0.25280727304047607
H	3.1713986089134774	3.273126791838203	12.665858198667152	1	0.5840543414090937	-0.6166140478518529	-0.3055838377260916
H	10.37040226219401	1.22415360284473	0.49224391043512067	1	-0.2481389171106832	-1.2021244062037464	0.7907321283481331
H	2.6616219950386824	9.344768888453412	0.606847044870646	1	-0.03559335361000195	0.13147372765630405	-0.0709506797516143
H	7.442486492738214	12.25373787040192	6.512625805849145	1	0.0891384216758098	0.19390299304535155	-0.4370920181936857
H	0.8445115031647231	12.69760237773638	1.7203766156561984	1	-0.0959708769535713	0.4390218898469888	-0.6945437358844773
H	0.8270161947003919	10.912463204781881	2.393236872000516	1	0.4882109912794018	-0.5274092916587834	0.2039513868575543
H	8.456984473821022	1.5180420990670471	4.933062047346886	1	-0.8385919683300295	-0.2054081751319502	-0.517645262094989
