145
config_type=liquid dft_energy=-13885.962780603937 dft_virial="-45.690599682817954 -2.2661132403682602 -2.458818241432945 -2.2661132403682602 -42.47315795618099 0.8683921566965561 -2.458818241432945 0.8683921566965561 -32.415908343653186" pbc="T T T" Lattice="13.849990867899999 0.0 0.0 0.0 13.849990867899999 0.0 0.0 0.0 13.849990867899999" Properties=species:S:1:pos:R:3:Z:I:1:dft_force:R:3
Si	8.512938436927339	0.9284881527940613	2.666095542089014	14	-0.6415385999359005	-0.013216509787689186	-0.6787072697755571
Si	3.589959182932284	8.148129677466851	3.8082904389738594	14	0.8591489838067414	-1.2417068297179583	-0.3516986685272036
Si	11.40664472893942	5.801705774599838	9.95761713436712	14	1.5171565417603183	0.3438670817220325	-0.6524601411148254
Si	7.460574580811692	13.385960773861878	0.1915703036866192	14	0.10176563412412104	-0.4113992198399779	-0.052868610256076885
Si	0.21181345033914184	6.720597268721532	9.952963537435505	14	-1.1494216322408193	-0.5102098826196527	0.2640201204521738
Si	10.307135503909445	2.940325361273434	10.61074115372468	14	0.25528247613218263	-1.0886381313671984	-0.2994805479171242
Si	0.22241700334760608	13.551495864715019	0.4415100088869161	14	2.160175327029028	1.4327047308620746	1.112328810008107
Si	10.347826777079334	13.026733560721155	4.871803537738164	14	0.7635272629556462	-0.33442006944421243	0.6440094321485629
Si	7.512276596721563	3.377555722982169	8.939144205905226	14	-0.4984995263285063	1.0304190509398934	0.24247734319571712
Si	9.95774178428493	11.433790711040505	6.857767578277213	14	0.26766697623827185	-0.07275096769678199	-0.4310175247643039
Si	1.128331056026077	5.085356546930314	11.67086100472635	14	0.03334132246008425	0.3809884432237985	-0.37913673317222785
Si	1.688133836915727	5.020649389595485	9.112601491534805	14	1.0944074345950787	-0.8999472830268511	0.3555833515554153
Si	10.445469212698029	2.2782542478152106	3.6683778312263335	14	0.04288886495592212	-0.5794273802749553	0.39168475557667853
Si	8.234068870802172	0.2714307360300174	4.899281919620078	14	-0.27056229793929065	0.595501416515457	0.8118241908419678
Si	0.337359462559395	6.075492394076485	7.551388970932513	14	-0.43869535947133004	0.2257875272310399	-0.6290342863218924
Si	8.252600158583423	8.133974986799858	10.109136034461946	14	-0.4198468434798564	0.4555792938876785	-0.5254488238521705
Si	1.6197979819735087	6.105810024086318	0.8757349225773169	14	-0.5346299838398874	0.21685267913299328	0.35773202427146306
Si	12.312683431535703	10.03872268088954	5.213081162714088	14	0.924321875682919	-0.35226456880816814	-0.5757573845409759
Si	10.36822781362775	7.735552299502979	11.358405210746525	14	0.5645661344139673	1.2242641941155419	0.2642839158580211
Si	7.775855772928568	8.703611261205717	5.602986105627209	14	-0.09167147463721968	-0.7103511485032796	0.3642315214102654
Si	4.879781132478074	3.2763399897195558	1.7035488767516997	14	-0.10367622248752308	0.7713133411966507	-1.0577380734085946
Si	1.7355146556748131	0.18915348028017068	3.762820918954543	14	-0.22278833287508717	-0.11632966021009983	0.003202311676244432
Si	8.11734114776751	1.5647027183010025	7.753681937549061	14	0.8367196894358977	-1.28132370604346	0.18401786442097823
Si	5.597986258923897	7.7423664950099855	2.189642006242386	14	-0.6880010441762964	0.1165289208724113	0.40065894158612336
Si	11.436796159058838	9.468754006702852	7.36733644228899	14	0.033639570677221425	0.7482721237596116	0.015271851380615561
Si	10.710613437873105	0.43727883667677275	1.7953189162424052	14	0.816377875474482	-0.004680697235329578	-0.09550627822222055
Si	5.719630728716663	6.878251714770837	13.783912561469249	14	-1.6870240709413298	0.0953648674296124	-0.051892104455484644
Si	1.8579070249744452	11.35869606055475	3.457068520554783	14	-0.5584103940564689	0.47433139342964636	0.11477928370205054
Si	8.292972881963351	7.338805461101115	12.626219524803224	14	0.4776362922081648	0.3581806821498289	-0.9179553046891683
Si	10.32925393932548	7.680138486040511	8.6345413567475	14	-0.1130473871583988	-0.12941967161603773	-0.6096720634874532
Si	12.769082180605611	13.662531241502974	12.572827810007468	14	-2.133932569247341	0.19249171333512227	-1.5006150785726138
Si	4.158681357940861	7.106845814045526	8.915599221429796	14	0.4569895451557796	0.4182805261188222	0.43243497512730145
Si	6.8964783027529935	9.29308072253441	13.264108554206095	14	-1.6692721313688994	0.4795911035830734	-0.7758302590230868
Si	5.067337708811176	0.010153428305257488	0.604155991645013	14	-0.9728957116122204	-2.1045502347592207	-1.3329219331608517
Si	4.869435189299753	11.458000495077593	8.558407956946654	14	-1.1583490241334375	-0.48612813885954986	0.556971603519314
Si	12.164793229048266	7.214363293153035	1.383843997551617	14	1.1672949279843605	-0.2266851000983036	-0.19885134234450855
Si	5.463959897295229	0.28277387855082753	9.000319615568738	14	2.6827100601113427	-0.9849377404896661	1.0503723708874346
Si	4.000223612421217	3.9936033167863614	6.154354242078307	14	-0.7586406201841728	-1.2852736951468036	-0.42913367589623136
Si	3.171024659160044	7.223892086870149	11.752949900600393	14	0.3148868681059835	-0.46391044645655427	0.1576074705724172
Si	13.397248516419216	10.85099694531014	10.276914823835686	14	-3.0016477046492196	-0.5873448419978192	-0.34326184352966965
Si	5.6837869523505375	7.263849310524041	5.64927277510773	14	-0.27482133390211594	1.4493408107255605	0.32274750840127214
Si	9.277693382680171	1.1733684563303144	13.635980809009208	14	-0.18483161925480512	0.30308215224958757	0.36074176015922843
Si	12.943135015842511	3.878717642537131	8.8329286259393	14	-0.536447241080168	0.6229567075661263	0.14403254870309934
Si	0.559064576376391	6.81649460549087	5.175589237434683	14	0.04441584440555806	-0.22949917487120566	0.24786406595195937
Si	8.904630028662417	3.8043708915582433	0.46428077887283054	14	0.9574420830854704	-1.1092211150076439	0.015005999090512248
Si	7.169877122485339	2.9942572257130364	2.131084244852905	14	1.3477610675160863	-0.21920858293784498	-0.02078147297116088
Si	5.966589915882187	3.989572969443802	11.3644992067284	14	-0.7439277271001574	0.38791294407202126	0.3505352433698366
Si	13.34134995327637	13.408744008839573	8.528339626772443	14	0.7295642472291501	-1.4003882509826016	0.26852058320456107
Si	0.5479042537350372	12.02184747330067	11.960007264075497	14	0.017375015532496686	2.1501634429123717	-0.1806854548155343
Si	11.806036915597053	1.0665448617652884	5.311097548086217	14	0.07667575996798802	-0.5969790307429461	-1.737503353023393
Si	2.6054048821058764	3.095431409003046	3.7350655372552715	14	-0.9785770830381516	-0.08669715717432919	-0.5824741400793307
Si	2.814678244119845	0.3107633250957666	13.314896470718683	14	-0.8650324441108362	0.32405440123550344	1.3837272313975097
Si	13.769563970930104	10.813712769893753	7.524312238785768	14	-0.37599278558675076	-0.08709953515693236	0.2560370955436461
Si	4.175689146726642	4.861748444368068	8.131274238580618	14	-0.2756695415472328	0.5891826680806611	2.402854759102909
Si	8.541358618188267	9.52760261790056	3.5384233669128276	14	0.322743908853824	-0.5069250384626316	-0.4526209801063161
Si	8.162395168060788	11.45827749489495	5.3326896838492726	14	2.6341832754094	0.716053860103368	-0.41498025532988014
Si	11.329901929540387	9.979860219700967	11.676761100836073	14	-1.1982438369440471	0.24414444788530112	-0.5964290713149665
Si	9.771528657066014	13.705784762983425	7.910159134374595	14	0.41217389387293857	0.3224240633519975	0.13851264269127345
Si	9.794145692153295	6.411313122650457	1.1386811542016588	14	1.094809812577682	-1.1220409032444343	-0.6862789178328612
Si	9.732305482928123	7.103563366209835	6.0063947896365315	14	-1.0946108090259026	0.04830284142855793	1.5512350001156892
Si	12.55843766949572	9.376000617860527	0.0044181470868601	14	0.4266008800453534	-0.25252110901834357	-0.006530864623708135
Si	12.243558127114014	6.796536768650228	12.430920803574965	14	0.8754896436689426	-0.20008444445605156	0.8274817080206055
Si	6.639962621888618	12.688087434010132	7.553092519809264	14	1.4169024604539124	0.3189700404649106	0.15335074860438003
Si	11.530408247334975	4.335434941397001	3.788568051977969	14	-0.5896650074387209	1.1197109676033161	1.6840148492746285
Si	6.163052036343349	6.3898456368052114	10.411259735254315	14	0.13391473504725263	-0.2882900691217116	-0.012304024509568632
Si	7.5920663941115345	2.308336427980289	12.099809071896079	14	0.2661163426196906	0.16189350314110404	-0.5857199034354856
Si	0.6596141250782581	8.929296862398148	10.21291401603512	14	0.2779290289025789	-0.833375452745981	0.2681107490165294
Si	11.302368147695002	7.530683234585002	4.454641812797016	14	1.2241901462823213	-0.8746692039612832	-0.10526593690697064
Si	4.557533394954645	1.6522069606043945	6.121155813967952	14	-0.01669444395425349	-0.2584215386175514	-0.004726462910028214
Si	2.5951004889001585	7.276189652387339	6.971199003485314	14	-0.41972960107725765	0.34135356916105575	-0.12700720349414282
Si	3.5713032452332216	1.252968508845396	8.792140402833335	14	-2.259340545232351	0.6988873612123354	-0.05908220048327876
Si	2.009453625051007	12.78808436807637	7.511168597452131	14	0.19014686528314723	1.1638352486655694	-0.12750882614210368
Si	1.7096428727335757	3.8329849726913245	5.868615080482663	14	-1.1767188003142994	-0.5019337517046282	-0.43201099986000907
Si	7.136360144585021	10.78228714061449	9.093017604447594	14	0.9967709956151156	-0.12829429881740892	0.6175057071768804
Si	11.6852926952107	12.09300872637994	2.5814305479135413	14	-1.342462276561793	0.32371681510696804	0.19667515880153524
Si	13.803371798638647	4.155329660150829	3.5033828900170407	14	1.781036536972544	-0.37728168068374096	-0.30558718016300784
Si	9.237126759428094	13.315131920563436	10.321719544293343	14	0.16496905932506514	0.13350207264336886	0.73313731229256
Si	7.060102094866363	0.10186252783614412	11.076585596566495	14	-0.3651015834506035	0.1660111283113212	-0.5382146188772376
Si	11.4120046754053	4.00126236173631	1.5661708173329998	14	-0.5489520689152401	0.159653299075659	-1.2949564777824811
Si	10.276277724255763	11.485049527242603	9.243567005181667	14	-0.20707065183195794	-0.5857458715992192	0.839607040710424
Si	5.131823266292119	3.0027334201241915	9.327664149731556	14	0.0626580937625407	0.6225466162675627	0.22393915961638544
Si	4.090303953026039	11.84370889075774	13.477010613827451	14	0.03718049692412935	0.005666201904542337	0.8764926318543323
Si	8.03166510425868	7.158963329681435	2.4455759874903102	14	-1.693331249402185	-0.9637747154889951	1.9736166963306796
Si	5.354683469347498	9.956495285106818	1.4126021185897246	14	0.26296519593931705	0.4299044932712117	-0.4300605593641447
Si	11.92582548661352	5.126186320008883	6.743948353324811	14	-0.38695263623494597	-0.062126646292866086	0.18512138282438578
Si	13.833190828977235	11.858653030904206	1.8794576107648977	14	1.0757494375078283	-1.3592891324400342	0.34263526516314957
Si	4.116895935492407	4.622143602353399	13.208029941181966	14	0.582305989791393	0.39094736257086005	-0.009403046376845555
Si	0.5636253783691905	2.0387740557183514	1.9285835283733392	14	0.44897361009915393	0.3409087679406701	0.17719209401704913
Si	5.862257934674297	8.927634863494001	10.877672027721715	14	0.19694255375483063	0.12935539398303403	-0.14328949926557655
Si	7.6626874975469565	5.698551042615718	0.26337419634215997	14	-0.4589510414045206	-0.5316490443317076	0.38997548475984406
Si	4.119084234049534	11.532638095864707	11.145835550905995	14	0.03801970570062568	0.15096013487770632	-1.004022283949529
Si	8.192366548298924	3.8958916312133263	4.347207433634716	14	0.2873953244703001	1.080223160764886	-0.8910080640497602
Si	7.331478815931996	2.490048308167137	5.838255900500226	14	-1.322474503802962	-1.3207449212540983	0.27717955170175573
Si	8.557147607777674	8.639111853733906	0.8366045433782391	14	1.1376305432426201	1.5229243023250065	-0.33653891733854646
Si	6.152678393183292	13.13096859199297	4.672142069386518	14	0.9966586383126249	-0.1610789769756811	-0.8146968868161694
Si	10.646141730383032	2.917888376067436	8.098311260315016	14	-0.3255636400584304	0.719993564785431	0.14829749820816096
Si	4.652225782518478	1.9751748976529544	3.6232407109878473	14	-0.4658038084143113	0.10194766838078752	1.245830625540944
Si	10.444028813647767	8.459366672250301	2.3674620389953542	14	-0.5498473277877156	0.862703022690782	0.19710453338999995
Si	2.7996648540190416	2.9088997319941687	0.5346982874424945	14	-0.4546153865031549	-0.6462486077718796	-0.21068254058570196
Si	8.732114542411855	4.846485754431643	6.787312674732206	14	0.5650214771661656	-0.8831615648337325	-0.6783447439254163
Si	13.133987890002173	12.287019398457485	4.55941699371268	14	-0.013033189978362628	0.657416717951007	0.024240638068888102
Si	7.073411936090415	11.629477232013064	11.96520101065096	14	-0.24316305698460064	-0.02705008485221391	-0.21025573710255738
Si	0.7365189693704465	7.599753139043219	12.6851235359644	14	0.1468864756084637	-0.1785329254415063	-0.41042708491843
Si	12.233226033926561	3.5891420334710773	12.08878447916523	14	0.3810581201779745	-0.1300333944559571	0.035060106366603234
Si	6.072320746167736	1.8513836792756644	13.809147244830562	14	0.1450357939990211	1.7962240560986587	0.2013198605623827
Si	10.154854854316884	12.978466342546524	12.845617230141627	14	0.7138812761078429	-0.4067061812991116	-0.8234661557315983
Si	12.361296899482031	1.9221294326288976	0.6068553548651667	14	-0.5539927208953904	-0.11449003435353389	-0.2513237452707506
Si	1.3613363773921927	12.013371278889517	9.642211292332432	14	1.8215977802821364	1.6097014208747922	-0.2914119052014354
Si	2.7909393597722647	9.4516908179536	10.905330459484912	14	0.9576629410324713	0.5331395140857974	0.460225024090654
Si	2.0097167748774973	1.1673395553055175	6.008666188138867	14	0.46809569169669135	-0.13920144180654112	-0.0052036600574476965
Si	0.9640798593263906	10.513112568096853	13.522120034084201	14	0.6942434307830839	-1.685657785574203	1.829236791298828
Si	8.679069077387798	11.140447904458382	0.3398870858927867	14	-0.001326433234664394	0.9035501729119745	-0.16406043070492482
Si	10.412589334377634	5.110729730200307	12.57116581110332	14	-0.6782827802872007	-0.06767869112119386	0.3547677969478643
Si	2.9807396346259663	10.11924652779551	1.648702912914816	14	-0.16020274428257464	0.251590883113514	-0.3384559334652489
Si	5.9507316763384415	8.923341366324951	8.119889546087203	14	-0.34931859633234247	-0.2849466037633911	0.17831798103674196
Si	9.202861882020908	11.76141224502068	3.0262507046178855	14	0.1772990519983673	0.045576698457604925	-0.600274159321248
Si	0.31574793680912383	8.741934185937197	3.758236571977269	14	-0.5065362873382252	0.9108384851629983	2.330367329701442
Si	5.675421557866326	0.23584179949586154	2.7039614171218527	14	0.7474835657579222	-0.4961955588511217	-0.09024836784251772
Si	11.906186199562837	1.0275806824566254	7.547829523279462	14	-0.9009178752852071	0.32067314062897667	0.3027520223264806
Si	0.864094005252847	8.54610916505596	1.5949649483473638	14	0.1913966795792712	-0.6312446655656235	-1.7311079856500569
Si	2.21929483669056	9.35065513457227	5.268093326441386	14	-0.4619294098073802	0.41427243003524344	0.023799179285418682
Si	2.026960013508033	9.32968624839827	8.24193566561514	14	-0.12310889360773426	0.26007244534361845	-0.3835623767597987
Si	4.716891389880702	12.620444078611309	6.231595641148585	14	-0.8410041793413925	1.114776502272888	1.4741676608074423
Si	9.066134772173001	5.840928948737731	10.425732975711272	14	-0.8670013965650056	-0.1923325619158051	0.3168596772181331
Si	13.170718065783843	5.172874639224575	0.37352178871548186	14	0.42433136537925875	0.41874563907123696	-0.3093415081514881
Si	2.13151359456981	5.902422908191206	3.5920920815259403	14	0.33162193552429525	0.07693004228415068	-1.1086256470154976
Si	2.4465177868693275	0.1317951280998496	11.043941168090855	14	0.1895717090230301	-1.1590100553112475	-1.3392501946853324
Si	6.61303823964142	5.879792023113058	4.074791963253991	14	0.6201958546733513	-0.6235177227469825	-0.5465159466243997
H	11.695666338370758	8.696852465662182	3.4257398412115934	1	0.5023754675986295	0.8882994045949844	0.08797808184482697
H	4.22431646466384	7.682299084615904	13.098836613179442	1	-0.18239652540609286	-0.3070498819796401	-0.46150260632423556
H	0.7851130473295604	3.108034900692835	0.4958989230251594	1	0.3423406164934606	-0.26246640150720835	0.4579606516351995
H	2.37269733554342	11.595697104286256	6.653549462930028	1	-0.39773816594243516	-0.38796642306268037	-0.22034141194190224
H	4.98902986044407	4.431055278348983	5.232609649837826	1	0.9790985031970778	0.7732367850866534	-1.1217619383171982
H	7.435686147222077	5.385582798973783	9.521757921754306	1	-0.1324348068249754	-0.04878466656555368	0.06614039880814926
H	2.3099430269209655	9.741044827165766	12.644238362922362	1	-0.34896352668763003	0.21192746978171767	-0.06377883857159325
H	8.89227583680825	5.801858124499384	7.9299230713430875	1	-0.09230988008821246	0.5103276392433155	0.9055209251398681
H	12.669389946338466	6.727425314219405	3.014921412087943	1	-0.5192905123893518	0.38146538326068596	-0.4345309401842862
H	5.2868046641039195	5.272788473345605	3.4797548055964036	1	0.5553878026421026	0.04189384719702482	-0.29762395276544523
H	6.896644502643408	10.985203356820092	5.538555948109738	1	-3.187217231130907	-1.3206474763624647	0.5570672486372236
H	3.7740394115575424	11.633659929255169	5.761291501247306	1	-0.4848333302203232	-1.1251133741020112	-0.8034143624502955
H	2.631622914818811	8.463909469254972	2.191345555119138	1	0.231605681460003	0.10605320935599998	0.19737912743819178
H	3.502164090820665	5.098417088318745	3.160152416328743	1	-0.5383061502266349	-0.11101749950814188	0.3286808481485779
H	9.577698034869755	10.25656918725074	11.122581416238791	1	1.160790288634918	0.03477188546021464	0.32312083289375765
H	12.086042180973388	12.835548286780664	9.332262346699698	1	0.01525308231177848	-0.2203650661108476	0.031673189328372174
H	9.544776606576756	4.2867522234963324	10.231417603834634	1	-0.443140543459334	-0.5333614004749261	-0.3250231937201353
