145
config_type=liquid dft_energy=-13883.989681191522 dft_virial="-40.49488256550429 14.011361090070276 0.8513170300199385 14.011361090070276 -38.011671285961896 -1.524564881840864 0.8513170300199385 -1.524564881840864 -26.122504511414103" pbc="T T T" Lattice="13.849990867899999 0.0 0.0 0.0 13.849990867899999 0.0 0.0 0.0 13.849990867899999" Properties=species:S:1:pos:R:3:Z:I:1:dft_force:R:3
Si	10.7947521323956	3.4054080546175163	13.115165752412697	14	0.23462235933213277	-0.6677898423651444	0.41301901619167125
Si	10.134343017841523	12.849467527602904	3.0343113993030033	14	0.3337055592757433	0.08802950395122992	0.22960047642081952
Si	8.589210336636864	8.349924044412154	1.4621850858968066	14	-0.30392213235767995	-0.6382547842210073	0.6600898961523649
Si	8.499739395630229	0.9564014243892269	9.10075974934275	14	0.18104772355514318	0.02763783952839976	-0.06434525307362186
Si	5.258370632852121	0.21933538037949835	9.094333353580044	14	0.1669305555738061	0.8583604258050519	-0.41358183114625163
Si	1.4399004505903554	9.75474246813412	2.1020962139663903	14	-0.06385777150492179	-0.45028975891253775	0.38880357495492057
Si	11.493082521945984	1.0971284115997852	11.993870491747513	14	-0.6629080846937793	0.0431575454618776	1.8171695655892453
Si	5.867091581487194	3.8276388762163154	3.8909333344826185	14	-0.7504447077551367	2.390493141834169	-0.5543130806182809
Si	3.9192565658074736	8.918632369429865	5.61708539633073	14	0.36543994091073495	-1.1074028293252351	0.6229281682970726
Si	11.078898545041435	6.634353375587119	13.311794072764274	14	-0.7094504903096317	-0.21934973661992113	0.22511209786343697
Si	1.8173265517314983	3.6476997948605585	10.196058577148886	14	0.3174034659933444	-0.027171955244388927	0.611441755279311
Si	3.131801485022151	2.3236683678710546	1.8012051623612628	14	0.5625727564592566	-0.27898883851554396	-0.3768749318220936
Si	10.563845084645969	9.977145621490859	6.615960587714547	14	1.2479929251151882	1.8834542034058548	0.8145822155188905
Si	9.158569611225364	8.997646567331234	8.26104865301284	14	0.1963468286521523	0.07284712703575552	-0.4579128290762448
Si	0.24893973585963458	12.27728285487735	8.61811526757817	14	0.4857450441668478	0.2642103822458648	0.05749017206904306
Si	13.437330389990919	13.133503140321796	5.009403197010751	14	0.025533646934390575	-0.24931314091039486	0.36849184292575077
Si	9.321002304124095	3.7510207267350926	1.7308610587431987	14	0.30115613725426466	-1.1226104030728472	-0.4085638048929186
Si	12.5035640056771	0.2821353939718173	2.4362549436362135	14	-0.686307714212447	-0.8124021753179371	0.03299962256303656
Si	3.0018331707177777	1.679726892458912	10.903086760964312	14	0.530406943351544	-0.5182854673197058	0.47087068566872714
Si	1.8550123768830542	9.405237948582663	12.551221824253544	14	0.7518778418605873	0.13656348774806917	-0.26523728171073196
Si	5.302150453985552	12.259014716922591	3.6906209165601807	14	-0.15735755913529878	-0.6415470845834569	1.4107248657011926
Si	0.48700584388888085	3.073451473495689	6.3125765377531975	14	-0.40481101956763044	-0.19654351820914362	0.2818599918265533
Si	10.48298883795917	7.510766947716963	9.527921167690522	14	-0.828340714308067	-0.6797722215991624	0.4362661791648541
Si	10.9411465358693	2.505269448130959	4.22431646466384	14	2.4808140148467146	0.4605680095403617	-0.7091129041810963
Si	4.479391746477953	9.649177837738986	12.156815634308357	14	-0.24405805874654418	0.46612699635305394	-0.4731509989771664
Si	12.798471861227295	7.925837324037056	9.348522235978614	14	0.5336138830173647	1.0761441021744709	-0.21074887510296178
Si	1.4752456272852363	3.722558995501558	0.4961454528626081	14	-1.6704952061696936	-0.6352013395427994	1.7051007411156949
Si	12.659210203050561	10.056755368999546	2.7249857032593248	14	0.45192909566466416	-0.9204194520279981	0.7238113990753189
Si	12.084352482087503	6.767133238037675	7.217895040824348	14	1.2255821427026494	-0.056953582388728156	-0.07697837906416946
Si	6.6302676282810875	4.003810760056004	13.770561170272591	14	0.20248919926198608	-1.9753056554154844	0.6361199954736884
Si	13.772998768665342	1.681499691290003	0.6449040497774616	14	0.4174816836958522	1.5598962826076719	-0.622655116912073
Si	9.541480308750195	4.729647231470039	11.534023094951497	14	0.5383706849701706	0.9465709355708205	-0.7801378888764628
Si	8.871362350597723	13.735105193650767	12.578520156254175	14	0.04563943342741653	0.40354166487107335	0.09989875455116153
Si	0.1639811218777624	7.772310175266385	4.202488879056029	14	-0.7108322023086793	0.8551707125448763	0.6720439932278615
Si	9.398783852838223	9.656033583218596	10.597860662217533	14	-0.41384176989411864	-0.23593542281913232	0.7946106407235765
Si	2.3900790740826348	7.507027450182628	3.7636519184066173	14	1.2469598549975527	-0.19476765576451735	-0.5818514183707909
Si	4.814561525481134	2.200154149311122	12.791034416131232	14	-0.25729693715051866	0.16625872575365142	-1.5130965093492725
Si	5.9792072575628445	13.498976699343942	1.8876291053769587	14	0.08845836431863063	0.5541865822365295	-0.9523314970406122
Si	4.253429145468165	3.229236170777828	8.601980028217067	14	0.5903934015759189	-1.606256653966858	0.11682819753167656
Si	6.374652196823125	1.7723971813560309	4.29382956882983	14	0.827730848126128	-2.6133796909324856	0.5965146891221275
Si	6.621652933961254	3.4896990990395556	10.02369544079787	14	-0.29809472214956434	-0.3661961029853905	0.17729519534038707
Si	12.629515822629783	1.0639853834529005	10.099953490516526	14	0.39602066758857624	0.3001006985203438	-1.836319672234772
Si	12.546942177075364	6.353863360530407	3.0291730526910126	14	-0.9261851557084302	-0.6440994208347679	-0.820091837109436
Si	6.1321804066988	9.894281126128213	4.224939714252894	14	0.8729810162080741	0.020801013371594002	-0.29582032238336137
Si	8.381598973527042	12.846323579675891	1.2924188228335223	14	-0.909180893563099	1.0664407506962321	-0.25114711033525644
Si	9.027243997815937	12.767129331893239	10.359931669097877	14	0.06563183417582397	0.09589862889407515	-0.8548907191755121
Si	7.1285487497355255	6.381092442576699	8.02039121169221	14	-0.27408625489108557	0.1812948067764094	0.3999601151601071
Si	7.116111457936151	5.830222905796845	10.712774036448499	14	0.026469786381456487	0.06858911951505828	-0.1077308555773966
Si	4.829865765390163	5.417548577896896	8.258292504830129	14	0.38508961331996666	1.2783209121400592	-0.1727697928663944
Si	7.221869988203435	7.710220666205591	3.3937602122976123	14	-0.29130417588852126	1.2280046381352931	-0.6614944909887618
Si	8.889076488917766	7.162024177663239	12.007831282542355	14	0.42201094282782514	-0.2480584415141626	-0.4427466501242874
Si	3.6920613156104425	8.929601562197242	8.076774524515432	14	0.37514663482589006	0.990512153934279	0.7194186656358459
Si	2.522748136606249	6.153412442699291	9.497077238027709	14	-0.36611022806769755	0.3911273399432704	-0.06108637708033418
Si	8.54260511736638	9.272776635922067	13.164527119865893	14	-0.858794685493625	-1.9340412148008326	-0.7341958363528649
Si	12.493162662535308	4.824838218705115	12.242644027716732	14	-0.5092696294040746	0.28129717687197286	-0.26841053989685876
Si	0.6901021099757665	8.496346147867593	7.305690132935967	14	-2.782826587283121	1.991301530054254	0.33043331353479083
Si	1.4290420577499219	1.4022007754479318	4.430999878385511	14	0.665733986551154	-0.41929071339910845	1.8693367783139856
Si	4.9871601116769035	12.386254583025988	7.393346725138906	14	1.346745995135692	0.031970923324445316	-0.8835256333470655
Si	0.07667077944652081	5.486327632546887	9.100344249616713	14	-0.4585090683999871	0.5986870160071205	-1.4885349973364301
Si	13.795754303661303	6.612567339951911	11.072416749315257	14	0.14356872130334464	1.03928756452068	0.7417952523476267
Si	8.823607582085202	6.22972589238142	4.3183717526477485	14	0.5877518479699987	-0.26222677449137055	0.38939055829951036
Si	10.69845314589109	1.948389015314436	8.321282263297338	14	-0.6231752515183389	-0.17560546492398574	1.0810310020564764
Si	0.6222648547047923	4.9781576176127675	2.6596275963537046	14	0.1897802256644941	-0.29597021782352595	-0.983913926351183
Si	4.63671379274643	7.511888796977263	13.190717452597092	14	0.10472240524229133	-0.05301516325932533	-0.1903792932040886
Si	9.865819394894679	5.99611809641255	7.411559463130195	14	-0.12183233981628076	-0.6681117447512269	0.806569108678117
Si	4.413687389800636	6.730084512466043	10.739366018914867	14	0.8785847402533367	0.1594468393184511	0.6558079773521903
Si	0.2759749180337754	11.849636686849204	2.8686239585503155	14	-0.285518674697124	0.20790189018196184	1.4196409447304021
Si	4.2240948648099526	4.092547651546639	10.94419353386024	14	0.6514494396134753	0.026603226747572175	0.5740026051599747
Si	7.750150189877746	10.85607989195866	9.224052368048795	14	1.4748495179383456	0.5357530426437279	-0.0901853757621741
Si	10.143317811923922	8.896998683694205	4.681601613149294	14	0.17724223057079197	-1.1840973583620604	-0.8690659941370845
Si	10.786109738094028	4.971343422105761	5.0609528630210745	14	0.49452973971419767	-0.5707257314294462	0.47404548651804596
Si	8.636051005752101	7.550461021544363	6.206167057915122	14	-0.8793275325803276	1.2219221742794188	0.5610470625622807
Si	10.494692080242546	12.6712735450965	6.466131386505604	14	-0.17659585469330677	-1.7401243377867517	-0.3057687001986103
Si	1.9760612970685003	13.612408124552042	9.571410139015729	14	0.32306658257150256	0.09823884895647393	-0.012243089313481122
Si	11.785109579395655	12.004964334432701	8.751587629572123	14	-0.7273461546694584	-0.5320473085457985	0.8922061991289493
Si	3.761532869803829	12.58415710253741	0.9245201304104079	14	0.007241003913133035	0.30422269456960527	-0.7975437576728014
Si	6.809763509929072	6.115837417474678	13.212198788433204	14	-0.1847624565216931	2.238984590191675	-0.576644415876427
Si	3.134806933040486	1.0426162325428177	7.7976833585363785	14	0.5867804843800467	0.33973505836202256	1.1058280273166445
Si	1.6996293293360842	4.0877001547428735	4.480485895756518	14	-1.050428678093946	-0.47747354124139935	-0.33377240801406716
Si	7.193560606869449	11.93229343234883	5.615174097590961	14	-1.449032792308207	-0.30273171059445136	0.0021059923677332914
Si	10.3279935901565	1.2530599187851241	0.39242841124925215	14	-0.11693207018661053	-0.11710202024827232	-0.3461689923151611
Si	6.393252734558715	9.714688294544153	6.5777207629282755	14	-0.04754899334869051	0.15252310980182435	0.5286742754762962
Si	9.469681956091001	6.0439282648885415	1.4472547957412105	14	0.5424412589130291	1.430542688398362	-0.8533136031721333
Si	8.906679827310867	2.149740182551966	5.07153425604415	14	-1.9381580686394533	-0.8396582057062949	-0.036852166774746446
Si	9.22495261745521	1.2638823016493013	2.5617220109085195	14	0.00169950061661788	0.28027079162816976	0.09683836788858925
Si	2.468442322413213	7.588257646622862	0.941746749051902	14	0.3728933181233123	0.3901721743168354	-0.13338971534087837
Si	5.894445313451297	8.266837949195622	9.342566739905415	14	-0.5598738672046971	-0.29992946290602196	-0.5867064365468265
Si	13.227281428488347	3.331864603108967	9.281488280177976	14	-0.7520259375270278	-1.1074614505265346	0.11566091571632932
Si	3.3209785102867975	4.510928175684162	13.446443683981997	14	1.8552342656329737	0.9631013430056484	-0.9731577072443436
Si	7.225761835637315	0.7020574220929378	7.083840979213944	14	-0.4369776040069391	0.1642306378771186	-0.042825358654514464
Si	1.1545255437545363	13.593073537300455	1.5426396828484377	14	0.8508196310115896	0.8586311631952636	0.13053913087243021
Si	8.450378028177035	2.9697565918677213	12.56820191305759	14	-0.8674960772286021	-0.8943803257876665	0.355994728406639
Si	4.166146503018659	12.668226547105563	10.619812897743154	14	1.4043127861432751	0.788822568426859	-0.7110656586717488
Si	11.850204536474786	3.942995450155054	2.401228316731294	14	-0.09389728051287187	0.03672104040341889	0.17195475247990746
Si	8.993796269869957	11.365399456134814	13.079571275882195	14	0.4416819554112141	1.8769007130553292	-0.740273415108631
Si	8.754149877882684	13.57509624915392	5.209895664814471	14	0.5062516659792848	0.4884161654839495	-0.3304448835087315
Si	8.916499470836209	3.6313429556455685	6.873390367976204	14	-0.07391619262787309	0.7493525022151379	0.47202768306279375
Si	0.28122683457088304	2.507914796386728	12.007581982706734	14	-2.1483243312768696	1.8827337796951493	1.4967067413754565
Si	0.9080677262584295	11.517943255553865	0.5521880559104786	14	0.4649980240069769	-0.9333767943994166	-1.3438028508757183
Si	3.370852327402105	11.56290032591107	8.786835856330928	14	-1.2038107941832317	-1.7745745779714162	-0.6699146038017147
Si	4.836389111088944	0.0612862095904575	5.477352838464488	14	1.0090421099765865	-0.1460840336380455	-0.734058539328769
Si	2.3689716879999554	7.121194404584671	7.244888673025886	14	1.9136950299603726	-1.5401697341493679	-0.23929020104086154
Si	0.20755457814726258	2.291148589313225	2.8204398403208915	14	-1.0348521507328927	1.2211238460775127	-0.21284561149154255
Si	13.065652035059955	11.157483393225899	6.800220866221088	14	-0.01894081867246687	-0.8922943880414302	-0.8533002334244686
Si	6.826120349144062	4.814741575362416	6.006477889581739	14	0.07855009574637598	0.4128508659037336	0.14570762381917582
Si	5.744588412260618	2.7357332961728154	6.677482247149758	14	-0.0026922043807270537	-0.3076178391448608	-0.005424260893916402
Si	12.022443022907991	0.1902171595788254	7.427196102820053	14	1.367878423983053	0.5365097189394474	-0.08169481466344908
Si	1.2012595679400913	4.859657095747016	12.091706827238358	14	0.260896741709258	0.1371180751656251	1.0029707018735885
Si	5.100757736775419	6.772673234384835	3.027386403869053	14	0.07077404481612012	0.050513734893353264	-2.282217726149965
Si	7.644821009327367	5.095660940136032	2.7894297107676636	14	-1.3172752146245583	-0.7892655698735206	-0.7661801294249749
Si	9.195064337162282	10.661750670091156	1.4780294754496843	14	0.3848759544678623	-0.039910753663594596	1.13822009769253
Si	11.822241404912496	3.2578502519109094	6.787049524905715	14	0.8882215001037839	0.7612472067577389	-0.6969117238843336
Si	4.022065048019895	9.414365092564609	3.3132225154007733	14	-1.4176866475765575	0.7492879674716022	-0.6570045697681871
Si	4.664884674171738	6.423445714650737	5.134108514785322	14	-0.592862434014857	0.18926908992684865	2.268340185184466
Si	3.1293223366567973	11.915147143654368	12.342821011664254	14	-1.1965548778592419	-1.5909081836477021	3.3684133074630234
Si	2.073205133015951	4.0818139086240155	7.9817774371525045	14	-0.25461116053309196	0.1339180774841688	-2.0525966808865843
Si	12.359898050404373	10.565008483878874	10.724366478804932	14	-0.373775207248123	-0.43240695007931185	-1.0124951044215451
Si	5.647472276294904	10.687553203078053	10.033542784304947	14	-1.5763989221050425	-0.6933486861316724	0.8781275977274146
Si	6.821355952285503	0.8123947593411499	10.927698194736571	14	0.2351463505963789	0.9639837463515232	0.22660873827029518
Si	0.5267193077034974	5.776997390891504	6.4921139693737855	14	-0.6173514408576715	-0.0855375886749424	-0.2698277331493243
Si	3.526595474711641	4.386042808028308	5.72064177805002	14	1.0164978011839516	0.4871059302128022	1.2844355148124351
Si	5.560535883617095	2.246440818791644	1.1352546664609402	14	-0.0690629742255616	-0.09802184766745342	1.177823347159835
Si	2.756134332721232	0.8365505284138542	13.451886730393081	14	0.02361251703917593	0.009963290226105821	0.5380025026883255
Si	11.259848675730549	9.81410352899394	0.8760659373590598	14	0.2722620556664405	-0.5847493111771298	-0.6286648184873871
Si	13.347374699303908	13.670675036133296	13.37942357817223	14	-1.1263181940550326	-1.410560829181767	-0.9270631881752608
Si	2.644475706344222	13.509516542394413	6.038138968705759	14	-1.0873667197863852	-0.0776895467957224	-0.9417017763155239
Si	1.7562480920040593	8.547577264087955	10.150007357513118	14	-0.02500039969099186	-0.23063971719122334	-0.0890638596215255
Si	12.83155948941071	10.912213904946258	13.231034776013548	14	-0.9807789776343265	0.8041728385197391	0.24686827686146603
H	0.6551253430379719	1.81045695626102	8.86609935406792	1	-0.09232864915704952	0.05343219654225334	-0.0715739156812182
H	11.172164383545875	7.406061016755639	4.326224697469847	1	-0.5716693270819405	1.0928848260244872	-0.2219393538983743
H	8.867401253209502	9.503475933808678	3.9371092040361972	1	0.7445375932820966	-0.2839760115050352	0.14553638820485396
H	12.183490716719932	6.689947238930868	1.4380030018414531	1	0.25107434805469625	0.14028721958323964	0.8939625211731426
H	10.956810875540896	9.609012864222075	11.129617211599685	1	0.6292451169581444	0.25117462116218203	0.17660691044618343
H	0.925251409928233	1.4912700667193968	11.283227460315564	1	1.1527203603665694	-2.1922002435651966	-1.260574628999333
H	3.393898712206291	6.213521403065976	0.5230892250970207	1	-0.20204362671000442	-0.8829103678439538	-0.24522585478295542
H	3.5405424155156164	11.159962541591254	3.658959837436161	1	0.8181871622882703	-0.48977062376660363	-0.08681774201384414
H	4.133709824406037	3.7717264630826026	4.314521455186473	1	0.6974601406491211	-0.18148172613318417	-0.5759916122356414
H	12.23245043443796	3.5421074644836885	0.8410531604450086	1	0.030742963423542595	0.06327541614990825	0.3684543047880766
H	7.695498125913012	10.619148098181494	7.4835101656889345	1	-0.18724742981361625	0.19824738970480577	0.10235081769498676
H	12.492871812727081	1.8752749135227917	4.46655280494341	1	-0.8808825370779532	0.11713261640158208	-0.013366919448917847
H	10.669465115004575	12.873483411767841	9.68700216279922	1	-0.46902926003843703	-0.15243106423136302	0.37046722314322056
H	3.0187717095492195	11.564880874605178	1.9277386789303972	1	0.47303118546924755	0.36495837288427124	-0.5669446639456364
H	1.51459345134094	1.6784942432716687	8.829175278414098	1	-0.37312471760212557	-0.2591445334335771	-0.2872174039821459
H	3.7521010260227885	1.5435399322548513	3.0087166161791243	1	-0.40610737087004917	-0.1888980794291513	0.1157316211126334
H	13.601231181921648	10.575797626764968	11.832462698173007	1	0.864801301742555	-0.5122775655181159	-0.15623347188933004
