145
config_type=liquid dft_energy=-13881.04005062862 dft_virial="-44.33922537155421 3.2003665999603417 20.85116897596113 3.2003665999603417 -40.57294028745454 -4.78591407707484 20.851168975961127 -4.78591407707484 -26.105429384737484" pbc="T T T" Lattice="13.849990867899999 0.0 0.0 0.0 13.849990867899999 0.0 0.0 0.0 13.849990867899999" Properties=species:S:1:pos:R:3:Z:I:1:dft_force:R:3
Si	5.1549389010506435	12.74152069877849	9.84383945938732	14	-0.233376915915053	0.9901966793114969	-4.038306056869516
Si	10.145547660453655	8.586024838737247	3.270633793481981	14	-0.9293121339987945	-0.07964024440211875	0.34851923968830845
Si	4.085788856003104	1.2843179631748876	1.7734082306893872	14	-1.222390372558218	-0.318490786433235	-0.5785709450928139
Si	10.25604288759776	2.745566789689024	5.133083615461097	14	0.21347630362657485	0.07045471353535773	-0.38788131947658344
Si	3.9407933016070587	9.072145668209668	3.864369051997986	14	-0.20381794649143858	-0.516133709277274	1.481070821481508
Si	6.74428075310564	2.6778126343632573	3.277267939107705	14	0.10877909521642097	-0.5041369318534631	0.24185899236622152
Si	13.454878328420548	0.5807384270855677	3.895448431505554	14	0.5279649075184674	0.2271175600131525	-1.3737037773069125
Si	6.9719607529830485	4.060249472842695	12.49612656058104	14	-0.8418657567341741	-0.028828004181096305	-1.1574473374976615
Si	10.383158103783346	13.185883805784194	1.175217430111179	14	-0.6166685552846402	0.612968220507883	-0.5920455938546461
Si	3.285882633427539	6.4625580888616865	1.9892464883747412	14	-0.23786195203551933	-0.4558184066824522	-0.6575478443223345
Si	3.3306873538851955	9.996424808778974	1.8527963783441903	14	-0.03520305982240347	-0.1774366061329952	-1.0651852799684038
Si	1.8494169805724228	11.455659846620918	11.701732634370897	14	-0.18151103673383387	-0.052709458836759725	0.474271486675687
Si	5.926521892301353	10.806303024779428	1.8781280116415795	14	0.3001397793212101	0.2048456172879018	-0.6258581999199133
Si	5.477172788583205	4.524348816835157	7.016626973532025	14	1.9571618793922638	-2.0875349168610127	1.4340640742448367
Si	5.611573099965306	1.3615011922835207	12.030891517337409	14	0.6031864503173796	0.07224574550137289	0.3127790759645261
Si	7.271826905263952	8.824660181391163	1.0001327705546212	14	-0.3829975049209622	-0.10938587607197592	1.2851474538755843
Si	12.296742092046749	2.7188778572865813	10.987751755139787	14	-0.2324204647359579	-0.3555766666815829	0.9060626570308233
Si	13.472550916767988	3.520058279021992	0.15375567361999185	14	0.6538457097718533	-0.6830264696028739	-0.5373784954271256
Si	6.673576549725011	6.506144010122968	13.70931651065474	14	-0.2415165211375778	0.3760722327411433	0.1468329966178046
Si	10.294504312237919	4.520360019465202	8.32470321104171	14	1.4744923914093773	0.23339234254697389	0.5106333436658812
Si	0.04668693421660411	10.876785628306171	5.694229845464934	14	0.644639352951999	-1.1892028021962786	1.6504976632106458
Si	8.45587647455159	3.962842487068755	0.31995556403479186	14	1.03369309645457	-0.25179400043380573	1.3152764373486754
Si	11.372393701523103	6.26566661868362	11.64249622342889	14	0.42349241371329444	0.7700488716002017	0.7063674779202422
Si	3.3604648342511805	11.710582778535485	3.7304396403053928	14	-0.71720005885509	0.3872992212321019	0.021634822826918025
Si	9.565052993207361	2.858125665472447	11.678132249931997	14	-0.10738992701194496	0.11612577155821209	-0.7232632394210633
Si	5.13498106421	10.591974416098674	8.276726842675304	14	0.4604790492962846	0.5736182249146127	-0.15860094566812238
Si	11.017113735779732	12.328513971097712	3.2658970966051593	14	0.005503193827244949	0.21482947635656877	0.7670064826748706
Si	12.811864802396554	3.3971119100876437	5.007187198471887	14	-0.47280389975894643	-0.02516495043148134	-0.15243929176838752
Si	5.121020273415157	3.8950467817703847	0.2780274866803982	14	-0.459616443461375	0.3054403700492274	-0.4791185344252301
Si	7.579795302202577	1.8725603153126835	10.66072577076693	14	-0.49071447652963	-1.184333900051514	0.6385972554496511
Si	7.423553555221795	10.288147166429553	5.160991347059916	14	-1.4244638240899359	0.042031658442184754	-2.4329197220535286
Si	4.314327555314321	5.9819911057272925	5.982558955352876	14	-1.2910548254591563	1.5477172138166624	-2.6827365424961407
Si	3.971983481041569	8.053146440094794	9.791126394144094	14	0.06520040270310312	0.22762895286132995	0.7137702043580125
Si	4.0100986559100305	3.076858571249192	12.109420965558401	14	-0.020928283084941334	0.24988701161785185	0.12140939299111639
Si	2.546182321154736	11.87524531996395	7.907236786301467	14	-0.48624795236746876	1.5747117627939613	0.5179422247594662
Si	9.086591208684888	0.4092589201519242	4.619276654243743	14	1.1542342271790724	1.0243736110006292	0.17656551565052903
Si	11.990546493939217	5.508515317917263	4.287998722674444	14	-0.4356084904239602	0.03987192997326037	-0.4809080237280532
Si	0.43356980912234905	3.371489426982029	2.5982859867997754	14	-0.899059223249272	-0.1362618970940158	0.255879743898053
Si	4.210771173595033	10.270045228365207	11.9147454939192	14	0.9079776162732696	0.44695220709645356	-0.3408131228227606
Si	13.836653326694211	9.059833026328105	12.481348620324988	14	0.16248742847005823	1.1537297763152594	0.09113128540945656
Si	4.294937568099261	0.49512886353290425	4.285256424482599	14	0.05817125786835029	0.19243077813903475	0.23739452508831638
Si	10.83148230817727	0.6997874085896889	8.411764253637328	14	1.4903198586496766	-0.17586463234025668	0.9586047369112415
Si	12.966721550290545	8.72160239934312	5.203206119225275	14	0.8241120173880194	-0.06612317240250427	-0.2117616334885681
Si	2.5475673202415257	13.237890521493158	13.210564489510793	14	0.9580167251245234	-0.6865296006015756	-0.325192372450201
Si	6.400496279782626	7.570432708375876	10.212401566373007	14	0.26482333375418815	0.46157871104171194	0.4763815928119325
Si	8.952080097375845	0.08436860437089963	7.527580836630593	14	-1.2521951396504383	-0.6952546465054982	-2.0723353135398934
Si	2.0534688960291936	3.664582933728529	7.501570553780676	14	-0.7345455066764051	0.23751716681208745	-0.6951854837723861
Si	12.503674805604042	12.060391997886036	0.8290327533707582	14	-1.729359891142888	-4.651152921206289	0.31586080280125556
Si	1.5355346375332048	7.73290695124721	5.018793490819188	14	-0.2719591794597271	0.11398455504759279	-0.41400992018205635
Si	9.818632476007743	5.205103567974177	10.512780168316022	14	-1.9579422098569286	-1.8154505245721941	-0.8381646506258209
Si	3.8911826343182403	6.324833779671288	8.171937811768773	14	0.012426152012275666	-0.17675166367570777	1.2788117361456752
Si	1.0802577377235962	4.92914249993127	12.494990861329871	14	0.060258224056714486	0.5559189930012454	-0.28268557374485287
Si	8.018064413226403	12.557357370208024	5.553929437973107	14	-0.8747057136568294	-0.2491236504482999	1.4400552638618458
Si	11.32071938559497	1.219279791058316	13.64690845180398	14	0.48625309457810906	0.3568341942936673	2.7447965971612143
Si	11.016102686446375	10.629826441140645	9.976231522093578	14	2.9410737488591905	-2.4571662736646527	-2.8492120124282803
Si	7.808541751376812	11.440701856483587	8.713624804603208	14	0.04646938622476033	0.5793579604313113	-1.1905994266061828
Si	0.8268666147990186	9.173873851134394	7.850354873807002	14	-3.3565535699527755	-1.9526290207128427	-0.7023151588251567
Si	2.070698284668861	4.561217492525507	0.7002403032910692	14	0.7400772397727038	0.0883748033957258	1.4074911865400421
Si	8.398551362349352	11.905092050284273	11.417627771697665	14	-2.5183624369421573	1.6211862912293618	0.09716875492222829
Si	3.52363157666591	1.776926128369834	6.636874073925076	14	-0.28596347591750965	-1.1058737929913431	0.0063074355713872675
Si	11.109617824786438	3.700399010112918	13.180454609363977	14	0.8191415565831093	-0.35326010078812947	0.5283222911579679
Si	2.1239237995742006	4.863438143253952	5.1876110295080196	14	0.47409845128764105	0.3742799152224681	0.10090739916825561
Si	13.184678856578687	11.964896310851866	11.43145006258383	14	-0.19502399496493614	0.3229215722314462	-0.3875419335743239
Si	13.564404056203902	11.9252299370062	3.799204844964517	14	-0.37932236697634253	1.1514103822059538	-1.8023180899284739
Si	1.7359717053734538	1.8997339973955034	0.14235574613662336	14	0.9468491291664604	1.3148277794703096	1.5613363586974869
Si	1.5355623375149408	11.068012452219266	0.6229102642792365	14	-0.47505541668780005	0.6669336642935351	-0.823253011100558
Si	10.901313962133221	7.1365540444571725	1.623094279800069	14	-0.4963343985384096	-1.193763943034221	-0.7581469679627044
Si	3.9698505824479127	6.364126203763521	13.071870680959641	14	0.08573042157395351	0.40597984404616977	0.9659406146106879
Si	6.241886184363436	10.681016007388404	10.550355193540636	14	0.14890813572169614	-0.819536735470816	0.1745271433527156
Si	5.774739842380037	8.662199788510698	5.550037590539227	14	-1.3767392242478793	0.6332380435203345	0.44884402639101845
Si	9.951010688723132	5.810209668992728	13.547022317664688	14	-0.2624787428127451	1.1491881758777498	0.5917925970911434
Si	2.831589082969551	9.660881080022362	8.23124347266512	14	3.7238123107669834	-0.5850542442680994	0.7556959332610073
Si	2.992636776781492	8.890281438123273	13.2907697866268	14	0.5573122749742336	-0.9469748562166157	0.712491850792835
Si	13.075194678767936	6.347617014648984	0.8609514423249205	14	0.696448924926707	0.9843373873974115	-0.10625581245522762
Si	8.898175932917978	0.4252501196080016	12.31876357752671	14	-0.5689483263216278	-0.09492058043029081	0.27559600793507655
Si	7.83131113636364	9.754437768335027	12.820022447017747	14	0.7358128044887061	0.3616102795363744	-1.3471152058596652
Si	13.745409586856486	0.7853942021441788	6.1340917054385695	14	-2.5150806781115205	1.1279459608332183	1.3582573478750588
Si	13.509253392567922	2.989991428525723	7.230650882413685	14	1.42665157760685	-0.3367854863387487	-1.0210627986798746
Si	2.6529657507462447	2.8827786492173093	2.9973180736948426	14	0.828081032670732	0.3817492332880303	0.32895235687038554
Si	13.078255526749743	8.733901191233816	1.4282526082704516	14	0.5408230052245279	0.3004843074341099	-0.03526039547104277
Si	3.8126393361063795	12.520087044782505	1.288496505419733	14	0.2500474485898291	0.5853121261317102	0.12277413569505098
Si	8.423605995829384	10.320888544841269	2.8374891790792764	14	-0.013761841226092593	-0.3792040961316157	0.10970032225263003
Si	2.7505112364288644	5.994719247334892	10.739172119042715	14	0.5979041144371354	0.106505209671282	0.40223194382099
Si	5.314809345638814	4.232764959093259	9.512866227617113	14	-0.8328221508810851	-0.0008122121706347782	-0.5982746107137688
Si	8.268125998346337	7.845604326939313	7.769803326919296	14	2.2568108347078577	-0.5224925669550642	-1.396147212757017
Si	12.169613025870296	4.486482941802318	1.8459960328280511	14	-0.7280035862998202	-0.01152472248703175	1.4951262829351615
Si	6.824721500066403	5.107142582565521	1.8508712296135523	14	0.3042257798959894	-0.49574304431477567	0.4100005385458174
Si	1.4031979747904204	9.409323695888695	10.48318273783132	14	0.05261998437161857	-0.20458207899258662	-0.2027241982882476
Si	10.87652247847968	7.563909362677095	5.417659377823838	14	0.5010760309698268	0.6474444288562806	-0.3357187347414192
Si	6.433750107856455	6.751399648411741	4.553032147922578	14	1.280543632689327	-0.7459280470392327	-1.752248642034442
Si	2.5258366845697906	10.713701985836648	5.714866331858105	14	-0.3441830705658787	-0.5500116214176731	-0.20530070292956798
Si	9.09179880525122	6.1350750547901916	5.004084800517477	14	-1.2795429584987252	-0.44723837111858605	-0.2618040847767382
Si	10.461646002031735	2.830231783864497	2.473165169299167	14	-0.1412709244787283	-1.186350160843574	0.19690990071726472
Si	10.026880938697488	7.457679932720301	9.515622375799827	14	0.18997922921627355	0.8301096347683289	0.14634217261218838
Si	6.6995175826205875	2.6550570993672977	5.732386570305999	14	0.9788609330654959	0.8555584352271545	0.16972380439361498
Si	0.2423194402247784	11.241414337885374	8.835061524532957	14	-0.024080458207442878	0.5714947490307024	0.4578732340543145
Si	13.507896093462868	6.802990864394668	12.30603543591911	14	0.1847046066519898	-0.2443185117154752	0.5136852456808969
Si	6.6601836085557515	13.12846174364588	0.4357691876721716	14	-0.856018405968929	-1.6306075924539802	-0.374295341854389
Si	1.536781136711316	6.330346076036713	8.5896258363629	14	-0.6542344608962597	0.019422643809462622	-0.2280056197907316
Si	5.601199456805249	12.29647894222026	3.811420536910005	14	0.595293156984525	0.13912045198895642	-1.0756445364107663
Si	1.7293929597112014	13.688306074508136	6.716331471534218	14	2.4949664069709376	-0.22672520934129792	0.38456999293476474
Si	2.8728897557376287	2.6993078201902385	9.547532754759468	14	0.9253791141905638	-0.2527617644763095	-0.5150129644682214
Si	0.7181566514777847	0.6238769936418159	12.457221936233108	14	-1.3658747616070614	-0.594874323927873	-1.3677426696221493
Si	8.796918649682759	1.0584509271020877	2.439814391289264	14	-0.442375125405526	0.5244383794613523	-1.179940909501509
Si	8.875323447985942	7.419855607660067	11.835731296017832	14	-0.7910861695507175	0.4328805476792832	0.11049582223868386
Si	1.6344235723300111	2.958842799063816	11.49740371909677	14	-0.25353643850927005	-1.1272363357648576	-0.041854766396158566
Si	11.926975035855556	10.063721914406102	3.2572547023035896	14	0.976238662749477	-0.38568816663849714	-0.4098966658908834
Si	13.645897402470625	5.740973564644097	10.194479678189946	14	1.1525753500265128	-0.9486152214108702	0.9623770626369628
Si	8.591980334810444	9.790904794290206	10.057503268506414	14	1.1298532067597042	-1.562847397294138	0.9460207190323086
Si	8.868453852515463	10.09419189431548	6.729170413068761	14	2.6914528466419743	-0.7144916565108461	1.327576605200264
Si	8.720771399891046	4.499280333364258	6.7200432690868155	14	-0.6957891793015569	-0.8068161918993834	-0.9244018370583756
Si	4.891041175053678	4.936870794835559	3.34114409699046	14	-0.39652563267345325	0.22839642779939417	0.014051604795673281
Si	7.179059666430757	1.5181251990122546	0.35212632282274997	14	0.8153862001525009	0.5202204811836494	-0.3111168563750503
Si	11.262341674086771	0.3961305138082418	11.634116978953811	14	0.4732381594475194	-0.4843340215671505	-2.5043154601360604
Si	7.716453162096145	3.595166779498614	9.14427642064969	14	-0.05081892509485485	0.7801877683196737	-0.8026751696707529
Si	1.5788020090045245	8.179430656828306	2.5555310649905687	14	0.2174859423733458	-0.1660481522279313	0.16058043965410437
Si	7.743017444580777	6.005259090385365	9.0365788916609	14	-0.3806536853111152	-0.6656380843227124	0.09935547999701423
Si	9.633084148350486	4.8737563864505375	2.847779722294126	14	-0.6390952785501638	2.0070238390869597	0.8074651388821888
Si	7.317628825064096	13.817886589068205	9.039958289432668	14	-0.99215971822343	-0.04498971511301512	1.2921208057248899
Si	12.34085431296101	6.241221384801777	8.550305712288932	14	-2.061583465312098	0.5529925609258528	-1.6630544273731853
Si	3.2838328347790897	0.29161986771815523	8.824715581354635	14	0.291335286262895	0.6152094530154562	-0.6044195524289226
Si	5.418130277513348	11.966544459765146	6.033942421472785	14	0.7915780219984617	-0.23196409354163164	1.2908835898448345
Si	11.801009368912005	2.7914241094526413	8.70622890947975	14	-0.5987242970342627	0.055701711208348055	0.10358212003280565
Si	13.430820894283006	0.01860192273467649	0.7265788309245548	14	2.0709461453354168	5.048538845719863	-0.19980676508147555
Si	11.975519253847544	13.071288981343189	6.982611395960464	14	0.4338786507645646	0.39293148454641835	-0.6227319929611453
Si	2.197564201018825	0.15448695313781696	2.935436314497065	14	-0.5128205829617312	-0.25706142390319303	0.12157600061586198
Si	5.207901266129494	12.817515598670658	11.963151212002511	14	-0.3742907138648127	0.03036578227307687	3.7677018499135073
Si	10.280585071415679	11.035146423889739	11.99421674151921	14	0.9126405728818902	-0.7118359618256651	2.366163800631736
H	1.678605043198612	8.71783520182705	0.17709013823422975	1	-0.9056548797270478	-0.40692061148281194	-0.045023396592709056
H	12.358970101016226	9.414835992254119	10.395553845610117	1	-1.1050302133358025	0.7790582817525328	0.0638109773880951
H	7.243863773701661	8.775922063527023	8.02882585613076	1	-2.2263316666901622	1.346885349044044	0.780330721775474
H	5.796830577814338	6.217163950664234	11.76411299323992	1	-0.4173189327290869	0.7759930099898522	0.16690047364156038
H	0.8641424802208846	12.356033902952229	2.767920674949815	1	-0.09471874866265918	-0.5501962267796597	-0.040073761740891986
H	11.578176865838362	10.115465480288576	8.251118209560556	1	-0.8051822544684292	0.7300553283452984	1.522740211184084
H	6.090768934003779	1.052915085752188	3.637312301709634	1	-0.20903831873346726	0.4865078911153357	0.3518750463521657
H	12.581788754099	11.809388613387084	7.72650825546624	1	0.2078898059869571	0.08961896126014549	0.3343311092001353
H	5.144620657854058	2.3258843664099182	5.982074205672499	1	-0.6156696808677626	-0.4145657931522723	0.37792857078229025
H	5.553638588164881	9.921828757964464	12.816462999364697	1	-0.3431703121802724	-0.05003782329859385	0.010230170958337191
H	6.952182966023688	7.483537865670671	2.918691675537774	1	-0.3245701649627251	-0.4917547457421619	0.6965949637088914
H	5.493862027579024	1.8834879581074566	2.0077223761925196	1	0.803824196638327	0.4892054948172351	-0.02091748444259671
H	10.38551260223089	9.50656448177222	5.699548241958207	1	-0.9079552476569843	0.03741806705571104	0.7547978461726795
H	6.098067879191162	5.681363203948655	11.237383990542815	1	0.21178683032070555	-0.6271128993161457	-0.8303518328894869
H	7.638214563683378	4.694468254665573	3.547093461196133	1	0.32059575035884025	0.055505278761888745	-0.6458662844107737
H	12.376365689546306	11.759833346061738	13.025279311680025	1	0.16500454057848318	-0.2660332959178498	-0.13347224782165515
H	0.4907356464296063	12.98331383935029	4.834685562212193	1	-0.042053255726873996	0.3473000215454942	-0.10130592049287857
