145
config_type=liquid dft_energy=-13879.4218132627 dft_virial="-33.25258955080745 5.3347574345375515 -2.1661017841194994 5.3347574345375515 -46.57362766238018 -9.601099799881025 -2.1661017841194994 -9.601099799881025 -51.57907908244011" pbc="T T T" Lattice="13.849990867899999 0.0 0.0 0.0 13.849990867899999 0.0 0.0 0.0 13.849990867899999" Properties=species:S:1:pos:R:3:Z:I:1:dft_force:R:3
Si	13.194706249967046	12.273335607479998	4.69758450261085	14	0.005770074559476319	0.014506176216275462	0.327223545653118
Si	6.872019218880282	2.7099446131767855	10.270211428255621	14	1.6696423705350005	-0.9639094414077711	0.08382908918970401
Si	3.105458802391406	7.327420768607701	2.3261613662272764	14	-0.08158297158202266	-0.5570821610480803	0.5639590964478803
Si	4.806390030869072	8.212199735221757	3.9538815429772236	14	-0.6102924712012049	0.5886190817944846	-0.23013603765900634
Si	6.211831704180093	1.561447970447046	12.627673773844352	14	-0.15994794774534796	-0.19771439957193906	0.8221716042029038
Si	1.9396081211041876	5.30507280205868	6.177539126791173	14	-0.0025093987924645253	-0.30848327319562263	0.6685969123251388
Si	5.5540125379183145	13.31240347236246	8.41037925455054	14	-0.05378675196590176	-0.1447974525358434	-0.4323652981731254
Si	4.768441055891026	2.639060359914873	10.906881658462117	14	-2.137722121378707	-1.0225728088343977	-1.0980023540537098
Si	8.569695699503994	13.258970207594103	10.003239004285982	14	0.2588156890631301	0.014464781420621077	-0.48730133421713334
Si	6.14082280100037	1.33862100736975	1.7365118550173018	14	-0.02566554463731417	0.0349657468013538	-0.810923018427256
Si	8.608724973769736	0.7093189723049778	1.1534383194714062	14	-0.10123264399125435	0.07630500658082268	-0.20992560717945036
Si	8.598739130353978	3.783194255521224	12.211675448136107	14	-0.3802461651178717	-0.2540776561791612	0.5263883057361526
Si	9.035387792446262	13.183446207391444	6.417365568659728	14	-0.4481148609222245	0.5253457225288325	0.8375552986649457
Si	8.844050168606223	12.119905408645403	13.811806443077199	14	0.16540280479257416	0.015594267987762131	0.03440576006262555
Si	9.524583319891358	10.414403683181328	4.294674418272771	14	1.3341488646196265	0.31633979972239906	-1.2894607401606646
Si	13.28939863753088	0.27634194279177476	6.512279556077448	14	-0.7708554273391324	-1.2528967942923066	0.20728045402608203
Si	6.0512549100576605	4.2467118998972335	12.106664817375691	14	0.6638730205204308	0.8859440150111968	0.6848655812383758
Si	9.12832123116987	8.197435644956576	7.267159458341468	14	1.379843833921958	-0.6710949982541947	0.12209639233265998
Si	2.3679883386483342	4.104832593446465	2.5918041910735985	14	0.1313153475685829	-1.4953345424660938	-0.21078847012489205
Si	6.661471657706466	7.728502654151218	8.872414949903682	14	-0.5317475176654692	-0.09326530282517947	-0.3028600087499268
Si	10.130714320234134	7.261647161976044	2.5925936405530687	14	0.053881368641683226	-0.5346806346146942	0.7121182691898175
Si	4.802345833535646	12.49328731245312	1.975687347315067	14	-0.13302461838541735	-0.35804287090466896	0.2590584014053521
Si	5.90081630925053	9.928615253489737	5.22560155445867	14	0.164827648532457	-0.07532412990118618	0.5068759303510167
Si	2.0353115580013763	0.6493318918579293	12.495004711320739	14	-1.1610404571825685	-0.27846896101981	-0.999800529013846
Si	9.960234782641152	1.754378343236893	12.084684881868332	14	0.7586727590006747	0.07344979412279823	-0.4094248680646362
Si	12.705067522814177	3.882207840235841	12.112177113741115	14	0.3855153883609832	-0.831984484767781	0.3007925829619957
Si	10.681888556813082	12.412472615738922	5.039970126856207	14	0.020500194049136677	-1.1375737218150448	-0.7148593245716273
Si	13.5977132842412	6.623675032627967	8.21185348545006	14	-0.09893279028238189	0.06721537794250318	-0.462917228471381
Si	10.256998536967645	2.544478772277984	2.2564959121617396	14	-1.990472091477974	1.2826917911843108	-3.4485829424505603
Si	0.2368916288036484	9.272305736232559	3.156648368639164	14	-0.3739410435412726	-0.27756341772605386	-1.0324872480594205
Si	2.1417902877937918	10.53072975648082	10.929858793311963	14	1.2947204503140917	0.6122179719754638	-2.609947265330088
Si	3.9381341033604214	0.8933230259804631	2.8660063102762825	14	3.120559525932344	2.3856653773745267	0.7435328053229827
Si	12.277269004886483	6.448943547838541	13.703000914818977	14	-0.06394724597006296	0.6171843190118618	0.1944856055108971
Si	4.814561525481134	3.890448584802242	2.2780049479795883	14	0.08673186709615119	-0.4677665902157124	0.37165558802219295
Si	4.015777152165868	4.948670987055009	0.19758396972146136	14	-0.15234981730324634	0.29949648877010904	-0.0024474351542489565
Si	11.091155786959527	13.361335490098751	12.191786861249804	14	-0.6435510040699804	0.286316745788498	0.42388296461142494
Si	12.697907077535474	1.2032373466360275	2.047790399773354	14	0.8563590774238488	1.3194547406044481	0.13057152679946407
Si	7.500698004355999	6.462031789208706	10.989552253952612	14	1.1004999257617019	-0.3253857195702761	-0.3846946915427919
Si	8.361751936613341	6.612359590088893	13.328095512015791	14	-1.1566304973374506	0.5922448545169574	-0.02264526721773622
Si	4.351251630968143	12.61034743526861	6.125504711100472	14	0.06417993100153635	0.13521828544456768	0.11041868907907941
Si	13.421721450282796	8.896167684242132	9.458795863268833	14	-1.0359060468036214	0.21947546367007637	0.3979109442199491
Si	6.130061358096011	10.333547436494529	1.865995419641299	14	-0.01842428361364912	-0.4568918431536141	-0.2081608004877007
Si	12.372196842295068	12.909396438088306	2.4001064674709944	14	-0.007921575491376232	-1.1453245759131632	0.29718995018740424
Si	4.7450207213334075	4.970096922927651	5.902852257908112	14	0.011734267570623819	-0.6711214806389922	1.6820908911635613
Si	1.3730119196938324	10.215573214281756	12.899147444846061	14	-1.1902122181449686	-0.15526107985725005	2.469075890618111
Si	6.418127318157463	12.476251823685601	12.72563475925301	14	-1.4705439449692257	-0.27264309347488647	0.24105757883793133
Si	7.535613831333975	7.618963076376996	2.1995862996855386	14	-0.9553800566187117	-0.9631802759389769	0.010802499002602155
Si	13.651091149046088	7.5048391516255	5.849405143148886	14	-1.1445244479375332	-1.4501347680484225	1.1431532774702984
Si	3.4923167473135885	6.053817158368222	7.768349077878166	14	0.17509072963889208	1.1689404353892554	-0.4598108190235781
Si	7.112330410429215	9.218138421948202	13.269233050827216	14	2.082330228361437	0.06859426172569859	1.1690448222652534
Si	2.835633280302978	8.314578867717273	6.7732826339830225	14	0.8185926255972575	-0.027344990632434892	1.2380843994324018
Si	12.622618527177568	5.711500784077205	10.657221723077352	14	0.27539289061478484	-0.10339545778656291	-0.9860212042715765
Si	7.452887835880008	5.023668687604688	3.075473572162402	14	-0.07759081635142873	0.27620047479584336	0.6177512477349545
Si	3.21339178122495	12.431668703081831	12.91148778670936	14	-0.11524773909138153	0.07933196887423301	0.0046480441977636965
Si	7.517414943333554	11.797339121332012	7.7545544869737375	14	-0.24971706155619008	1.0994732834073666	0.00562197889303579
Si	5.264769328633091	3.113450247122184	7.713780113858641	14	1.2600238982397571	-0.6307561555547955	-1.9487404810266507
Si	10.95362537764128	12.351297206075408	10.078222854844793	14	-0.6877470189706658	0.07992075199254693	-0.7925987508105605
Si	3.574322543242425	0.46145953573303927	10.226445457113059	14	-0.13883120264043977	-0.17076998714838323	-0.1719601518010798
Si	9.036232641889203	1.7544891431638363	8.806724443217233	14	-1.7662927906246872	-0.4506330014727775	-0.6479167409035919
Si	2.8389018781478024	11.025977729935189	0.9898463823370317	14	0.14437090616323084	-0.5442672579113983	-0.09282204426798596
Si	10.979303260710367	10.352909723727853	7.445962840446057	14	-0.09488149962942456	-0.22625366862558272	-1.4444909347601653
Si	13.088005920320745	11.882738165023483	12.538853782408511	14	1.5392809030401926	-0.2288815953733061	-0.15841608319560374
Si	3.457248570436066	1.4652320838877446	7.010463727595811	14	-0.24081100983772916	-0.5780325556387749	0.02432059944434471
Si	1.4388063013117915	5.434777966536563	0.9145564469800406	14	-0.3507388749111923	0.9874150004656288	-1.1832116125792693
Si	12.166178228135056	3.133671233789318	0.8939407355731716	14	-2.765783244336923	-2.760816383079461	-1.2114683171582288
Si	0.00996922342671442	11.741856057915204	7.839427231012229	14	-1.8320940606411087	0.7876892252017379	-0.2662071026374918
Si	13.370919683779338	3.0093952657316514	4.815406374924075	14	-0.8589934319348725	-1.0361320469612625	0.8942607693902797
Si	8.188668600737195	0.19653137041550098	12.411129166624736	14	0.4369277245637282	0.41648563749482687	-0.3018847885019946
Si	10.814059019665452	0.5117765525561201	7.6195447759934485	14	0.8261249357431635	-0.48584608860592954	0.3993466494307198
Si	2.557013014013434	11.36490085646357	3.440185381686813	14	0.0852717363848391	-0.48737589627141764	-0.08484698978595062
Si	8.66692263539665	3.9561667914704275	5.155922250402265	14	-2.9887659527742136	2.189341431559724	1.1467206861020038
Si	13.300617130133878	6.903458698150415	2.2005003990828196	14	0.14654246171662788	-0.04987430100023244	-0.3819667487981148
Si	12.33446946717091	4.616368156161484	7.575266355188772	14	0.6332380435203345	0.2888045472962733	-0.2347691694459132
Si	6.988525342061057	1.0445233762853274	7.159351129425735	14	-0.16788623542130518	0.5686012271034078	0.5492158643210873
Si	5.220269307974528	5.801705774599838	3.862028403541311	14	0.5569353509342999	-0.3358290351596535	-0.9506703058932644
Si	5.313507446497231	6.659020209322848	11.785691279012108	14	-0.36883662814918255	-0.2733565752012275	0.783925641234105
Si	11.22198280069771	5.262096280395586	2.622800470635959	14	0.4559235648900462	-0.5936342798319655	-0.42421438008719203
Si	1.0076616255904116	1.526947643195107	7.767005628763981	14	0.7867181187223179	-5.39911625521695	0.5483835975289554
Si	3.4597138688105518	2.985642531393203	12.709444119928433	14	-0.582669801194194	0.40952179873520583	0.913816596455326
Si	3.5447943627120617	1.1395606286217703	0.33472103929906005	14	1.0485875095741877	0.07146592925777197	0.942381833672703
Si	9.13603567608329	0.24937324057379984	3.4158370977410444	14	1.3654312459393358	-1.060240273106163	-0.419941974376702
Si	2.3351500103005436	13.494129202540176	2.3739299847306636	14	-3.4506290280643337	-1.4848971404189526	-0.9966936053449792
Si	1.10391767712323	3.8295778749378218	10.369695912659749	14	-0.12459859203022806	0.5050962112484102	-0.2797743111908492
Si	1.760195339401411	5.9162313490865035	3.936236654611519	14	0.8611050807343101	1.2319392006067158	0.6617323182308755
Si	1.0680558957689763	3.092813760729013	12.868843664827095	14	-0.40689695731386666	0.030341356772535466	0.3897749385448725
Si	3.63476390338994	10.665033117926848	7.547233973672143	14	-0.0897755415741425	0.0727789927447716	-0.7123532682160788
Si	10.924388046919143	9.632571698688375	9.626546952660837	14	-0.323456105027505	0.019955633942329316	0.9174277138774739
Si	1.0157680252453933	0.546520639647334	9.916704261343343	14	0.4355395848013803	-0.3815797974474325	0.8659863241846112
Si	1.2679029539982525	9.03301944400785	5.220657107718829	14	0.5829757627272917	1.4263376456472598	-0.2877516796676726
Si	4.5505114495846195	11.998150138925693	10.930523592873623	14	-0.1589691279499676	0.034508604275431475	0.28784012569068573
Si	13.125359345691471	11.249239582725737	10.06840321131945	14	0.34717583715853106	-0.09539957735143441	0.28168695643850733
Si	9.161644309198039	9.230367963884557	2.074603982093609	14	0.18573921943281738	2.3212267931777837	0.3022866522635338
Si	1.1306647794873184	3.5331742203738936	7.678157937346401	14	0.527039823824278	6.342273277143677	0.2225785306809631
Si	12.072275290050694	10.639909234492478	2.574796402287817	14	-0.051351658117189516	-0.5821805198517698	0.07993874972978794
Si	8.05138749125457	11.34670196846315	11.496184919900394	14	-0.13209079293313958	-0.3296843505550317	1.815758028768484
Si	11.285041809119258	1.8415778857411913	3.9235777629582587	14	2.0604856033403944	-1.265072006425336	3.1130192453599457
Si	1.5874028533334903	7.816810195924948	9.336777443722633	14	0.1470569398911895	0.7467893673214822	-2.099372285754974
Si	3.577272591297287	8.282391488940274	0.24724588197649044	14	0.47451368479684497	1.7607934534554222	-0.88819038972941
Si	2.3092089774049667	0.04664953924126078	4.964321476735736	14	0.486303231131852	-0.22138013849124205	0.6123457559098752
Si	13.755187680409223	4.7641475587219775	3.461777517449869	14	-1.1074205699519444	0.431767516186191	-1.1439204952978304
Si	7.544824075261129	3.260260150321924	0.9828465969523952	14	0.11440673054116109	-0.11931599903945182	-0.21538277822146468
Si	8.474047662570275	10.49235143178587	9.489542842995572	14	1.1550127578700133	-0.8822130840811298	-0.6311209953997245
Si	6.286220005131583	6.819555453472677	6.410080473463213	14	-0.38166644369672154	-0.4146912630918955	0.907029135520667
Si	8.050210242030799	3.7197335973645065	7.507249050036515	14	-0.013362291459341584	0.6585202363544145	0.04332903818673147
Si	2.7118697619074235	6.670044802053696	10.800818428395738	14	0.7172879906570392	-2.1799782373153405	0.8639055286490154
Si	10.917518451448665	8.740563036841275	0.38811690909207486	14	-0.792207171470302	-0.29171503851868097	-0.5936440500321821
Si	10.66553171759809	4.317873152976503	9.278787531958736	14	0.2616500755680613	1.330533890539498	-0.08777342186134318
Si	5.139620811150746	9.375903667924451	12.360285850148676	14	-2.3929380058830976	-0.5614972631038386	-1.0825142727156698
Si	7.390784476828344	8.03609710133641	4.6917398064645965	14	0.37487692587780647	-0.37149540816074766	-0.4224115210367042
Si	6.353697160639992	5.427049671632275	0.6964592557841326	14	1.0670935543370177	0.21797136705778972	-0.35938550210285025
Si	8.757044525974075	6.073774995208866	8.742751335398403	14	-0.3493152538954263	-0.5401774006786387	-0.04446366696451282
Si	11.145461601152562	2.068606936047808	9.669384974415252	14	0.39280987126477535	-0.6273383852527227	1.3451771066693374
Si	13.623972866926739	7.82530024032697	11.779334133203742	14	-0.18182239758810378	-0.7816329866201289	-0.1731654859751652
Si	1.4688746314860022	11.383778394016518	6.1135521689814745	14	0.8626567427950195	-0.49415204434266796	-1.1812866260260744
Si	9.637391495510403	6.755720845562526	5.150686953854199	14	-2.1518621721973936	-1.6909987426557467	0.009977431305366637
Si	11.274640465977466	8.181923655184528	5.254728085253864	14	1.5985407669010936	2.1833610405850594	0.30547765107636954
Si	10.17353849199768	5.196211873836986	0.020305471611428188	14	0.4397914216693091	-0.1070364000304246	0.49694709293620093
Si	11.192690070012102	11.182496476733327	13.79893980156092	14	-0.25225628517036836	0.7033842244172743	0.9510973664869411
Si	7.210651495600437	9.46718895773478	7.326700569082571	14	-1.1093555838158877	0.0787084758340971	-0.22077927117792343
Si	6.72687131458469	12.200761655332203	5.3609021152471845	14	-0.19925269188498368	0.2959149390591428	-0.2295660236095295
Si	13.22351423097228	0.6446505949445791	12.077247436772272	14	1.3459144996751558	0.09088497351978637	-0.47891567421547043
Si	4.063407270760577	4.244177351568408	9.230201763994142	14	-1.2815090827370428	0.4562413535076165	1.02452556332505
Si	8.255674856556096	1.3231602625639132	5.139080661506899	14	-1.022789295902354	0.7126618008544967	1.4409839471034835
Si	1.1727036567686553	2.0464192506774324	1.7369135047524709	14	0.5227918436143294	-0.15476794185684564	-0.2436225135053111
Si	1.8663416694129966	7.3376836118408155	12.83980023397711	14	-0.43609674332425635	-0.3623944666590196	0.7113950172632597
Si	4.470430802386422	8.036249451235955	10.047711324962808	14	0.49149275011003885	1.1788785287832237	-0.22255693339627386
Si	12.154004086162173	9.569263390431203	12.272379958110115	14	-0.4223076483817702	0.6539259282578418	-0.6304694773115989
Si	2.0434830526134378	11.872849271543801	8.88918728884471	14	0.7011990420056805	0.3620854197995378	1.175340430752168
H	10.027421088341336	4.3451991849588705	11.895743306448441	1	0.3687142435359435	0.5546722640315055	-0.23461387468457623
H	11.984535597902548	13.338427605203245	4.113184137939809	1	-0.017013261013951852	0.45875435184752933	-0.6438551658293539
H	4.224621164462933	6.21468480229888	1.564619618355795	1	-0.5419743461868901	0.442393894474363	0.35682236720919464
H	12.02370337207697	6.796522918659359	5.944457630475283	1	0.0826931748592626	-0.16174309347987537	-0.1490186932504625
H	7.849025274683684	3.496277844701808	9.387163710500054	1	0.2348113355731636	0.884926628636014	-0.4638345988496098
H	12.917124732992594	4.263414988883921	0.8634056607067123	1	2.1669267924892046	2.818721531547176	0.10827310168941584
H	4.43338207681479	9.639565944076663	3.0642550795594032	1	0.5020800475973446	-0.15024331071444905	-0.2780454999735816
H	9.710394797375104	3.277808088751553	4.591313522681453	1	2.9334108265630214	-1.1508038584609308	-1.0619881105027995
H	11.639961675100064	2.4351746443485176	12.944810864737526	1	-0.3392138953136285	0.24372047261800875	0.09114902603616559
H	0.40994726469805887	1.948970714930888	6.2176210003628745	1	-0.41329566712411914	0.46877523483280636	-0.8799235147935378
H	9.631394449464603	8.927981113265696	13.183238457528425	1	0.6145396800795575	-0.4660907437680398	0.4524844544138162
H	4.214261371293744	12.792419415218024	4.065872569135063	1	0.17544271395722036	-0.2933631170288958	0.1335077290750732
H	13.079571275882195	2.0628453398467617	8.129446039786055	1	-0.3523923527425795	-0.03445718216902851	-0.05184711011238205
H	11.051904912839898	10.819169666295705	11.598300902569422	1	-0.24891667647002802	-0.38006670196652537	0.10976151455924955
H	12.768985230669536	2.8756043539477374	7.8303970369663585	1	-0.04914282153665031	-0.19587965881548142	0.1902000871632743
H	8.571897848051988	9.582559381664387	5.121532723077269	1	-0.36295136807136363	-0.3099243777275656	0.42509266966455456
H	8.191881798618548	3.258972101171209	2.5625668603514615	1	-0.051630880154957606	0.3139563850906219	-0.2854901354280704
