145
config_type=liquid dft_energy=-13880.680477473135 dft_virial="-50.944860091594315 -1.6001832999801708 -13.48691077071702 -1.6001832999801708 -40.61684775605156 14.543129320856371 -13.486910770717019 14.543129320856371 -36.31391583354391" pbc="T T T" Lattice="13.849990867899999 0.0 0.0 0.0 13.849990867899999 0.0 0.0 0.0 13.849990867899999" Properties=species:S:1:pos:R:3:Z:I:1:dft_force:R:3
Si	2.8237915381109233	13.418466702428839	6.423473414632473	14	-0.8724030317321048	1.8776545611351967	-1.4203569975620634
Si	11.53261039588297	12.672630844201556	12.608422286537973	14	0.14783289947681025	-0.07428848867823054	0.44868024698212505
Si	12.61897597957931	6.236456987943219	6.3032000939356285	14	0.5133767130424792	0.986379873463737	2.385113618172823
Si	3.576621641726496	1.8625744718969275	0.3877803543139849	14	-0.06693538457313905	-0.17931402723776732	0.30780732960695567
Si	12.396157326496535	3.961485187963701	5.835721352171401	14	-0.20167775842294733	-1.414085300354626	-0.3815268326778375
Si	10.60711245611729	13.245314116598353	2.7498048868946015	14	-0.46110948432078486	0.9909019335008135	-0.8071090407953482
Si	7.0163361237238	7.180195365681926	4.244315851477087	14	0.9053728294734276	-0.18794368513431234	0.8849271428570782
Si	6.987334242846417	9.634053647711239	4.32423029878487	14	0.092579846146828	0.5004057438128642	1.088228554289699
Si	4.713498142118067	11.375246799641891	5.187555629544549	14	2.13638128995425	-0.0240843148654231	0.47689967053394233
Si	10.326386991215825	0.4725007484529292	7.258877163802465	14	0.049397875184409	-0.32593927854570404	0.3692850289170164
Si	6.773061034129137	0.7841601679578489	7.343237458178843	14	2.8698641588018377	-1.162231907387925	-1.1881499345676776
Si	9.408977446116996	11.772492237715	7.77188082554948	14	0.2624630590702922	-0.4732397021107115	-2.118220544635916
Si	13.11487490260447	3.2532382049518986	9.321362403886662	14	1.54878756496144	1.9205778789024088	-0.8274999628683786
Si	10.323990942795678	0.86551224431772	4.751488667068717	14	-0.059776398919718726	-0.7620709889023143	0.3481703406963644
Si	8.055570188496675	6.219781598938267	11.631374680761965	14	-1.3122510177184572	-3.217876890742077	-0.2897085479268373
Si	1.462420535741561	2.8118389959919257	13.304841377348588	14	-0.9052368180019918	0.046373226885786795	-0.43837294286418343
Si	13.304647477476436	1.0573526228262633	12.95270535953223	14	0.5237102424346863	-0.24207650787630602	-0.14948637730819744
Si	2.9417796103145637	12.90772058919329	0.3657741038239786	14	0.12081315366737407	0.16519145993525797	-0.38294016927232283
Si	2.58130589799573	11.778530833733402	2.4822784632902453	14	0.26141327676807574	0.7197809343754547	-0.3786237976608583
Si	11.662315560360856	7.315357426561762	0.4718636488730058	14	-0.6644710596178972	1.1140079988926956	0.2716655592321662
Si	13.426264247287467	11.584160061893295	1.5479442293508434	14	0.9927423306889755	-0.4178688921570666	2.0176345336326786
Si	0.5018377991093149	10.24431194533265	11.845398589643626	14	0.6637323810594187	-0.48371824184297507	-0.4802853020195133
Si	7.896115243634544	9.584692280258043	9.037326791167768	14	-0.6206756229260909	-0.10285938232731204	-0.35875480996781794
Si	13.00183127714067	13.46119392425631	2.9031104358113864	14	-1.090731782429395	-0.9420653306077929	-0.5772560818320902
Si	4.4715249516649855	5.228870152303494	0.985083370477561	14	0.43352640933570435	0.1887800656949565	-0.23649643799998868
Si	13.805241547405814	7.338043711603381	13.007274323551757	14	0.554420809931195	0.8185098360059488	0.5963899905141002
Si	13.368177385587494	8.397124813289958	4.351944130511538	14	-0.25809372268923253	-0.02106917965648545	0.07387839737966692
Si	5.611365350102288	0.5753258506543925	11.435798959716351	14	0.036027870409106974	1.5722555858816236	-1.4482743162387632
Si	8.101219758397274	10.728078276357529	2.4951589547973922	14	-2.171271446259191	-0.4737984032967797	-0.2660854893558488
Si	7.161456328037656	1.6790620928972528	1.0150381307266552	14	-0.17694732479057101	1.0631114264171722	-1.4839319474817687
Si	3.8024734428093407	9.980317269399608	1.3683694027549125	14	0.007665750512021498	-0.5258152063602916	-0.45768194381849553
Si	10.051340022570198	8.75338812838495	8.91820301971296	14	0.7347640506286176	-0.2924323769030022	0.8249270577745065
Si	8.35675208991003	3.8306720242163856	13.42255244973487	14	-0.8160531448725473	1.0886329891565583	-0.5194082690130145
Si	4.43865892333546	7.642051011153786	2.659890746180195	14	-0.7517099486831816	0.3297278022349422	0.4324421742221979
Si	2.8405223270793467	8.229055174107993	7.027734666208082	14	0.13152797797855917	-0.618957610351168	0.26828275596244733
Si	11.199365765610429	4.726863383305591	9.623638454578579	14	-0.6647045159809667	0.6707854371736488	-0.48045833740755933
Si	8.758304875143054	12.708640820458095	5.48003973669286	14	1.6906889244646688	-0.312049139164136	0.47961887152053095
Si	11.706677081110739	10.561518286180164	0.6094743881382866	14	-1.4975338659569482	-0.5766588140662198	-1.4196121483508164
Si	1.7735605805889345	5.807661270673035	4.183362041667459	14	1.3224655049343415	-0.0858620621663451	-0.916701119514
Si	9.991605011956946	3.0662771782261165	5.714686281976823	14	0.882095327457467	0.342416721210937	-0.6621280113396464
Si	4.064404470103066	4.210147924005977	4.445805518623295	14	-1.5643995735759113	0.506393333882425	-0.8617841096493611
Si	9.798771589103174	5.623193242303475	1.9806733440275108	14	-0.13060417983702996	-0.4551828294473116	0.2026892312558936
Si	12.023537172186554	5.962171768795327	4.166492752790356	14	0.5720555071010267	-0.16914813391243383	-1.7214365158777878
Si	6.810691459317221	8.347888095754575	2.240637672617994	14	0.7589337261906697	0.3505825517077273	-1.8357499152958272
Si	11.39814083454653	3.5299748724834084	2.133064793547015	14	-0.9086489318723603	2.2917783812829358	1.5266050967013305
Si	4.752181166612112	4.328343746072636	10.447338961465196	14	-0.1135091576738974	0.03544037284345313	-0.10660702544195987
Si	9.284216728378953	7.914134081753681	1.4215769126721238	14	0.18245103283888	0.06335152086738464	-0.13186684965975468
Si	0.32280866215357923	4.144277367438245	3.5833804372700313	14	-1.2887832539088055	-0.24193226886784577	0.5346644366511771
Si	10.297454360292782	10.886522171886305	2.456074280568178	14	1.4520702961334297	-0.07158265743930671	0.19133831548850383
Si	3.584363786621652	12.871973762763242	8.354411441453355	14	0.5735786298926824	-1.0778335754803403	2.619474496093897
Si	13.819230038182393	8.418079849473092	6.97273635247165	14	0.45227953731980036	0.05325196205931097	-0.6994046676027491
Si	6.857601378386798	11.194961468514437	6.928208631831352	14	0.2700372782329164	-0.3517220655856169	0.010931054268609559
Si	11.578495415628323	11.86165847892254	10.34164968115225	14	0.3019824905041602	0.3507617577485416	-0.4515727404672916
Si	8.49009980198617	4.128183678049745	8.936069507932551	14	0.06014766652794812	1.4731818990276977	1.279098928609936
Si	12.00464578464274	8.348358995444082	11.514494607827759	14	-1.2347797577644153	0.32207979234962975	0.816637814222349
Si	0.47364475769861775	1.3007883723149942	3.5804026892334324	14	1.264452112932648	1.0686009933862204	-1.4521469150719704
Si	2.6760952354956378	10.75167866079643	9.926828604667778	14	-0.25214289942574974	0.24650960766930533	0.1840518030112042
Si	10.895940165676476	2.704086067039664	8.22815492470158	14	-0.38751956495803863	-0.29141061964877535	-0.7224613116717091
Si	0.39030520764920307	12.623975826282624	13.642448754744517	14	1.155078321055677	1.417104035111012	-1.6719939034608082
Si	7.744236243777152	1.703258026943474	9.888464129963694	14	-0.12596102073937454	-0.3199303483019859	0.2638023478315573
Si	9.107324645014135	9.86666424433762	6.098511078898935	14	-0.1066875010384805	0.13232964861738133	-0.24935479281658118
Si	0.4072672914651202	12.62498687561598	6.436381606121356	14	0.1867152110123456	-0.3782147348044227	-0.04286392523431668
Si	1.8468547322618611	7.762919881457949	2.7301101998804476	14	0.7339317838364857	-1.6768018704094847	-0.31418495635358296
Si	11.925839336604387	5.151254803479782	13.53875387311655	14	0.10623781471798661	-1.351247486330207	-0.14435445108918185
Si	5.254548035372581	7.7903567133672595	0.3121884891560735	14	0.08356220845747264	0.06610003245462294	0.10199780493453042
Si	11.92773678535329	12.417971062113478	7.739070197183426	14	-0.5962850894170381	-0.5461341374843578	0.06768743287928236
Si	7.290358193045201	4.5880726248183645	1.7094489728614253	14	-0.5173418716672116	1.1424485375020457	-2.24899750275046
Si	5.834336353084611	4.9409149921689846	5.799060426344069	14	1.2828758823252333	-0.17922943787273446	0.7064237851267534
Si	12.619502279232291	6.609991241650482	8.809896091125983	14	-0.27143415975335283	-1.3019239160895504	-0.6010213225272829
Si	6.61422933885606	13.275091596964337	5.083154398382318	14	-1.7069221121244875	0.18575644583846235	0.3755842369513792
Si	3.6943188641219096	0.891681802062617	9.880818935004614	14	-0.4568640752161564	-0.11935867938776629	1.1098358662896914
Si	3.2283359213714142	4.095746999437123	8.472634963501749	14	0.9970453325527752	-1.977458956121109	-1.9830845345615924
Si	0.2700872869158311	11.109299274996477	9.091092455716955	14	-0.1516959852203327	-0.012168013038132799	0.6294796017633418
Si	5.566602179617235	12.786519319108297	12.91636298349486	14	-0.9556014287867763	-1.3592366818915032	1.105406108933608
Si	9.012424507587284	1.7422734512183482	12.578603256199383	14	-1.2148035549795249	-0.30370513106865943	0.8801698266832081
Si	4.9753599194574525	3.0243948058415873	2.3554956468854886	14	-0.055026796061809186	-0.17061134995013014	-0.43358914430551593
Si	6.359971206503151	10.98844425468318	10.058597417784979	14	-0.07746431796967744	0.7452947837988801	0.3501886583726806
Si	10.554579440755344	7.937803716146924	6.765582039060471	14	-0.07214624372548316	-0.35002333630059507	-0.6615196878208992
Si	10.993831901130793	3.5063606380536387	11.587871859445892	14	0.14901097993450205	0.9052499306391245	1.426236344097646
Si	12.315093329946718	1.8077977580143831	1.2261410765342737	14	1.6628196854574555	-2.3684178886659093	-0.6233583142171335
Si	2.5583703131184876	5.629993587819614	9.781500650490903	14	-1.0481609632015754	1.9815249020743912	2.524331257942881
Si	4.086716805391252	5.901342608903511	7.054631348473544	14	-0.7232694100738317	0.4174670283955274	0.26633642923509526
Si	12.993050382930424	8.770548267070277	9.393340806427139	14	0.27376023873649086	1.491885147568583	-0.39907205538252793
Si	8.258195554894053	8.333456405270221	12.070086991493566	14	0.770678535293106	3.2662568653302393	0.10408297134917051
Si	3.512773183825477	8.32244566253024	10.311456701060228	14	-0.10999419959072294	-0.018926163372142025	-0.0015676029136942836
Si	13.446540633918072	1.505217007523372	5.599828307709328	14	-1.7334523194809677	-0.36643907243814455	1.3909250407412643
Si	3.5724666444661257	2.563744109575233	6.075423144122146	14	0.0005389036751030374	-1.0529717583661042	1.0699425961422737
Si	2.729140700519695	6.723533466785526	12.226522638346497	14	0.3427841321611862	-0.05175480743138874	-1.2799777324083625
Si	12.891793099695205	5.887631117944289	11.375911599203551	14	0.4206217746233491	-0.6856238001972875	-0.6225808119683206
Si	1.4001371268086147	13.46066762460333	10.339350582668178	14	-0.0763487153712652	-0.01303858929953494	-0.7651439739809553
Si	9.664260477794128	13.827276882876644	9.674869570798942	14	-1.393420298454468	-1.0486546154230436	-0.8227125647622631
Si	7.765620629677191	12.768057281281386	13.782915362126758	14	0.807783184610291	0.644951228027333	-2.3475860220304736
Si	2.6807349824363844	0.5600562357225327	2.959493748634608	14	0.6024477717589011	-0.36584848954610655	0.5387810333792663
Si	5.557128785863592	9.129927830110548	7.381615782873795	14	-0.6561409354911494	0.6404175980163159	0.7460866842374858
Si	5.23324674941775	1.516421650135503	4.480485895756518	14	-2.4579252639551603	0.29064134493698707	1.0515309109446933
Si	6.885980009675125	1.036670431463228	3.171467858867817	14	1.8576986700823355	-0.10747991569815013	-0.29333046399132995
Si	10.065522413218927	10.305847454758728	11.360191859568484	14	0.20704725477354458	-0.8906414244311072	-0.07927129078867752
Si	0.9387052910573112	7.528176386237912	10.538347251458166	14	0.5929729915436234	-0.4342972267106847	-0.038038731879994785
Si	12.175360772080474	12.767295531783653	5.14302790890425	14	-0.49369875847472583	0.12481122244020433	0.1428598675665798
Si	7.656676601510289	10.425649875766062	13.449961581662443	14	0.20786383782322365	-0.8244408617584665	0.07268617584271425
Si	2.362960791963287	6.155379141402532	0.6415758969719053	14	-1.0292494551297582	-0.5011503359135789	0.7277590741838741
Si	6.051795059701508	2.5299639818484247	12.8134852513281	14	-0.16514338026577116	0.11122858725492606	-0.012711544702812104
Si	6.898860501182272	12.80669875580283	2.000741980795098	14	-0.4903061850047905	-0.43665595873138857	1.537063324701565
Si	2.0236775656723403	9.088322457543375	4.876678734523665	14	-1.9598101178720162	0.7376796840616655	0.42300313237087017
Si	4.938712843620989	1.4948018143907111	8.071733127839515	14	-2.8665345774122457	1.5197186482118459	0.051128486175400674
Si	11.143536452421923	9.664426677684544	4.364561472192195	14	-0.21430779908711076	-1.2589954561116978	-0.5268732161995325
Si	1.0986962305660315	9.905513468722079	2.6785189838975203	14	-0.9896302648094683	0.6957881508594289	-0.1532761865500957
Si	10.213010965971195	6.484718074250326	11.080615943909054	14	1.5696317729024125	0.7641713248383433	-0.522195347180055
Si	6.4959504168441935	5.762995050124058	9.560177796421861	14	0.3885366942226892	-0.5743939273897013	0.5794384360278318
Si	6.156113190918531	8.081109571657084	9.921177808393676	14	-0.33899535136141595	0.2456279756550266	-0.3515117491704288
Si	1.2956791106838261	3.6762307760484325	10.76011330523498	14	-0.12736947223375164	0.23546491054554528	0.354136590591768
Si	13.436831790319673	0.3324288658104225	8.100125609118711	14	0.4561225684418257	0.9110377458253098	0.44500536614803743
Si	2.5194102888070855	11.76376674346822	4.856623947746946	14	-1.5344701078756635	-0.728174050582546	-0.6937873166992896
Si	4.225549113851082	9.061813575022214	4.67489821756923	14	2.247522202517758	-0.3704862493225896	0.008909394155377124
Si	8.47777331011374	4.929641099602515	6.292120101241309	14	-0.19226159940896903	0.39460990209941094	-0.10715621353834351
Si	13.724911600371994	3.956748491086879	1.2946929913340315	14	0.34566325589868796	0.11874341388465486	-1.577296237861774
Si	7.516542393908877	12.84909357784947	11.167926286340297	14	0.2601886593040892	0.19846773343074245	-0.25650169427499686
Si	9.782913349559427	6.6633552564645	4.369228919114677	14	-1.09526386977722	0.30039611852162884	0.05018026253333006
Si	1.2721133512220941	6.243354283395433	6.329141126831206	14	0.16817265655396965	0.16188399005141946	1.3580501167862549
Si	2.22767408116564	8.419229398715126	13.826750583223664	14	-0.3268059981491259	1.4778250581253531	0.19053484507595758
Si	10.66184762002723	1.2782876771510039	11.125808464111012	14	0.7298128731136084	-0.4699263186846367	0.7871258960260934
Si	12.761049185902229	1.3557465210779083	10.305154955215334	14	1.10897814555489	-2.15093400317682	1.2095687845477032
Si	3.157631717990785	10.351510874650195	12.510641351010598	14	0.040684399254427156	0.12164362068578187	-0.2844907467901288
Si	5.612667249243871	5.503307721350932	3.1729636578815503	14	0.06101130080498586	0.4166699857462815	-0.028929819951774172
Si	5.8389622500344895	9.525802119087732	12.009617931364316	14	-0.4169921452428961	0.08508738813338448	0.1314138209023446
Si	8.357721589270783	2.5964162380326092	7.364704944024089	14	-0.38787977681339136	-1.6294845336501398	-1.0818298444794463
Si	8.071871627748195	3.4576917701438385	3.344343444880945	14	1.3276763640866855	-1.9518785150698919	2.522333766219658
Si	1.174702210450893	2.693947873724361	6.669435402455508	14	1.5035685072538678	1.2468402986001659	1.0812968543465797
H	3.5977428778000435	11.728158416946851	6.711857924483887	1	0.40161153610723827	-0.06567245763988232	0.10685076622630992
H	7.223268837281094	7.485019814693536	12.851226476443127	1	-0.7676875684741779	-0.8563760467189618	0.7731177429103306
H	5.916480648922125	3.3209508103050616	6.104064925236963	1	0.03241238210791474	0.7479419938365046	0.029697294889838372
H	9.19665708611209	11.958289865207878	9.249328601382713	1	-0.3169851471577563	0.11516417816847671	0.8159677841759184
H	2.621941771202149	1.7857070225800826	1.9315335764282018	1	0.008903480613140783	0.22991209438562143	-0.5075529023818117
H	8.402775609564062	13.515721338303232	1.3662434291566898	1	-0.08485907398095534	-0.13376226850176787	0.35892758824533194
H	9.71694584305562	0.03881182940911617	1.47390217817105	1	0.9174585671413157	-0.24379734866708114	0.8377522453324691
H	4.442121421052434	4.302458113140531	13.613169874049778	1	0.30524959403447244	-0.10512761144074667	-0.33723697243296663
H	0.578540433534832	2.467888322778497	2.070518234787578	1	-0.37761643859642424	-0.4347749380791683	0.19925449165870776
H	2.225527332581115	3.847582863066091	5.7169161305065535	1	-0.7061522764049458	-0.39640659049713045	0.23399526674454862
H	4.902467417519694	10.421674928386977	8.37824727573701	1	0.3515796263508807	-0.77835097067896	-0.43455459435323146
H	9.774132455349179	2.2867165922354973	0.5310529698460632	1	-0.20981093588217176	0.08572862180022942	0.04843551046307757
H	10.689270601945672	11.82894480049256	4.655078880637265	1	0.5248623547286447	0.8828334917948816	0.2853376688825856
H	10.153788405020055	2.682327731386193	1.2962317253194553	1	-0.5180502111829124	-0.4576302646015606	-0.7535300341393145
H	7.672340941181884	4.158238158233089	4.881013781665318	1	-0.05121847486160585	-0.09328432900454857	-0.6136264234698409
H	11.406229229213384	10.448543910670702	5.572322225845679	1	0.5565926225951241	0.7529690189584581	0.9114491226765336
H	13.417760352894575	11.483442928301926	12.598824242866517	1	0.12266229261362456	0.3198606713478099	-0.08278676309291598
