145
config_type=liquid dft_energy=-13881.696553720914 dft_virial="-25.310216342369284 0.8342419033433207 -7.3081542175923655 0.8342419033433207 -29.798535354508793 0.6171438641691817 -7.3081542175923655 0.6171438641691817 -22.314751262528358" pbc="T T T" Lattice="13.849990867899999 0.0 0.0 0.0 13.849990867899999 0.0 0.0 0.0 13.849990867899999" Properties=species:S:1:pos:R:3:Z:I:1:dft_force:R:3
Si	5.704423438743708	9.64169884267032	5.1319617662007975	14	0.2923372460061567	0.332138727693645	-0.23547390941416577
Si	6.575089264663374	8.741643336128972	2.7638072276620487	14	-0.28017977449983655	0.27704482578297995	-0.8264108426547639
Si	8.934199759165384	3.5961085788776312	3.3860734673659274	14	-0.3876501771083022	-0.4786320812986581	0.31535378083212234
Si	3.6918951157200275	7.242908124331777	3.4353101849013123	14	-0.5551538320579693	0.30933302350393155	0.9322907595121858
Si	5.345348575502533	12.13292440006123	2.9906562280873827	14	-0.1982589596787464	0.9650867505338666	2.049108462298739
Si	3.8573886566005644	12.55831301957791	13.403744162136261	14	0.5504592508539108	0.23567137030275315	-0.8690017165040809
Si	12.923481878800962	10.11338798165839	7.288336094378487	14	2.903292898842807	-0.08096873452103928	-0.8635430027988744
Si	11.43876285776208	11.975173004075847	0.8912109023731084	14	-0.9787727441530149	0.7555005292566759	-0.5228126695674227
Si	0.558312521872264	13.166230668742644	13.752542332153453	14	-0.5694692322594898	0.5895202542091966	0.1285542375652759
Si	6.849762283555567	7.485781564191271	4.910472712241341	14	0.13013161067918674	-0.6563713065278348	1.8429382115498973
Si	0.00509956663756078	1.5369196366199949	1.0914803853238555	14	-0.27226616943495274	-0.36405308670104713	0.049299144740115305
Si	11.323226233942059	4.223457765230029	8.77633756325306	14	0.29907277061334864	1.0197721038091605	0.17058049668628833
Si	9.763094012627464	7.231717331710513	11.2540455295569	14	-0.684001175629742	0.20803327366382138	-0.09571530908474858
Si	0.31885864475805414	6.010009637253054	11.457889695150651	14	0.08827427317770803	-0.1575419073867534	0.7625898379559202
Si	6.259835772528234	1.1789929376217685	4.908699913410249	14	-0.1790916266275745	-0.7348607241886552	0.7522321401737037
Si	6.080949290478438	6.252758427194737	13.207489791538118	14	-1.4754935798210427	0.7203239518190699	-1.0767768511937594
Si	7.618672226568772	1.1684323195849948	0.6946919969493885	14	-0.14431948405682787	1.4022661863084374	1.0018206464638864
Si	13.431361043926854	12.232159584629732	6.025023027353858	14	-0.83499216377129	0.5375160495617534	-0.3770921902216461
Si	3.692878465071648	9.048960783496804	0.2855341817308	14	-0.14915676160615446	-0.4126348930568411	1.574581921975294
Si	6.6045066452667935	2.7293207504009773	10.641765133268775	14	0.14117810757667093	-0.0799603470144772	0.8394998256185737
Si	7.417016359532147	6.450702496678764	2.8380985786774637	14	0.24687958972487467	-0.5275201062980818	-0.6844259222286304
Si	12.495600260928057	6.808087661034056	0.9738302528973923	14	-0.8067043488179568	0.2814334454539408	-0.05301002104868504
Si	12.17196752431784	6.67543244850131	9.403465149751572	14	-1.2191649209340918	-1.1677811240004008	-0.4804408538913823
Si	3.5103771354053297	12.271701308557587	5.526312556182514	14	0.33821399245462297	-0.4934393339479229	-0.6991316162177494
Si	4.343620285999929	7.547677173379915	9.988862713765101	14	-0.8285903686346535	-0.20686316363262197	-0.25539714742946124
Si	8.681728275634434	4.0908579526607545	11.602081950076357	14	-0.18606163603996395	0.3355454422428413	0.18032987094975786
Si	7.4024046191665125	0.5042698575057183	8.948506799731925	14	1.2424753330981506	-0.6550723841200959	-0.22833703526649876
Si	8.666548685643216	8.203751240792338	6.7451256025485815	14	-0.7022819915665269	0.040355811994512235	-0.5410243227710955
Si	0.9971300925344605	9.087837707862999	2.7114127122087828	14	-0.5040734255520554	-0.5637117561160822	-0.8189698067477234
Si	6.683714743040313	13.367263286190212	6.8195693034635445	14	0.0876469234795919	-0.3497765101898609	-0.02364954095578606
Si	8.970929934947055	3.3180977121862747	1.1849719786794408	14	-0.4081891948477731	-0.19784604016433066	-1.920736001879598
Si	10.637970235770972	8.453148026350613	1.8506634797505335	14	0.2723898396008519	0.04381831952915565	0.4643796731774813
Si	1.5012143601625487	5.765654248370694	3.124668739725183	14	0.7045605051012421	0.27835506105412744	0.6993283057747408
Si	3.4859180515326185	9.336223444087919	6.451034896459594	14	-0.8508733671127808	0.6956637093619337	-2.2338112691770053
Si	11.60100165078866	1.1710444278626808	13.23940017049776	14	-0.10476482848007376	-0.10034252732941906	0.4700222209130782
Si	0.36575748383493717	8.856307410524316	5.697636943218438	14	-0.6283277465799156	2.1026607294594437	0.3324714287220722
Si	11.198493216185753	2.800828253251945	3.4554065216506347	14	0.2800635605393659	-0.2537914921570288	1.2900122422518363
Si	0.665649951098489	10.911313655539844	4.390003905416528	14	0.7734316748699207	0.25816725630138876	-0.2948890680364037
Si	12.996041980957889	11.46910818775365	12.70056627578211	14	0.42307255221451423	1.711979990510283	0.4932135909008139
Si	13.441499237242157	4.819658322120521	2.045394351353208	14	-0.5137109567340985	-0.49844579022731533	0.2552387673417401
Si	3.1649860631416398	4.198915581412111	11.69176064094601	14	-0.7527031666683549	0.4344406943875489	-0.16389922240135155
Si	11.036974622684301	5.660449717738126	5.018364141102282	14	1.990538425995234	0.8215005457143452	-0.015502222417300829
Si	10.952018778700603	10.008972900505293	8.077453174067958	14	-2.536784149450486	0.38401617684880485	0.4675099939047616
Si	4.999334253649787	7.047193903377481	1.5232635456242456	14	0.471702181129263	-0.01640493749520482	-0.2710600639292713
Si	11.876519519123796	4.81339812624823	12.372626192011975	14	3.270921878823116	-3.2245082855838025	-1.5001031715033724
Si	4.805115831709226	10.214866864747494	9.62982940049653	14	0.70903679946362	-0.4688670232927357	1.9410140524290738
Si	5.537586448748986	13.701449715841772	10.074192507502234	14	-0.5751724580806422	-0.5633487160448774	0.9625297862929794
Si	10.143802561604298	5.589330014631459	2.3697749874702936	14	0.016608054815496515	0.5249119770613235	0.10952060199075168
Si	13.579472846268176	2.5083856960762367	4.120940132825834	14	-0.06600001645766916	0.41694972200511354	-0.7740399983886678
Si	9.131451329106016	10.854667192890133	0.9682874865520588	14	0.32898398146582336	-0.30523416740255155	0.21746408797812455
Si	7.390604426947062	6.004344990988082	11.1833274761854	14	0.2977820757426343	0.4969254956515117	-1.035793946611663
Si	4.124665780369299	4.307070160099541	0.5723245576333185	14	-1.8444816460735822	0.00810283841644667	-3.397240797423055
Si	10.534053754289117	11.245901734926573	5.663178165939102	14	0.0002661094006353262	-1.227745470719022	0.09434670972283375
Si	13.048284146511609	0.5313770596323721	7.558964915937254	14	0.4116586443667809	-0.024079172654782804	-1.1753291178887593
Si	3.953424493278583	11.289806205977817	7.7284472541877465	14	-0.08055838611194364	1.0978565723820575	-0.5136538781959911
Si	4.9704985726628195	2.3323384621543597	7.143645239781537	14	-0.5399652844897265	-0.5475904115376896	-0.358842998880299
Si	4.822663770138854	4.347719883296828	9.997685157947954	14	-0.5736035696142879	0.08389850903334801	-0.13225328678937293
Si	2.832378532449021	1.374222408895687	7.989297982193776	14	1.2590551057551254	-1.2000569804158154	0.5039656962391412
Si	9.109997693251639	0.23155661232133326	2.5733006032740837	14	-0.11063723303129198	-0.16048967963630315	-2.9498499597589842
Si	2.171650868104984	7.35427590090056	1.291907758170497	14	-0.18928760188515373	0.19442904119385385	-0.1567919159648662
Si	4.449448066221554	7.345993606361556	6.719212269634742	14	0.6463990174331085	-1.2195973808489409	0.02893290527815835
Si	6.4608406899940665	10.924263397001331	7.447860289194961	14	-0.49367279031099237	1.0313245942336497	-1.09630645298454
Si	10.011881398587551	10.182208586280986	10.305681254868315	14	0.008161716728278062	0.39806829586554215	-0.3824940824992772
Si	0.8360879387188664	9.483365747068488	8.90924207562143	14	-3.6773809769009613	0.9730332657468483	0.9931927883410655
Si	12.214431596318821	9.642945341848431	3.917580716912458	14	0.34695575054312644	0.6085965701320352	-0.4968139096806173
Si	0.02743821690839669	13.438202939415596	3.54968340948843	14	1.7011870045973654	0.24337645872617292	-0.21342025353059563
Si	4.325518347935584	10.280335771580058	12.367654045290397	14	0.8182987482591646	0.6310466904559722	-1.6432779994716702
Si	8.235287669998547	10.38267335410297	5.753992556059923	14	0.13204708414269706	-0.1685884042842376	-0.263258816166878
Si	5.278882469327481	2.0233036159189073	1.0953611527650413	14	-0.12015520781594817	-0.20136176957910115	-0.3731972227721537
Si	2.7907316099092463	6.054094158185579	8.249636260537692	14	0.7731439681845961	-0.2932535879422575	-0.10077473013373597
Si	3.1213031919442833	9.808480432701572	3.556802304794531	14	0.4877227383791057	0.061830712070517053	0.4387622082096539
Si	11.267646220589176	0.9332594746480527	1.971795499881187	14	0.8008993072261267	-0.8476607710152558	-0.6190745956432347
Si	1.4934722152673927	4.438575823390252	9.50175853494106	14	0.37689987154369897	0.35367122052882116	0.9619106641318879
Si	2.689183476865803	13.006000124391909	8.968907836280342	14	0.01784089981650752	-0.025752447997135174	-0.028955273894443637
Si	3.5286175733783542	0.13063449886511957	2.0062542771605223	14	0.32380680379317317	-1.6079373855146388	-1.1494141760353906
Si	3.5249750257800962	0.7795148810207553	5.677679106377793	14	0.45396566818875345	0.41671986518949233	-0.3353428391436136
Si	13.396195917113255	11.704724232398366	10.319725145608365	14	0.2525943855199678	-0.36947657626336744	-0.4783811414194116
Si	6.492598719054161	8.214568083660168	9.396678654226301	14	-0.1459508503824618	-0.655212509360044	0.5755609520945166
Si	11.871616622356559	12.469285278279049	3.3244825579763764	14	-1.5310155707675126	-0.40839488327338486	-0.3085850889663005
Si	0.531582039497217	7.08630627758843	9.340350741366553	14	1.0702570423229276	0.5797407980134813	-0.5994393214237957
Si	6.218507399778421	9.080774212520371	0.038153954842890914	14	-0.9761445602947596	0.13461279014167282	2.1374742668258446
Si	1.46532903382382	7.290205843145654	6.722702467333452	14	1.2706353641170725	-1.3023987992421817	1.2002094469613003
Si	6.983691695248159	2.77520577014633	8.29034138369845	14	0.91197439949344	-0.7329943588367598	-1.216265228354029
Si	10.98923370416265	13.356834243066682	6.377436044987573	14	0.23661650861843958	1.2794406285069835	-0.11652043622485482
Si	10.93014964312019	7.449480738126505	6.650502464939089	14	0.5605919769206145	-0.14253333719092098	-0.8161248787109795
Si	1.6499909620655306	12.26805876095933	2.079382228943034	14	-0.5380246141940788	0.134008580391438	0.3389704116398105
Si	6.863861574259089	3.721437146241258	12.931694923385626	14	-0.7624381427420315	-0.581538771963861	0.776754828496212
Si	10.989496853989142	1.873737564536455	7.801505956015919	14	-0.34078381222211096	-1.150823141750832	0.04195066862460009
Si	3.8426938162897226	4.119984483455949	6.134562605128079	14	-0.9414858034686315	0.5714327853924868	-0.2149945413181223
Si	1.2161122981468273	2.863444061965721	7.609184982824259	14	-1.015653707307347	0.3802384518019113	0.7851782837460812
Si	11.553606982038708	3.3928184129185945	1.2460213534260574	14	-0.21439984465757206	0.381726350450681	-1.5381696713208246
Si	1.190492585039386	2.8479874721571448	13.173127964194858	14	0.01839805833938361	0.3524031513849241	0.7657854647583323
Si	6.676803597597232	5.1764756368502285	5.862424134564711	14	0.6497707649499506	1.0878277189702876	0.41744645955296616
Si	3.35222408968478	4.12359933107247	3.7250658438486477	14	0.18554947186019044	-0.15608640466501758	0.19406034469094463
Si	13.038256753123248	2.6318445146726974	11.986086796879754	14	0.06991118187067843	0.3980289579541439	-0.6244356073462755
Si	10.200462874244879	7.871614609789228	8.904325328863324	14	-0.39203365456862255	0.02258921712175699	0.6828698892888768
Si	12.278529354055461	0.7140182742064561	9.715893243749662	14	-0.6064311852314065	-0.3731396300129824	0.7900885806865
Si	9.12035748642083	12.80635250603113	10.310348701790797	14	-0.9282057873795345	0.36655991438819147	0.3305369290791928
Si	10.250308991378448	8.554363759613226	4.545525452872176	14	-0.7626271189830623	-0.17825370340373828	-0.08307524110983659
Si	3.9100463218803205	11.322949234124701	1.532639989441814	14	-1.0689210959985789	-1.926990986902454	-0.3598213044546154
Si	4.335919691077377	1.8672003688468062	10.066990512250927	14	-0.7494453191171953	0.7147245986528515	-0.1765395474867955
Si	7.4757957207755155	12.446709793164372	2.1651690723788066	14	0.5945223396095447	-0.8298409542623736	-1.2596428604313112
Si	10.452795857867148	3.703875357820761	6.52103275030596	14	1.9620176688998954	1.3490481628393525	0.20693438324999008
Si	4.019779799526693	1.760444639237033	3.340977897100045	14	0.17900832281520174	1.5248336051357485	1.8934537462169747
Si	10.416093382067212	3.0916088115235056	10.667249116465712	14	1.5823569444634216	-0.7538473085358207	-0.2700848436813391
Si	6.818793703974942	11.563205025710163	10.441286515455923	14	0.1881874259186624	-0.28049113535410647	-0.1065296351718234
Si	3.1927275948500435	1.9223233325010483	12.346892908979415	14	0.9429271651111064	-0.3068431651119002	0.5318171946196452
Si	7.025864917440916	8.977328630728024	11.886311462667402	14	0.5405995761722071	-0.026110088747167772	-2.3212735872946104
Si	2.881144350294897	9.097698901360943	8.648072797825439	14	2.799515631916202	-0.9316610958192817	0.49937138814256854
Si	13.347374699303908	3.0736315233769718	9.421193138062485	14	-0.2139804973798559	-0.07252265354435283	0.5809875269832211
Si	10.40753408771085	5.998735744686583	13.168543617217583	14	-2.8443356540780873	2.322464266168371	2.4624915470037436
Si	12.206246251715893	9.393049956618912	12.728570957317004	14	-1.622645393498546	-0.984501423916837	0.23750019751697446
Si	8.541233968270458	2.6042553328638407	6.380206043161153	14	-1.4138716415025219	-0.9100548122614172	-0.1845817078176867
Si	0.4715381740876102	12.312074031937517	8.153517323914464	14	0.6908264318126072	-0.02262701236996317	0.7924632535601888
Si	1.575436461223625	10.18370438529472	13.536662524495497	14	-0.5275576444357559	-0.1720575966927134	-1.1647587896965665
Si	6.220958848162039	12.713626817170539	12.33071611964571	14	-0.3488712240066367	0.6357708393712124	0.6259361044111138
Si	6.803697213928931	4.975096769630962	8.980417178691567	14	0.3087511823699821	1.1298933160026985	-0.05588091724916238
Si	13.528033980184796	7.522941089689846	4.0525904278927465	14	-0.6070698477929313	-1.1119763114687147	-1.1800249846454778
Si	0.20025147796261894	13.833481678785462	11.296675801448295	14	0.129632559136546	-0.07157597256547431	0.41579066772679085
Si	8.69693556560739	0.550503897020942	4.613321158170547	14	-0.5170137986283606	0.8402017373709741	4.134007224875004
Si	5.381663251558167	4.31150215717727	2.2500556664081657	14	2.3343250321207463	0.33559969256509636	3.2531676252558976
Si	7.761991932069799	5.552821438703675	0.5915995899241748	14	2.382209554713716	-0.9038106258809057	1.320093660276505
Si	0.1965826153817122	8.123116593959425	13.506746544220833	14	0.6923909493999173	-1.0476071471156154	0.39668915497181473
Si	1.0804931875683506	3.8117806366725695	5.574191974612845	14	0.37249505390922133	0.8927373894880919	-1.1069040348931265
Si	13.010695271296127	10.50910992073603	1.6015575440004843	14	0.8607314991312927	-1.1583752494077029	0.9269058365296677
Si	7.886849599743918	10.008474300834047	9.006690611367972	14	1.2483824475711909	-0.22424306426522692	0.16771397136485525
Si	6.840538189637545	3.3999096082429596	4.419947585672927	14	-0.17182079789272775	0.42998496886773235	-0.3574564017811432
Si	8.528284226808971	13.757375978966351	12.87025636389562	14	0.6608918239017191	-1.094046194297598	-1.3257493206492346
H	1.5132915521993575	9.68049266709131	11.992887142395892	1	0.20939390259924373	0.48947674642851063	0.43384445506380664
H	6.0638030017839775	1.678743543107291	3.3739962753291186	1	-0.5463246563885807	-0.27069291008955415	-0.4653721198310585
H	13.201894395227486	8.856792160204693	11.702799083667728	1	0.23997951437719328	-0.2557488746372575	-0.694366586727919
H	2.586721244425079	0.8941097054617598	11.427585915131685	1	-0.5699975944027802	-0.6487675196540288	-0.49793465448966984
H	11.358391360755657	13.190121902989771	9.451122968328017	1	0.07060923696509863	0.6220858741941921	0.35450605842627325
H	7.094851721953926	12.063466695858711	0.6037958918824476	1	0.05828644338669292	0.41622955540494017	0.5764402701140072
H	1.1502583615681365	4.399989748832283	1.9192763345101103	1	0.13707333793305454	-0.08165701941524292	-0.5976606307633174
H	10.610713453742944	1.5028071091123574	11.898333254740738	1	-0.27739835276450037	0.23762900989351388	0.28035743787745876
H	8.601204428728463	8.15375277375922	12.074754438416049	1	-0.004287061010814906	0.38580103816205163	-0.13715201375585107
H	0.8514766635721901	0.8434976838331929	4.1075333416657065	1	-0.3715920817207853	0.02515698000498888	0.27124466929125796
H	2.131111944834641	13.291074486425893	0.34453237282988036	1	0.15512815371219837	-0.0752670513630789	-0.4909790432670732
H	5.300211455264047	4.957756581064351	6.5408382372470575	1	-0.5043706453270644	0.0886524827703018	0.2475429348974729
H	13.197171548341531	2.2395712233211658	7.2604006627979345	1	0.1543545081213658	-0.7818520447934056	-0.0667348383581675
H	12.296008042530751	5.883393020738712	10.898599363923113	1	-0.0029372307177371656	0.13708233680167506	-0.07848581811337227
H	10.155990553568051	13.512605090357955	13.478090913115148	1	-0.8566444701143853	0.034836934424814385	-0.22470869143870573
H	9.312816959521166	4.327208046821468	4.8152678750153965	1	-1.0528848550062833	-1.7204456118874025	0.25509272855955567
H	9.599068570778924	5.091048893177021	4.845751704915645	1	-0.6891431291595063	2.214849624551445	0.1417401511996553
