145
config_type=liquid dft_energy=-13883.471148992763 dft_virial="-45.39056531407167 -0.7952130423681946 -0.32442740685573584 -0.7952130423681946 -70.83982197366485 12.369709625304035 -0.3244274068557359 12.369709625304035 -56.58453050250003" pbc="T T T" Lattice="13.849990867899999 0.0 0.0 0.0 13.849990867899999 0.0 0.0 0.0 13.849990867899999" Properties=species:S:1:pos:R:3:Z:I:1:dft_force:R:3
Si	10.382188604422593	4.771723503726719	13.076524277891256	14	-0.46486124120394495	0.4196606954546777	0.6911395924406012
Si	9.731239033631294	12.386947082569382	11.038941321387544	14	1.8846441109480194	0.394401899679011	-1.0280356363081162
Si	0.8844673418195279	1.4050261735849832	4.985498112772755	14	0.22960767551571593	0.18703402807204395	-0.24504073519990474
Si	11.788211977350064	12.697491577809437	1.1878292317954888	14	-0.6060614602863692	1.4464305766136851	-0.37660625131613806
Si	7.194973305937974	3.992370667599118	8.613974120308669	14	-0.3403837482342959	-1.453377703188725	-1.3067136281904543
Si	7.08756662675741	5.383879250097031	10.461590602068263	14	-1.3696596857488514	0.6157712395279084	-0.9078171793012925
Si	10.526214659457885	13.096523664704504	5.044125124116576	14	0.9437663738876029	-0.11102084194505808	-0.49509949665314246
Si	3.8221127298600233	5.847867794162549	13.324162114609306	14	-0.09135702845656558	-0.26526067876914533	-1.0142041181278476
Si	11.33206252811578	6.71777187058448	4.3542155290138735	14	-0.7537683756024922	-0.050220114665792355	-0.5094292950444558
Si	9.948406890439966	5.418102577531612	6.930853980087121	14	-0.29544288412236364	0.9990770199767564	-0.19753493642059272
Si	9.492354391141754	9.167641355243838	7.038440709148968	14	0.41312211751500916	-0.23055872737363867	-0.023215024156681034
Si	1.7180082672177874	4.00369996012906	10.575146677194176	14	0.6397694223651066	0.2852960169763992	0.18372681529873747
Si	1.8013713622516778	12.121595107531286	8.030418605080571	14	0.5913323692388369	0.12376401124330799	0.17458962121199523
Si	5.780224438763725	0.4849823602230807	0.5493723527670346	14	-0.40766983157310316	-0.13586826086950113	0.10237472897446412
Si	8.60558102584272	7.499700805013509	8.92896446261732	14	0.4879255985888654	0.00522037224202866	0.06846287824383901
Si	2.949064705511079	3.2349839169880066	5.781221638106214	14	0.00011775662366278204	-1.3402089598592153	0.5589343853207149
Si	13.470764267946029	5.202485919700145	12.433704651739413	14	-1.2834039873579917	-1.4680913676043366	-0.6140467991896851
Si	4.501953381601762	7.439633394619428	7.788874764344395	14	0.2861339402002354	-0.3141867561273071	0.6749688826400617
Si	0.050811461497064725	7.605514735244267	5.727345173630082	14	0.17484493197028594	-0.10017411993094938	0.824262169938716
Si	5.567086929297612	4.078863860569154	11.680140498607841	14	-0.16798368031293878	0.5406114032566798	0.9459512991886645
Si	13.705313863293917	9.450721318592848	8.281394289597786	14	0.2771857223545241	-0.2232295345480246	-0.04109166233713862
Si	7.03328851254611	9.123155184576143	1.4336541047089326	14	-0.8200542989717619	0.6355178426077097	1.2057116123464173
Si	2.30654977915833	11.258103576881194	12.695469479142723	14	0.4327656192714725	0.4416153637834222	0.7383887949089624
Si	1.9983874823475551	8.532536174005417	0.5168885841854619	14	-0.43820762079209796	0.2542095538820848	0.39176368851000704
Si	6.434622657281132	13.008853222510696	7.910796233954518	14	1.2388613874601504	-0.8123906053439964	1.4647972674681629
Si	0.8531428174735984	6.339182370210434	0.0824766956183445	14	1.2288371620379572	0.725098237288053	0.8701566570138914
Si	3.8893128855510737	2.765690826420083	0.9451206068273224	14	-0.0989397322667463	-0.15089148636565838	0.1869710359917003
Si	0.18464392325358242	11.708117480161	9.822773623277245	14	-0.07045857019333795	-0.8629477919172601	-0.18294391372875238
Si	0.08736851239288677	7.572399407079117	11.937916528641198	14	-0.06297511104851496	0.7893506734596174	-0.6184963540567334
Si	6.711206974913095	0.5211377613837337	2.9457684076845188	14	-0.09013832453481538	-0.4394381517983208	0.47768977119882383
Si	5.775238442051281	12.200803205304807	4.727680532766797	14	0.16179657247053444	-1.1173630342249568	-1.248785853995922
Si	5.794434529394191	13.088338320101576	10.460150203018003	14	-0.27101558380723273	-0.7911177941461552	-0.15834923445727989
Si	1.0884292323356572	5.276929620615107	3.083783566683142	14	0.7511756729976548	1.15745736480841	0.7024545127335089
Si	8.731546692786273	10.405664338943684	3.9168328174055915	14	0.17317679883857387	-1.2598619186045878	-0.14648769717330876
Si	11.76397449333124	2.107289960541853	4.66190692613514	14	-0.13983984725753387	-0.337189921205608	0.34864085296995145
Si	9.349754885165856	0.4648735584819767	9.269147938314678	14	1.325895616541951	-0.1376906603204221	0.47413470387265516
Si	9.425597435158476	11.985962146961942	7.412251962673589	14	-0.6055554667593641	-0.6752388486986773	-0.1549756871667136
Si	3.690884066386671	6.368267351033023	3.6806350731444244	14	-1.4208923016897184	-0.8470084815955341	-1.1525149290514896
Si	0.0558556281711539	4.96271487779506	8.939615105594735	14	-1.2983498225840124	-0.9486244773900226	-0.7268758995064033
Si	11.905992299690688	8.380643324157157	10.048168374661449	14	0.24369681844906338	-2.2520589178551598	0.7815234575334906
Si	11.797394521295484	9.182433145490757	0.6529204244918021	14	-0.22363371230435183	-0.6320427366569975	-0.38125352418230574
Si	4.144277367438245	10.463668100698449	1.1487985725306598	14	0.14298045240609475	-0.2467235236319417	-0.5047527115776385
Si	6.461394689628783	9.730823533905257	4.201048480005768	14	-0.7588653347891536	0.13646398597217943	-0.010737707148534422
Si	6.273173313734022	7.837405132345515	9.862259947241627	14	-0.05544460067633324	-0.7074368006228918	0.09118887816862789
Si	11.334707876371548	6.355663859343234	8.54663546470894	14	0.7972676209614175	0.5167633729701782	0.8444391760491102
Si	9.526425368676788	2.367919088693995	13.362000289660411	14	0.058847715678081246	-0.7062988294081942	0.3063957927861944
Si	8.290133633835431	12.42317865867981	5.038862127586774	14	-0.7712284947210858	0.09614416945214928	0.5827435919168823
Si	7.157744530485059	9.924210956393745	11.09917493167204	14	-0.15790186213157412	-0.8826717692702442	-0.07408485713687481
Si	6.858958677491852	7.375687986782334	3.09349241028154	14	0.04448654980186213	-0.8620620461344692	-0.2959563338547972
Si	2.2775340482900797	11.157760393043258	4.381513861014504	14	0.21200151761493793	0.5404656215850274	0.19316739981325717
Si	1.5541351752687949	2.8490816214357086	8.031055704660494	14	0.13527664953533505	0.5814297570982866	0.8003786583987966
Si	2.080490228212466	3.2356348665587977	13.031068607862808	14	-0.3262061592779354	0.26519742957826964	0.4907720692888013
Si	13.596342135145278	3.777100259539348	4.278469928957328	14	-0.6262150693383499	-0.2315401182743392	0.31380571831886117
Si	4.912231661081564	12.026750370067907	13.186396255446306	14	-0.6507711820300202	0.08907697225865825	-0.39841462375216613
Si	13.446499083945469	2.1139656561401803	13.216049085894479	14	1.4336727520151102	0.6029280542327048	-0.7899266010513307
Si	6.6671501539623055	11.515450257197642	0.7694708676433543	14	0.7098451549762744	0.3287811212560637	0.23527542008345032
Si	10.277898173187307	4.777845199690331	10.705932140959757	14	-0.04659562749597961	-0.05443775583296326	-1.1164947719583427
Si	2.4061589134802666	3.2601632003858487	3.4245764419786897	14	-0.4197586545673754	-0.4552473641908473	-0.78491397411917
Si	13.117880350622805	2.03587940762696	9.387177560490922	14	0.674572932420759	-2.2792313873206127	-0.31966912400145886
Si	7.391116876609174	4.635231843723565	2.197619600982297	14	0.4215638276126514	0.012163642159088548	1.3400608641927747
Si	11.491434373032703	10.242802296328048	8.919421818909335	14	0.2748971815090603	2.1434459160424204	-1.7234003261213164
Si	9.631657599291092	5.708938535766644	1.7283542103961087	14	-0.15120336144099233	-0.5581291151344446	0.207297423321195
Si	1.5671403166937528	13.539695672495567	1.7920503183975809	14	0.005497794506072638	-0.35579829596017964	-0.033371147281797964
Si	10.244796695013026	9.482174647853848	12.805798506396414	14	-1.416341188162524	0.00994452115726874	-0.5902766733943842
Si	7.3599820971381344	1.2829675890652674	8.568947799997126	14	-0.4983627435254745	0.9217379148361702	-0.8744825417150406
Si	1.5298976912499698	0.7299069837301111	9.692057409466004	14	-0.735118606052266	-0.36007712943397013	-1.0691982611520912
Si	4.77256835316966	0.436597417126072	12.227976887387626	14	-0.4427834169303655	0.2263426288696599	-0.26751913768236335
Si	11.555282830933724	9.300171917858775	2.8668511597192246	14	-0.25053081639001695	0.005380552103473885	1.3295512140861374
Si	11.380191246381733	13.377013679761214	7.331880465667166	14	0.04465829963724803	0.2397738259515814	-0.3794411520421333
Si	5.863449033888936	5.38408699996005	6.128454759155335	14	0.03583863705754407	0.009950434699505082	0.11860740241321903
Si	1.341866060230099	9.371083871102423	10.557806488627566	14	-2.0183436444799754	-0.3521766370062191	-0.9995699008666289
Si	8.372693429398984	0.7720248059593949	11.745221605696104	14	0.7003968571457944	0.12647472758234013	0.22777370609085432
Si	11.45003675032855	3.4073886033116256	2.7071607650123375	14	-0.0911577677942541	0.2845359982437634	-0.4676380349497049
Si	2.5807518983610143	1.3772804868793191	11.599256551939305	14	0.8571867162264044	-0.5627414209682582	1.3251458822305957
Si	4.051939478321956	2.979202285639629	10.363061767034024	14	-0.6504112272851994	0.34243471894817806	-1.588566420922111
Si	8.535790921859373	8.023368959728808	4.7926646899189835	14	0.3818852447594661	0.7104730188954547	0.0711106025025275
Si	3.2252335234170046	0.3623393060887394	5.051396369322223	14	-0.13685119443339375	0.016408022821588993	0.41492600500762505
Si	3.7828480057495266	12.388844531318286	2.473968468769505	14	-0.5227959573828417	-0.819779447813038	0.8555712907537553
Si	11.642717823282776	12.767807981445765	12.596719044254595	14	-1.5544949045511047	0.10778767700497187	0.28283109830597325
Si	5.2335237492351085	7.506348800630102	4.890043975711189	14	0.8073319556266051	0.842160919624927	1.0323273253085072
Si	13.578046297208783	5.265489528158222	6.36037285623832	14	-2.291872740848185	-0.4132313894911155	-0.041724925577491086
Si	4.431290728193736	5.662679566267858	9.758398865723246	14	0.06868193641711563	-0.18636425513614538	-0.2908701733104802
Si	1.1146902000202825	6.897946401784991	9.440153775560638	14	-0.028783009837993714	1.5845310711221388	0.11404857557006447
Si	13.234566523684862	0.3351254590324027	11.558731478659832	14	0.3033341205709621	1.4005296617752094	-0.6798629816169638
Si	3.100126555907264	1.181541335941462	7.39338827511151	14	0.6698097027046527	-0.87996079582068	0.6160175514175786
Si	12.287531848119595	11.004981143779451	5.77194214422472	14	-0.3815774834526444	0.4686425657982868	0.5871057292030455
Si	11.648022369785181	1.7020530777379668	0.6300596295652464	14	-1.379755645009477	-0.403153942188795	1.1674350532243087
Si	10.008377350897973	4.4794886964140295	4.69639340339621	14	0.2932332762102284	0.3840136057434847	-1.2967295120112552
Si	0.20246055150604897	12.79269641503538	5.850720892281336	14	0.18049390746918328	-0.4755344136089437	0.07034698422244352
Si	8.026374407747143	4.152268812169023	6.219850848892607	14	-0.5726445473298727	-0.019172732372344223	0.19579969744002476
Si	0.2450880533992716	8.684235123981527	2.3362441595791075	14	0.24104240931654247	0.21985830125224645	-1.1167323420899247
Si	2.7661755761004594	6.725015415808392	11.079175544858794	14	0.5704609075814708	-0.21349815802179611	0.9911680429014488
Si	5.692069246889542	0.22032426972746638	5.985356653508192	14	-0.24312217641001024	1.781229884092619	-0.553484156263065
Si	3.391378013868333	9.720602240644746	11.329057080097446	14	1.773584959533691	-1.400364853924188	0.7041756106348159
Si	4.77619705077705	3.0377184970565065	7.74503954324749	14	0.5074765405538033	0.651009523493198	0.926129619833515
Si	9.706295200078205	9.902134070950313	10.320500745096966	14	-0.7901950244467542	-0.49931970892563354	0.9215908476118576
Si	9.070192819497295	0.8421237647390972	3.725619843483364	14	-0.17211647500454477	-0.23384537130438396	0.42301135990789474
Si	7.693018977547657	8.63112040900313	13.173681963829575	14	1.0425857784253663	-0.16518220395610544	-1.0304180224977653
Si	1.2572994009897882	13.540028072276398	13.204982943191029	14	0.47460213081985797	0.5835177517287788	0.047799933227936964
Si	13.512798990230106	9.51632872533409	4.396804250932665	14	0.5214510121898721	0.39413270495199154	-0.013240678177698577
Si	3.702850458496536	12.057331149904229	6.3626719547223916	14	-0.45410630764976556	0.8406051437957053	-0.20914630515691346
Si	3.9730360803475295	9.842966909962643	5.794656129248077	14	-0.0423764436656166	-0.7304073126636267	-0.3803469524464215
Si	7.617675027226282	12.02812151916383	12.03287206603152	14	-1.032496246928041	0.7477720437748429	0.5200111932105892
Si	3.722697495410237	0.881380178855073	2.579311499310753	14	-0.09936267909191066	0.5938571946632223	-0.11078507158720051
Si	3.341421096807818	11.638161176287237	10.072392008689407	14	0.4148861528751628	1.418040688779142	-0.38198757475120804
Si	7.691814028342151	10.731485374111031	8.897178733575487	14	0.5492945401438838	1.4900666047756421	-0.25834749078433117
Si	5.976229509526246	6.671194351295732	12.172244524135197	14	0.0374574049671093	0.3218663906080574	0.6305049585650171
Si	10.544219647586155	2.7461346393146084	9.14152027246698	14	-0.4995390242094422	-0.36353295209478115	-0.15405497435156856
Si	8.145290429338932	0.3439077382417381	0.8472884263337371	14	0.00847924823531635	1.4090197086528704	-0.061859765560634716
Si	1.8941386010848718	5.221862056924336	6.078248542259197	14	1.811227741194383	0.87777355652483	0.3071311289077568
Si	3.161205015634703	9.684065964735227	8.40985295489756	14	1.2436205034077443	0.11861203040279529	-0.6241407015660545
Si	0.7496459907150422	4.166589702726433	1.1220362351766167	14	-0.18155705951906453	-0.5836902728957607	-1.119966278361607
Si	13.108545456777842	1.575561111141436	6.912419642241946	14	-0.7025223899139608	-0.30279701666958314	-0.6754393949136489
Si	8.614334220071234	1.7224679642772514	6.024593677636953	14	-0.1192584062802805	0.5571952896821668	0.6841351302169217
Si	13.569099203108118	11.47543763358028	1.924996380738553	14	0.9249440831703948	-0.8616110742613153	0.2138791958302421
Si	13.714233257412843	11.859650230246693	12.200872455259146	14	0.3278591228882585	-1.4690732727261009	-0.0682350783124739
Si	10.702954392923159	3.2244302239466665	6.643078869833895	14	0.054574024414931116	-1.6191723444320898	0.6994496619458518
Si	8.238777867697257	6.354486610119463	13.752459232208247	14	-0.039112682572220635	-0.19374641273135454	-0.5507693261555208
Si	4.881346181446147	4.456303811701164	2.4253134508505725	14	0.8371164109867966	0.5384894700359615	-3.609745223238614
Si	11.507832762220298	7.306424182451965	12.631454821351289	14	0.15856057931459605	-0.13338174491438592	-0.11126329717674804
Si	10.018792544030633	11.88948311057615	2.6261660184168583	14	0.4659534467439439	0.3882788123590783	-0.312309849243599
Si	13.59969383293531	13.354341244710461	3.464686015532128	14	-0.21021948451754327	0.5906312288180325	0.19296762492988168
Si	11.644629122022545	8.10876800342028	6.2575920740076345	14	-0.6838070571780708	0.3778840906602517	0.8269572025352955
Si	4.637323192344617	4.053213677481803	4.459018409911272	14	0.6046095571120816	0.13711344717604884	2.99475431417537
Si	9.38178991404331	12.415948963446766	0.12677450641023585	14	0.09947246528908096	-1.3850783472432475	0.12923198092766694
Si	13.606646528350996	9.615065310231348	13.237738171593612	14	1.4650212107415477	0.3979721365265686	-0.23721069105792578
Si	4.13033042663427	7.334996713612444	1.3286130039686053	14	0.019716778258087556	0.19037415099344834	0.5327952430834295
Si	12.367155445619153	3.6937233145145902	10.530037256937426	14	0.4908108929791355	1.9782539418860987	1.3340455061857563
H	12.180235968865976	0.9820211374966683	3.5591983532146774	1	0.6360174083714145	-0.7525018491217872	-0.06438484809555214
H	7.250553319290857	9.152572565179563	7.896987793059222	1	2.4048566217051763	-0.11867527959367093	-0.2835345527215657
H	6.9963367369105525	1.3934891311920226	11.491475923005307	1	-0.03893990429470669	0.21941247158973273	0.07752062517618868
H	13.78435576117702	6.126765060269451	10.952378878463168	1	-0.10564157539424426	0.041976122567269555	-0.04734639024946284
H	4.763261159306432	10.274006325753426	8.56008380584167	1	-1.0422623333760914	-0.273068354294839	0.07724937356491307
H	9.563778794047515	7.14184474096871	3.7266031928349848	1	0.307968280799997	0.09989129834573308	0.4413657094568358
H	2.088938722641885	5.289602362259235	7.648311207026077	1	0.45615110771087936	0.43746559979670313	-0.15232179225525674
H	4.905265115675011	13.209567290168303	7.61907387630394	1	-0.7621812893205487	-0.2335280969078777	0.13240472489272964
H	4.315906454273262	0.7907499936127957	8.501913844196489	1	-0.7919575171437158	0.11314637471322449	-0.4634620456887204
H	13.512009540750636	13.321184366572709	8.691714119050191	1	-0.37737346914367026	0.05127966716822537	0.16654823221270013
H	6.527043646342629	9.169843503791835	7.833000835249523	1	-3.176942837161063	-0.06438150565863596	-0.5505754648143816
H	11.27585926517384	12.56417156571503	10.27266287663924	1	-0.6649104615171105	-0.12176240575157272	0.15569148288784282
H	12.992898033030874	0.14949680142811259	8.482745456835318	1	0.3143217391566149	-0.6614163293870293	0.3277431660383199
H	8.327556309160498	5.072476055423167	11.110933573918889	1	1.7014687977404537	-0.3167694314213959	0.8765530528293557
H	0.04784617845224733	3.047081090883207	7.3989144214678015	1	-0.16054238729536618	0.23451488712975052	-0.579422495174847
H	9.180286396906231	5.921023445926796	9.323758452306809	1	-0.18046048310002133	0.7572691926064058	0.10892307711434926
H	7.7952596101344955	3.568297797214888	3.5701952459637902	1	-0.37633808503124666	0.891626157768724	-1.2768535823338507
