145
config_type=liquid dft_energy=-13883.804850641389 dft_virial="-52.83532054507698 -6.786143202050054 -8.115563779015288 -6.786143202050053 -41.44621105177299 -13.904031722388682 -8.115563779015286 -13.904031722388682 -31.467019161195427" pbc="T T T" Lattice="13.849990867899999 0.0 0.0 0.0 13.849990867899999 0.0 0.0 0.0 13.849990867899999" Properties=species:S:1:pos:R:3:Z:I:1:dft_force:R:3
Si	13.37954822809004	8.545292015594752	4.7523058165299235	14	0.5054399680297141	-0.28852275415318507	0.42833611902592134
Si	1.744669499638495	9.971411725271548	0.288574254726304	14	-0.12650789484097005	-0.6916131900405723	-0.9883215722015128
Si	11.773046237349716	12.2460234254885	8.061137884825571	14	-0.20084831984666757	0.572007941652604	-0.28183916587346014
Si	3.5290469230952595	9.71787379244377	11.862323278484197	14	-0.4969728039894024	-0.3827375661730952	0.5298263877702545
Si	0.9462396860894486	1.2086720830525914	12.474340524945832	14	0.36676071771369506	0.6399257455685715	0.02638416857429556
Si	6.307258141259924	12.307794384759335	10.999635047304443	14	0.6844148664757539	0.2771926643388885	-0.2446008190796274
Si	4.893381823510352	0.9601326119290392	6.518664401867549	14	-0.28561791936248176	-0.4088404558253666	0.7469693446938926
Si	1.5994938953611673	2.5512098678397837	5.941369082511741	14	1.1243903792859857	-3.2028279541927183	-0.7004554783470937
Si	8.985375475422275	1.6321660238185434	11.14633415057724	14	0.45713995481700836	-0.6967924245974787	-0.016368942020722744
Si	1.1362241658216934	12.487636516179014	4.080872109244999	14	-0.10557241266113228	0.2145949915513713	0.3159330508607517
Si	8.430240141455107	1.8053601596216327	8.777930312202868	14	-0.5312374103699518	-0.003116179648019472	-0.35540723084098513
Si	6.8199432532169775	9.955207235956104	11.12952026166361	14	-0.521274891475442	0.06840271437934756	0.5174807113544996
Si	4.861097494797278	9.067035021579414	9.774077055385707	14	0.3781134332548089	-0.6322018880763148	0.8533300582461822
Si	5.233939248961145	4.684413161295477	10.631031390346154	14	0.030862262710397468	0.4885999995143402	-0.6678968003464626
Si	8.862027456752758	8.218473781084917	3.2580026018104564	14	-0.5181314581110291	0.05394744604841102	0.10923289530542711
Si	0.00609538098096279	1.1378238397669358	4.279231678455063	14	0.02990144065225813	-0.001457559605991946	-0.20365545263520524
Si	3.138948080309988	4.45356151350932	11.811895461734174	14	-0.2193983305104719	-0.09130252102377844	0.802435285544383
Si	7.80387430445433	8.482634656908374	6.991877039851088	14	-0.16840199914852685	-1.3953702247292683	-2.0046478806606105
Si	10.951672528928905	0.7440589043989313	9.832205467058284	14	-0.6640185450815512	-0.4438221434797053	2.462493603888
Si	12.433150652104697	13.055209141945557	3.6033105741289386	14	2.1675238031445434	0.8195506194395448	-3.2007389311200978
Si	8.127423941119341	2.095572868267609	5.516063562940269	14	-0.9449434259031666	-0.727772443931539	-0.19606272151427595
Si	3.0031627698410963	11.150419897883271	1.979274494949853	14	-0.2806181479569218	0.4747047179221319	0.18757781684725527
Si	9.479570849570683	6.021477429691675	1.408405571356751	14	0.4039106184845146	0.7717609706328884	-0.805506213738768
Si	7.617107177600698	4.253027495732996	13.315921370042908	14	-1.6700205801275945	0.7038071712424387	0.4402123116102174
Si	10.992613101934419	6.361467005516884	5.791553731293668	14	0.14852246992367393	0.1655532144538028	0.32910199520001815
Si	12.491334463740746	10.099164041037056	7.403304868572926	14	0.11213464476974623	-0.9190729641718367	-0.07834980664193644
Si	1.7224956642589873	12.850589376863203	10.904831859813667	14	-0.11194823963403548	0.007510969971748584	-0.04503728056143786
Si	7.686980381529254	6.513484505282954	4.750131367963663	14	0.023698134846336857	0.12602221304599404	-0.3330206168184558
Si	10.217581462957602	13.662226541703879	4.024890446156947	14	-0.8041841513831479	0.7511684739027584	0.18682833964643208
Si	7.253544917318323	12.064297695310785	8.524420079356826	14	0.33007438723209814	1.4861834644106227	0.24550224860487135
Si	10.501506275749552	9.69520135739302	13.629152763511334	14	0.16976622763139745	-1.2924658480588538	0.004322028043168921
Si	11.96123991326274	10.86107973866197	10.218758712181373	14	-0.1020062895820869	-1.0206105412540605	-0.22782718508151337
Si	1.8603723233489315	8.693154518100453	7.378554934891989	14	-0.48908208176186796	0.6666259029867133	-0.8170715596898581
Si	13.279329694169915	7.065739041149599	6.773227234019551	14	0.3077659348113014	0.2672190896915021	-0.25717918052685584
Si	11.959107014669083	5.31852114319141	1.1051918762830766	14	0.4082125919061864	-0.9272567924058681	-0.20146795622882324
Si	12.308320684412315	2.271523152253411	6.445397950176359	14	0.6380802061697692	1.0696181226508712	-1.074446401331577
Si	2.298281334610194	3.445005178508842	3.0847807660256312	14	0.009905183245870475	-0.1644838917511532	0.7780275256296854
Si	0.807347822668887	11.157912742942804	6.81742255487902	14	-0.3660973725410968	-0.9673894324585914	-0.44766260349641046
Si	9.66708587593118	11.044993767396816	7.216994791417934	14	0.1675895298673601	-0.2068778189329468	0.26127803662823595
Si	3.57936393991834	0.3715467800177193	9.811818280500736	14	0.31314134470413496	0.5120240545335493	0.1380241326804453
Si	9.88018183542469	10.424472626542292	11.496655819589904	14	-0.057632868414311283	0.4121728654308105	-0.6312274391599786
Si	0.698705724302906	10.493750280863528	11.581985613327035	14	0.2422158617846581	-0.026127315152812764	0.4643817300617374
Si	12.114614712133864	8.450544228067448	11.613771342368864	14	0.625973128327724	0.4870624785328917	1.1361722123050322
Si	3.1980182913615813	0.057946976792206804	1.4403990502615998	14	-0.9350163882620749	-0.17283047095194992	0.6567644285312854
Si	5.195463974330119	7.304291283858309	6.418999867582141	14	-0.04381292020798334	-0.10889119540837942	-0.9661661005472649
Si	12.300758589398441	12.807031155583656	11.399428883697245	14	-0.024908354120530562	1.4807617746220263	0.5400275052384741
Si	11.780262082591891	5.336803131137039	8.520749831776834	14	0.7563230258485912	0.3773356738954641	1.3904133907825549
Si	11.700001385512412	2.325219566848259	0.5902478308154678	14	-0.34969372059855214	1.0231621061737755	-0.20768771710879347
Si	10.159882401001932	8.430891091025899	7.447250889596772	14	0.4544248675989319	0.4605829219512186	-0.5225761278779689
Si	8.364715834659073	4.557962744671551	8.233791870984813	14	-0.08660305471961177	-0.09218389592752518	0.1263320312370719
Si	10.134647717640616	6.076544993382446	12.48424326841638	14	-0.1898789561087878	0.058343007703736176	0.6862601487640242
Si	13.72157375257283	11.044855267488137	2.5842143960779893	14	-0.7759302750200405	0.687906941721579	-0.7324505700615485
Si	11.657842013310523	6.114757118186981	3.433952885796258	14	-0.5136618486224837	0.0026214989844229814	0.09485835968154321
Si	4.625786149951657	11.668755806114428	8.200884292682684	14	-0.4053496661322015	-0.16506856110095489	-0.24043717112417962
Si	0.03580638139078187	2.2785312476325683	8.48878405285372	14	0.0373879851234653	-0.9164823184512554	0.10004556466494198
Si	8.712655305242455	8.700661213150854	10.281055971105188	14	1.4198854568463484	0.8365661944482847	-1.3302328141065087
Si	2.6915379753133464	2.871601706586914	0.7308252381246528	14	-3.3117104078430093	1.7105106038198183	0.7130888614481733
Si	9.366139424362581	12.954533558326792	0.5557599685553101	14	0.009982316405474916	-2.785382008860816	-0.12113942693250083
Si	7.7159130124522965	3.7121022523962934	10.842963950606759	14	0.4430832078106947	0.2841513608878693	-0.4913469684383864
Si	9.540372309480764	2.976307637548238	3.7726821124524883	14	-0.2647372017259631	-0.47090128182203683	0.6139259572396382
Si	6.990852140526863	0.9323744602315941	1.3584555792916697	14	-0.6503960577638106	-0.7695619042525658	0.5551607740423335
Si	11.43751635858397	1.9504388139628854	2.909052081893716	14	0.3755317864028482	-0.7974280579333948	1.0267415990004858
Si	6.266885417879996	1.2021833623309803	3.8171405831384475	14	1.2963291909129082	2.134613655046648	-0.6715128028687188
Si	5.196045673946571	8.839368871692873	1.7695302332463754	14	0.41079912385825534	0.6949849375574146	-1.3155371474281383
Si	11.327824430910201	8.587631437677922	3.5150445823278127	14	-0.1296600699634716	-0.30258027249109465	0.6260842000775544
Si	2.4594398283490784	2.2433938208007063	8.476651460853441	14	-0.08287520911592908	-0.03800710728455697	-0.21491200883734554
Si	3.20264418831146	6.286330805058527	13.737418142125707	14	-0.45087648514659556	-0.5198443284753117	-0.8332798076280714
Si	11.5636205254362	8.116620948242378	9.426871634318324	14	-0.15516800584466067	-0.8140723653339054	-1.4264716002344395
Si	6.900910299830722	9.535469412713528	4.713733591962821	14	0.10868576409329961	-3.1193333658051654	0.43059612060233154
Si	13.72480080044505	0.588524891951501	10.30437935572673	14	0.27450585927933374	0.0718017156125833	0.3344892321773244
Si	4.81313497642174	8.251796859113083	4.04326938403865	14	0.7964134997740643	-0.2500122244469431	0.738467984952823
Si	9.711987546324913	10.21001936794373	1.9491646148030384	14	-1.0338625322951678	0.07101444316355397	-0.417877376804623
Si	11.736925461166232	12.243807426949635	5.421592775230322	14	-1.1127664121335963	-1.891161091602999	3.0567773449238347
Si	6.32627417872155	2.9554911012737843	7.713821663831244	14	0.46416061500420464	-0.5388851631447322	-0.13875458370189936
Si	6.6960273849218765	6.430938559710271	7.983536385992728	14	1.0714420647649843	-0.35704836736683565	-0.6895285378469964
Si	13.216201435794027	4.0724097648247115	3.48406215275632	14	-0.7555596646790393	-0.7393246772454963	-0.8237353504586178
Si	0.4212959472152161	4.540788755995354	8.794605701207821	14	-0.6123138742039054	0.7647323400191997	-0.19799722115715537
Si	13.72790319839946	4.127200328698125	13.089709469197496	14	-0.3072614839474883	0.913350712171315	-0.5248885800029102
Si	1.5109647537335504	9.726530036736207	3.63621815243107	14	-0.5872252856004323	-1.211002947095282	-1.9755108296200325
Si	0.8150733475750017	1.0715100834914306	1.973208198949713	14	1.2384770072147882	-1.2842722496246057	0.28084517655669083
Si	11.181319227509556	0.840575335760066	7.677742437620364	14	-1.5948620294090259	-1.307175398705953	-1.2638970112940282
Si	7.029729064893059	7.875728057076994	0.24855747611168055	14	0.08451197476273535	0.5528012706900337	0.8731008297159929
Si	7.111263961132387	9.796015440920462	8.581329691833028	14	-0.7644114660752452	0.34047039448358485	1.9852098102192275
Si	4.74032557442919	11.107083276457612	0.31389203803282517	14	0.6052621036423352	-0.12652229303076287	-0.053891653062963805
Si	1.5843558553425525	5.056603965888553	1.3118143500449295	14	0.4919033556296664	0.8522807901650298	-0.44328169714141014
Si	9.647280388990085	12.30947023365435	9.471773304712055	14	0.17904380406861975	0.3267926284014611	0.24105269373782312
Si	9.720020541028294	4.25142089679232	5.931424789068589	14	0.13840542759942326	0.18814731667566809	0.3998750115740102
Si	8.650718146081207	4.958975380260727	3.2290145709239413	14	-1.0068957512553267	0.04807452727612878	0.22220366352528548
Si	7.632342167555389	10.60367765838205	0.348155530440923	14	0.020405320262823216	-0.1204179747796673	0.005389808082626418
Si	9.116687238840834	11.586085210623933	3.775382860671729	14	0.6647726502719506	1.7996225431108308	-1.4130810266165763
Si	3.8794932420257333	11.572055169874751	10.516242666032998	14	0.3196902070650841	0.7154136548786513	-0.43120444412107856
Si	5.640547280860954	5.963515217909514	13.7470854357515	14	0.23051578991479224	-0.2239939241597046	0.07516163604495282
Si	6.108912422040728	6.921214386443062	10.119842077402831	14	-0.30973231616015057	0.07635000092392527	1.4385082297907128
Si	4.23757090592442	9.154954763608844	7.516002244265029	14	-0.365962132401257	0.537697312486824	0.02778824918962843
Si	4.030001092787202	4.587615575119724	4.858535246486716	14	0.5069481784105129	-1.723978310597286	1.9458960672109706
Si	8.954282245923839	12.656689504712602	11.986211446797563	14	-0.7815563676815885	0.13543297273880003	-0.026452302865279477
Si	7.829039737861304	7.452998635806951	11.89726680544391	14	-0.4781019193816436	-1.2140787603897751	0.05438916194241246
Si	0.1746068348716153	7.384468880992581	13.087756620485123	14	-0.43577047005912956	0.6492285188379313	0.518339460531429
Si	13.283041491722512	4.662585575687666	5.86909983016304	14	-1.0896781434691984	0.5744682323334537	0.8629519056857725
Si	4.433423626787394	1.863073071568172	0.28558819669518476	14	4.542076349104326	-2.1047353543422713	-0.6830218416132976
Si	9.783952098874522	3.980708975288346	13.732418295422397	14	1.288026320502554	0.4327944156510581	0.10799079432526355
Si	2.1128992068433523	4.558682944196681	6.941518473055404	14	1.0142416562655217	0.9725653245785815	0.768123370825943
Si	11.50894076148973	7.4020029694313445	0.20384555059283896	14	-0.65604529037324	0.9777311893878229	-1.0540176840103406
Si	5.863435183898068	0.24404653408600552	8.7711853666502	14	-0.018111637206719114	0.1701012426546127	-0.5351388055827445
Si	0.7100834918008858	12.131525550983572	0.27482675379082644	14	0.2683565466851356	-0.18240886671162954	-0.17820408107105942
Si	9.234038211464553	1.2935974570563806	0.6343974467050727	14	-0.8296802601798641	2.4509693956220318	1.2375827767844407
Si	5.287912663373351	13.328829561531789	4.707861195834832	14	0.07504979296352637	-1.8853964163646948	0.6633675412144896
Si	2.6140057264348417	5.266168177710749	9.660133180515494	14	-0.049690981190905884	-0.052612013945126115	-0.4687618650851416
Si	4.70655929669325	2.921904873419127	3.1552495195615062	14	0.6514363269763425	0.0417442088673922	0.03244632069814069
Si	8.83477067472473	13.654387446872647	6.288685303506069	14	0.9771892003863357	0.5115548278126223	0.18476065674796904
Si	6.746441351681033	12.378637088048643	1.863225421467719	14	-0.3689345872618803	-0.20977159797077352	-1.5719326550534132
Si	6.936657126260771	11.584644811573671	4.008201207161128	14	-2.067476438705877	2.311593632874785	0.5145529937264469
Si	1.358859999025012	7.304886833465629	10.191294180290328	14	-0.10324916189384649	0.18901994982132633	0.047219120536115516
Si	0.9791832743678357	5.668025662742867	4.072437464806447	14	0.7887670325519439	1.217271816086867	0.03462636089909425
Si	5.7064039874378185	6.505908560278214	2.300469633167322	14	-0.020290648965544607	-0.35848227280388223	0.5437651210423734
Si	10.180740487248988	10.165519347285166	5.0233778377964615	14	1.410768060270571	-1.1074750773847313	1.2825151562488164
Si	2.5699212055023164	0.14409530498963158	7.22652358513505	14	1.7861144699798366	1.0632867758000064	0.3341161647953709
Si	0.046699399208385214	3.014131962608473	1.178264428102117	14	0.019528830459184732	0.6004176269981122	0.6751095221010739
Si	2.863804161728287	13.471332117571613	12.998188729542415	14	-1.283026806207526	-0.43949240212057594	-0.11362845696075227
Si	12.774345177135414	13.65905489379513	0.7963910948932914	14	0.015818725482211058	-0.4623747252488298	0.38979679294009373
Si	6.792894221051969	3.209264483946316	1.8098060066902288	14	-0.26223808735477927	1.0224131431940162	0.06635560032344565
Si	5.128623918401634	13.716449255951707	12.534795735084215	14	0.08585820550836488	0.7199706819480817	0.11361585854468352
Si	5.846191945267533	3.112743897587921	12.313943780704683	14	-0.8589620644499666	-0.7772947606134432	0.348805660820973
Si	9.454280766245898	5.909347903625156	10.294989061918296	14	-0.029272034069885877	-0.21072007872337611	-1.2829265331000403
Si	13.656187945685474	6.739987255936591	2.1155030051265173	14	0.47260463909663497	0.23953882692531986	0.028509701342461974
Si	3.456209821120973	5.860000386162829	3.2233776246407064	14	-0.8995186797699825	1.6913273299156615	-1.6550132954844223
Si	12.126761154125013	11.112069273170055	0.539786774087361	14	0.8170401922049522	1.227062070924927	0.7770772451033585
Si	10.978776961057385	0.6279322709679369	13.148197980632638	14	0.7319191225918737	-1.8173300025612225	-2.1484387454636162
H	2.337587608693294	1.3752777781998209	4.46273020746387	1	-0.3869510935717539	0.8140713368917772	0.7324130319238743
H	8.545749065293393	5.345722525255966	6.330803125735354	1	-0.36757704365284205	0.07560283771789024	-0.41288480449395953
H	8.157395321357477	1.6685499498285166	13.415793654191335	1	0.02481733699219732	0.09034658406574737	-0.5458634000941462
H	1.4243053608731	12.98811978618145	6.946061270060075	1	-0.4268909007254662	-0.3367235227005331	-0.04211701913881367
H	0.5917782548063708	3.613060967699941	5.432700467906378	1	-0.20268434615578532	0.07387119828477051	-0.5973191879768017
H	2.2511913656593334	7.023053369294731	12.567163163742498	1	1.0172729894379762	-0.13964907124277887	0.9002735562919779
H	12.006127733665604	9.433810479743142	2.443761638686615	1	0.10787869413330511	0.09582175284500272	-0.4081778819843644
H	0.8920142018434466	6.75700889471324	11.778918633477705	1	-0.2784501919509729	-0.35386173943304416	-0.5604371963803415
H	11.585628160925292	1.4402882503346568	5.105591383588316	1	0.3238001189193408	0.4775334479953588	0.2459786744206948
H	1.8897620039706156	10.223440009094723	4.902162717720601	1	0.7048456406812466	0.8995829574029862	1.9836638045902224
H	10.828352210241125	6.041282916632772	7.586775697599997	1	-0.8455195545046363	0.38134119887372275	-0.6480913189548299
H	4.136036622871845	12.937027169869767	3.796143996982711	1	-0.1888029485323058	-0.04014755246358024	0.1918075422094309
H	1.5319059399258153	8.80094899702532	8.874423198579528	1	-0.07428026114120606	0.0392371240697158	0.5591382739726027
H	2.2935169377516362	2.3821568793061965	12.427015106150217	1	-0.6196163275341899	-0.11815514498740497	-0.20798313711007846
H	11.302700547475832	3.81791618262705	1.4702042306093206	1	0.07001454030454839	-0.0014416187530070278	0.2453441256276822
H	3.583200387388748	9.1818098959017	3.983326623562379	1	-0.22507327417310277	-0.08699849071785055	0.2941203075456794
H	4.256697743312989	1.3200869495903262	11.315719538891656	1	0.09524479681116148	-0.9554728735207692	-0.5210710028235543
