145
config_type=liquid dft_energy=-13883.071305012054 dft_virial="-43.3976541005293 -11.276901518000502 -0.9440105748358629 -11.276901518000502 -43.76111036836016 -4.124862744308641 -0.9440105748358629 -4.124862744308641 -33.74532892061842" pbc="T T T" Lattice="13.849990867899999 0.0 0.0 0.0 13.849990867899999 0.0 0.0 0.0 13.849990867899999" Properties=species:S:1:pos:R:3:Z:I:1:dft_force:R:3
Si	0.5043294124664502	3.482053904080475	2.2635871074861043	14	-0.4042080953700558	-0.3434073680907901	1.2007000138563844
Si	5.963335168028231	10.075674456525098	9.737374579585774	14	1.6043527504772883	-0.20897044155301533	1.9487381670318629
Si	11.882655065078275	9.846983407314333	8.385712420814809	14	-0.38097198814974953	0.48250879390037743	-0.41841730892185414
Si	12.452956139045794	10.140561663741211	12.035725164150305	14	-1.358126735724795	-1.6998793404315378	1.4313561861216568
Si	10.5960186134321	5.216405160522385	5.678773255656358	14	1.0844348883898205	-0.6620992149600606	-1.841799726114136
Si	2.5027487497930014	10.710821187736125	13.611438625191289	14	0.7971249246161493	0.13103149754123855	0.8380988303296251
Si	4.037812487636698	2.6451405059058812	4.23083981036262	14	-0.9571608041634462	0.623334145827124	-0.02224803144577334
Si	2.051266747481197	7.839648830866115	6.508207658762285	14	-0.19379886327988557	0.4238629099899278	0.07333872237296783
Si	5.659009318687864	5.6117669998374575	13.570885851930079	14	-0.4008746573224838	0.2292911724508057	0.3947605688711716
Si	1.8145704035487862	7.996264527600328	2.0041629285394693	14	-0.4089726106388222	-0.05406314578781769	0.2902795904184422
Si	9.061065675515348	13.78086556347831	8.108144753831224	14	0.4820897037331932	0.04288320852421779	-0.5636989005894814
Si	10.8288369599215	3.114156596656447	0.7456599633432605	14	-0.5696001015202853	-0.4648918373572548	0.02938027760386411
Si	5.770210895366233	1.6857100885138447	8.90607042771268	14	-0.14066157251785322	1.5244368835848499	-0.6594530333645643
Si	12.904909041047107	7.172106971015071	5.516672962538456	14	-0.17371493118208084	0.5874183756099755	0.048239849348214306
Si	5.3122332473373834	6.954828314279456	1.9181683352406784	14	1.043918125202267	-0.7230374963739543	-0.6705118715675852
Si	8.375851227316865	7.038773108929798	2.616097075055895	14	-1.1701714806165422	-2.188281364836227	0.6844441770764036
Si	3.164598263397339	0.5879030273615323	7.118022756675922	14	-0.23743566277343872	-0.7015769944877422	-0.011348087551537578
Si	9.992311361491208	0.5864847882966594	10.680725157580177	14	0.5483175201222276	-1.233750030083696	0.2416890423045597
Si	4.7265309835247615	8.111330251730841	9.570620689536257	14	0.8959402153854004	-1.2336893519981404	0.531673984053313
Si	8.88892413901822	7.189654909444701	10.048043724743637	14	-1.1132878322925222	0.6211880442163965	-1.9647957481983158
Si	6.4298444104317065	0.9188859541253462	6.6956811351501795	14	0.42328826795087465	0.19793782862425996	-0.30713421423414095
Si	12.240497279132208	4.356888577251378	13.007551323369112	14	-0.7123247289470253	0.30441681302127643	-1.0205069257096586
Si	3.0738669732217256	9.123390634420899	8.43997668503524	14	-1.639421084380916	0.7029211683491158	-1.1217380270377209
Si	8.677559428383196	12.453302388817491	4.312319306638476	14	-0.25468083748726794	0.7650467861998538	-1.1459838073172492
Si	5.15998029772656	13.29406608445336	8.192477348225868	14	-0.109369678108459	0.227681660520393	-1.64303682979264
Si	13.47821556303296	11.979328001336217	11.412240125250053	14	0.7021776046905289	2.2214056860072904	-0.07054933021113918
Si	11.483055128557625	0.3688598817893467	13.350504797240054	14	-0.7322960466318075	0.5351406053564687	-0.891767568561332
Si	1.515590650683429	10.84301935057023	5.74595956135654	14	-0.0526325827876873	0.29196289307154316	0.6310328064872435
Si	5.556560936238008	4.278843878710761	2.874801054477399	14	-0.9322825319751614	-1.6533202226311046	-2.6964392482998694
Si	0.13976302784615247	7.888234598830709	0.38239686286363217	14	-0.41266677476281094	-1.0201541700597343	-0.39996242915489527
Si	11.974992954194565	10.339378282649914	2.4069206629780013	14	-0.6857819231744766	0.04536072561071248	0.5516720412334247
Si	8.114861999402155	5.788922233028766	12.437859648999783	14	-1.848155755576074	-0.3142160667279568	1.0539328375347758
Si	5.811927067860348	0.9331085097475927	10.999274947541878	14	-0.6471808905609654	-1.7197172177502045	0.7032970639469214
Si	10.776026944742197	4.765006258155787	7.783334767997234	14	-0.29029373149770304	-0.4762671786251859	1.9463167000413473
Si	13.837456626164549	2.7761337195344797	5.650810124094067	14	-0.22657685656432536	0.16070668092532367	0.21986704301033494
Si	7.545696624685806	3.4985076932315398	11.435895909652425	14	-1.3024098549950585	1.7130966215508232	-0.09925726377378458
Si	9.209454477674027	2.8619759629337236	7.684736683008654	14	1.3000449523215862	-1.1727243310889175	2.035075626571903
Si	7.87226555936002	3.503992289615228	3.8675129999249998	14	0.05583052358488747	0.44123689708029634	-0.048069642176020506
Si	11.593328755847844	0.9461191911688979	7.869066211469535	14	-1.075624224678737	-0.5594915438435911	2.460819814324583
Si	12.618311180017653	4.346542634073057	4.284370025067053	14	-0.1701146124022775	-0.841604789544179	-0.5464110455273377
Si	10.409805486213186	12.115113311805109	12.335896016230302	14	0.9776872234868486	-0.03504287996095824	-0.3954305989176023
Si	2.7425890416524257	6.293325050446817	3.387887816169622	14	0.15233361933972941	-0.5030115590548342	-0.09766523535954888
Si	4.306100660738789	8.3253541606125	3.5735884937264255	14	-0.916178156691882	-0.9257778926257187	-1.1041318691369428
Si	6.955340763941569	10.90020596286379	3.712296152268444	14	-0.3908203499680447	-0.04343265373113344	-0.16571210876258796
Si	2.792836808521167	3.8179715825905216	2.1428013371271484	14	1.1375163861664055	0.7677464467860092	0.1545730520735784
Si	13.84431237164416	9.245048954204533	7.107676813497601	14	0.11410745388189585	0.2343963591744917	-1.1029573882266992
Si	6.432240458851854	1.5300915911221205	3.559350703114225	14	0.7559401882664212	0.5449108055730313	0.818112600233986
Si	1.2338278214659582	13.615455122542981	8.69093851956159	14	2.1405305397199053	-1.0863236223580013	-1.6250663462679973
Si	8.501332144580038	9.200618183500309	2.1883262571099356	14	-0.3747252306639178	2.8117834038407565	0.30094993460758873
Si	4.100691446176963	3.5379247672415834	13.678347931074114	14	-0.12140090834355992	-0.025480682164795522	0.9089790617954673
Si	8.053991289537736	12.794039864149568	0.5659480218377373	14	0.3071774088035194	-0.07553161810052214	-0.36753513463612364
Si	3.5783251906032474	2.735788696136287	8.092992863821742	14	0.736507260035678	0.2289944668968606	-1.1821209497024625
Si	8.34772189586416	1.0695600047772302	4.87973958250547	14	0.5213466253138741	-0.27781487182636433	0.2587781509254559
Si	13.717515705248536	6.3115516384289725	12.27498375639328	14	-0.8815859914935457	0.5889011320481049	-0.652243396936337
Si	6.036684719664629	2.19851985038871	1.3002343726802783	14	-0.4998622121481848	0.8974872494565336	-0.6920549059345739
Si	10.30602750464001	10.56761228216204	10.04638172583949	14	-0.765502643173116	0.3853966032951923	0.6015977643400602
Si	8.759939174065467	10.587085369322306	13.089210869526251	14	-0.3127554217955807	-0.22476525575574902	0.2548271333799844
Si	10.674284911826605	2.2835033943541445	5.997212245691115	14	-0.5558534298155816	-0.23351961226032122	-1.1500960331662942
Si	9.843271609761736	6.848668134277003	4.429781079189135	14	-0.3513693099356926	2.025717060317096	-0.7341508420097623
Si	4.7049803977343085	11.92482828727103	9.893270076794854	14	0.8126250901491939	-0.488770463797066	-0.49373886771772013
Si	9.715713193868378	11.743698106700636	2.0429290529787214	14	0.1638467718528205	-1.8078251404136991	-0.3053012732514074
Si	2.2190870868275416	3.0752519723085157	9.836000364556089	14	0.6490783662872348	1.1457194976903382	0.7217887105199583
Si	7.011419376965696	8.35345579208347	4.796099487654223	14	0.5260646035763459	-0.23721840437388622	-0.30198454738841635
Si	5.482726634921233	9.908518916740412	7.625195572267552	14	-0.2998243046984279	-0.31965781113805025	-1.864307439197244
Si	13.522189284038541	0.7215817542194164	9.886151181488756	14	-1.6440156495880205	-0.09250348431881959	0.7099461994153563
Si	5.211031364065639	11.16889578570105	13.439463288584575	14	-0.24003736424689662	-0.6106382848667649	-1.917731151091941
Si	13.511441691125052	10.137750115595026	0.5666377513829587	14	0.13203577127928842	0.7381237139504552	-0.6767547723954367
Si	11.541972989709672	7.735649249439055	11.589824708158266	14	3.0476301235263437	1.7470115576078324	-0.10780438918955283
Si	9.423270636692669	6.6365416741442464	7.730413952890988	14	-0.6371808335287815	0.40040183105410854	1.199249139124225
Si	2.10018491522662	2.999464822279367	12.170000825614597	14	0.7664603799048711	-0.05479693924618795	0.8013991301003635
Si	5.675906307546702	3.6291408070975724	5.874598276537596	14	-0.55922851976934	-1.1471089230053462	0.5434496464195911
Si	7.086056977752809	11.694309039265702	11.73548506211597	14	-0.7321525789549433	0.14147147069369984	0.850233418998596
Si	1.3549958515728682	10.468293997648328	11.614560791848335	14	0.32993940420279033	-0.7952662725802141	-1.090177966343435
Si	4.926649501575048	9.654454684259656	5.262954979829396	14	0.9645594168327043	0.1573560164721067	0.4201198948648561
Si	4.035915038887795	5.099732837451194	9.997034208377162	14	-2.2500531985949124	0.6327886143103726	0.8662280080847051
Si	6.8400811399389045	6.413916920933621	7.225720285664712	14	-0.008212110392552964	0.6652426483244736	0.014392790471656933
Si	10.130174170590285	6.121280463885762	11.452238898876548	14	1.217308582892945	-2.7086088040011944	0.7182886648476408
Si	1.5958097977903059	8.300050227296847	10.167624545897088	14	-0.841205239777428	0.5281615970754586	0.38143195889152404
Si	10.434015270250276	5.8362338018335125	0.15514898270130256	14	-0.16814103195853183	-0.2197053204856976	0.139424870858862
Si	3.3034582718389043	13.15069097898886	4.42368708320726	14	1.079687856637231	-0.432878747905559	-0.025704882548712435
Si	2.23426667681876	3.455295721723692	6.085076587757072	14	0.44423352033092894	0.7107985208289853	-0.22962387347923285
Si	8.947204900590343	1.3609278026615896	13.603738030268737	14	0.7678366925827463	-0.6515450847313848	0.2635046138354841
Si	3.857734906372262	8.939587405612997	1.2004728884587945	14	0.027556335489751067	0.23725594251156037	-0.5782328447432146
Si	1.2128201553175275	5.935593636319828	5.223274755992863	14	0.3243292523942273	-0.374138761540392	0.17113662676703634
Si	0.9815530078053333	9.168998654348893	4.13897282093584	14	-0.8079683041933416	-0.7641021621052314	-0.06752596746517707
Si	2.8062989996447656	11.729515716051905	8.606231975413513	14	-0.9691190150074551	-0.38494665986416643	-0.7583351728721393
Si	12.403594771592598	13.607214377976579	1.5886770524933373	14	0.573744723296364	-0.4384894139351861	0.19115319590545318
Si	12.214805546072254	0.0676433553988236	3.905088025149612	14	-0.25315360092710004	1.4935941612748853	-0.22212781591834113
Si	6.930369230406746	11.371839701888389	6.360677556037414	14	-0.2548626146334025	0.09925057889995219	-0.3419148414524441
Si	12.793305814633568	0.6833211544468426	6.070589497309248	14	1.717820513355531	-0.20175000648244348	-1.4401059146366526
Si	5.673662609026103	12.24193767818247	1.5065050566740865	14	1.0376132607361999	0.6792369174715077	1.6388551840999515
Si	2.7277834014146403	0.5233343699353825	13.037827403406343	14	2.3988962853520093	-0.1473060799967119	0.028872741413666886
Si	3.1658586125663177	12.074241988753936	1.738132303948846	14	0.8192490287854914	0.009219726567518996	0.15222948957426344
Si	10.113872731338766	0.00879058920385613	2.7571453820545884	14	-0.15519860199797042	1.4293934043202559	0.3783615449182032
Si	9.290753924068602	11.815468759378092	6.347146114959476	14	-0.8646573198446266	1.6835165690635838	1.7253613081489936
Si	4.480430495793046	0.6797977167700489	2.7582810813057566	14	-1.15523438714861	-0.4848685543632093	-0.32482393305782375
Si	13.012274170255067	4.57656328240714	8.376848426659352	14	1.9350300619069614	-0.8207482402976698	0.10771722871919982
Si	11.319320536517312	8.815408387491406	4.300768414254647	14	0.17367842148653473	-0.6842634283723971	-0.0366395363647702
Si	1.2547177626920119	13.276975195722372	5.385444299065103	14	-1.4420249876476114	0.35167707124251435	0.8818924672477072
Si	11.373086201066497	2.8041384010693733	11.154422545244094	14	1.4713913812827468	0.2461339691820317	0.9104749308707295
Si	8.10725835441568	12.094573775348014	9.621934905701828	14	0.6703460352744356	-0.012608700490006178	-0.26869464703473506
Si	1.583026256219234	1.306401773613754	3.6397914500749877	14	-0.3013484559322117	-0.04231036625888881	-0.5047323998456094
Si	3.48406215275632	6.449788397281483	8.177879457851102	14	-0.37228268060977704	0.09797839598754292	-0.5596548090314204
Si	11.967029209445522	12.49439531172255	9.667307475785067	14	-0.3386611076697967	0.6844488050659798	-0.3322893944654057
Si	5.922948594657434	4.224136414782556	9.317553656397989	14	2.4896691586798365	-1.5097790121546855	0.223809833018782
Si	9.276336083575119	2.7505112364288644	10.212733966153836	14	0.144946833754944	-0.05325710426995126	-1.432483872915074
Si	3.6703999298930468	12.718003414284796	11.570254671061923	14	-0.9145637596613609	1.1616315542956706	2.661500755214909
Si	6.698963582985871	1.8410931360608147	12.877527609101268	14	0.45293336940271406	0.42276787623407663	0.35760758277396787
Si	12.939021568554745	7.986804983837553	9.4445719226475	14	0.45759735445346267	0.1069371553650669	1.0754195646952531
Si	10.673356962438454	10.126088423284255	6.274821462647302	14	1.2731951565738118	-1.6686995462141023	-0.10982013576054894
Si	1.0101573939448072	12.71751866460442	2.2691963537876036	14	-1.187477333415927	0.8173399830852816	0.9904612460489401
Si	0.6133994755502495	1.106942515128779	12.716036715581554	14	-2.6246426748979266	0.38611034213206546	-0.6790052608821623
Si	8.58922418662773	3.8701860481625046	1.3623100317502062	14	0.020209144926895916	0.002511712787252658	-0.060069504926215614
Si	3.604044623644938	9.3274286998868	11.474786684009489	14	0.21574170452415736	-0.004635445781694972	-0.20977288352343357
Si	4.021137098631747	11.536945443024624	6.318019584164282	14	-0.9558233151759051	0.8071926017182531	-0.0044151020557582805
Si	12.316450629051772	11.770470139048285	4.389768455571772	14	0.36553481469704846	-2.221302070462889	0.28556958258246296
Si	7.077497683396446	8.097452560881207	12.836310036278398	14	0.08428006106285797	-1.2479559011985781	-2.4166711077617884
Si	0.9912161464338672	12.819260697520013	13.742113289029925	14	-0.943683327185762	-0.916597503969598	-0.3698025924179622
Si	8.749593230887145	8.495986048105028	6.518650551876681	14	-0.18325964546206658	0.9973757195864145	0.44142870153717945
Si	0.12287573398092201	3.131870734976491	0.015210059971127777	14	0.6849059475919022	-0.5078346955249	-0.1699603460830686
Si	6.537264939603139	9.191075539792326	0.7944188561937024	14	-0.7492380880283912	0.9110868539369247	1.2384186431240207
Si	7.922679526119175	9.203360481692153	10.651612476775853	14	0.40249805322162524	0.4263535397135552	1.2314648316751484
Si	7.459868231277429	4.108655190926006	7.349012904370757	14	-2.0688710062315256	0.3873889528077751	0.13923358062304295
Si	6.1695753820421295	5.425470772673335	4.565677189584971	14	1.4220546984049571	2.762619242129949	1.5965738713311803
Si	4.0751520630165565	6.137235653365583	5.810514368791822	14	0.19746603079801275	0.31698103338924405	-0.16955668254780537
Si	4.239025154965549	7.563327663060643	12.895283297393917	14	0.9469694568954432	-0.37213715604865666	0.6348190161816933
Si	11.824859053186529	7.596359891280584	1.5208120972406274	14	0.5082234466493064	-1.243300143684854	0.34713984168404893
Si	13.834160328337989	2.9807534846168338	10.238411849222924	14	-1.8882716834442161	0.9662290926276085	-0.24593599407238034
H	4.051690178486334	6.547666282744932	10.954567177020296	1	0.18151283650755795	-0.8474566252528359	-0.02784918438571593
H	0.00742913510154156	6.381591042247943	10.038971980725163	1	0.06783167188774267	-0.07591856945120443	1.1303257759175473
H	2.354276847689113	9.574110887234967	3.69708886229549	1	1.3759928323734403	0.3216943836621395	-0.2326392657987025
H	11.313475840371057	3.2349562170062707	4.142878518360587	1	0.8454028263231017	0.35535349473979405	-0.21472071860152656
H	13.582672194158661	6.763712290293304	8.700661213150854	1	-0.44855272015824565	-0.3433842281429087	-0.3275436482654764
H	12.988396785998809	3.243543211344369	7.14309124014682	1	0.4196375555067963	0.6540051183017025	0.3317885431490408
H	12.43682089968469	6.383045291289073	2.5495063189630316	1	-0.5616864964554015	0.9010477161038744	-0.6011537344512706
H	8.517051884215105	5.035053380098101	6.565795920791013	1	0.2614626419902225	0.33280490108209543	-0.5725249909324858
H	1.3893479839225205	4.911026711876056	8.198986843933781	1	-0.6507256734658536	-0.11971477747460682	-0.09116548111021455
H	5.960994519571556	0.0636656380215627	1.4975579625734232	1	-0.26948937568919284	-0.44296133741851973	-0.2970274563311709
H	3.445115978435785	0.00952325372076804	0.5960869869653745	1	-0.20683848102154856	0.18513166724566638	-0.2876393223651822
H	5.045939472920271	7.8289981878887	5.503307721350932	1	-0.4905838643793664	-0.6269606898811929	0.3305040189310949
H	9.01831075370614	12.880782356955224	10.990341703432081	1	0.020016054917352796	0.38101235450327586	-0.09430120115866715
H	12.944755464774055	10.081242152853994	5.824516709559269	1	0.49351955243391155	-0.10892384844594531	0.31014549278509834
H	8.116717898178456	9.337317593366482	7.847834175469044	1	0.2185940887663296	-0.656184130060528	-0.7517140624516938
H	4.650633033568669	1.312675819476913	6.290555052273236	1	0.3723744690697064	-0.4493253373069502	0.009601535707560987
H	9.058655777104335	7.761507182389423	1.3426471997150486	1	0.4549234049205087	-0.2003330703405099	-0.5375826411895452
