145
config_type=liquid dft_energy=-13880.404928346503 dft_virial="-55.32341043224127 -4.920075786676836 -3.751649261233998 -4.920075786676836 -53.61589776457951 9.569388850338735 -3.751649261233998 9.569388850338735 -55.967386638330844" pbc="T T T" Lattice="13.849990867899999 0.0 0.0 0.0 13.849990867899999 0.0 0.0 0.0 13.849990867899999" Properties=species:S:1:pos:R:3:Z:I:1:dft_force:R:3
Si	0.2656760648244049	0.2262936157915313	4.533766810625329	14	-0.19364511118174071	0.5280260998250867	-0.13340668463599137
Si	0.44238255831159384	13.371210533587565	13.653611847384044	14	0.5391062782022651	-0.08848818914034434	-0.9628450038052296
Si	2.64501585598807	4.734896378008973	12.557869819870136	14	0.4629946187415175	0.9661792131843976	0.703986377283253
Si	5.5488049413519835	7.996901627180251	1.4310364564348994	14	0.7063114278242629	-0.65146152380848	0.2862498970501741
Si	3.120541442446549	7.42946750132239	11.384069243824744	14	-2.5240803180636346	-0.6769347497678471	0.8710966531189375
Si	6.47513388056974	12.633795469807964	0.9010914858582683	14	0.749196436122205	0.36832189286408895	0.7564698359623717
Si	7.268225907638297	3.5075932872408817	7.182383664239054	14	-0.3756865669431211	-0.05519803167613105	1.2022581036803943
Si	1.817215751804555	4.468838053436614	4.565954189402329	14	-0.29507367339839036	0.9438941578220142	0.9198682070473585
Si	12.277642954639916	3.5306673720268034	11.719031272964905	14	0.48929265528758803	0.1294484679956234	0.5213713079249477
Si	7.196219805116085	1.7273154610810162	4.04959882986528	14	-0.07110751717614333	-0.4919720041417143	-0.4089749246336103
Si	8.908923525831467	12.179945119057749	5.882672821213582	14	-0.8079814168304745	-0.9766464400532525	0.6509722424660558
Si	9.751072220554127	4.7109081938257695	11.75422409976024	14	1.4427186718629874	1.0260468863429817	2.2925024045410893
Si	3.660801886221592	10.68553110441134	10.837340854314391	14	-0.5402378216536622	0.11402620695377917	0.09857257842702914
Si	2.967028143666745	12.829094191036223	7.753792737476004	14	-0.5317583163078138	-0.80387433319207	-1.3658747616070614
Si	10.339558332531197	3.41923034550368	6.920868136671365	14	-0.2653462965763062	-1.1181809028272958	-0.2725561901150655
Si	5.308258299958297	5.890428816099606	0.39004482782088656	14	0.8625464423767851	0.515802808022571	3.1553969745782227
Si	2.061958940431216	7.329248967402265	2.0079993760098778	14	1.9924518425744882	0.7819726296329206	0.2452322825462558
Si	9.56420814376442	9.1664502560292	0.4850308351911183	14	0.35013929315053377	-0.7682326428020492	0.7159091068738438
Si	5.281777117418872	5.40572068569571	12.199113506418923	14	-0.09915801910842686	-0.7212516066185793	-3.8021019535444287
Si	4.257805742582422	2.4236376019555568	4.329340945415124	14	-0.8105692343352036	0.12904609001302023	-0.9545786430904216
Si	11.025783830063038	3.7569485228265536	0.38889943357611123	14	0.9073505236856856	1.1422369355341975	0.5562000148127376
Si	5.5724884257360925	2.7308303994055785	1.542999782611003	14	-0.587131697366779	1.324715736310535	1.8500776568028845
Si	0.20049246780372038	2.4233467521473306	8.444173232268215	14	-1.6590039080518237	1.6424328771529373	-0.8532516395339178
Si	5.042227675367673	10.22780275621811	1.4652736338603483	14	-0.5633116921282671	0.5580329557954711	-0.6898491546804189
Si	9.14579991964516	9.879170786091333	12.192451660811464	14	-0.7848823495237321	-1.4342365954118188	-0.9905607478248301
Si	8.586772738244113	13.712280408700469	1.9935399855437903	14	0.3825892133961227	0.19760512759583276	-0.1653572962284075
Si	9.191061689801458	0.330730856930018	4.685271860729287	14	0.09912870850777718	0.6945211101576599	-0.8259565283446937
Si	13.573323450322828	4.2303827606639794	3.4089259522979622	14	-0.5345374240483619	0.3067176951722769	-0.056823741570060676
Si	13.078130876831933	13.18544060607642	7.703918920360695	14	0.18990106761454106	-0.6345472503493538	0.6237306102674909
Si	0.15961698975528713	7.084145679013039	7.108050763251034	14	-0.08680617203990347	-0.045188461554262566	0.3012551248090904
Si	13.56698015450533	2.6176482740330997	0.07587301997252978	14	-0.15028959061021172	0.48071544793957405	-0.2620794501565261
Si	6.6950301855793874	12.411212266569944	10.972876864947661	14	0.560533869940379	0.6243343057966616	0.23483833217902514
Si	3.0602247322168443	10.546740345924114	13.36925768487519	14	0.6351974828848193	0.5736004842879037	-0.37282698360605243
Si	5.340791928506993	4.117837734871424	9.871954940849157	14	-0.4899212905383643	0.8060170923658815	-0.2873778409541231
Si	10.93839038768659	1.6599214055178149	10.440815615766414	14	0.44542239943096545	-0.3530580119099659	0.2585817184789967
Si	11.303919346672206	13.484517308877855	3.6229221611978857	14	-0.13273331215264458	-0.2792091822414806	-0.12317034302488582
Si	10.994081200966415	13.241159119337983	12.8116293525518	14	0.2348041364782672	0.6048491841279194	-0.0376535803030366
Si	8.571814748106782	1.0459277653593324	7.763390781147458	14	-0.6382735532898444	1.1565045131767633	0.09607449249797326
Si	11.482196429123816	9.469723506063605	12.449562891283158	14	0.9985617704705987	0.08783744238381487	1.1691479235885913
Si	2.7853993634251046	8.124086093320178	7.280219999729899	14	-0.18982084912855243	-0.4679439964828025	0.5931773944165751
Si	10.67629316050245	13.161937171573594	10.223107609313894	14	-0.014188130488173144	-0.36313674476494634	0.21146029994504673
Si	6.038803768267418	1.0658246622401577	0.2007694676210784	14	0.32566237050272406	-1.9454715777226144	-1.8850166641089088
Si	12.080903834361397	6.072805495848113	12.191620661359389	14	-0.8466284722292162	-0.7709590428835342	-0.6200493016701029
Si	3.9608480883837776	11.222356750451143	4.660701976929633	14	1.090693987181189	-0.2651076980025965	2.0281151302491986
Si	6.876548165894086	13.273415748069322	6.838128291226531	14	-0.18593462343714864	-0.779618011380729	-2.8610462959958576
Si	8.064309532734322	3.5002943420534987	2.423028202357369	14	-0.11175566384555641	-0.5727491913164026	-0.9309684400460337
Si	5.816483714855887	11.27527756555739	12.975973344190301	14	-1.1675386687687106	0.4073502431818087	0.5405383838655875
Si	0.43877602068959276	10.69179130028363	7.861684166336945	14	-0.1920114308613186	0.8080966023488172	2.0326976112612987
Si	3.463439516354017	4.372026617269992	1.1172261333481948	14	0.17095716361569002	-0.5734094511626167	-0.19362325678651945
Si	10.33446153589181	7.978079489590775	10.642388382857831	14	-0.7094618031730404	-0.30906485721904015	0.4781160604609044
Si	4.463478106970736	7.759983683393955	5.307427300506223	14	1.0232788343553103	-0.6506570249538057	0.44084968861908214
Si	3.1373276313784437	0.860770007444551	13.132173541198478	14	-0.04393067683164612	-0.23078498464181174	-0.4421175006524471
Si	2.262908457933577	12.919105281686704	1.5284295922179723	14	0.7194335780467027	-0.1861894199743753	-0.5786673615423195
Si	6.325373929315137	10.471701095401832	9.91573476198259	14	-1.2902804085367279	-1.2760259435312948	0.059886956448485094
Si	8.991788021194113	11.92563158674137	11.36931900355043	14	-0.24465249829656238	1.810848760270193	-0.45240140771197535
Si	8.420281998021087	2.631415164955792	13.552160664276679	14	-0.43491840575603247	1.3366055557530279	0.13775905172193803
Si	11.727382817458249	11.271648867949999	9.133847377526163	14	-0.12902115029141478	-0.020293734291928787	-0.5253580638343692
Si	8.151301325375602	6.856064029400461	12.387805782003191	14	0.16696989348520438	0.03264481002885613	-0.33094984859360854
Si	1.2900047694252472	0.6459289491016862	11.41798787146023	14	0.015299619318073159	-0.9904895282074619	-0.192452632534256
Si	12.628670973186841	9.206227429801809	7.1922033077643945	14	-0.6045349950577973	-0.3272811384122893	-0.9082807495905151
Si	0.6504080361483651	9.693885608260567	5.564954030703955	14	-0.3748039064867143	-0.5853301238689512	-0.4661683911487083
Si	8.757806275471811	9.254328448086024	5.703647839255106	14	-0.20783247033831778	0.22928937267708158	-0.7566343867028612
Si	1.7545445431273075	8.596301531961227	13.717030955568159	14	1.4526233408877938	-1.378923121106813	0.14148381199923657
Si	6.228562493148516	11.24948888256136	7.734139600434453	14	-0.04431634262966833	-0.6097116585093835	-0.15533281369568216
Si	8.340007450950738	9.42266123709448	9.343882489037867	14	0.3712516673763977	0.8404002267016896	0.23996280219261232
Si	0.6949066718078409	4.94272934097268	0.42595923914043804	14	-0.12694729674018335	0.10869502007245213	-0.19594805021699735
Si	5.0936942414327895	1.0483168887840453	5.939180783954613	14	0.990335004777721	-0.780035044663657	1.1850676935098843
Si	4.390156255316074	5.822896260627726	2.802351752247414	14	-0.7626661997839286	0.777744704044469	0.19782701398496155
Si	12.520100894773373	7.150639485169826	0.3871626447212766	14	0.09450586114215093	-0.22798556516923452	1.0358222287701848
Si	9.564471293590909	3.4586751194954592	9.892272877452367	14	-0.2253987761066335	-0.24731719185036385	-1.6161284128435665
Si	11.854899683379005	4.398604749745493	8.487385203776062	14	0.19401946411635426	-0.19655843062000047	0.950228075778199
Si	1.6375259702844207	2.5294376821954447	3.3747164748542495	14	-0.38022071117520223	-1.6152940891671783	-0.0001398681294160555
Si	12.413165115282318	1.7092827729710105	6.242758733788113	14	0.8021969440812053	0.4037969756293641	-0.18929505809058217
Si	11.344333620024738	10.490481683018704	5.292441610387155	14	0.044657785416183995	-1.900752342889279	0.12065014559007668
Si	6.295637998921755	9.297235719794779	4.429088579645741	14	0.13521391456552342	-0.28635608369989624	0.319878926195583
Si	9.636228096277499	10.433696720460313	7.616262328157757	14	0.5455602667769007	0.5784773568591606	0.09492340864614297
Si	13.415987554063484	6.055119057509804	9.417716790354643	14	0.3889372724315683	0.13081783868913424	-0.819345702345529
Si	5.197444523024229	8.026429807710615	11.43665765915016	14	2.7170132330716945	-0.4843556188518398	-0.3211493093342681
Si	1.6733697466505457	7.077317633515163	9.582254681865294	14	-0.17010329953886885	-0.03095765071777496	-0.6980237269352977
Si	6.480840076807314	2.9643689454201083	11.546986686403852	14	-0.01870247720928914	0.1669614088376479	0.9462233221315364
Si	2.8037506013250724	1.510604653970985	1.5443847816977931	14	0.3960381511047532	0.1751619492562602	0.10448200689485748
Si	10.73895051918883	2.8587904650341067	4.457024011226295	14	-0.15251591070692794	-0.21964978461078238	0.18471129152582216
Si	10.74732976366391	11.017556935487505	2.420369004110732	14	1.734187141381466	1.5962892499722399	0.7185185216632619
Si	12.332641268376348	0.37625162191554495	0.978263634974207	14	0.061178679761327494	0.4416863262902583	-0.1537047898069644
Si	5.518695061205169	0.49010685684420374	11.398514784299964	14	-0.9196447779950376	0.9881606210084715	0.0982558182515869
Si	8.57605284531236	7.185818461974292	9.092020405105105	14	0.15902749204073496	-1.5385198558654287	0.07977137077344632
Si	7.802835555139238	1.2677533740968792	10.660213321104818	14	1.076321508441561	-0.6069706031275737	-0.40280298631259487
Si	3.9282729098624767	3.3781512725894887	8.043451446487264	14	-0.3104445123338316	-0.2920032594250695	-0.5509210213694095
Si	8.258361754784469	5.372369907685806	0.5056687065833761	14	0.0468524809174624	0.12983439090417762	0.25882314526855854
Si	13.146314381874603	0.8785256957371989	9.998737757253915	14	0.2369975464268855	-0.7015741662718901	-0.18476451340594927
Si	10.334156836092715	11.457584995351557	0.25305456814648764	14	-0.3537452683620414	-0.3692624031901991	-0.564908605642611
Si	0.00910636899564425	6.659408009067149	2.6476058042803676	14	-1.527062496337785	-0.7788397378003201	-0.2905634404457865
Si	7.7284749541694815	5.004084800517477	10.750376761654847	14	-1.3982773735147598	0.5985443196618522	-0.77866618819121
Si	0.11197579116788471	10.123900124727125	13.654844496571288	14	-1.2500240983181055	0.3232347328594402	0.2789528430410619
Si	8.466596367483346	0.4085691906067028	13.05368564295009	14	0.29191764161790856	-1.1501939922789919	-0.2611839341735185
Si	12.399744474131323	4.568059388014249	5.525301506849157	14	-0.38601495412468795	-0.5305354986175514	0.16212001751980906
Si	10.296720310776783	7.190624408805453	4.238928205029474	14	0.6287049277303812	-2.70683576977242	1.5973331187322202
Si	3.890587084710921	6.331426375324409	9.022922800665151	14	0.04518640467000644	-0.4532753264102937	-0.5684328197049381
Si	12.3927640787339	9.166921155718708	10.31849249642112	14	0.31760324087671993	0.41378674824026745	-1.0836707558886725
Si	1.6306148248413386	12.225885538766573	9.54515055633019	14	-0.15703102875963998	-0.24698166260608456	0.9568077914029899
Si	8.132271437923107	3.722835995318916	5.080647550035228	14	1.0399128573345402	0.5451740867578145	-0.9373949177937438
Si	1.928029528738623	1.164572327130111	8.20420829049098	14	2.4065311826001885	-1.2194991646257114	-0.36563483069400216
Si	2.58163829777656	8.767182719289378	4.499418833272936	14	-0.6130952331106984	1.043241924503068	-1.340204074759107
Si	10.070466859958769	9.125592782968894	3.3428337958763437	14	-1.3367081428553018	1.1104701579721719	0.20042640146363128
Si	3.151510022027173	10.816524318039939	2.7159278092317183	14	-1.2830592021345597	-0.186757377139596	-2.206205054244043
Si	4.396277951279686	8.861113357355476	9.277471782826286	14	-0.3590481730848469	0.4732625849480609	-0.938405619295094
Si	13.38139027687547	11.730499065403528	11.947819272111744	14	-0.14346330598521853	0.16252882326571258	0.1660828621497533
Si	13.206963491885137	10.453225207584053	2.585779445046062	14	-0.5447215722214683	1.0831321093241015	-1.7765628137154865
Si	0.09876151488082131	12.87653040975878	2.366617189552412	14	-1.0086351040044068	-0.378705301699507	0.8427425036483445
Si	6.814680256687176	9.301501516982093	12.538396732709868	14	0.65795433607345	-1.1216783773942933	0.14643936039328995
Si	8.468909315958284	5.707885936460683	3.457040820573047	14	-0.361221271301436	-0.11428228904366593	0.30318165402547725
Si	10.537876351768658	1.9787481952968728	2.0369597069146566	14	-0.13094048041290532	-0.11611214470001531	0.365595749893136
Si	6.91048064352044	11.093745735251824	2.9341621153372186	14	0.43443555217690866	0.44647526705956603	-0.32057595284787505
Si	11.250236782068226	12.621787527725497	5.9886668013256195	14	0.5893204793258211	1.204508077946056	0.055814582731902554
Si	7.618229026860998	6.991572340051995	5.377771404124287	14	0.38920595293752375	0.09729731018823569	0.3355217880738959
Si	1.311889139995616	2.916489526989778	11.971572006450193	14	-0.9778941974651203	-0.1426863179574698	0.2605447573909297
Si	2.5474842202963184	1.1884580213808915	5.742538613612169	14	-0.9614725477853345	0.18642519033223287	-0.15908791301575845
Si	9.217653672267826	5.39753534109278	7.377945535293801	14	-1.8141752563334008	1.0676026331904072	0.33665873084646536
Si	3.985514922119507	4.561785342151091	5.283826916067321	14	0.8803305207657174	0.9923710630807462	0.5517257773346158
Si	4.3633011230232155	0.6224268995979466	8.442054183665427	14	0.9693761255394698	1.4362024625396042	0.3275043103540781
Si	11.243754986342049	6.314570936438175	6.8084477607966205	14	1.2260487983182564	0.557597924775302	-0.9912675446773387
Si	7.809802100545791	8.911748923968519	2.1387986897663254	14	-0.6034798134344085	0.18605186583974737	0.16081389601717386
Si	10.86498543608672	0.49474106378860305	7.715608312653203	14	0.14612080044412362	0.1635112426085412	0.42499342499919684
Si	2.1195195024782083	12.577370607012138	5.14269550912342	14	-0.30523519584467956	0.7735825987522134	1.2087527157190885
Si	10.209590018226823	6.871922268944207	1.719462516258917	14	0.24826772948722262	-0.07166133326210324	-0.7293673005616268
Si	6.261234621605892	8.508797289657835	6.896035103045221	14	-0.3155954647322162	0.37178285773554026	0.2983767724031846
Si	6.65769061019953	5.7471229605894445	8.489393452451907	14	-0.09463441640815833	-0.14018360403883767	-0.06928177528830619
Si	2.0081655759002928	4.966759075128487	7.318445974525303	14	0.2804579680954766	-0.11153249190376756	-0.0355907825046818
H	6.0160897832440625	7.502830902949656	10.064289764031685	1	-0.256504008269785	0.05276268071688679	0.8411954695772114
H	7.6007087884131055	1.7735467305980666	6.380275293115493	1	0.23167407286151892	-0.3816448464120323	0.3386413101588316
H	13.166521518550871	6.652302963751916	10.927393494937476	1	-0.43050561769506235	-0.06131880500127556	0.43120752944746277
H	1.4174496153934897	10.552072592408255	6.6848781422732175	1	1.2720669555593307	0.5326342918903884	-0.5325684715941924
H	8.168433764079195	7.055988647578597	0.5872756227752165	1	-0.014425186398690797	0.06284424178771943	-0.012269571698278648
H	11.752672900783034	3.296547126395822	2.8394697277733862	1	0.14179954373255074	-0.19308743843780057	0.15850710032393697
H	13.166660018459549	8.77798571216634	12.550958674427054	1	-0.04480819507741267	0.3884855292268183	0.38366419253047657
H	1.0320833144877795	4.981440065448461	2.0516545472254983	1	0.1873857552798402	-0.2527221694543792	-0.33945017989255016
H	6.795290269472116	0.11731219264928658	8.055556338505808	1	-0.36810463446453645	1.6691366341185274	2.4397328940413887
H	5.820070862490673	1.390940732872329	2.7813828660734137	1	0.48788523223533903	0.5878726899200457	-0.02492866585255973
H	0.9571825638741764	2.1988661001604073	5.629051788440597	1	0.7157774662814521	-0.2938295155339707	0.0028235878625866204
H	13.238292171228327	9.735601780754681	3.96155443791804	1	0.33855749212539477	-0.11245449027157264	0.1973642150273349
H	10.480855939365513	2.8466024730703547	13.218611334205042	1	-0.7258289454200391	-1.303668411049271	-1.0643329585547745
H	12.588422899724725	2.8597599643948595	9.150688966421528	1	-0.5066782123518974	0.7511998413876643	-0.06992660850259932
H	8.071206828186536	12.125085305229996	3.687518518605771	1	-0.5574868530254716	-0.47884059794012207	-0.23605035122694298
H	1.2297323791663202	9.403465149751572	8.32838730861257	1	0.1434134265420077	0.04208102366433159	0.42444269423962117
H	7.170223372257037	12.43101775351104	8.932800910087726	1	-0.24770851408009043	-0.5430025312044174	-0.2139236759522806
