145
config_type=liquid dft_energy=-13879.694405462984 dft_virial="-31.779250048996445 -19.924233527801885 18.824107509065513 -19.924233527801885 -3.6272447668757835 0.9342533595920813 18.824107509065517 0.9342533595920813 -19.372950866528225" pbc="T T T" Lattice="13.849990867899999 0.0 0.0 0.0 13.849990867899999 0.0 0.0 0.0 13.849990867899999" Properties=species:S:1:pos:R:3:Z:I:1:dft_force:R:3
Si	2.4973057033819166	5.556713286137555	1.3230176076579738	14	-1.6005583132458139	-2.3261329763496903	-2.015298941559856
Si	1.201716617638732	7.611816481089161	4.375918464703872	14	-0.14231402190711237	-0.1662301864845978	0.5102803309054249
Si	3.22012287678675	9.163029308284829	5.982434305435065	14	-0.47858143052385116	0.12937647704665925	-1.7518686326681243
Si	10.351192324860234	9.571604038887878	2.6775079345641637	14	0.6017119214162747	-1.4612378292629498	-1.1822222512520766
Si	0.9854503952355603	6.703561779954014	10.875372929237644	14	0.43058223663360273	0.5094354656972242	0.15828701370853232
Si	10.076893255721474	9.33964439183229	4.939336093210044	14	-0.38948954585433604	-1.3766178680767682	0.7656869914245706
Si	0.9639898343857494	4.000472912256839	2.4893142586511385	14	0.48746151407857863	1.1386936952925013	0.07953894285250493
Si	4.298136915989747	13.72592264970535	8.765770020220852	14	-0.17762044016338577	0.07610137503946694	0.29630034774663294
Si	0.5518902811068188	10.118955677987286	7.573188856558587	14	0.053747928275567534	-0.9566344989044119	0.23431099847786277
Si	3.6337805540383195	4.5678931881238345	3.281866136075848	14	0.7496188687263051	-0.7388400238926485	0.8145953281560234
Si	1.0468044697812706	9.877397987260242	5.263952179171884	14	0.7977710433831025	-1.4982357777093487	-0.3122730824375209
Si	10.498528527712955	13.674705383475857	6.314127736730402	14	-0.7300411872660376	-0.6320458219833818	-0.6675085634431203
Si	2.614850575877784	3.8710585975871816	12.112883463275377	14	1.1879463030263218	-3.1531588273970335	-1.5815185070185211
Si	7.86751501249233	9.265685440597704	1.347886651260375	14	0.995007217365494	-0.34109208774999666	0.4949287752598847
Si	7.788140714828395	4.5174515213829425	5.895359412848578	14	1.8081470427997817	1.4522505306163722	-1.4841962571086802
Si	4.725436834246198	9.95232643785558	1.9636378552599938	14	0.316460127451382	0.5839013606425448	-0.9678918264381483
Si	8.323332061945788	1.6225264301744848	1.363670100853434	14	-0.24227422587542538	0.32700500170090535	-0.3414301880995962
Si	4.843092506669008	9.572808988093385	4.1750520471467185	14	-1.5906323040468502	-0.5013359697176937	1.1493529837287713
Si	0.02188714056854237	11.980352900660442	2.1409454383508497	14	0.7818751847412869	-0.8931644500817684	0.9232319841377081
Si	7.665720645547028	4.871609637866014	9.79154189387013	14	-2.7551959468496174	2.544358882834174	-0.9580329230880406
Si	12.55230212354124	7.441046093687953	11.382698094728822	14	-0.7440711947770217	0.08786649587393254	-1.2355863135033458
Si	3.848192262664279	10.663689668812662	10.650684527387703	14	-0.18218672321196877	1.890195384444751	-0.4921054445078301
Si	9.843867159369056	11.684281645877345	2.1238268496381254	14	0.263276556793587	1.69369171836807	-0.8051475445466072
Si	13.279232744233841	7.364067844444166	8.467122667136325	14	-0.31797605114814137	0.7802900983114156	0.5713489673590499
Si	1.4855500204909537	7.210554545664362	13.737404292134839	14	-0.043081697854933224	0.9323730348824306	-0.36900657821084437
Si	13.714828807020163	3.317155912807257	6.660502158345714	14	0.20936639177231817	-0.011871564594719724	-0.06369013543804815
Si	5.885581319295841	3.9091045225013032	1.5444678816430004	14	-1.7799538445222298	0.09645450186429115	-1.3052403848420095
Si	11.503719314932532	1.778740477173529	5.104524934291487	14	-0.2218763618180306	-0.17912145144928823	0.597863748083609
Si	11.32084403551278	3.8582889060069783	13.671921535311409	14	0.17742477904852252	-0.30805929792833026	1.0574557660444426
Si	3.8423891164906285	8.569667999522256	11.113343472329902	14	0.2965070646143729	-3.5892637982583144	-0.3975743865335417
Si	3.0270817040699596	7.11784270679464	2.6331879637868836	14	1.5569202281996004	-0.24778204769224665	3.3422271139983786
Si	0.49687119238408606	4.842178407271726	12.24160527840164	14	-1.1357837182911579	-0.3555499271862534	0.6705728067636727
Si	2.3220340689486423	9.665853226743938	12.505696904270758	14	-0.41296116632196783	-0.11673615196121523	0.18516354895163623
Si	6.582942209485473	11.154117845444999	0.9701350753338365	14	-1.7932310323954745	-0.6072274565490563	2.0842549578040996
Si	12.808319204734373	11.792283874665229	7.896032143689337	14	1.1566353824375588	1.0879593595626793	-0.5787079850063779
Si	9.09634160225589	13.615829072296414	10.515674816407413	14	0.2881849109141176	-0.17064837386674023	-0.3855413565247167
Si	11.35711716159581	4.290810270820628	11.378016797815471	14	0.43587022894555133	-0.16191715731004938	-0.9805475781555133
Si	5.506174669460588	11.78751947780667	11.88862441114234	14	-0.079175388560236	0.6850311604209933	0.5473929506491023
Si	4.224081014819085	4.7659065075622005	13.671561435548844	14	0.3406002353022524	0.04633106075853637	-0.07242957953176347
Si	13.479282012329788	5.543874344603012	0.8263887901140761	14	1.3680653433398278	-4.698656405990812	1.8411908883743244
Si	6.062196402843301	12.268543510639706	9.58326573119865	14	-0.24319262469578232	0.05148175604638902	-0.38001579408118646
Si	3.929048509351079	13.757098979148994	12.844647730780874	14	-1.1190545644150822	-1.0659573828960442	-1.453743057254718
Si	12.360729049856449	7.728184104361257	3.9659864349957688	14	0.024785969507291512	0.39520459875996117	0.5402609616015436
Si	3.4719018607743037	1.051614571609692	10.84065100213182	14	-0.24240200980983678	-0.1089446743990385	-0.5384367623768984
Si	2.1449757856934086	11.084203091543841	9.000624315367833	14	0.4539319867090596	1.2080598028353084	0.13846122058487045
Si	9.61089646298011	5.9106636527576075	8.638197754336625	14	0.03238461417045715	-0.09246131819156918	-0.5121284414095473
Si	9.260699443885258	5.927699141525125	3.161191165643835	14	-0.6254442519633695	0.29399586604818423	0.3590630854957037
Si	10.66481151807296	1.097235056529468	11.987139396185713	14	0.5816184762287855	0.5181911077544565	-0.479566678082532
Si	1.720127315820576	3.2095137837819383	4.62088325318442	14	0.4689187025096707	-0.18214275731099425	1.4235040304739246
Si	10.669742114821934	5.175810837288569	6.392781834869206	14	-1.0091786356690862	-0.03535141259937601	0.6892899392732867
Si	6.748989750000726	0.20159354207771846	11.105670577389086	14	-0.010519677417385865	0.5957166180307534	0.15843356671178077
Si	6.854249680596766	8.305382473780988	12.886405453247592	14	-0.3002714199136017	0.9565954181035456	0.8188551354504449
Si	7.381283383092965	7.5993099393354475	4.534376210223517	14	-1.376317048754311	0.31673909237861814	-2.3980586192387046
Si	7.734472000215283	3.1273556379535554	7.540087378384306	14	-0.7323770364493921	0.7066646976952513	1.1831913008472403
Si	9.123750734183464	7.027997816034572	5.7889083830378985	14	1.8527510921147745	-0.5231080895687076	0.44125875147551763
Si	7.753335687777362	4.5764940324528	13.150580179061917	14	0.05508747414736468	1.2624870171364593	1.2543355848294617
Si	12.694333779891556	0.1955563310584008	6.966005256909852	14	0.7838343669952399	0.4608935114738925	-0.22128192226801238
Si	12.255039769543503	1.265836535360762	2.8599815642487463	14	0.4826106096710553	1.8890980366941117	0.37100998347630376
Si	12.28659004874058	10.97492666359611	3.8717787971123125	14	0.05566828683918613	-0.2954485405540679	-0.18663062164731273
Si	7.760399183119992	3.6268001586408976	2.708905863861693	14	1.7446456264922323	-0.29187367571693407	1.0358870206242525
Si	6.319736983031902	10.55309749173248	7.889439548036216	14	0.7392300605697149	0.08823776348216192	-0.30552701629851636
Si	11.240888038232393	3.074116273057348	7.5905982950795385	14	0.26466135411901875	-0.19697032169228823	-0.24463938565942964
Si	11.19065412135452	10.527710458471619	8.784633707782932	14	-1.3708056273900413	-1.1401700239673305	-0.2873953244703001
Si	11.877779868292775	13.215536636232368	1.871673915897138	14	-1.6728598517326339	-1.7236774912748287	-0.5935273218506473
Si	0.4204746427567496	13.022107663771276	9.612586161865993	14	0.5685541758760491	-2.035295198966244	-1.5046902805050484
Si	5.176988086512341	6.363087454448428	11.50327611522476	14	0.002303453256320664	-0.006405137573552894	0.2477347393543559
Si	2.7637795276803128	12.895878847001237	4.104098543930467	14	-0.3471447267841573	0.5381559976759384	-0.09345067951876215
Si	9.527353318064938	4.7400624246027	1.180526131610845	14	-0.14806224207136742	-0.2290605443035884	-1.454749644987556
Si	7.233337780642057	7.166760874540063	2.1394357893462486	14	1.0321038962561864	-0.2873896680385958	1.392081523914267
Si	10.183358135523022	7.99493492847701	11.130143511252665	14	0.04762175562925071	-0.4099342040285575	0.9497130833825733
Si	8.14702167819742	2.217328137987318	4.77949334860361	14	1.0123099848384947	1.2085488270672005	-0.9448058717685387
Si	6.599797648371707	13.62190921828742	3.679471673911521	14	-1.0693183317705417	0.16886119855870532	0.6813727346609546
Si	10.483916787347319	1.136623045558689	0.5641724530084725	14	0.9994596004483943	0.5999031488235506	0.2806302321519265
Si	13.010639871332655	11.762284794445357	10.998873297806709	14	-0.09644524588513863	-0.4728704913867383	1.2895075342774913
Si	2.8470456727781275	11.047043566045266	0.7053010899541999	14	0.9545321060841269	-1.6785039421314227	-0.434700890245948
Si	11.051184713314766	11.048234665259905	6.150199244817938	14	-0.0269544397343044	0.858966435329011	0.02838500273443479
Si	7.475421771022082	10.360790368531687	10.541463499403443	14	0.13872193066433347	2.480344531015256	1.6024167081712168
Si	0.4307582609761654	1.9803547942375492	1.7434922504147234	14	0.10937996252973957	-1.534273932539736	0.4323359875724757
Si	9.381859163997648	8.991427921431548	13.28424644092802	14	0.35999613961638544	0.02964510145183937	-0.15778976193961566
Si	6.967099406188416	10.165450097330826	4.182738792078403	14	1.770022436002094	0.5021101295295903	0.5583353177811206
Si	1.071975443184592	1.1491946822694816	10.335431035252563	14	0.35498891200539706	1.7947983781986367	0.25027010631055396
Si	4.9979769545447335	2.466392523764764	8.46371556938282	14	0.28719169292894436	-0.2766882134750755	-0.5541891533418496
Si	1.566835616894659	6.63037842820803	7.107843013388016	14	-0.27051961759097615	0.41988592428072274	-0.7468909259816282
Si	9.728469035457714	8.369895731243666	8.908411076169354	14	1.0265587934122231	0.06926711998798134	-0.5544912582169671
Si	9.233705811683722	11.857918981388208	8.496429247812802	14	-0.9808077740139122	0.47256273007991656	0.41659490947093314
Si	9.326348400599104	3.661134286002422	10.149799607650099	14	2.93961001860043	-2.432583164367121	0.7773628949044271
Si	8.232573071788439	6.759003293398218	12.046112657301231	14	1.0308471399756982	-1.2476142013015306	-0.9888021117858485
Si	12.35866540121713	9.41785529026332	0.5195270074457969	14	0.14663939238719748	0.055713024071756705	0.5108308045544685
Si	9.233553461784176	12.435740600396995	4.202128779293463	14	1.7683663870653865	-3.531378704412097	2.389647505294372
Si	7.943385262466686	1.546323780419299	9.031717544866268	14	0.4410636045817184	-0.8451449444594908	2.597819875756014
Si	5.843782046856518	1.9799115945297765	13.45354872929723	14	0.2289996091075009	0.5568019105681842	-0.017825730295118646
Si	4.992340008261498	13.755367730290507	0.868091112617323	14	0.6120058557865516	0.497295734817613	1.8475582306996714
Si	7.697340174698442	8.861501157099777	6.442780301902325	14	0.09278373479871575	0.9535116343825603	0.813961550694607
Si	4.870750938432204	3.8672083001259057	5.708329136168456	14	-1.9811724035349987	-1.1098232678736226	-2.4909783655088558
Si	7.50992209827402	8.59444563318493	9.326085250772614	14	-1.2801484538016201	-2.171647341856997	-1.6722026772128042
Si	0.5076686452647009	11.005992193112808	13.544681669208012	14	-1.2989954271299016	-0.522438573743341	-0.03021382994865612
Si	7.796741559157362	11.19856246614009	13.039240102474869	14	1.4191377794192492	0.06441904379631011	-2.8858201813081448
Si	10.458557454068194	6.903846497894716	0.31898467967495203	14	-0.4501349783722649	0.07592422588290874	-0.08603329778066696
Si	6.152636843210688	7.208407797079837	7.415922210253583	14	1.531058508226359	-1.0441608375444889	0.7371088986805926
Si	13.309231824453711	13.116384551609071	13.844935621233216	14	0.33097530253627805	0.12419827093188102	-0.7345354793656564
Si	2.603645933265653	12.243821276940505	6.421395916002288	14	0.050883974059454586	-0.04749911390547964	0.31384505623025943
Si	4.199912780754599	0.753017078492289	2.9816260340415117	14	0.3115835119906572	-0.7130508090894351	0.2951852593692848
Si	12.464867131192188	8.970029685540641	6.5916261537596466	14	-0.18426263364745632	-0.7447232270862113	-0.532664116712102
Si	0.1070188794362633	11.911282996202226	5.5244428074153475	14	-0.230373093569524	1.6145618383720002	0.0021535578161560307
Si	7.1181335566028645	12.224098889944615	6.059232504797571	14	0.3608070662343601	-0.40703785388541075	-0.9030570349115703
Si	1.4692624312303035	4.4231469335634115	9.841111011186344	14	0.31481359160435923	0.4066329047974875	0.09599401690145264
Si	2.4868074103040483	9.07260271790831	1.9533473120451441	14	-1.9216338318573938	2.105021775474935	-0.9026641700186515
Si	0.21792545130914612	9.280407980890281	10.95922077395191	14	0.2648847831713396	0.8701864818356052	0.08870724731362095
Si	5.107502682328087	2.7919504091056213	10.782023990787998	14	0.11102084194505808	0.16283401346721418	0.7616786382304598
Si	6.6702802518984505	0.8979018329613909	5.900705509323587	14	-2.5217100160689903	-0.9136114222507781	-0.9319138354722522
Si	7.234542729847564	13.301835929330252	1.4530579419148604	14	0.8718134772821948	0.5349457155732015	-0.22940867196393644
Si	1.8524501285724928	13.009407222145413	0.6055520707244973	14	-0.47614582245407483	2.27765504264883	-0.1112586691871718
Si	13.144513883061776	3.466638864244502	9.278053482442738	14	-0.40321076361637037	-0.30240826554517675	0.30404323141825895
Si	4.006497658284376	1.0209036018592108	6.632940676518592	14	1.3242830192851542	0.07223674663275237	0.329430068238869
Si	2.90797178260602	6.839457890349849	9.149110067462589	14	0.21467906669534012	0.4340964233851812	0.9855699752878904
Si	1.770998332278373	0.9613832661044106	5.875803225743103	14	-0.3004485690701599	0.028658568340498552	-0.5390479141114977
Si	13.151425028504859	0.5354171019685385	11.89733605539825	14	-0.8449446553550513	-0.2602742771112501	-0.4636577068035837
Si	12.86011817058032	7.143146640110292	13.60510917936466	14	-1.7362735933487663	4.272410595590172	-1.4149610188266686
Si	5.866537581852477	6.480826226816447	0.43008099642272507	14	-0.25057221118567136	-0.4931865942949524	-0.43267305947994716
Si	3.6972412121950367	2.566361757849266	1.4264798094393605	14	0.3106977662078662	0.07347833339185188	0.5078717194415102
Si	0.10054677870369362	8.755687226869021	2.307630078446026	14	-0.6187367524041673	0.4639001620352736	-0.03677246250982186
Si	12.696771378284305	6.323753480383593	6.506324060004251	14	0.5993472758533345	0.16383340210515573	-0.846882497434847
Si	1.8418133355859454	2.0512113475177256	8.177685557978952	14	-0.05330132728145781	0.03447903656424977	-0.5701821997647668
Si	8.64060765274764	0.10930828292672716	13.033520056246427	14	-0.8909604986013375	-0.9904355349957387	-0.14756164786553458
Si	8.198363594344725	2.4836357623952994	12.234901882821577	14	0.004914924929995068	-0.7440987056039473	-0.23289200545167305
Si	5.353395420196783	4.793897339106227	7.5836871496364555	14	0.39706942144866464	1.4922762126877775	3.1190279184931318
Si	4.064501420039141	4.96403062692751	9.955996685435574	14	0.2805394721341252	-0.923922325916168	-0.3181758260315169
Si	2.138120040213798	4.309909408227461	7.354913000480483	14	0.14589325762329053	-0.05845022279558635	-0.5982447858920551
H	3.7350378372735356	11.422752268318789	7.837571332235931	1	-0.8701252895289855	0.11617745077514707	-0.0050342242168499385
H	3.8952960816060074	7.383873331385263	1.2996623680574342	1	0.9253672871060912	-0.4869262099509238	-0.059772285151206486
H	5.402867587576921	8.330977256904868	12.207201901085776	1	-0.15842276806943612	0.6845369939784609	-0.1667652335017206
H	2.210707842352462	5.165921943808889	12.600070742044629	1	-0.6177335071082455	2.4027709410694715	0.694748395867961
H	6.340054919635111	4.396527251115308	5.40090088887368	1	-0.06738841333054914	0.24069685276151453	-1.1194086056176666
H	8.577105444618319	13.585649942195259	4.031815441590897	1	-1.937437644928748	4.14473233360747	-0.7615665380385013
H	13.477066013790923	4.038491137189225	3.1135194970765236	1	-0.8632015600123588	0.5820465652645901	0.507678886542499
H	8.187837601285121	0.5585022667471543	7.812558248728504	1	0.47271056863582506	-0.6910475468701398	0.6354754193699274
H	0.8324523161160426	7.2131444939566585	9.282956379209974	1	-0.05328178688102468	0.24538629175493268	-0.2831964523719663
H	5.478627037624335	5.973348711425722	5.174536638128722	1	-0.1284817323952477	0.4314623259846894	-0.26447957697288427
H	11.577622866203646	11.478110681817784	10.129343171138212	1	0.07257150454543565	0.11762883972837065	1.048644331001763
H	0.2118203753345758	2.3260367163094653	0.3467566813632651	1	-0.29162222161662354	-0.0955039642274324	-1.2432474360257912
H	5.438711363943047	8.41485280160087	7.739748846735952	1	-1.6887860494172273	1.1679248487877971	0.37486535590386577
H	8.763706371581534	13.23365242428758	7.556167217781938	1	0.6132525847562914	-0.5997331987618887	0.05918144514863648
H	5.939817883534537	6.80067791591973	4.893506473428164	1	-0.8293192769929153	-1.1783722781456867	0.26649403799122034
H	3.6996372606151837	9.242154306113141	7.356228749612934	1	0.35372238552469215	0.11688270496446368	0.8648522096278939
H	7.651122755172261	1.1207509560240754	7.040781357605644	1	0.35810586298501257	0.10011215629273382	0.2197778256557258
