145
config_type=liquid dft_energy=-13881.473266529327 dft_virial="-46.79072570155432 12.68925842453788 -9.659643091343714 12.68925842453788 -31.057216120956607 -4.702977747502696 -9.659643091343714 -4.702977747502696 -39.08008635515598" pbc="T T T" Lattice="13.849990867899999 0.0 0.0 0.0 13.849990867899999 0.0 0.0 0.0 13.849990867899999" Properties=species:S:1:pos:R:3:Z:I:1:dft_force:R:3
Si	11.171319534102933	13.003797975843913	1.5270445931311825	14	-0.005114956923902588	0.6264685803229165	0.7466847233349523
Si	7.439910394436787	7.531597333982284	0.7568950759353009	14	0.5443510759448351	1.0854988117712976	-1.2299149693881632
Si	5.622777742577438	4.883215930213313	3.5312213716615197	14	-2.7733070698352726	-2.1897160416048695	0.7264989754664697
Si	3.6626716349887585	1.7844743733928397	5.0974475889579915	14	0.2209834169403432	-1.007301471674846	-0.57537763228519
Si	2.359456744273708	13.553836513171692	5.760155801996138	14	-0.5011346521711262	0.7309809262605517	0.29661865058526726
Si	4.939017543420083	1.5276124427567663	10.204507071578304	14	0.10271411487672366	0.4900886694947059	0.3971031029283586
Si	8.74733568237568	4.792124540275135	3.05721928419851	14	0.06771648636940002	0.08127752426998906	-0.1724538040225482
Si	1.6512513112345095	8.140567582452979	11.169297435436219	14	0.852230139390223	0.6950337885584975	-0.4131761107267323
Si	1.7772585281506637	5.7600450020691945	10.018778694039765	14	1.583026203178256	0.18924055065779502	-0.99236900619649
Si	7.553175619754471	4.485928942167602	5.814613966088721	14	0.6035440910674122	1.2844203452910463	0.6187529503676842
Si	3.6349024032986192	8.523796829767772	6.26289662051004	14	-0.18802904583094124	-0.20184770848460915	-0.07108386300719796
Si	13.752514632171719	13.57872494676131	0.6327285228054907	14	0.3820423392945272	-0.03920189992682978	0.4066285339184432
Si	0.6654976011989421	6.895245653565751	12.79269641503538	14	0.8942782529064566	-1.0635161183945636	0.6135657453842853
Si	5.670795660916447	5.2043556684673105	8.811516540057525	14	-0.9153685156265672	0.5428364378007359	0.13746517438384512
Si	5.374405856343388	7.361117796389302	10.197221976381789	14	0.7960676861085043	-1.1918561828866712	1.0209447849456799
Si	0.24585949789061362	11.5441612882668	2.2066082450555635	14	0.5244756604884944	0.8777205917552351	-0.7106779359894704
Si	11.280318962233304	8.239539617194993	0.5387272497859666	14	1.0337026095442545	0.7676076070987212	0.8076623426602443
Si	8.785672457098025	10.933986090590597	4.494238936688342	14	2.557730687383201	1.4694789931456205	-0.8692210317878895
Si	0.7607301384066225	0.7467125626492209	10.857257141182432	14	0.23639333667665072	0.6772540810486094	0.33328441222430305
Si	12.229500386383096	5.727705273392648	9.995150609619127	14	0.775277214268723	2.3171335935081077	0.5093351925897384
Si	6.694323836045125	6.16654223404206	2.3096521771127394	14	1.8638310133814204	1.348693864526236	-0.2640530306002717
Si	5.666239013920908	7.272325504935196	12.788028968112899	14	-0.29266789015032774	-0.6566299597230416	-0.10335174899612039
Si	10.700918444265577	6.228188543395083	6.557693676133292	14	0.669311422493608	0.47328238245902593	1.19940803343301
Si	0.22495570667369216	8.864271155273357	2.733960497341724	14	0.1604534270512891	-1.677673989334079	0.10830626894804574
Si	2.580142498762827	7.474133721871367	3.646384045728108	14	0.10084132176152782	0.21500585418153098	-0.0956446036884445
Si	13.275687146571657	3.2143612805857034	4.000265162393821	14	1.69560719183158	-0.11541049005814688	0.0741087684163522
Si	2.75225633527822	0.7305191533264723	8.424713995098815	14	-2.0407264018445246	-0.050440715502261056	0.5604611076598189
Si	7.442209492920858	3.981983174448193	11.999881387784182	14	-0.4228506658253855	-0.2730141039725838	-0.5327199096975491
Si	7.084173378994774	13.779051214674615	6.767147088028543	14	-0.6255296126599984	0.0524173812723909	-0.6850288464262052
Si	8.59022138597022	13.259565757201424	2.971764840543567	14	1.4409212121336716	-0.25033772638047386	0.45557980810874243
Si	0.429204292000787	8.623281314171896	0.528231726706272	14	0.25654720283916344	0.9612442336329055	-1.1319553424694573
Si	7.000893383906092	12.499852208124503	4.45599911190207	14	-1.3574811311789061	0.49673883340526886	1.0514609768799854
Si	12.442056196232757	2.5563620644426424	0.2102844113473257	14	-1.3024263100691071	0.2897787391020774	0.6815018041480261
Si	0.9465887058593198	5.6103958507415355	2.7249026033141175	14	1.1510591692192216	0.4829317407255418	0.19526002243332571
Si	0.8109086553210242	7.859842117551513	5.280128968505592	14	0.34865962203878853	1.2686638405575827	0.18293465774959983
Si	8.569487949640973	0.702312261924907	8.428910542331788	14	0.9157025022076545	-0.5734603590479557	-0.3248704700641184
Si	11.035825073442266	3.4125546499053523	3.7873908027541976	14	-1.2105782004963934	0.6523053605745526	-0.39572241937143904
Si	12.086942430379802	1.3787222709286677	6.974384501384931	14	-0.7106403978517962	1.5093306113868517	0.26132611629772273
Si	4.588252674699648	8.862456806469662	8.645011949843632	14	-0.9873296397689998	0.8073355551740532	-0.9436745854276735
Si	5.917893347990652	13.324702264253155	9.10491474660312	14	0.1358014121311773	-0.7636213654103636	0.19520294389521842
Si	0.7315966826159949	13.035722204794423	8.218432231112313	14	0.7914872619806606	0.6076881986224268	-0.12162536583800883
Si	5.5919338129146245	10.796081731518917	13.182088908286389	14	0.5175655578300645	-0.402614267182096	1.3211534698894698
Si	12.715455015965103	6.8905228066797966	8.046858544240767	14	-0.9275707243654582	-2.237995228864482	-1.36352271446019
Si	2.8668788597009605	10.245780044364647	2.2766891988471376	14	-0.49007632818916924	-0.0511498263495579	-0.3181310887989463
Si	13.429768294977046	9.528225867489615	10.86089968878069	14	0.30005724684043333	0.3690549149908632	-0.929879834053483
Si	9.498434537132763	7.439910394436787	13.207129691775553	14	-0.9641765792505343	-1.0226286018198447	-0.3513217444872698
Si	2.4622790764769977	9.970428375919928	13.428286345954179	14	-0.30521899788116263	-1.0798521502671885	0.5505019312022252
Si	12.543950579047896	6.214892552161898	3.6359827025863147	14	-0.40083609074268156	-0.08822490795556118	0.15775453779672965
Si	6.149631395192354	7.594240842677794	4.267556136153423	14	-0.03319965455694409	-0.05140410866572054	0.572078132827844
Si	2.526806183930544	11.384997193212893	4.547935351283191	14	0.17485238817571436	-0.17966369756130746	-0.5545642776080593
Si	5.58286206889615	11.682439597091912	11.130711360878248	14	-0.1619387545947386	1.4563540147073286	-1.3560811643320854
Si	9.551660052038102	11.118398718996685	11.320109985996782	14	0.016343230967521265	-0.13771071494191925	0.6942403454566998
Si	11.536959293015492	9.965747079006576	4.571729635594243	14	1.8337945896998549	-1.8597401277065333	0.07465615673901171
Si	11.345635519166322	1.649520062376022	2.2229512342796856	14	0.07634074494477273	-0.7939041009815998	-0.6945815311326835
Si	4.2449806510387464	2.9910717278134196	13.032910656648239	14	0.3343545062585486	-0.5650271335978698	-1.4178380856799144
Si	0.49635458772471336	2.1502387822232105	12.84374748137446	14	0.7629024843628502	-0.5880315842288307	-0.2737347847938213
Si	11.959716414267271	13.23175497553868	5.919666146821742	14	1.8138374130943336	-1.1599896464382238	-0.7676605718683163
Si	10.613220302090033	4.808827629261823	11.710873628343712	14	-0.749667462616856	0.08783564261009078	0.5699454009647811
Si	9.835183215094883	3.23647971600174	13.558919459820212	14	0.18157557147736955	0.1479660827323939	-0.2610795472975205
Si	4.000763762065065	1.877767911879014	1.2565445764874876	14	-0.9308532545276911	-1.2042455680928688	0.6895704468637147
Si	2.404718514430005	13.432815292967984	2.588189343457077	14	0.340612319497257	-0.5777857295280407	-0.0953944351407941
Si	5.10694868269337	0.2315289123395975	2.8666849598288096	14	-0.6356538540791454	0.11983844764050591	0.2613361436084713
Si	0.2922708172889465	10.420220679345848	4.301156213998949	14	-0.7852605591163259	0.5331734526760232	2.2308935788597015
Si	4.550428349639413	1.2078396986014306	7.241536975235854	14	2.233077989939699	-0.05546568373995847	-0.8139576940366267
Si	9.438962676346	8.056539687857429	7.779152070755128	14	0.08665190572069459	-1.3168453258150297	0.4330504977409449
Si	11.811313762117722	8.01986491203923	11.611222944049171	14	0.11465689908881149	-0.8306166567374621	0.4972391705005697
Si	12.56180321727662	11.795427822592242	9.940637045563074	14	0.13910039736745927	-0.11866859471983855	0.40935210578407605
Si	8.920086618470995	9.278856781913076	1.8101107064893225	14	-0.16785769615225152	0.3154463406236477	-0.11822276505732486
Si	11.004842643870774	11.986391496678847	4.014032053316514	14	-0.95302543836652	2.6448585046986546	-1.1948754318641213
Si	0.8267156498985585	4.546910451958966	7.911419483543574	14	-0.6478136395802538	0.4835428924601409	0.4114514132779769
Si	4.472134351263174	12.393401178313825	5.5174762620087945	14	0.856486090026664	-0.007451834549385177	0.33412773476931157
Si	9.005541062125937	2.6727850876782098	7.1184936563654295	14	-0.052248973873921196	0.5534972689001978	-0.37459693250844234
Si	2.1597537259494577	8.002372373573072	8.28571548674857	14	-0.436055348528602	1.5585803909048201	0.5454016295786476
Si	12.473634175411568	6.363032054484957	13.660052093137619	14	-0.7317054637397695	0.0656513745762571	-0.8937010397620834
Si	11.870868722849693	13.782125912647288	13.080942424978115	14	1.0197065406234964	0.6947414538835966	-0.43544188279921464
Si	9.937257647791306	9.630937399765962	6.180516874827771	14	-0.32691115635671997	1.082203940303528	0.8137082968205723
Si	13.182587507957633	4.872149787509861	1.372625504948618	14	-1.4042495369523997	-1.5200086688919587	0.14616116679764993
Si	2.073980732504553	3.4939925962086043	4.974833619804472	14	-0.8503807433334406	0.29574447477641697	-0.11079124223996885
Si	6.622193083605102	1.6553924585040116	12.60144189114055	14	0.12223523201994797	1.1869646550150894	-0.4723938084603828
Si	7.5205450412697	2.672383437943041	3.022718956946571	14	-0.10613805583156485	0.005095673634001477	0.24323401949143672
Si	2.304056780802108	2.7099030632041816	10.182748735924834	14	0.07127541035354899	-0.0539348476323423	-0.2193960165156838
Si	3.569627396338206	10.88977691974026	7.468012025907755	14	0.5156418568295296	-0.41600972590006746	0.061047039168935904
Si	8.358968088448893	10.757107857216647	13.653542597429706	14	-0.34988218261851894	0.6576365474558796	-0.29820373701513864
Si	11.000673796619536	9.928615253489737	8.699580913863159	14	-0.21198840497780516	0.32724257183248706	-0.030186833342794567
Si	4.565760289530178	5.194480624978499	0.06373073297864185	14	1.1202185037935133	0.5539919495637944	-0.755849171138088
Si	8.646535448839103	1.1800829319030723	1.3955666298222076	14	1.733963712329145	1.5377528951484285	-0.014075773185682674
Si	0.2807462398877669	1.3230840876141399	2.4836357623952994	14	-0.734024600738543	-0.8485377750399583	0.6491313310568297
Si	9.642917641866696	13.25865165780414	13.215578186204972	14	-1.0063740739858686	-0.8638147686312141	0.12937030639389088
Si	9.7462939737047	6.429373510742198	4.490139339391444	14	0.14683479639152874	0.7119755728445492	-0.9770184789930781
Si	3.605249572850445	13.30053403018867	10.196321726975375	14	2.1113958026741146	-0.4369670624751265	-1.0848982015685111
Si	10.325015842119901	12.68671628491421	9.731612983384727	14	-0.28923135077941786	-0.6483772258664303	-0.3157178493454553
Si	9.976370022002255	7.77122987597869	10.235877300894098	14	-0.8588507355896043	-0.1639889539770247	-0.36295548183987586
Si	3.586455135242705	12.009437881483032	0.2451282183727885	14	0.023812291922551434	0.21279238961141547	0.5649978229972201
Si	10.716208834183739	3.9775788773522005	6.03575677027648	14	-0.10475917204836946	-1.377620599151626	0.8355876317634364
Si	6.705196078876426	2.7436970409218575	9.07991551308656	14	-0.20208399306353073	0.7355785767940406	-0.5007870387318419
Si	2.370024287305916	5.620921843801139	0.3700676009930276	14	-1.53777732064897	0.8175125042522635	0.2217925437845938
Si	10.586295919842836	1.2016265926980907	9.761916763403692	14	-0.3343187678945986	0.6228083547891538	0.4343491630381517
Si	7.757892334772902	6.68775894037374	11.422835368263996	14	0.3344622355714628	0.11197986422947331	-0.3904056306799048
Si	5.571352726484926	3.4919012475875513	1.4558833400519122	14	1.5593676633538496	0.7247598798279214	0.620154716988229
Si	12.865159567256233	0.5672596159729274	9.230174064012408	14	-0.07138956742976357	-0.3470750498299813	-0.024726576974396088
Si	0.30062928677772416	13.246837615593822	4.438825123225874	14	-0.1882100516454797	0.054841419368226514	-0.4670268832151057
Si	13.579888345994213	8.856833710177295	8.387235919810278	14	1.7447993785903773	1.6773564578270406	0.8983385424280343
Si	9.055179429396492	1.4170064156857167	11.903319251453183	14	0.23995277488186373	0.3167876862691689	0.45688772938510175
Si	9.91196756446652	12.632590520602458	6.665114205304724	14	-1.885265289993367	-0.3505848657025154	0.0433886878301589
Si	4.303801562254717	4.533337460908425	10.846994297949317	14	-0.623039754267967	0.12234244711179812	-0.3013569405797682
Si	8.676257529241616	3.9596154391965346	10.057212418698189	14	0.6532741530591843	0.036200134465556894	-0.3173836684823792
Si	0.6046601313126045	5.5894823645310066	5.219410608540718	14	-0.4554144860366569	-1.2721718566563929	0.3197567986928759
Si	3.359993934561672	0.7763529281056136	12.106013867804899	14	-0.6579849322267597	0.976360018920588	0.47892158775770677
Si	7.308654030981697	4.906414664917047	0.19010358965370858	14	0.3286877901329423	0.17798425156618672	1.0039045273258664
Si	13.305533876891982	11.139353755179817	7.763653930973947	14	-0.6688722777049267	-0.11146435761278362	-0.7959969807122003
Si	7.966528597206946	5.244811491792447	8.196147595805861	14	0.4865605987743987	0.04506042050931919	-0.6019854870223385
Si	6.541073687091811	9.43237008069288	2.613174726982768	14	-0.1114414747754343	-0.17693164104811812	-0.6684714423855156
Si	11.254225579438181	3.8122515363620786	9.582171581920086	14	-1.7584828011042053	-2.1445314367085873	-0.5027238523695096
Si	7.147938736950586	9.679287717885801	5.055648316518669	14	-1.876793755074011	-1.4657272362624605	1.2842110573179861
Si	5.369392159649208	13.56857290345514	12.833678538013498	14	0.25053775837438136	-1.6200562904411566	-0.003973643272288855
Si	3.1683793109042755	4.711572993387429	3.2818245861032445	14	0.47233647281174357	0.6239560962040678	0.18834632022744754
Si	6.8693046206701736	11.783475280473244	2.1484105834286478	14	-0.4556019196144957	-3.2788316272300193	0.8960183769871328
Si	5.5759232234713325	6.7495852996080465	6.736427808283541	14	-0.3611014577935171	0.35087977148273636	-0.1637459845242707
Si	1.9443586679718774	2.9184839256747557	2.077609430111943	14	0.7431314557825076	0.352435290201426	-0.5495529362285587
Si	6.515008004278424	11.309417793046762	7.10003161853852	14	-0.5015568276646944	0.3770837055740896	-0.11751185443630392
Si	2.890770093948088	5.9725869619279885	7.686564881803217	14	0.5138485108687264	-1.1124265120102725	-0.18712221698452502
Si	5.068127158290646	8.856348960496918	0.6408930924221178	14	-0.44476445357953953	0.1787740951205362	-0.11689787448585255
Si	10.271818027196298	5.463308947724437	1.1945063123929034	14	-0.2873868398227436	-0.36900503554765235	-0.6557218453239653
Si	13.524405282577407	3.2390973642757728	9.76187521343109	14	0.9971540903078177	-0.08037146675516887	-0.0395166032180159
Si	7.266203808971584	2.2743624003813303	5.443988210463717	14	-0.061728639189307176	-1.424069673644357	-0.1981553441343445
Si	11.205806011364004	8.193072897833188	3.044172592800948	14	-0.3324811989222888	-0.3719155267700599	-0.30242909149826996
Si	2.6353901123348797	3.1332418840724134	7.2485727705967475	14	0.9899308270213936	-0.09940998742980138	1.209315530673669
Si	6.948900518187995	13.609194926670689	1.1309708642854988	14	-1.8843047250457596	2.0045254960473717	-2.667679635520289
H	2.8871275463498303	6.953969614845646	0.9685672563675902	1	-0.06633940235992872	0.14451925894020337	0.17223937383884788
H	13.29136533623412	1.975687347315067	7.8178904952126445	1	0.2642214379987415	0.2140640583027607	-0.23570350911925497
H	4.127989778177595	3.5088397864189935	7.959922151562959	1	-0.7499351146806834	-0.049040491544908416	-0.574664664779913
H	2.4846052617560526	12.597494643743198	11.134298508513035	1	-0.7811239077667396	-0.9875078173676861	0.8788217961638545
H	0.9060608625816707	5.488322031231864	11.170017634961349	1	-0.8832834352259074	-0.6939456967870108	1.182563694038592
H	2.737533794985642	7.857806168893933	12.87653040975878	1	-0.3896489543841853	0.6588220841189999	-0.7474840799789862
H	6.663078256647142	7.770606626389633	7.154060432914197	1	0.15939310321726002	-0.10098221833307192	0.14519365986567823
H	3.409812351713508	2.6945434233316807	3.132881784309848	1	-0.09397492789354034	-0.18469483645177323	-0.331634533940364
H	1.8150136032565591	12.181953367733595	11.22007150195794	1	-0.952104211330311	-0.7395036261757786	0.0915274927392914
H	5.069719907240455	10.561961485887934	5.286915464030863	1	-0.07878432344104146	-0.7288021716122582	-0.5011253961919736
H	12.096665123969066	4.892744723930429	12.194016709779536	1	0.5633060356965628	0.30368250534184216	0.7414687219719678
H	5.923419494346943	4.6214788027917395	5.005899149321172	1	-0.1321365586078382	-0.04412222417799715	0.505664939745227
H	8.843980918651884	13.597297784515165	5.497740025022036	1	0.5185402638569325	-0.3974206344353969	0.9505643763540742
H	11.285014109137524	8.439034885656223	7.679736836305342	1	-0.2966672444758181	0.0003923506718545969	0.1682168795654762
H	4.966703675165015	9.681392916497721	5.162404046128442	1	-0.006560175224357824	0.3231007782722606	-0.002378529531668988
H	6.0610053036286615	1.1474717434055148	0.5636572333481866	1	0.1633832015635978	0.30883885706139913	0.037403411755386196
H	7.854482171085637	1.5833725059909316	9.48777004416448	1	-0.2552451951050405	-0.0001488669980365738	0.7500197040457162
