145
config_type=liquid dft_energy=-13882.09464134207 dft_virial="-28.159323193553494 8.749782769861087 -15.613983693861393 8.749782769861087 -47.01270234835035 -5.659184841393287 -15.613983693861394 -5.659184841393287 -41.68526282524564" pbc="T T T" Lattice="13.849990867899999 0.0 0.0 0.0 13.849990867899999 0.0 0.0 0.0 13.849990867899999" Properties=species:S:1:pos:R:3:Z:I:1:dft_force:R:3
Si	1.8615634225635709	11.924551287453674	9.615882459692555	14	1.8134923707603696	-0.644185552862993	-0.8198311270299729
Si	5.072697655277053	9.538225560896239	11.09957658140721	14	0.1732804143829758	-0.5727893005593969	1.2109039595404563
Si	3.515099982291284	7.102289167049987	13.56915460307159	14	0.4888684229097636	0.11713210218051805	0.20647646939247172
Si	13.746157486363353	5.643220329098458	11.28555425878137	14	-0.819658862973523	0.5875965532086618	-0.5797744794931752
Si	5.779601189174669	13.01720476700404	9.959486883134286	14	-1.4991729455985425	-1.39613230034616	0.5862243542992988
Si	8.040404448496327	4.92169120484434	10.503556074398002	14	-0.07065628819245734	0.3898538714782011	0.11154123366185606
Si	1.322073038280783	9.131728328923375	9.401983200728706	14	-0.10537006667243665	0.8332440692641215	0.3722338296086943
Si	0.6768795236941823	6.728297863644084	13.367775735852325	14	0.11223877453521224	-0.4940538281194383	-0.2785016140573759
Si	8.951387597832449	1.4763120765820645	6.7360538585301075	14	-0.8393548152785175	-0.03785078408109196	-1.001937631755953
Si	3.350063491109388	2.771521672575469	2.4572099798193463	14	-0.2511761638253741	-1.0641226421395864	0.23434442284702475
Si	3.0440340928922693	2.8209107400104	5.1635951453430815	14	-0.24509832795907605	0.8299916210341342	0.6851885120665864
Si	8.284842937323894	8.019089312550626	2.069853435225919	14	0.388098577876136	-0.7260783426360934	-0.138018990469805
Si	5.370333959028224	11.034537024291552	1.4939154149751654	14	3.660773436306529	0.6954240823460959	-1.020028957230643
Si	10.879430976561938	13.68728117518391	11.482875078676342	14	0.2698382746811369	-0.5938453675787496	-0.14061734950634663
Si	7.474341471734386	13.682502928334484	8.696353865990938	14	0.5303220968759791	1.027109267061267	-1.4865573031241721
Si	2.632578564188696	1.6631761533717713	0.24755889177010496	14	-0.29525133677601256	-0.18225897127146493	-0.13342133993631622
Si	8.58969508631724	11.265416372059445	12.39646202629563	14	-1.3074679904913857	0.08536378195530041	-0.2923750412543629
Si	3.9704738320369684	0.8935390858380025	4.210965073467183	14	0.14448943411848963	-0.7462064977454047	-0.31481410582542324
Si	5.950662426384103	13.8039534982551	0.90657469724287	14	0.5767017515250663	-0.933612564757274	-0.6299822528534308
Si	2.1686315700957817	5.416689878463085	4.967479274653617	14	2.493973446096297	-0.03899698283281397	0.5831937924584402
Si	5.592681712421491	8.202033841924719	5.710046535036075	14	0.39913067658382734	-0.12092422541720445	0.022298425110048245
Si	10.919762149969264	7.523855189087128	7.5509873211973435	14	-0.27358874601163696	-0.16767643322718107	0.16362719945847987
Si	13.495888151380399	11.865287176529929	10.049955023483408	14	-0.8058592264992244	0.9682127003821028	0.5344800883997225
Si	10.131296019850584	11.779832732874986	3.2398037138100357	14	0.18756239021533438	-1.1026406280512568	0.5040338305301252
Si	2.056418944084056	10.72431107884146	13.497356250412398	14	-1.6235697058611391	-0.36825478701523306	0.43571082041570214
Si	0.8505971891520784	4.105345043108578	9.473421453625335	14	0.2807037657640827	0.08792177463831573	0.650212737954484
Si	3.806822339941862	12.10263447003313	4.661934626116875	14	1.0209357860770594	0.47605300555201757	-0.970038956491004
Si	7.836740332783857	11.839318443652616	6.164506285384479	14	-1.6989444865371321	-1.0360418011645252	0.9581568503644717
Si	2.5590212626892788	4.196782682818454	7.388623878252952	14	1.3038699857063705	-1.1896350050005955	0.4178416384406729
Si	12.844647730780874	11.666138157840395	12.455061337657716	14	-0.1292546066544842	0.32768223084223236	0.6095383660108055
Si	1.8475749317869918	9.529527766631197	6.04354046514424	14	-0.7525820676077759	0.5115108619116476	0.7375536999009783
Si	5.881703321852829	2.534008179181852	8.886292640753318	14	-2.515870007444806	-0.7275906667854045	-0.02673126779251555
Si	3.245939259764515	7.349746953886757	2.5334403295562677	14	0.7191319873926493	-0.23296631039542534	-0.0003532698709883461
Si	2.4942864053727147	11.779832732874986	6.576931313448805	14	-0.41366359229543237	-0.07178448920693832	0.9166779795661187
Si	6.489413221154545	11.49733446914243	3.927566560328214	14	-0.517123584825531	0.13372113081664547	0.21376195342764331
Si	11.333655277065589	5.874071976884616	4.372137417196936	14	-1.3619607679782002	0.44934667748110746	-0.09509130182354865
Si	1.300144347739637	3.973022230356661	3.3475012427988258	14	-0.1380241326804453	-0.5167404901328289	-1.0142192876492364
Si	10.558402038234885	12.424868357565693	0.47755738011879956	14	1.7246365135592439	0.9716286709104515	-2.014499070694758
Si	4.873825636404878	1.27989012109442	12.154835085614247	14	-0.5566823541707974	-0.19856646387503615	0.2061797638385266
Si	2.778723667826777	5.658718468879639	9.9558997354995	14	0.030668658479790317	-0.536154392184203	-0.5726468613246607
Si	8.184388953559013	4.471594201619326	13.096717564576654	14	0.1687902360518692	-0.8628200079828487	-1.1431733320917954
Si	2.258670360728	7.289444093647919	8.316088516721875	14	0.4707210473390945	0.09843219607654906	-0.8205217259189648
Si	0.8318720014986776	5.764130749375226	6.763075190713381	14	-0.8999246573000338	-0.010378266624777721	1.1639396355415674
Si	7.355106900352634	0.3522108077670441	2.7653584266392532	14	0.05543045959707244	-1.0795240772283377	1.9659221494390722
Si	11.403071431295503	13.569791702651514	2.3628638420272114	14	0.840149286822443	0.8181910189462506	0.1366092534227678
Si	11.843681190776005	0.9682334715876739	0.1129882255003282	14	0.6554338815281087	-0.10871867424139749	0.22775133747456902
Si	1.8185315009370058	4.589083674151722	12.18653771471087	14	-0.1352997894832164	-0.8056959613113949	0.291109800326318
Si	13.674400683676764	7.83716968250076	7.760052933348295	14	-0.6285807433434183	0.024370735998087596	-0.1215551746627688
Si	9.106258195717306	5.768645846398161	6.216360651193896	14	-0.49227950833800416	-0.09293285890728434	-0.11099847332877279
Si	4.441124221709946	10.902491211356994	9.329035298827478	14	-0.24374206990269798	1.1711880956601288	-0.21193775420299824
Si	3.411045000900751	11.159934841609518	2.1883262571099356	14	-3.3830547238191384	1.7506612416097829	2.050869155221977
Si	5.884168620227315	8.55112286175014	3.2288760710152626	14	-0.06880123570397051	-0.5118001112601644	-0.21092011071728364
Si	7.893289845497492	5.5895239145036095	1.2357571251938566	14	1.4124585620185686	0.6487379519428471	0.4293666180382367
Si	10.519358913978275	5.244437542039013	9.099000800502527	14	0.3422123183379852	0.7748918055812328	0.8544168644650089
Si	9.210119277235687	9.897646673909113	6.604492795275926	14	0.9097249394488423	-0.3957794979095463	-0.0050164835901409174
Si	8.940889304754581	10.98422000746847	0.8265231350254947	14	-0.8358185170211856	-2.255194637903613	0.8008481422302557
Si	12.286991698475749	2.8753273541303797	2.0890356725779604	14	0.10779410476827224	-0.28480545008131497	-0.25273631053363993
Si	0.669824338346074	13.603419480478776	13.75837317830884	14	0.3989262737108756	0.9136800707628261	-1.6459609478732449
Si	1.8618265723900609	8.46339701959286	12.294983143206526	14	-1.3731790147110703	1.1394717117623783	0.7012075266532369
Si	9.333481145896073	9.293662422150861	9.715740893850112	14	-0.08703217219754449	-0.6324278882339557	-0.22800253446434746
Si	12.87184911284543	1.883294058235306	9.02056830221761	14	-0.5138366837842536	0.8293953817103917	-1.3751806202028056
Si	4.1009130460308505	5.186475330256852	11.917681691983194	14	0.0007196523791094474	1.081458319760685	-0.6716056197707762
Si	3.4819708041352673	12.40536757042369	12.706258622028818	14	0.5740997929410765	-1.7543147822697132	-2.6977659386450656
Si	13.040666651534263	0.7346312156151518	10.861522938369744	14	0.9346469204275696	-1.2345768975546558	2.1479607769846005
Si	4.15506651032434	9.848714656172822	13.515568988403686	14	1.2233581366007216	-0.8695056531468299	-0.891142532858004
Si	1.1303393047019228	6.745915052028052	3.513701133213626	14	-1.3292357394633556	1.0358901059506367	-1.371807844243835
Si	5.3316786345159155	3.1251950393781636	6.369680050101549	14	-0.23863765451060798	-0.32621258704123574	0.3228441819613097
Si	13.211423188944602	0.6238077436874763	3.7136673013643664	14	-0.06338083146803433	0.1516805585884118	0.15319365406931895
Si	5.624633641353737	12.892582549174675	6.69007188884868	14	0.3540622856480157	-0.9801398008517377	0.48333797536612516
Si	8.04063989834108	2.7836127146031453	9.172862801801038	14	2.247756687322956	-0.0926960601072987	0.4505918637876552
Si	1.2013302028935178	12.507663602973999	4.493310987300193	14	-0.3930147883587911	0.15956202483679374	0.014684868036025752
Si	13.694178470636125	9.67705786935607	13.658140794397848	14	0.5483064643693509	0.6428228670433144	-0.13604386736286722
Si	11.595904854149275	3.894423532181329	5.441758361933985	14	-2.0389307418889335	-2.121788467488685	1.5629618114808845
Si	11.573149319153314	12.718405064019965	7.2486143205693505	14	1.1223594631936007	-0.26726871202418095	-1.2336983508667612
Si	13.68622857587795	11.587414809747251	6.645364118327099	14	-0.04417184651067601	0.4012484960360333	0.2129165739983786
Si	12.27274005787268	7.740773746060177	13.550706415235547	14	1.415121712909178	-0.5539112168567417	0.2862095306966478
Si	6.091059783812005	5.891841515168132	2.5541045159311744	14	-0.8535403746613703	0.9797677619119123	0.8077531026780452
Si	2.158908876506516	9.309742261548493	1.9179882853593955	14	-1.8610745313676897	0.4710812591944472	-0.062386842151265075
Si	4.87486438571997	5.763313599914019	6.622816333194157	14	-1.0659933783705262	0.36744977393949474	0.7670604758865938
Si	11.624283485437601	6.383862440750279	1.6542844592345796	14	0.05305141584433942	-0.5149337744243608	-0.06111774456523998
Si	12.749692193390553	3.7561175233744795	13.31042292366835	14	-0.3071681528243669	-0.20147644087637975	-0.03575996123474754
Si	6.754017296685774	4.489017490131144	7.727200755009635	14	0.3809406206648437	1.0069492302459857	0.3723405304794804
Si	10.523555461211249	8.025127908569031	12.07354948921054	14	-0.7027902990883202	0.037661550729529064	-1.2178667698579493
Si	10.375789908641623	9.422162637423238	3.989919219215499	14	0.5946256980434146	0.6469962851989788	1.0259427565775157
Si	9.70905134826092	3.7126839520127457	7.586637197691319	14	-0.29337288722911237	0.0018506816094425872	-1.384840520001134
Si	9.007923260555216	0.4365821821361173	12.756658738797105	14	0.9042780528281086	0.25578641277493164	0.3548436445548087
Si	10.27313377632875	8.522771930443547	0.5817564014143584	14	-1.3693503817788377	0.8327846127434109	0.8121298952645334
Si	13.732764545194094	10.36170446792897	2.9028888359575005	14	0.19343325210336051	0.35682416698291874	-1.455281606678295
Si	12.40752816899908	12.235746732264518	4.416568187901159	14	0.24572979142570447	-0.3884207373727505	0.5910978844336394
Si	13.4326352430867	9.766695010253118	5.149468154657823	14	-0.23499054161397795	-1.3337128051573293	0.4431140610745365
Si	11.172856883089269	0.8724386247507568	5.7391453658495335	14	0.15409122693658264	-0.4961410514183344	-0.4260362653170489
Si	12.300883239316253	7.769041577421562	3.473009860043736	14	0.07768851835359436	0.9843268458655989	0.28588891386322535
Si	12.954810558144151	3.9108496213506587	7.868387561917008	14	-0.6689959478708258	1.0387486608455772	-0.5519870016351429
Si	6.056420956651387	1.044492906305418	5.647458426304035	14	0.43834260382140566	0.28252796498872773	-1.1273510070621362
Si	6.533580842032278	2.4566421301937624	13.674179083822876	14	1.052861200837338	-1.6299632734607514	1.078019723505519
Si	10.174424891413226	2.61454587607869	0.0311347794710392	14	-0.013017249125377708	1.3650694914207913	-0.15720329281608988
Si	7.108023063269298	13.378481778793212	11.948137821901707	14	-0.8455326671417692	-1.0307617792790693	0.11223903164574424
Si	3.451833224006717	7.780066170152409	10.918003201129041	14	1.1386160479118328	-0.32951825715135014	-0.8492147470707532
Si	0.19670034030408937	5.611254550175345	1.5705474144472562	14	-0.6405842056410616	-0.6237540073259042	0.14605292326367172
Si	9.734812331275212	13.058990189452494	8.46457426881663	14	-0.9820935837845184	0.593277924634593	1.3124063124797942
Si	7.265857559199887	8.743291485042251	12.02647337025055	14	0.15745603246906045	1.2621980248984745	-0.42562771668167737
Si	8.03108340464223	2.280096296600641	1.7570929414470013	14	-0.16824027662388955	1.5726181117317646	0.26694912363288653
Si	6.775761782348377	9.253663648524366	0.7912638282739949	14	0.03700797575714742	0.17752608059813635	-0.8101851112003735
Si	12.713862267015294	9.66128272975753	9.885998831589207	14	-0.31471383271793746	-0.7108651124567772	-0.506410303177538
Si	9.078710563881053	13.088726119845875	4.9050435158211245	14	1.0521248362736475	1.9296384540506109	-1.6093530361039121
Si	10.417173681354909	1.6133992861925388	8.620566715961788	14	0.4317724012862993	-0.42460235988000233	0.9181733344203168
Si	1.7902913695573575	13.44688688368977	2.2270923815491876	14	0.41850421228167517	-0.14122721568828575	-0.05211116262876126
Si	5.998431044887489	3.4903638986012147	2.772214172118864	14	0.39132120128440956	-1.337461733824637	-0.6936986135657445
Si	6.384125590576769	3.2634871981941447	11.41363897432771	14	-0.21848790211660746	0.4850426181933833	-1.399462653067348
Si	12.010185780989898	4.056579225262702	10.640047734401156	14	0.22535738131097913	-0.6151274347557434	0.02428768929624681
Si	12.04704060668938	7.141913990923048	9.861969097433402	14	0.42982118945883885	0.5165288881649808	0.3018994438023195
Si	6.739460956283611	5.949332827260784	5.158235198877204	14	1.4049481062678841	1.2755785712055892	0.0655541867951555
Si	1.8762582628744129	13.804881447643249	11.20588911130921	14	-1.0031931024837815	-0.43142453073648324	0.7428126387228091
Si	0.6455231443692567	2.2290313802706936	12.454133388269566	14	0.17357660571585687	-0.03534986993618392	0.2074627453932805
Si	0.19234313317704801	0.12847251529064038	7.304443633757856	14	0.061105403259703275	-0.0748209645900332	0.5814454408407396
Si	3.7681670154295523	0.4558502894315399	10.023252241090098	14	1.315213959489396	0.8648385827696972	-0.19745574637673216
Si	10.049636473693447	4.322706799789401	2.0199519181288754	14	-0.08657168723470596	-0.05492626584379139	-0.16743449221655515
Si	5.483779234227193	4.340462488082048	13.500140098576846	14	-0.49123846779387614	1.926261050102064	0.7939568086406628
Si	11.74722985437195	10.018113894478107	7.656884351373307	14	-0.3504259713937303	0.17513186732401445	-0.3352057992300497
Si	6.706927327734914	6.904317397584225	13.399284465076798	14	-0.6590596542505817	-0.25773325372334777	0.3548708982712023
Si	5.653095372587271	6.01254418558188	9.739147378416865	14	0.3023982382344282	-0.6405099006973092	-0.015324044818614565
Si	8.633571857386746	6.927391482370146	8.683487224474659	14	0.030975648455016	0.012953742823970051	0.10117865077953123
Si	13.329840610865146	12.545557177988574	1.4694009311389824	14	0.11747791584607797	-1.2147233364935361	0.9972047410826246
Si	10.586572919660194	10.926673295412346	11.255527478579763	14	0.3752769898656215	0.8459317026874561	-0.9548874328393713
Si	3.277863488715025	8.028091806614762	5.187694129453227	14	0.8223279274063687	-1.4297875547658345	-0.8288593062511408
Si	4.113918187455808	4.775199851434562	1.6356700715081218	14	0.17391522028652037	1.2840277375086597	-0.4465269462765011
Si	13.510084392019998	4.693097105569651	4.88527957885263	14	1.800658955665382	0.6525804688438084	-0.45440969807754306
Si	4.962063928224268	4.63843119161405	4.456954761271955	14	-1.5412927929532085	-0.6814434400572587	0.4143953288695465
H	10.86524858591321	3.0788668199250377	3.0462223914493975	1	0.13773848287937684	0.08285644004709199	-0.13798993697968734
H	3.26028785030366	13.447773283105315	13.595206435894111	1	-0.17863834075963242	2.121605661900422	2.2665306412601454
H	3.288804981500666	2.944300308652521	8.169070863659117	1	-0.3878255264911363	0.7008835673828985	-0.18803855892062582
H	6.425135413536621	1.614479585480235	11.478830881342915	1	0.26944232446183414	-0.79342176162354	-0.3320528527759521
H	13.190108052998903	8.265245200245815	5.882589721268374	1	-0.04974600284475705	0.30461247413613973	-0.08333492274717155
H	9.547491204786864	0.03304746320989619	1.3947217803792658	1	0.08613151400389661	0.3471503832158616	-1.6027015866406893
H	11.364388406801458	6.610974591002103	12.575362358336294	1	-0.18460664753929215	-0.05772851353222079	-0.012436179323024243
H	12.491597613567235	10.067586061858245	1.855067776846526	1	0.5307949231443544	-0.3024835989310571	0.6050895824753533
H	9.292983772598333	13.78587926017249	2.115170605345688	1	-1.2838688431998744	0.1269894628674338	1.6935839890551556
H	9.59862537107115	6.376882045352857	4.475486049053205	1	0.5701775717751905	-0.3519946027495526	0.3855979208417599
H	12.802516058560723	0.03386876766836266	8.499947145493248	1	-0.08961381904950518	-0.12696118070891213	-0.6327328213249253
H	8.352666342604	3.5120945342729497	5.167680892649112	1	0.14606552167974043	0.2050960429460842	0.46558346468837464
H	11.257009427602629	9.746169323786889	12.037179413191435	1	0.09345787861365858	-0.5311703045210959	0.48943098075381203
H	9.10300344786335	9.220686820267895	3.0953898590304423	1	-0.6164659521854124	-0.35594587740555617	-0.11036598142001636
H	13.219788583428812	1.0537945601722996	6.3550267597633106	1	-0.1772735980556978	0.17518997430424982	-0.23414284818992512
H	8.606993724911247	1.4951896141350123	0.2774845670383765	1	0.20739872487080885	-0.32658282620733703	-0.1459590779194863
H	4.838341959801318	0.8034795202194827	1.5170310497336907	1	-0.4678753479707546	-0.015241512337837814	-0.03855655249147261
