145
config_type=liquid dft_energy=-13883.310604477503 dft_virial="-63.27066224830132 1.5757902618707171 -6.1568028188261446 1.575790261870717 -41.75112402814117 8.600985237393418 -6.1568028188261446 8.600985237393418 -58.75307159043048" pbc="T T T" Lattice="13.849990867899999 0.0 0.0 0.0 13.849990867899999 0.0 0.0 0.0 13.849990867899999" Properties=species:S:1:pos:R:3:Z:I:1:dft_force:R:3
Si	3.9376078037074413	4.503933930295872	6.043457365199032	14	0.46859371479720396	-0.47040814382163243	-0.22492440717506618
Si	1.9939831852515626	13.222364681730243	5.569759977535116	14	0.18242609311727456	0.40234841489199263	-0.9532560665137373
Si	6.016879232723532	10.342300630723042	3.671438679208139	14	0.0026577515694370694	0.7400548711564184	1.1163515613920107
Si	4.055055726267233	11.367449254783264	2.4493154850246435	14	0.1452833914413514	-0.2904189443267942	0.07339965756905534
Si	8.228515024464144	8.336323353379878	1.1801147868820685	14	2.1392362453017424	0.4792252352960163	-2.2163601489270315
Si	3.7371845858580603	5.9252892431141095	8.101441358251162	14	-0.018444852456210307	0.13310329420821387	0.2753388974030617
Si	1.3978380283245433	7.421379106655535	12.7929041648984	14	0.2706754265733772	0.5906967920036963	0.8103141806874448
Si	8.358040139060744	0.8434852188414117	1.5832340060822525	14	0.31149043797806786	0.22488764036898806	0.4188191726833932
Si	12.188573663368452	13.683292377813954	10.35556892197449	14	1.4774494196380796	-1.2945798108530795	-0.16734398930928593
Si	5.290571861619989	10.444652063236822	8.032731553555509	14	0.16361562948453923	0.42572541868384306	-0.16651095118555795
Si	3.307267019327577	8.25327880813595	4.194248134489628	14	0.21015777798985974	-0.4620471664310429	0.6839620948288758
Si	0.7113978559342495	13.028727959406131	0.37553973238493493	14	-0.6944902568938182	-0.018995583215786024	0.9857604941921133
Si	0.7728585754096425	5.965066416886718	8.522259480781436	14	-0.34818293911243303	1.808881350479216	0.3679552532454358
Si	9.510345529279157	2.205555645749603	3.7892051515578933	14	-0.027072196357967183	-0.01484736189225911	-0.9362206939940322
Si	3.3605479341963878	0.29671666435754246	1.4974887126190837	14	0.5645409375818299	-0.2003037597398602	0.21947700633326844
Si	6.978151698901	12.962289553212816	2.6073438808273823	14	-0.10346590607233495	-0.4438445120959906	-0.5833046070977386
Si	10.69945034523358	13.655052246434307	3.6436971474997355	14	-0.8394005809532161	-0.8508324865381903	0.09781795901556568
Si	13.633404710707778	10.41498538279778	2.115406055190442	14	-0.4877229954896377	0.11792528817178373	0.9347340808979226
Si	5.757413503804294	4.249412648116474	1.1484634027516565	14	-0.5979707060649273	-0.041758607057185024	1.352861883360728
Si	4.183929891293043	6.391009036038115	2.836159579955958	14	-0.3259120248293104	-0.11299107995188756	-0.06280156143940498
Si	8.45226162693507	10.034138333912267	5.036535329120967	14	-0.4108369191064616	0.23919327037029198	0.25579541164355213
Si	10.616655099825271	10.848877896707352	13.031899607314882	14	1.359877401337284	-0.06869067817520413	-1.2884677792860235
Si	5.716666830670932	12.228780186857964	0.5750696258233362	14	-0.21726431309474903	0.5059634450728963	0.11284735516449128
Si	6.586917156864561	8.369189381709404	2.615958575147216	14	-0.6032301591078222	1.2988897547012435	1.8263255287448248
Si	9.410320895231182	11.19598636783866	1.0640006184428552	14	-0.48812434503011276	-0.08869079223957202	1.5412362286361652
Si	11.331189978691102	10.6993118453249	3.2105663830878988	14	0.4208999682189891	0.9588549054588918	-0.7412010699081404
Si	9.114789790091933	13.272224648854683	7.984436635399141	14	-0.4852861018672014	0.19744006263427927	-0.4853220973416834
Si	6.46181018935482	2.5469856206250743	3.294012578066996	14	0.19290720395485822	-0.0661583965453903	-0.20586814587372468
Si	10.690018501452538	1.325363796110996	9.706419849996017	14	-1.3141639200766473	1.9960822432865375	-0.1477372543589007
Si	6.464109287838891	11.429261764026702	10.751000011243903	14	0.410115466953628	-2.2760208481073443	-1.2438287629386766
Si	3.7739424616214667	8.787569905846928	9.029640046236084	14	0.03151172391426687	-0.4005262725516037	0.5652397640078461
Si	10.169909794390291	7.260012863053633	9.589235077262714	14	-0.13264358057697143	-0.00431560027986855	0.7455637214153676
Si	8.449366978843678	2.6638102935958106	9.332830196325283	14	0.32106343441657514	-0.4699993380757289	-0.4492546319106462
Si	1.6061418909777592	12.722449261353391	12.113243563037942	14	0.14009335824210048	-0.33036620768593494	-0.5275352758194707
Si	2.7811751162103953	11.080809843781205	4.649815884107463	14	-0.0370267448259845	0.04171438404567848	0.48537429077968236
Si	5.072476055423167	9.900042722329259	0.3562882450785539	14	0.11663330774840933	-0.13346067784771448	-0.3012540963669623
Si	12.952026709979704	12.846448229593701	4.5623254917949385	14	0.3056522291276076	-0.5962190120103102	-0.12702031613127554
Si	11.775248385897712	7.032042013367999	5.398754140289155	14	-0.5412819475241742	0.4591449027456598	-0.8571080404036079
Si	4.061786821829032	3.406419103950873	12.906778789814274	14	-1.046334964203206	-0.35277441899315354	-0.29924503466979857
Si	8.352153892941887	12.519311445293903	13.126370395024827	14	0.37971163232181293	0.5768272214646895	0.13988766981648865
Si	0.8476540660926497	9.933130350512672	6.14655669721968	14	0.5304568227947548	-0.2399440331237752	-0.17665499011567018
Si	7.909508184803803	10.159286851394612	13.098213363590387	14	-0.4940767109567876	-1.1884738938380164	-0.14767246250483299
Si	4.20617297662689	3.237255315490342	10.365319315545491	14	-1.1236046495001484	-1.9908793545606855	-0.048445023552762125
Si	5.477311288491884	4.984237763603776	9.816970477103593	14	0.050387750732666006	0.9661259913042707	0.22647786900949965
Si	6.951005716799917	1.2348471807938355	7.720899009164741	14	0.6394084391781577	0.10229142516209133	0.28189521596943934
Si	3.552467257652878	13.338953904856226	7.518107442876949	14	-0.35219926273303637	0.17860440216940646	1.0560300881444205
Si	9.759257565157055	3.1931707945578163	6.894248454223262	14	-0.184326139948864	-1.9250888831866089	-1.114916113291772
Si	9.61471906045965	9.185674043353844	11.434510910565637	14	-0.25272756877555147	-0.5236040557849643	-0.05116062499190252
Si	3.6617852355732126	11.463249641616528	12.823664994616005	14	-0.14188516153971167	-0.08499662811558326	-0.22471743319679427
Si	9.259868444433186	6.1257263109543585	12.367820245180813	14	-0.07526139493137457	0.4830723801865539	-0.41227339564882826
Si	11.747188304399344	0.9305448764379444	5.395416292489991	14	-0.11073313525973351	0.12100470101372508	0.716121994394352
Si	1.7156814687519804	2.480658014358701	10.0045686034093	14	1.51416557494139	2.4265287255592365	-3.650460475756883
Si	7.27494315320923	1.525991993825222	11.091557436694695	14	-0.789740710136684	1.562795718077203	0.3371068745037672
Si	4.146770365794467	10.977585861842748	10.504954923475658	14	0.27613825404709574	-0.7166917513332968	0.755953043793022
Si	6.584964308152187	6.042723315683034	2.899177038404903	14	0.05813911905184843	-0.9820408761254551	-0.8246270097836452
Si	4.852926000185216	12.711840168348582	5.560577433589699	14	-0.45045842342153947	-0.7133490573065723	0.7515153160104465
Si	7.5951687920659445	2.2207906357042932	13.363440688710671	14	0.046595370385447595	-0.20060457906231755	-1.8629612084516143
Si	3.3000650240762686	2.393306121954856	4.736419877004442	14	-0.11001348288062406	-0.2259960438725039	0.38417944203663423
Si	12.333624617727967	10.348976326321369	9.445153622263952	14	-1.0547411930474304	-0.3365510015335512	0.5900465594682309
Si	8.647892747944155	5.40123328865451	6.575740214234165	14	-0.0385077014903898	0.2757510455858815	0.4609493044593396
Si	6.208812406170891	13.193085801035503	12.002623685976026	14	-1.0372664186285117	1.896711336657602	2.496459962051412
Si	12.520073194791637	4.990387159549124	2.9817091339867194	14	-1.2103421730280037	0.7588463086097846	0.3281905383640256
Si	7.276965251875942	6.101170277145572	0.12124836005394377	14	0.6959406174049136	-0.062154928451387724	-0.39066634075936785
Si	7.5137031457809575	7.702229221474812	4.770975604219852	14	-0.2548533586542499	0.6854497363671135	0.48869898706916587
Si	4.661394476473028	9.47860135020993	5.983251454896271	14	0.053434510537041485	0.3812650941562464	-1.5319640515201152
Si	0.04999154203768504	12.855187573831346	8.507938590224025	14	-0.8238199398236508	-0.32243923287338644	0.7157095891010002
Si	2.084118925819856	9.841443410967175	13.656700395347587	14	-0.11278102064723146	-0.74289568542465	0.24036260906989534
Si	9.430708081788731	6.441132152989045	4.623376251540642	14	1.040063524106301	-0.45556823813480174	0.12740778170302186
Si	9.808646632591987	12.505073654681702	10.94273928481911	14	1.313588506705998	0.1476763191628132	0.7100140765958082
Si	12.643033413716854	7.906433486831129	9.619289557446058	14	-0.06027545046235948	0.20011349794616923	-1.9133700422479056
Si	10.872132031374557	8.202670941504643	13.551468164733283	14	-0.9646684316982787	-0.061318547890743556	0.6228854879487582
Si	13.550914165098566	2.3479889518350867	6.239988735614534	14	0.20682716815813992	0.4557351028700794	0.9315641651487121
Si	12.447596192579917	6.476408079729587	7.536943430457293	14	-0.042584703196548605	-0.3281116054306971	0.4705865785308507
Si	0.9664495927638884	12.417292412560952	2.8654107606689627	14	-0.02635485797364587	-0.1372792834691984	0.03767800580357801
Si	10.979067810865612	3.4294516387641902	1.572223263342272	14	-0.9192974216662856	-0.5803408939952038	0.21625361159339881
Si	5.238620545874496	0.7996153727673385	9.597461971838246	14	-0.29874444046396575	0.6803100968321375	0.07835417752098069
Si	11.628590832597517	3.526055325067793	12.059851848242188	14	0.3093772465154381	-0.15515823564444411	2.9715925118988165
Si	12.504644304964797	11.321134885321007	6.823447300906556	14	-0.39288134799267543	0.6250462448598106	-0.2538526844636483
Si	5.90504055646524	7.843665328217806	8.040168998651572	14	0.18291614579129478	0.3718754175270656	0.39259184153362675
Si	0.6133329955940835	10.44249146466143	8.52407382958513	14	-0.15170009898884496	-0.4354763356105046	-0.47465920935796535
Si	6.132872906242195	4.210674223658958	12.594863145478298	14	1.5414887111786038	0.6100420455430224	-0.6649960793242714
Si	0.7480961767369241	6.298117147287109	3.5032720900900975	14	-0.1982777287475835	0.7810061511430768	0.544331792654934
Si	0.734035666007832	3.8221542798326267	7.92423072509638	14	0.3095068302235736	-2.042298375637263	0.34548662096319377
Si	5.384848749457784	7.48941026179866	0.8822527282797507	14	-1.1430838576266542	-0.27156914278266064	-1.1771548597765966
Si	4.073919413829313	8.217864381486729	12.08299518298245	14	0.6034091080381044	0.6334270197613653	-0.13183059707474057
Si	7.803306454828746	13.403841112072335	10.304171605863713	14	1.0294222334072722	-0.16928877337344594	-1.6590689570164234
Si	6.488609921684207	5.556851786046233	7.812087349038995	14	0.9323627504611501	-0.36669798274388343	-0.5203984016718036
Si	0.3184473000292775	2.985877981237957	13.486580957517171	14	-1.0579743579875163	-0.06304247400790283	-0.5976218070729832
Si	10.743617966111312	4.811639177408007	7.962373599946577	14	1.2824801892164626	2.015603360429762	1.772800772411046
Si	4.793869639124491	7.003220182371899	5.979401157434995	14	0.3320250848384945	-0.09620613309036485	-0.1340826282246583
Si	5.264298428943582	0.314533292610009	3.748998628068379	14	-0.43864162337013896	0.77439378248072	-0.49887310793152384
Si	1.508236305532574	0.7294499340314703	8.05212154077057	14	0.44974622724785845	0.7852392189421687	-0.03128418109343377
Si	7.27064965604018	11.850633886191691	8.389604268248688	14	-0.4580989771014235	-0.817454140161496	-0.3763059462147448
Si	0.6641042921176313	3.9670944342652	2.3674066390318824	14	0.8302605586506216	0.13932562619350425	-0.03290680566097922
Si	6.416866968988485	8.378205725764408	10.98600665629043	14	-0.6724080617411944	1.4058989010152747	-0.08913816456527779
Si	3.4325124867459964	4.105497393008125	3.1631301643653416	14	-0.1637696386932161	0.3427015996804094	-0.9288681041100049
Si	8.064448032643	3.473646959623659	1.3533601676513691	14	1.1315876744086761	0.6783725118628738	1.3569193446664538
Si	4.796030237699883	2.6271078177958755	7.4653528276611185	14	0.10825073307313055	-0.22111068665369052	0.3419392669529855
Si	2.3221587188664534	1.6913193348153441	13.574140599784036	14	0.5736287664464254	-0.37461930112472763	0.13362188615128776
Si	12.318445027736749	0.9764686761577273	0.061255739610548116	14	0.5544007553096979	0.605172372066662	0.26735638671559797
Si	6.427545311947635	5.274713622076243	5.038529727805944	14	-0.5467478603242771	-0.6481090595815389	1.2893761507956316
Si	2.236330325458077	6.180835424617732	5.725226125027294	14	-0.35043728425713894	0.8627616438920815	-0.22155137410556394
Si	3.3328895024331917	8.938534806307038	1.9471702161180608	14	-0.054845276026206737	1.0480213521826913	-1.4677828349659188
Si	3.3207015104694397	5.978043858329941	11.849165787159693	14	-0.174186214787264	-0.726696436355057	0.16526859309486241
Si	0.7690775279027058	1.3146702181618903	4.457024011226295	14	0.7617778828958175	-0.6966684973210476	-0.3825377912897197
Si	5.866579131825082	1.6383431197456266	0.9059874576300708	14	-1.3054435021623012	-0.7715977054450591	0.9321079539239233
Si	9.984264516796959	12.17103957492969	5.882492771332299	14	0.2917250658294295	0.13992803617001495	-0.34706168008231647
Si	11.709890278992091	3.6596938869521596	9.92199495785488	14	0.18391373465551222	-0.7622951892862313	-3.128582917194398
Si	12.454341138132584	12.839260084333262	12.50601545406072	14	0.13026659370849453	-0.6187593781309845	0.7868659572782264
Si	7.434702797870456	3.262323798961241	6.3905381363486065	14	-0.8356483098489919	-0.181061607523872	-0.39298136398962913
Si	12.005047434377907	7.04561500441854	1.42377906122012	14	0.9824363121236941	-1.4806417040035755	-0.05806841365554437
Si	12.138048896682351	7.758584834316297	11.722410670736673	14	0.06865082604274184	-0.4916565295189323	0.7562196674147214
Si	11.855536782958927	3.935696504967671	5.601282556750457	14	-0.3828812909604915	0.5279965321139052	-0.3405367290008447
Si	0.1952433212647863	8.848052815967046	3.994752866028397	14	-1.4071443444323544	-0.29055804112461425	0.24585654691798775
Si	9.182945595152868	10.646141730383032	9.56282314467763	14	0.08026322322119063	-0.48706530674874376	-0.6103901732033705
Si	2.2203612859873885	4.483615993692663	0.2352670248748437	14	0.0349708890119941	0.22717232455647168	-0.16359891729995824
Si	1.895759050016416	7.921197577096311	7.712824464488755	14	-0.07409951243719964	0.010912285199772477	-0.6975380451403217
Si	0.6828557947536812	6.200862511412716	1.0816025718368694	14	-0.513200078106985	0.8897986161071627	-0.21946337947507166
Si	1.263171797117778	4.018657950266393	4.865571041847609	14	0.13261092753940554	-0.21733990359116134	0.0490906280986513
Si	0.6153329342754084	1.6884108367330852	1.9279602787842836	14	0.15447689273460485	-1.17898908631199	-0.5154274266458293
Si	7.640236662350091	9.425195785423307	7.314914226853988	14	-0.08802616151431374	0.2983250931862496	0.17514060908210297
Si	0.7262215011601628	5.380679902206546	11.887031662192532	14	-0.05560323787458639	-0.8084079632030869	-0.3057450460296649
Si	7.350688753265774	6.346827565169514	10.531436106015084	14	0.881124992309643	-0.7304538496699213	0.10663119383196926
Si	13.536524024586818	10.520259163384688	13.622920267620778	14	0.03306210042231616	0.2707695290280946	-0.28448303347416837
Si	1.2080529884607962	1.085146784499965	11.45750189540635	14	-1.192461421079034	-1.5591416631962083	2.414275094713943
Si	2.4501187844949817	11.55035223418475	9.120911486055544	14	0.5591498439465434	1.7247738105833401	-0.6931486541377649
Si	11.72144117137592	9.502243284621436	5.185228831078741	14	-0.024608049019137265	-0.2989730117269269	0.5087651785402616
Si	9.993253160870227	1.260843613652884	13.305672376800661	14	-0.5060902005651795	-0.0931997396395157	0.10680088678309906
H	8.12849039041617	6.501421163237014	1.6407391681657735	1	0.11387708284521059	0.08257618956719585	-0.18224560152380018
H	11.653160716397172	12.706757221700062	7.394343924481395	1	0.0960490385553038	-0.5304856191743406	-0.3682933535950353
H	13.161203122057596	3.117023544766102	9.202737232103097	1	-0.4969992863741999	0.6268768718477561	0.34870153105550694
H	11.047680665625188	11.563454325545784	9.811499730710775	1	-0.5161046557871563	0.12545451299130536	-0.3978132422177835
H	9.716724243201734	3.142285928109152	0.26891003769205957	1	0.504050285604174	-0.02007930410822844	0.5976688583003419
H	6.265348068893658	9.353106582955888	9.546909505170413	1	0.25167315848375876	-0.6117461741492166	0.8366348429603329
H	10.200961473916122	3.2721018925139784	12.794912413574245	1	0.279337223286424	0.148159172741937	-0.6006333427344726
H	11.741454408180036	10.787937936888591	11.085158740913727	1	0.8887876574952803	-0.5482882095215779	-0.44789580274894786
H	12.229708136246114	7.900187140949706	2.6106263286630744	1	-0.059631902800726416	0.6805206703578575	0.47663227558064697
H	12.645651061990886	2.5468332707255272	3.323942408332528	1	-0.6241952089988416	-0.2907349331706405	-0.1573927832781848
H	3.2924336791080555	13.597865634140748	4.395848601562781	1	-0.39539794588003635	-0.005576727439401183	0.5969888009431626
H	10.491658932242474	0.599097974980056	8.30254322565307	1	0.3225436197493844	0.12531207375656914	-0.2964841817770236
H	1.7208890653183107	5.065329460135331	10.627042592976197	1	-0.13287189472940053	0.09790203415953452	0.32689238728788295
H	4.711988493113466	0.8461471870862222	11.109368524950815	1	-0.39409362415112525	-0.5399693982582389	-0.15353663951902674
H	1.7170526178479024	8.70946980734284	3.6706353797378006	1	0.8698784634182514	-0.03179017462043891	-0.12796648288909004
H	11.801397168656306	2.4451050878008016	3.1896805968591058	1	0.7962337795121859	-0.12714244363398258	0.03026602338665513
H	5.902699908008565	11.96551956044092	6.971115903540107	1	-0.17178737352356585	0.39232470369086336	-0.4436707053763485
