145
config_type=liquid dft_energy=-13881.153866101984 dft_virial="-29.066744211225178 10.652439742398483 -18.597252254647596 10.652439742398485 -35.05279576328515 -0.031710949542289965 -18.597252254647596 -0.031710949542289965 -38.15802951461861" pbc="T T T" Lattice="13.849990867899999 0.0 0.0 0.0 13.849990867899999 0.0 0.0 0.0 13.849990867899999" Properties=species:S:1:pos:R:3:Z:I:1:dft_force:R:3
Si	5.495717926355324	3.9529674435799422	2.0892434224409793	14	-0.1158673754735372	0.2826691186708039	0.4239223025228232
Si	7.766590129037942	11.740914258536188	8.650177996437359	14	-0.2820011455086294	-0.3185856602195485	0.20424217886926302
Si	4.367830070037019	10.127196422553688	1.9460483668577608	14	-0.11753525149471726	-0.50370395771755	-1.037389574573347
Si	7.08881312593552	4.815032425170642	10.565936433267023	14	-0.2918173685104228	0.11910748239798782	0.47799264740553726
Si	8.294150131187122	2.1252118487249154	5.383228300526239	14	0.8754855299004303	-0.3853125281512235	0.11972326212216329
Si	2.2327985777867623	4.826486367618395	4.55526199645231	14	0.44674908977616185	-0.17399106789346475	0.4265132053539364
Si	3.317142062816389	9.492008141370055	3.9033152263185213	14	-0.3067074107509964	-0.31590348314956995	0.37710170331133064
Si	5.992683298677311	8.209457437029913	8.02375675947311	14	-0.6398193018083174	-1.945460521969738	-0.5206876510203202
Si	3.9631194868861135	2.7446111403191393	5.084206997688279	14	-0.4335338655411328	-0.4716551299019043	-0.04596622091360736
Si	10.546491046088493	2.10512936196646	3.9702522321830815	14	-0.6531281142769999	-0.1397154057600387	-0.3046608109161585
Si	12.383456884870672	0.4130967526214193	5.722774676643676	14	1.3740807013468461	1.0130895439715635	-0.21477034093420538
Si	11.43257191184413	13.83686107655723	9.612184512130826	14	-0.9508366564074782	-0.7470421069744528	-0.9997408793704186
Si	1.1288905956571402	11.47610243314194	4.646630386207846	14	0.17647578407485587	0.5309412190370708	-0.09245360487560873
Si	12.43445255124628	2.487278309993557	13.747514785468406	14	-0.9547447364941032	0.5104685358148597	1.3724807025061179
Si	5.057116415550666	10.024374090350397	6.288740703469541	14	0.12151506541977447	0.958128825316482	0.2937757794327796
Si	4.176160046416151	3.953562993187262	10.54973194395158	14	0.5312520656702766	0.1645443127261767	-0.5778155543497544
Si	0.7445561190710889	13.755256930363563	11.153868545609377	14	1.2725338682854697	1.8897837504829953	-0.4602754177549289
Si	1.1230971444770976	0.6377809994741006	4.805212781645301	14	-5.796268209146392	-2.1918654856525133	4.088763484556359
Si	13.38482507461071	0.8533561073329642	2.144310986131749	14	-1.1507462657017595	1.4774453058695673	0.9148859191579756
Si	3.4957653950396956	6.984217994901139	8.52394917966732	14	0.22588522923320553	0.08472614783590368	-0.6846830327606453
Si	10.0150530464963	3.195594542959699	6.765526639096999	14	-0.9246491773901738	0.24119179053564305	0.31231730544902747
Si	0.3246908759125268	3.30625596999422	1.2836323886269265	14	0.4328257831359639	-0.14803987345508215	0.7201522019836841
Si	10.238190249369037	6.773407283900834	13.831528830073088	14	-0.34352383916179274	0.7469562320567598	1.8099468165238852
Si	9.704577801210586	12.991471483971482	8.19516424645424	14	0.6820473926969615	-0.06336874727302963	-0.9260838541588164
Si	1.927614029012586	2.823694588174848	13.344480051212518	14	0.9868894665381903	0.08234736119370267	0.8033979073762465
Si	4.406748544375818	6.497183066031436	11.464731590639394	14	-2.730421033095203	-1.6763208166040853	2.4180085967493294
Si	10.225032758044533	13.401611263542604	11.448956451040855	14	-0.8868511009681449	-0.32202605624843866	1.4856455891776474
Si	6.760512942402819	9.464238909679917	13.063145186712864	14	0.582374638303441	0.38147103969239027	0.02839657270837546
Si	11.756814048052536	2.0903098717378072	10.071103959538693	14	0.18287475099564038	1.6665526732717786	-0.04928371810819442
Si	2.933123366022126	12.330009770111445	1.9929305859456024	14	0.32764109315711004	-0.2034623626256621	0.26188044660474663
Si	2.8612834633903286	4.1454546166620165	6.7781716807593915	14	0.5073227884556586	-0.21760035656009238	0.8561796142725023
Si	6.926532782936336	11.971945956203626	13.393038119195374	14	-0.11841559795633598	-0.0895917075437519	-1.0440186554202848
Si	7.554325168996508	9.585827979509212	7.316562375767268	14	1.8583846409817508	1.6323685424877499	-0.5805481250840078
Si	11.93651767956354	4.824298069061267	13.025680961415194	14	1.1232848039983219	0.48612659619635773	-0.48002587749271036
Si	2.7344175470403647	1.0683827555534589	3.736575186259873	14	5.640947222535182	2.1674842081226133	-4.269422199876563
Si	11.123343165736527	13.049045896009341	2.43403894509735	14	-0.15321936512252043	0.6391135333979369	0.5268349067302623
Si	13.113739203353303	1.239251477889828	12.093258026215564	14	-0.7202925843341642	0.17589265738824628	-1.1536644702401275
Si	2.30015108337736	0.5243592692596072	12.953827208792529	14	0.08116593829909463	0.3292668030510396	0.1586251140581318
Si	10.73631902092393	7.1454734385761	11.729072516344132	14	1.2334466396559185	0.4013724233124645	-1.121046142596069
Si	12.704804372987688	3.083174167084955	4.496911984925847	14	0.7241379294509777	-0.22279347508572744	-0.42227345268101224
Si	0.41022149451724327	7.823721341368031	1.951006663588469	14	-0.30355240741264267	-0.8137620329217635	0.2826832597500647
Si	0.7827668588765382	3.8867229372587766	11.746191105056857	14	-0.37069990817469395	1.2963145356125834	-0.2367957146592539
Si	7.543536026110414	10.096463292817818	2.3934861718361384	14	0.28687081898498995	-0.3363491697659195	-0.32369598915387476
Si	5.926203342511391	7.249389920057954	10.229783304912221	14	2.935260222619804	0.3868865588282182	-1.4785639937943638
Si	13.632823011091327	10.742454566878408	12.921875279860284	14	-0.2985559784439989	0.26138730860434223	-0.5464002468849932
Si	9.748662322143112	8.413329302605401	9.960373282549831	14	0.7809932956164762	0.1401131557530656	-0.382994419594578
Si	12.484935767959776	7.573050356649909	4.812719476695703	14	1.5216186950434354	1.3709472952931816	-0.18328227118888388
Si	8.967024237522308	4.896719671309516	13.52754923050442	14	-0.7276778272557575	-0.01563360589916039	0.47134222638444223
Si	7.804012804363009	12.5866639508845	1.588303102739904	14	0.32340108337365386	0.08236330204668758	0.5370843609785005
Si	0.5274782872030582	9.340087591540062	9.249162401492299	14	0.01293754486045312	0.3065809123692451	0.04420064289026167
Si	0.1956699009835176	4.9865091621061115	3.4018347569735976	14	-0.7104069414887269	-0.31734047391300074	-0.21765563532447554
Si	9.460430162191244	2.9965009242336365	9.240506157199862	14	-0.5319596338543815	-0.09020157372569103	-0.0822540300705813
Si	9.715214594197134	11.90960714730721	4.2696751847562116	14	-0.364138190287144	1.8363962911733127	0.045803727057374
Si	11.249045682853586	12.347765458404094	6.254212676235867	14	-1.8843324929832173	-0.6068525893933787	1.6244919613394762
Si	2.6787544337422746	1.1626831883757296	6.956462613201869	14	-0.3233064666978724	-0.13670104188269708	0.0328821230499058
Si	0.40996111468892676	13.386390123578783	7.3603144969189644	14	0.06619002114082811	1.0898501504151163	-0.05320208261610009
Si	2.36999658732418	7.51968634183589	10.514663767074058	14	-0.001971780670021562	-0.05607092193232132	0.33009727006944745
Si	4.005555858905359	1.9633054554791642	12.146414291166565	14	-1.9175115786976002	-1.1475516673414756	-0.7117693701978732
Si	10.561822985979257	2.860909513636895	11.98089305030429	14	-0.4018213383013623	-0.17927597487902913	0.255549613974946
Si	6.706539527990613	7.991098481006603	3.9011407777522606	14	0.698430732907477	-0.14927091868236905	0.24376598118217532
Si	9.328162749402798	0.682078810265992	1.3574666899437016	14	-0.4531123183329963	-0.06235496044529524	0.5488625944500989
Si	8.825117231089804	4.639885440655179	2.3851623273245304	14	0.9375175595175149	-2.0064990764911173	-1.8797060460701431
Si	1.9879168892514225	12.102135870361888	12.974491395167437	14	-0.04354269703883578	-0.7626381747359391	-0.037137302354750865
Si	10.378906156586902	4.8573995472355485	10.448668560588514	14	0.07614174139299328	-0.27893690218807693	0.28352889628986144
Si	1.3784549661049172	1.36343880600594	9.075774365817058	14	-0.4323989796528194	-0.49342493575813007	-0.14080889685269768
Si	10.205545820893398	9.927562654183776	6.779016530202334	14	-1.0349215705765367	-0.07045188531950557	-1.0106421088173145
Si	4.209095324700018	13.575830298669919	8.190261349687004	14	0.06664484967196231	0.006808286887752113	-0.3085254393228731
Si	2.154019829730147	4.976412518763413	9.564498993572645	14	-0.4894068123638027	0.2672507142869399	0.2875732449584544
Si	12.424369757894448	12.348596457856168	0.543440401678313	14	-0.6268910129270169	-0.18367153653435428	-0.536971232344414
Si	0.9587766978230718	13.390101921131379	1.076426830249535	14	1.0499692215732355	-0.6296989170471505	-0.9560346600332214
Si	6.604437395312454	4.23413610818918	6.576709713594918	14	0.64601000919817	-0.2494967178302534	-1.128459667676184
Si	7.869121611433007	0.5170907940521333	12.838027435146017	14	-0.06192352897257439	0.7201185205039902	0.9029837584099459
Si	2.854289218002039	9.778204352664343	8.069447879346313	14	-0.011440904453594922	-0.03172718254009528	0.5084216788694897
Si	6.765886738859565	4.607005562334784	0.08919671118744958	14	-1.388680722907307	0.04784184224465538	-0.6137511220778681
Si	12.840354233611825	5.877769924446344	9.257236946168284	14	0.7919456900592429	-1.2976335126418193	0.832247765952564
Si	7.1893917596182115	2.3836249783381938	0.9150273466695492	14	0.3294023003014115	-1.1119757972476505	0.3364730970423507
Si	3.0553356854404754	6.804999113070513	3.41567089785063	14	0.278433993987456	0.023488846873276806	-0.37190652790143935
Si	13.74327668826283	3.343110795693702	9.679398517812745	14	-0.1005651850501439	0.13641384941843657	-0.757742533095845
Si	4.119167333994742	5.087918795240876	13.716601605851254	14	-0.06748097312207446	-0.05968512468085348	0.47362356813500966
Si	12.355881553052683	9.902646520612423	5.559455584329399	14	0.24743906224253887	-0.6193160224327966	0.7311894429020158
Si	1.0076353106077625	11.70066618507407	10.545493846746002	14	0.7637830879350009	-2.306019476540704	-0.19570585209583938
Si	12.860796820132846	12.163615979824495	9.406096648016472	14	0.4388915348072573	-1.443548110439267	-0.626962489654917
Si	12.293833593964491	2.5079563463593315	6.922973335283286	14	-0.020677600316226893	-0.19952214372253518	0.7219473477182116
Si	7.86711336275716	5.4552067030667155	8.402914109472741	14	-0.013348150380080767	0.21374729812731846	0.04685119536480233
Si	4.419255086129532	8.933036359932482	12.354967453655401	14	-0.05122953061448249	-0.17331692407852192	-0.19189393134818786
Si	6.944233071265512	12.436073000177824	4.754521815068787	14	0.8758423993188669	-0.49348741361740966	-0.11515980728943247
Si	2.8876953959754137	8.552854110608624	6.0432634653268815	14	0.06551767709960939	0.08997968733656225	0.6175854114418049
Si	13.841639323406655	7.291410792351162	10.824751212615471	14	-0.15409405515243482	-0.03165262048581098	-0.10053716000215429
Si	4.940471792461213	9.476842401369707	9.634524547400748	14	-1.0615803331990241	0.8520157092065225	0.5161090266662005
Si	6.190294968380508	13.676408932352608	3.030696551686481	14	-0.1346228174524214	0.4191307906481952	-0.762952363806061
Si	7.916502430192093	12.91313593562264	10.93653448891029	14	0.04184962418551827	-0.582652060567485	-0.18221551959155444
Si	6.039565517765153	12.20915474979815	6.862019525473658	14	-0.34308675125736754	0.17165110494159802	1.4220431284310164
Si	5.4343209168379225	6.245653381879505	3.0548093857874954	14	-0.40491617777522454	-0.13372627302728576	-1.1468870366162172
Si	11.84272554140612	3.8775126933316235	2.2569114118877764	14	-0.5471751780284857	-0.08767417719598546	0.09208542259376352
Si	5.01395984400629	3.9953345656448485	8.065528331930697	14	-1.3166810321850724	0.0003684393923772197	1.4513568144070887
Si	5.884708769871163	2.9732190895846964	12.115847361321109	14	3.222681258143305	1.448774396223532	0.27996920097411643
Si	8.719303300859048	5.280558318222496	6.224255145988599	14	1.6364409162043323	-0.521656443504952	1.082064843505708
Si	12.41625366324586	11.900424603361792	4.308829108939765	14	0.5447125733528478	0.11116816627990257	-1.082101867422318
Si	7.538203779626271	9.317235106608027	10.070868509693938	14	-0.24418481423882746	0.4713694801008358	0.1207272787496811
Si	10.772758346897373	9.70112915348448	3.4571377705091226	14	0.4919612054993697	0.9595177364104261	-1.615304630698991
Si	3.768125465456949	11.793835073642432	4.603917014371243	14	-0.024335768965733584	0.2898831259780754	-0.6103032698435495
Si	11.011393689551289	0.4060401822742243	13.622144668132176	14	0.41845741816484844	-0.2709024551731462	-1.1771674581926652
Si	9.923546156832085	8.07975227255203	4.754798814886144	14	-0.520665539514567	-1.1583001731323548	1.0568852377739018
Si	13.828564932027358	11.580462114331565	2.374026934666739	14	0.9909834375394624	-1.038122596700121	0.08640585094155642
Si	11.364568456682742	5.661294567181068	5.009278547092939	14	-0.8457967196581484	-1.3140471918951127	0.30021228449123827
Si	12.13978014554084	10.154453204581714	10.690198551333822	14	-0.07795128531731349	0.02160037001562804	0.0010585240603049643
Si	4.975096769630962	1.2913191335586112	9.880597335150727	14	-0.5175964110939062	0.22121327375596445	-0.41636685242903604
Si	1.2251064822164417	7.2771591517480925	5.1409781102558005	14	-1.286602185265724	-0.9205382370937891	-0.1405900957899531
Si	0.6223867346244297	5.927588341598181	13.379091178391398	14	-0.1143203414024041	-0.32985635750094955	-0.49783361005058796
Si	6.286192305149847	2.9244532717388205	4.509141526862203	14	-0.5121132718881585	0.5433989956447842	-0.45448785967927563
Si	4.309092258766255	0.5035205729997648	1.702551677409211	14	-0.3183388341088143	-0.05105520967377645	0.5290681688113429
Si	1.5904914012970321	10.212401566373007	0.8238376217962088	14	-0.006417478879089605	0.7553125814577731	-0.21033492714641794
Si	8.09267431403178	5.742871013392999	4.142573818561494	14	-1.2722042525834267	2.1829481210706434	0.047404754340230205
Si	13.293705984690796	4.538877457255584	6.386175389225218	14	-0.14473908844507605	0.5577174811726889	-0.07612605765054037
Si	5.205228217891989	7.618935376395261	5.827452907623264	14	0.054063402898349704	-0.5634618446789637	-0.365630459814958
Si	11.328018330782353	10.094496594114574	0.4137033822214333	14	-0.4035743179086393	-0.23192835517768157	0.360023650443311
Si	0.6900245500269062	6.114410868415284	7.68839308059778	14	1.3180216064989974	-0.2996386708943133	-0.8628493185834986
Si	13.34670989974225	8.143088280790938	7.442929692445988	14	-0.4190495437200786	0.15502710927311655	-0.44056532437067375
Si	7.108424713004467	7.023538118975107	12.600430841807194	14	0.002787078167040518	-0.3207255911775077	0.11051253442326481
Si	10.815596368651788	6.613287539477041	8.662781488127148	14	-0.9344756848132477	0.770729700288977	-0.9257514102409212
Si	7.251550518633345	1.4275739587179246	10.498708577594236	14	0.5122690808705594	0.5105852639963944	0.1887211873831251
Si	9.197072585838127	8.859035858725292	0.6706525677999745	14	-0.4608297480619528	0.47735681305986466	0.08601452871182988
Si	5.3901117459875865	7.769803326919296	0.5689950198286753	14	-0.421991659537924	0.05921898328631064	0.3808166933884126
Si	9.844781258766337	9.606893815619287	12.07975428511936	14	0.2035502944276112	0.6856402552713364	0.27235101591051764
Si	1.0486382085721806	8.44493498176595	12.638615266629994	14	1.8914050894978809	0.1513992796663876	0.44775259218261565
Si	2.0426382031704957	5.239340745399627	1.6939231330985094	14	-0.04860906007218757	0.6509781560082921	-0.8074813368457058
Si	12.694416879836762	8.39751261303426	13.052452993762845	14	-2.028664318345582	-0.23412973555279237	0.4811054846166406
Si	13.831819679881315	11.107401826247573	7.1892671097004	14	0.15330086916116914	-0.44495240137844233	0.24280773022935612
H	2.110018408742829	2.1991569499686334	2.85059127044031	1	-0.12678634554714208	-0.09010155772873726	-0.0012906948707143357
H	12.72839090743572	6.273699613387002	3.4852394019800914	1	0.1258854302429622	-0.046143112959633546	0.39844136324749563
H	13.151383478532257	5.720946477849114	1.45260089221622	1	-1.1930422337708553	1.3377998341742368	-0.6091547570970394
H	9.53168836520659	6.240459635304042	10.530369656718255	1	-0.6427439341099859	-0.11229096797321124	0.3862864628464956
H	3.9976752141015233	6.575255464553789	5.277345120341144	1	0.5583296613494162	0.11021454331665965	0.05996100428170537
H	8.333193255443732	2.977041687064237	2.508648845902727	1	0.14977974042522635	1.0974724492472274	-0.2911283122846231
H	9.14059232307883	10.520480763238576	4.295297667861827	1	-0.3403315547962969	-1.1207039284779572	-0.13811617825090658
H	10.26256623329654	8.672601131652488	7.601276638038689	1	0.2523452454144454	-0.1190830568974464	0.6183585428115734
H	10.858836040141371	3.652034842002211	4.95815823079952	1	-0.18596213426407424	-0.2329897074538387	-0.3061425389121598
H	10.434126070177218	4.383702159571632	13.590234289172535	1	0.3593307375595311	-0.9668045059982577	0.4816528729393001
H	3.5450852125202874	11.224988248716045	6.044232964687635	1	-0.2158736022270809	0.14238652707714053	0.771319511849419
H	1.6770538442214071	8.713541704658	1.4456758967822698	1	0.6675502153493066	-0.15459310669507556	0.28527827634969016
H	11.377892147897661	7.258752513884653	7.280427749592917	1	-0.1456636579182013	-0.3208682875227759	0.20777153514223026
H	0.8225343376555394	9.994624309966149	11.853486984310479	1	0.5301966269363559	-0.4300896128542624	-0.25626181014862703
H	12.687408784457604	6.424858413719263	1.015679385303839	1	0.7194842288215098	-1.2106463347873773	0.9130797176705715
H	5.413476680581733	11.097457532804421	2.529686982031067	1	0.43547222184199236	0.10638025395272283	0.02247248894022227
H	2.4457837373533287	3.2117159323299345	8.073076576953703	1	-0.24446583605031963	0.2793922449402752	-0.389679807648027
