145
config_type=liquid dft_energy=-13880.709709043174 dft_virial="-46.807800828230945 -2.846667547373261 7.891147828408313 -2.8466675473732614 -36.91642387484741 -5.0078907238708705 7.891147828408312 -5.0078907238708705 -48.476284634917576" pbc="T T T" Lattice="13.849990867899999 0.0 0.0 0.0 13.849990867899999 0.0 0.0 0.0 13.849990867899999" Properties=species:S:1:pos:R:3:Z:I:1:dft_force:R:3
Si	12.398276375099325	11.313891340097094	10.374681909372192	14	0.668146968894113	-1.5510565654064707	1.2823896863091935
Si	13.705521613156934	3.2763953896830276	0.5089525394181552	14	1.3754899241728193	-2.130450521312264	1.0548712909766296
Si	2.5047292984871112	9.246212353437436	3.913398019670352	14	0.023116293712387347	-0.06405497528297714	0.23769148775279347
Si	2.0679698364678845	7.620971325052843	13.30824847510209	14	0.17940530147663256	-0.7939984605468491	-0.49356480388754614
Si	3.604972573033087	8.661396489040358	10.486922235365654	14	-1.2092047160343704	-0.07028939146327222	-0.6552657312401711
Si	6.040784316961528	1.9469070662915708	8.976677681157234	14	2.8257964420566277	0.8658282012074222	0.760119777074854
Si	12.723875810412785	6.270320215615234	2.4102446607862973	14	-0.10183016886765676	-0.4340894814008167	-0.7205982887567297
Si	3.1153615458619544	12.299595190165537	5.339586979301487	14	-0.1298043089719319	0.0979848237508433	0.4015426304846582
Si	8.006416570906499	0.29310874173645446	7.094228472364869	14	-0.8370871003861469	-0.5588865627617602	0.7954441930683684
Si	10.752634310166316	12.824911493794117	13.200578646095037	14	-0.07356086587262863	-0.11785201167015952	0.23991986473376586
Si	12.955946257395318	5.064706210546275	5.4781976879074294	14	-0.30200563045204154	0.8814733770805232	-0.9449917626831853
Si	4.595316170042276	8.652712544766185	5.40538828591488	14	-0.6902893279112282	-0.5073688112408892	-0.42238426732031065
Si	8.420808297674068	4.704121698300499	4.305574361085808	14	-0.20323610535748907	-0.40905334334587484	-0.2445954197584551
Si	1.9285419784007354	11.422406018547091	8.219914180135179	14	-0.7445476205928451	0.7034654713453911	1.184370666857592
Si	5.017865541431037	4.25266739597043	10.16827549546788	14	0.48724991211073043	0.9210971953903893	-0.755223621213696
Si	1.2553133122993316	11.430729863058698	2.21322854069042	14	-0.018413484971304496	-0.31407388460375263	0.41805401174011714
Si	12.075945537630687	12.367404745454776	5.647513826267507	14	-0.11929080220731439	0.02904474835958479	-0.7731809921012062
Si	7.483039265999426	2.1916087049456277	2.145931435063294	14	-0.156580056886486	-0.33506644532169766	0.3193816744266663
Si	2.6550709493581657	1.496339163377048	2.953067352871902	14	1.0690144271217001	0.06751182638591624	0.43354980639411766
Si	11.368488004098355	7.048135702756499	9.914266662950592	14	-0.056620881360301	1.926622804620609	0.3297324302245185
Si	7.6055978351894735	6.636486274180775	3.331476803364666	14	0.5734462179686948	-0.9450763520482183	-1.508102651485949
Si	3.4296455386363407	11.840648042775936	0.9576119135910813	14	0.8639368961339212	-0.4217851997807161	-0.9103039523669396
Si	4.0421059848057475	13.668112787822736	11.443804254437996	14	1.2478880240181263	-0.7252717868971629	-0.8984632410360616
Si	3.082287767669409	1.0841274251720874	13.095415665435072	14	-1.0966874907929862	1.0015445097525024	0.9155904020156961
Si	6.420564916550214	12.080862284388791	6.885079760268712	14	1.1941159273525495	-0.5935244936347951	-1.3837531995612433
Si	2.3126160751584703	10.057863368268979	6.489385521172809	14	0.7426231482607143	-0.7679624196329017	-1.7639965364632626
Si	2.2519392651662002	4.23169850979643	6.201485761001772	14	0.06373204445476656	-0.11576427415019928	-0.14120099041402026
Si	0.6999826934609263	4.659469327742389	12.584586452254316	14	0.5136387086746024	0.16123915683712634	-0.5159215930883617
Si	8.963686389723144	7.414883460938491	1.3152685377673838	14	0.48056606672047353	0.1872224900920108	1.0482015866656336
Si	0.09380737314737347	6.59997769825299	10.28637436759846	14	-2.266262217864722	-0.20910979546136735	-0.5695198830342966
Si	1.011029943369485	13.44516948482215	12.769719280185535	14	-0.2730076762092835	0.31485318662628947	0.3269561506998226
Si	7.808334001513794	5.502407471944519	9.667584475602425	14	-1.3971885104116768	0.778386194821846	-0.5303861173984509
Si	13.407483659670593	1.645503565024331	5.286222964487468	14	0.2333146951663054	-0.22293668565205974	-0.0654881093884277
Si	8.188474700865045	13.57918199645995	2.6472180045360663	14	0.2659168248468471	0.09637376915723851	-0.007766280730039286
Si	9.227805715573997	4.108031941336951	6.457876791948336	14	1.2279210772123883	0.6942146344034983	1.49099914467526
Si	8.157603071220496	10.042794578204704	11.219683702213638	14	-0.31407619859854075	0.30297879381571763	0.225563841068187
Si	2.225291882736361	6.356647208694855	10.843434850296266	14	1.975028233151441	0.633421620440193	1.427208736129726
Si	9.93908584658587	4.589983923558135	12.83649008615968	14	0.5014912644790307	-0.6119603472223849	-0.12093116740156887
Si	12.319871576796144	2.996680974114919	8.790298354047904	14	1.1697953279082045	0.20862437077692342	1.2676163722501546
Si	10.157597152508727	2.662466844481624	8.16878001385089	14	-0.10357003583780096	0.07923503820366343	-0.6312528931026481
Si	2.831755282859966	6.695584185214104	6.52552014734716	14	0.28397729705769525	0.24077989946335532	0.4447210018996291
Si	7.104809865387945	3.4665003643358228	5.930912339406477	14	-0.9563074543076889	0.5495989590137894	0.1877243698505037
Si	5.421966724983756	1.6348944720195195	12.181468618053218	14	-1.3775064420754115	1.0339106119646546	0.2856261468995062
Si	1.4112309694938026	11.076045446922647	13.58999883932778	14	-0.9537168085871078	0.15388476717937474	0.5294762032256505
Si	10.481299139073286	10.186169683669204	10.895510815959572	14	-0.2948484445723454	-0.7941884652300082	-0.3012787789780357
Si	3.077080171103079	4.662128525989027	3.2750103905962376	14	-0.381623249127343	0.08004802170589424	-0.05712404667145398
Si	5.327703687136829	3.1546678199450544	0.6975880300398664	14	0.9296420068113694	-0.8378247505024972	-0.38156745614189586
Si	6.165822034516929	7.437154246254074	13.298110281786789	14	0.8994173782203685	-1.647790032197998	1.4420676679959257
Si	12.733667753956391	9.344824288416884	5.973916561051307	14	0.7745891864850513	-0.9396178954535439	0.2618092269873785
Si	13.808025395570262	6.139271602023165	7.704819169767109	14	-0.906299455830809	-0.17819842463935506	0.4851657741382184
Si	3.2252196734261367	3.750106627337811	13.778455665067296	14	-1.221564790639918	-0.3490763982111845	-0.3376300944364173
Si	11.390606439514393	8.22589737619011	2.36471974080351	14	-1.287213851221387	0.720965956817511	-0.6244831727946981
Si	1.8172711517680267	0.053315539845981044	8.786766606376588	14	-0.5570556786632829	0.7174962501879711	-1.1569449435181045
Si	2.832364682458153	2.294361787194578	7.8745923578258274	14	0.2083893717506619	-0.47378837598603113	-0.9845217356488662
Si	6.764280139918887	12.92044873080089	4.469378203080462	14	-0.849940055881567	-0.27412019348131156	0.5077434212860348
Si	6.381286342448849	9.73898117852645	1.6292575257362842	14	-0.06544697170330532	0.08841851218616835	-0.00015580898240097357
Si	9.718704791895844	9.981328318732965	7.656496551629005	14	-0.6309875550336087	0.14058778179516496	-0.36273436678234316
Si	5.422880824381037	0.6568538218982857	0.6558870925357063	14	-3.137681544701338	1.1864774305569215	0.9746443203404531
Si	5.3476753739683405	11.73410006302918	2.7783220180916075	14	0.16722931801200733	0.13090782737533943	0.056597998522951685
Si	6.162456486736029	9.813009379715375	9.582877931454348	14	-0.17788577823242507	-2.7958515497244587	2.4975022881482
Si	12.657382004255998	12.950517060975102	8.923410616279291	14	-0.632482909887807	0.8286083663718945	-1.2026252575201113
Si	12.137176347257673	4.706822446519739	0.08446832430514851	14	-1.400035495332677	1.7834351211257102	-0.3097791102769773
Si	13.225536329638992	13.398619665515138	0.7079021182391916	14	-0.47913087573076685	0.14195612404654778	-0.07144304642042265
Si	5.710185034944755	5.228454652577457	1.9289713281176404	14	0.616943663553896	0.4487476099415129	0.25635539838228044
Si	5.136906212940638	1.3836639476703343	7.111263961132387	14	-1.7083560175615344	-0.2501739469715804	-2.000897923551175
Si	11.687397893822622	7.421586856518553	4.658638328290316	14	-0.41946297745555833	-0.484793735198393	0.5798107320781893
Si	0.8707572358593937	3.5941280301835214	3.940571701753172	14	0.1146589559730676	0.11649266828739724	0.6152801584117602
Si	0.6447101499053111	8.810713240587187	10.577487325650852	14	0.5507400155548711	1.0050162732662984	0.09904437625327632
Si	4.156437659420261	10.935052539887426	9.123903084083011	14	-0.9136217066720588	0.07768851835359436	-0.07963535930201049
Si	5.345487075411213	11.531848646385235	12.994047582272911	14	-0.4021041598865786	-0.01663710830561419	0.15230559429173982
Si	4.0786699606970025	8.36097633712474	0.6842491038349919	14	0.4801523758744617	0.8516339000664807	0.11892596236238537
Si	11.51626740665885	4.972188271548704	10.540618649960502	14	0.39812151774566923	-2.9464494158625563	0.22214247121866598
Si	11.533898445033685	8.034061152678827	12.228212337232382	14	-0.9426476859628065	0.07766255018986086	-0.29926766039661584
Si	1.6293406256814917	0.4965318676078225	6.184727272051612	14	0.16517911862972123	0.0864457030740187	-0.014396647129637154
Si	5.037117028737418	13.203971893857672	8.259649803935183	14	-0.7316756389180558	-0.014603106886845045	1.3167949321507548
Si	4.066204968915892	6.981641896599711	2.7334895976522158	14	-0.20725345742022044	-0.022625212596239067	0.27322287772457987
Si	13.57425139971098	1.052559140986883	9.878436736575335	14	0.4293974713020785	0.8412900862529928	-0.056826055564848814
Si	3.2185439778278093	12.985696037779567	2.938095512743702	14	-0.1893734768028467	0.5792456031288208	0.9485987663368212
Si	7.522677939863357	1.1074563497899783	11.834858746593152	14	2.040935432707053	-0.3851443778632858	-0.4621402404436323
Si	10.895690865840853	10.686362103863413	0.8297751128812776	14	0.08630557783407064	0.16202617217562365	-0.35628526330781574
Si	0.9320836104233681	7.990835331180112	5.586809316293502	14	0.07046936883568258	0.1464349895142457	-1.0708339983567692
Si	6.857753728286345	8.654679243469426	3.902054877149542	14	-1.1939740023388772	1.4493022441457586	0.410236823124739
Si	7.325620269794875	13.669234637083036	0.21854039090368088	14	3.003622827756157	-1.5827253838557989	-0.7680033002074921
Si	2.0200904180375545	12.706092422138402	10.757952706659589	14	-0.2031152634074421	-0.8069514320392231	0.21410313910362694
Si	1.1182842726505025	6.647981766601132	3.191273345808914	14	0.5659306200073699	0.0735796349414657	0.2779560255084405
Si	0.06447309248916128	3.890019235085337	7.231745031692248	14	-0.1738681690591617	-0.8266160168593117	0.06364771220026569
Si	5.678454705866396	9.447882070464928	7.380410833668287	14	0.27924620615809076	0.17586051857174442	-1.0924623934203865
Si	5.6392730817011065	6.925881833365544	11.031670076181896	14	0.9168888102023709	-0.6417445454720443	-0.006434962395266613
Si	0.5315654195081756	9.036080291989657	0.6509938907620773	14	-0.18540497574119813	0.11376935353229638	0.48787777602991067
Si	13.376667429989517	10.02152099223161	8.293042131917689	14	0.5993878993173929	0.14427551815585332	0.7749889933623343
Si	9.232639362386895	3.875864544418343	10.423877076934973	14	0.542855206869573	-0.47969703312226347	0.6744672599921009
Si	12.525820941001816	10.07751650531053	12.92176447993334	14	0.19077087254434716	0.6721962026628142	-0.25325335981352176
Si	7.426752903112281	1.470162680636717	4.79618258759943	14	0.22928268780324923	-0.433676818996933	-0.7439220706684531
Si	4.936676894963408	1.4808548735867357	4.756917863488933	14	0.0024577195755295486	-0.3511577079678444	-0.5459729291807844
Si	4.065927969098535	5.985605953343814	0.2272769651431522	14	-0.08414893469153044	0.36844684858264815	-0.09799330839839979
Si	8.964489689193483	8.447317180195228	12.98996183496688	14	0.5711504780283345	-0.5911174248340725	-0.7908655687142486
Si	10.96456687042692	10.158317352033858	4.761405260530133	14	0.004811052275061086	0.8936028235388538	-0.01630903526676329
Si	10.084580000653158	2.889468194806505	4.146978115657485	14	0.5459202215217214	0.23390913471632366	-0.9118365882482798
Si	10.096906492525589	12.554864371851803	10.724948178421382	14	0.18928091701132135	0.25944663830869447	-0.06210222079232469
Si	3.1434077773694518	10.968209418025179	12.102440570160981	14	0.7623247569974129	-0.42112596837663013	-1.350116971320938
Si	11.144796801590903	8.209859086765082	7.903483438776266	14	0.6155406113806912	-1.0348842895493946	-0.3049562309174435
Si	7.87957835453827	3.2124222818641974	13.45717742690462	14	-0.9779330211554546	1.3351976184797147	-0.7369623456773443
Si	9.103515897525462	1.521670796674437	0.2943344659282636	14	1.2029767276173757	-1.7760131113980389	0.18096596240596247
Si	1.4342635043071201	4.889019076386964	1.336643228673814	14	0.32544922587168373	0.11546242638561388	-0.36501288031705836
Si	1.51103400368789	2.4891065087881197	11.283005860461678	14	0.06221432098428314	-0.440136464003273	0.6192075217882863
Si	7.894176244913037	5.717608630049949	13.76720947248256	14	0.05077110253590009	0.24260307024587238	0.16585480510785616
Si	9.4460815716521	6.1640076857132335	7.980212388184432	14	-0.22792540130474304	0.2275361359592726	-0.8556034295702571
Si	10.739199819024453	13.325242413897003	3.5176483806109773	14	0.7317553431829803	-3.7530144107721615	2.8334346817417235
Si	4.083046557811259	2.1193671525786613	9.964971479517974	14	-2.4105626757421805	-0.2854446268639038	1.6713614115520516
Si	5.11790402546988	8.989779772518268	12.202534454163294	14	-0.685062527905899	3.090052332866659	-0.1593424524424531
Si	10.071824159063821	12.253142320794602	7.897070893004428	14	0.22215044164515843	1.3438959248883076	0.3073810403448752
Si	13.15148042846833	6.997264686298701	13.778455665067296	14	-0.16195726655304368	-0.5000802418793334	0.1017460937236879
Si	8.419257098696862	11.404428730400555	0.5513182764839745	14	0.17651023688614584	0.28672323753961343	-0.48570442070278935
Si	1.1094299734886541	8.00634732095216	8.057800037026407	14	1.1665757898263152	1.1597345927904652	0.28518648788976086
Si	9.243719355081215	6.318462783872055	11.379166347057508	14	-0.05543174514973251	1.2529253335613602	0.7597171419817188
Si	9.075151116228003	7.435644597249472	5.17171123999167	14	0.6279220261603963	0.07217272611028068	0.5224673701229267
Si	0.3594571229891294	1.59301209963499	2.5680791567168857	14	-1.1809757793928686	0.1465753718647258	-0.09748191555022233
Si	6.457793692003128	6.8943731041410725	7.628062520377207	14	0.9785151193999361	0.021810429320284142	-0.49965189573299673
Si	7.731840501950382	13.066344534603349	9.614760610432254	14	0.45725976832492726	0.4637266124261636	-0.002406040358594572
Si	10.875497579155455	1.6700872988148534	6.160240488197165	14	1.0006628777382236	0.2831673988818486	-0.7973097870886678
Si	9.653138935127206	13.636313208790037	5.579468821133514	14	0.44948423161573536	-0.7407151310026324	0.20255501955818186
Si	8.393246815846945	1.8061080591284993	9.396304704472868	14	-0.6398257295716178	-0.992318355421683	0.5954811047834279
Si	8.110776252096127	9.817150526984877	5.709464835419624	14	0.19439973059320417	-0.17454205576357248	0.45304084160509617
Si	10.604910307569293	0.9106507495552929	2.084105075828988	14	-0.19882717395449917	3.157057651504506	-3.53348469677983
Si	4.653389181751381	6.585185908006073	9.026897748044238	14	-2.014909676214386	-0.0544871210551101	-0.5535736307282062
Si	9.158971260960534	9.649551787492419	3.3067268696837284	14	0.06415087751141868	-1.2657044983340924	0.7548554389318508
Si	0.8797860449061776	12.517012346809832	4.437980273782933	14	-0.6265847942833872	0.13989872556936528	0.04232193623282947
Si	5.717026930433497	4.559112293913587	7.7343196503157365	14	0.16640964963594412	-0.1976210684488177	0.012833929316051151
H	6.61053139129433	10.987654805203709	8.982993276992996	1	1.484770899147733	2.834155876784025	-0.9274192862621014
H	0.3605512722676935	9.337220643430406	12.190374162181277	1	0.010919484294668892	-0.24845130640708118	-0.674728484292628
H	0.9407343147194585	4.7971659369510515	9.868617093049993	1	-0.1336208577091597	-0.23285061065601872	-0.22087311652210886
H	5.999622144102129	4.298690915624462	12.42442515785792	1	-0.08102607016967857	1.0351629973660987	-0.019319028265060652
H	6.324265930045705	3.962814787087019	2.6868012784365245	1	0.07209405028748415	-0.033542125785587816	0.31250293925314215
H	0.7380272333759609	13.337028756125587	1.5966684972241156	1	0.0024404931698845567	-0.2088447145028601	0.21001045365501522
H	5.961049919535027	5.158221348886336	12.309359433727407	1	0.05523762669806133	-1.3257112682904963	0.2013645977949533
H	1.4515344429193915	4.257099393048158	9.60886051432253	1	0.3494101276817398	-0.6941189892855888	-0.19371555946751276
H	2.4625699262852234	13.306738826097488	13.81562904055674	1	0.10134345863055272	0.16125715457436737	0.0687698682190647
H	7.891683246556815	11.729931215777942	11.113939021937222	1	-0.23679237222233768	-0.2930502135114338	-0.3970352257479066
H	11.914039144384937	3.3447035446435103	2.9285528690357188	1	-0.9569049791840915	-0.1989698702997674	0.7262138398864653
H	12.832307388917576	3.903938475907576	4.356930127223982	1	-0.1571043052612642	0.034487006990742225	-0.21520897150182267
H	8.64497039987103	10.813477320049	12.720039362942376	1	-0.38471963126439734	0.28563488865759473	0.5629219125617326
H	7.937914516073866	9.174857200486015	0.9108571144192246	1	-0.23591819641348735	-0.22979099532504246	0.3640194052213532
H	11.425688466382784	1.1403777780829765	3.4406562813763215	1	0.23826664401291064	-0.02996571828526183	0.725950558701682
H	9.247278802734265	10.908419007448455	2.495879154322523	1	-0.1792078405880452	0.837506447663863	-0.2134390225994327
H	11.394913786674309	10.27471267528769	6.654463562327308	1	-0.8056566233999966	0.10356823606407686	0.08175883518592078
