145
config_type=liquid dft_energy=-13882.444786293068 dft_virial="-23.017270760080628 -3.1442626123085975 -1.5465186161393725 -3.1442626123085984 -37.392088117981764 -14.689487549513094 -1.5465186161393725 -14.689487549513094 -43.602555620648715" pbc="T T T" Lattice="13.849990867899999 0.0 0.0 0.0 13.849990867899999 0.0 0.0 0.0 13.849990867899999" Properties=species:S:1:pos:R:3:Z:I:1:dft_force:R:3
Si	5.935662886274167	12.710025819544885	2.846131573380846	14	-0.8928883133703847	0.8138533071606286	0.9106353678427067
Si	3.731145989839656	12.159834932317558	12.640595815324103	14	-0.01815328911290551	0.6096831192403297	0.46704436673128275
Si	12.629501972638915	5.0223113884996335	6.563025922617433	14	-1.8916274901080736	-0.04425617876517687	-1.2569953932831546
Si	9.813923479112656	1.368463582692814	12.25908396687693	14	-0.5728697761559175	0.3449950256259815	1.050273897553673
Si	4.382871160119558	1.8613141227279488	2.444661888093029	14	-0.5367004949542025	0.05516126487005293	0.25219972085332504
Si	1.5766137104473965	10.974968213568713	3.6541954405776034	14	-0.09719369464383372	-0.32869550344890275	0.17646832786942743
Si	11.06640585327859	6.386867888768613	3.245025160367234	14	-0.9988129674603771	1.0896017816411903	0.661638215776158
Si	7.373942887932977	0.8849576314962516	6.541946236516489	14	-0.9792841370011925	-0.10949437671648617	0.3094003864633194
Si	12.451820439794625	9.210867176742555	1.6937569332080946	14	0.172744596034257	-0.5136129976214008	0.8228498617863589
Si	2.2451112196683254	2.0479288996820335	0.825669975588032	14	2.398157092572466	2.151704563441268	-2.17791852484337
Si	9.553183551033571	4.0379094375727735	6.245708781842977	14	-0.34468263632958346	-0.07217041211549255	-0.08130812042329882
Si	9.175300400193787	10.334807785663507	7.6633661470994845	14	-0.42507801436422976	-0.4799919389024845	0.4350672727540691
Si	4.741918323378997	7.541139977690268	7.276619002104244	14	-0.9650181020218189	-0.8606589939612644	0.29667830022869474
Si	1.3917301823517993	3.9442419493331657	9.062603024501685	14	-0.14242843609385897	0.43355006350464964	0.668097346561434
Si	7.297200088533944	12.810216653483275	13.765796773414035	14	0.015910513942140343	-0.5577642752895156	-0.011252442433628067
Si	3.024824155558492	9.615840909719951	7.770814376252652	14	0.24437430470092236	-0.7892817678370375	-0.5690270021444243
Si	13.028118559807945	11.887848811653738	3.2567145526597416	14	-0.6784067075636319	0.4065719696013999	1.5720069599971656
Si	11.343100970837495	1.792853617867919	4.30727790996256	14	1.671883345932042	0.9287233508804804	0.5977801871607041
Si	8.299399277726055	5.092890941962452	11.934827980677655	14	0.3651020976716675	0.1489613576018232	1.4691594047543262
Si	8.973658383148031	12.200650855405259	2.2210676355216514	14	-0.1896169604766647	-0.2053894060631131	0.1494835490923453
Si	2.4761290673448975	9.373576869458644	11.997526889336639	14	-0.3923668698181138	0.11502431003906066	-2.039776892649794
Si	3.9677592338268592	6.251899727760928	0.23197765204371748	14	-0.17289372014282556	-1.0066201287650067	0.1760926893821538
Si	6.134590305109815	10.684506205087116	0.2520296688222631	14	0.04090679986461997	-0.5378934878227511	0.038100438407678336
Si	1.1235625041702593	13.261657105822474	9.803577535934336	14	-4.307801603211478	-4.156795702659073	1.8453511938928564
Si	0.34841868026741313	7.8181813450208715	0.37039446077751004	14	-2.7735952907416612	0.6169596044068809	-1.0778088928692668
Si	0.09862162997305551	8.769371017846506	3.6700536801213492	14	-0.3224508028473271	0.5903556063277127	-0.040196917685727085
Si	5.550716240091755	6.299515996364767	4.724065685150275	14	3.241476552254652	-0.9696196092132879	-0.1106117790886225
Si	1.1090629487306547	9.828313619624405	5.954928223571415	14	-0.11660219737403554	-0.3095898769254144	0.019156277298295277
Si	10.645130681049675	11.476725682730994	3.812847085969398	14	0.6076717435483779	0.27315114388614775	0.3002979022983992
Si	1.857269925394522	11.774112686646543	7.258558614012503	14	0.002869096426753241	1.2845057059876754	0.3155484135048575
Si	2.303391981240449	7.622979573728688	1.117410338226738	14	2.755952108924273	0.5273380720414153	1.4291267806985564
Si	11.983524548569191	12.000130687619803	13.437510439872202	14	-1.0901108604945793	0.4942302059444005	-0.8804025117146814
Si	9.740781677339276	7.7343335003066045	7.898982191744199	14	-0.6292237767839872	-0.380234338033399	-0.5304861333954045
Si	7.671800791538035	12.66047055221954	5.0254691864175145	14	-0.3430229878454279	0.35480070709596223	-0.5473746958013294
Si	6.37389044732539	9.13049567973613	7.432389849395515	14	0.891160530595245	0.725237591196405	0.31930325571440177
Si	13.685882326106253	5.5668930294254615	0.5918932097305744	14	-0.764686060123437	0.351862962157161	-1.0444775977199312
Si	2.4084026120008666	4.339022089031786	4.305657461031016	14	0.5315127757497397	-0.20943709716862222	-0.29229893653688654
Si	1.9276832789669256	7.098577369497391	9.72499268774987	14	0.47008726987767796	0.3892337208749813	0.39055398345687736
Si	8.984045876298957	10.652609676118342	5.376704954827459	14	0.09615805342087809	0.1540922553787107	-0.43209327523025376
Si	0.21676205207624252	12.824703743931098	5.445664059358733	14	0.11238095665941643	0.9704835006008574	0.07468289623434125
Si	5.390056346024115	0.16677051003855747	9.23470301102621	14	-0.4713447974897624	0.5965825663025793	-0.23570839421936327
Si	13.267668001859144	11.587304009820308	7.338556161265493	14	-1.2137334609452792	-0.34753810589813994	0.2542319224983701
Si	4.342595386675706	10.659825521360517	1.993152185799489	14	0.9841049594764701	-0.5165111475382717	0.26541545930941823
Si	9.709217548151331	6.755374595790828	0.1555049274666076	14	1.881271334989049	-0.3721690377546265	-0.34963998449736094
Si	6.334694973169233	0.6423972014303717	1.245463198794081	14	-0.9727005647184211	-0.38686007644342063	-0.364120963881499
Si	11.50432871453072	2.678380483988841	1.898819897998222	14	2.3785094770474906	-0.13972877550770346	-0.10405186097479673
Si	6.860565276432529	2.8129746952430934	1.7030779770621913	14	0.8247013147273975	0.53342824921325	0.1491207661316724
Si	10.85904379000439	8.944656502270648	13.798233452026658	14	-0.42702536953370984	0.1457667592415392	-0.7218164784574159
Si	11.824014203743587	5.244562191956825	12.735011203070577	14	-0.47599978367189055	-0.08901140907299447	0.4176943141058285
Si	9.403382049806366	8.454796175263894	4.59463752048975	14	1.3455596871409756	0.5362042716274139	0.45426982994812704
Si	13.659636593411582	2.0587457425498634	11.885078813480158	14	1.077154032344225	1.919243732351784	1.5851591921518509
Si	2.2167879883434702	10.49182513213289	9.782220850016033	14	-0.4221060737246705	0.3471866358008757	0.4471450399954646
Si	11.309348543092423	9.251239900122483	8.515666885128315	14	0.673462472032987	1.6473868828837988	-0.5504448526641181
Si	7.540655228009891	8.341143150201907	3.417222096827835	14	-0.3137956910081126	-0.2681637137861245	-2.4211692565193874
Si	11.982887448989269	1.5085687053134038	13.706117162764254	14	0.02965384320992787	-0.6211281374624369	-0.0945385141797168
Si	4.306890110218259	10.962503221787603	10.756581557563667	14	0.026991463650914534	-0.5170040284281441	-0.38691355543407974
Si	5.060869763075867	6.765678988996546	10.817272217546805	14	0.6596862326171017	1.8437465670625521	-1.341989450293418
Si	12.655927755214869	4.875930835016798	2.463774875490731	14	-0.43765123360081787	-1.259411975173562	0.4706876229699326
Si	9.628028901683702	8.527023877639992	2.0898943720117704	14	0.6186169388962484	0.030796442414201677	0.28799053535191443
Si	9.639690593994475	13.17653506194836	0.06690376588647773	14	0.9655508350441535	-0.15622858678922175	0.1315318346365394
Si	5.64024258106186	11.102831329261166	8.7386101881289	14	0.45203528231438633	0.42409302391608095	-0.8192498001170875
Si	4.483034294076211	5.048155471459134	12.070668691110019	14	-0.7461625318444302	-1.9353583920563442	0.3782977815062635
Si	7.477416169707059	6.491005970104353	0.19787897452694764	14	-1.2940853873000149	-0.07697683640097737	-1.07675139725109
Si	5.330349035392597	4.477951347427692	1.0762869453417692	14	0.13348098957974366	-0.29774556604708824	0.3463327717240545
Si	2.743821690839669	13.335006657458873	3.1145859463733516	14	0.23277707704386244	0.3650257358436591	0.2856487726263235
Si	7.077497683396446	3.3975689597862844	7.530987934384095	14	0.3417317787536495	-0.740081353541216	-0.5272051458963636
Si	9.415722391669664	3.3109926668710417	1.9671280529587045	14	-2.214791774681742	-0.3393769033909259	-1.8556317585154685
Si	1.0136559016380386	3.9670251843108613	13.359382641386377	14	1.035447104503975	-1.18148897201477	-1.4810420251019225
Si	5.9398871334888765	2.7132686109850814	11.477445882256125	14	-2.0625607424442864	0.15701997300676332	1.4586793223588705
Si	7.0662653408025795	12.761990985281248	11.436075959533708	14	-0.15571642260944824	0.27584849047751514	-0.1619590663267678
Si	12.416669162971896	7.415922210253583	9.408852796199186	14	0.4297939357424454	-0.4256853094408487	0.5501203791727154
Si	3.899797328638074	4.20333372849897	6.913666141420057	14	0.24008210147946718	0.6732673251391879	0.23115573802897707
Si	11.764209943175995	12.26593971235654	10.886840721676267	14	-0.4447073750414322	-1.0970991247547417	0.6347138579740994
Si	2.5516530675475564	11.582207213180922	0.9396927954061923	14	-1.2635794797869901	0.7943694710445466	-0.7838755046803622
Si	2.6088535298319835	0.5227208153399346	9.107435444941077	14	5.18260090510196	2.4519335601170873	-2.156839060765604
Si	11.41712917202642	3.009145965896029	11.629823481784761	14	0.3968246522221865	0.8031153429015622	-0.41326532808134137
Si	7.474590771570007	8.586869688180188	12.77733677516288	14	-0.5575971534437061	0.2079209163613309	0.5609683867394841
Si	12.513771448946743	2.668062240792256	6.168093433019265	14	-1.344943393195736	0.95899503069884	-0.3234321937480276
Si	3.5345869194424195	6.2861230551955085	5.500606973131692	14	-2.1043070081959345	-0.52752499139819	1.4467007997828325
Si	12.767392481719728	0.411865488433263	10.738354969581511	14	-0.24882205979424654	-1.1077553278646275	-1.5079537844879123
Si	9.51731207468571	2.5185654393641435	8.199416193650686	14	0.16011224137530544	0.4355362423644641	-0.20995466066956803
Si	4.97517986957617	0.2529963981848425	11.602165050021565	14	-0.18540214752534595	0.061722725647070834	0.4891736131112652
Si	1.0532391755384969	6.752175247900343	7.513536945890542	14	0.5632199036683379	0.09811337901685069	-0.1261530823067896
Si	9.314562058370523	2.718310007660997	4.10229804511764	14	-1.2151953914303153	0.6136009695271714	1.985483375825291
Si	9.07794881438332	5.49515007672974	2.1517345812369437	14	0.1305427304198784	1.2347424767372732	0.4915158900579202
Si	7.001045733805639	10.700863044302105	2.839885227499423	14	1.2431569331185217	-0.7580986311826855	-0.9186590162152928
Si	8.21125793584274	0.7134462695836119	10.42639777527293	14	-1.1362375183801638	0.5495254254016331	0.10978748272298304
Si	5.216335910568044	13.00151272735071	7.0759741844009785	14	0.5697417694234255	-0.25570130918883477	-0.16190790133089686
Si	11.670126955210351	9.800087338235624	5.730184421758002	14	0.12363982685634485	0.8988753892188813	0.7283936229768868
Si	2.137025890935234	1.6656553017371254	4.52689721515485	14	0.24721691874287813	-0.6249410866522166	0.6802375916621093
Si	9.757817166106795	11.383210544390934	9.889987628959164	14	-0.3794866606063	-0.09061037947159457	0.49297139277965596
Si	6.794556219956117	8.665980836017633	10.04229597853346	14	-0.3600442192858722	-0.8849040029091967	0.05773339863232907
Si	1.0753631509508803	0.23754673337170004	1.234376281104327	14	-1.1005081532987262	-2.554617850172097	1.3444317432370265
Si	1.4506480435038458	6.9984557855133405	4.507548777912394	14	0.251591140224046	0.0614026230347124	0.1761811354051669
Si	2.1082456099117377	5.086783095989708	11.08844118874942	14	0.37124909627107755	-0.6401571450473849	0.7527401905849649
Si	0.8575761995504132	10.609896304281738	12.877333709229118	14	-0.7533333445823232	1.2621435174656874	0.3927257961208065
Si	7.628422620139772	10.46346035083543	11.432017912209412	14	0.721799252051771	0.05594288088737795	-0.8709920091324075
Si	11.547693035938114	7.373956737923846	11.74933505298387	14	0.2481579432900523	0.3809223658170707	-0.2025143960941235
Si	7.706218018844766	5.987212552284491	10.016091795811393	14	-0.9113197960789301	0.6980545801991394	-0.9195470759928719
Si	4.282112476555586	12.230289835862566	4.894642172679331	14	-0.5097270290405289	0.26444538127212636	-0.3213665677338206
Si	9.812067580336358	7.091181474373931	10.167098246244107	14	-0.3071606966189384	-0.02710999160617336	-0.110654716547469
Si	7.021211320509301	3.1521055716344932	4.581867828909545	14	-0.81831983132279	-0.4765178613939004	0.43656571293465135
Si	0.5326318688050038	1.7061526750348652	9.1604532099834	14	-0.9227445025690082	0.26601658373326886	-0.02097790541762019
Si	10.148996308179761	13.758747128062273	4.681047613514577	14	-0.6568253637273729	-1.8619422794132396	-0.6453281520672668
Si	12.442817945730491	7.619489376029977	5.298632556305106	14	-0.2708314926663102	-0.7818888115994838	-0.29608566045240065
Si	12.619613079159235	0.47393283750867005	2.953856802351372	14	1.2222191369438957	-0.14593465241894488	-0.9132584094903218
Si	4.557117895228608	1.5704089145385771	13.669511636900394	14	0.05559732433235005	0.36466758087256246	-0.12288366478168931
Si	12.546942177075364	5.0752322036058795	9.060428575935424	14	0.29677445956766824	-0.389470005453903	-0.0630851543562173
Si	2.5198950384874617	2.383417228475175	7.486834163497231	14	-0.3921758366928268	-0.10072227958520497	0.1453358419898824
Si	10.27101472772596	0.5724658275401711	9.574124737225837	14	1.8651283931259672	-0.45607808831978713	-0.8033469994909076
Si	4.333966842365003	6.704240429506542	2.6012775848272423	14	-0.3720620797733084	-0.03674495168289627	-0.13140122248627586
Si	7.978342639417265	12.505544554371209	8.505390191904333	14	-0.13110168871647862	-0.03208636595331996	-0.13855275193426772
Si	9.728385935512506	0.4100206696496587	6.864193974039918	14	-0.5414017610320931	0.05412948030507751	1.4694375983499661
Si	13.677489231640305	11.414996273432765	1.1629449532031328	14	0.38469854820077215	-0.23561789131209407	-1.0837247491003956
Si	9.744784324700099	6.482640575620142	5.718785879273721	14	0.8353449194212145	-0.659708858343919	0.6996085562546369
Si	3.8945204821174046	2.324416267377921	9.825335871587807	14	0.9454159950610099	0.2682701575463786	0.2278086731232083
Si	7.607550683901848	3.0717063746463333	10.043251627903345	14	1.395186904919942	0.21569748151265078	-1.2253227181758466
Si	0.4180245793722181	1.366604913918342	6.486061523364513	14	1.6626921586335763	-1.0900242142452903	-0.2868502501424287
Si	5.136158313433771	5.428545470646008	8.720923749790591	14	-0.019422900919994632	0.4695645641660919	-0.5596589227999327
Si	0.9685381713867676	0.0954943020350837	12.799829160332349	14	0.1042619202794528	-0.5806280864594644	-1.7114565134671007
Si	0.15985105460095464	4.921248005136567	4.3720127672791245	14	-0.14717932450442858	0.14578270009452413	0.7216493566116063
Si	6.746067401927599	6.106821073419675	2.4572099798193463	14	0.21476442739196902	0.1493588504843181	0.10685513710535417
Si	3.0617759311940493	8.803857495107577	3.306339069939427	14	0.3554380841048269	0.04748343016302674	-0.5079264839848293
Si	3.9799333757997437	8.237545218510014	13.057009640758386	14	1.799973756097563	0.1805306742752614	0.316129226196679
Si	4.250382147477227	2.892099693071406	4.962160878160344	14	0.21211876001753666	-0.6264603527858921	-0.9934599261838287
Si	0.9755975117321363	2.3148597736790704	2.615224525631217	14	-1.654615288380863	0.6799185174918788	1.3628241451447058
Si	5.860000386162829	8.570942198682102	4.81055887812031	14	-1.8834971408647012	1.3108572215244048	1.6838297296915776
Si	8.209720586856402	3.3463239935750546	13.37737377952378	14	0.09088137397233817	-1.6262454551678172	0.1453237577948777
H	12.930947023878758	2.4048293143569484	8.69165871908672	1	-0.9332394973753206	0.0922707992873462	0.722513505109708
H	8.750451930320954	12.577841506701647	11.158245142723635	1	0.20741415150272974	-0.1010323548868148	0.10652552140331117
H	6.955091464105946	4.961676128479968	8.565609952197962	1	-0.3194302683172171	0.407111387497567	-0.18594747896374936
H	4.788648192567292	10.99234995210793	4.003658410156457	1	-0.24411179484773526	-0.11643301864396981	0.6542434597648802
H	6.958512411850317	5.838768350162338	5.407285734663781	1	-0.7990103161474138	0.006322862203308156	-0.1077187713823919
H	12.140029445376461	2.6488246034767426	9.595910772861043	1	0.19258890111622387	0.32326892856019823	-0.2690607724323242
H	8.048035793464539	1.3156937324870284	2.909301381729338	1	-0.39631197382134903	-1.1611790397593245	0.508355087241698
H	6.656582610930098	1.3036511654273892	5.096852039350671	1	0.27653908936650684	0.4756400860376018	-0.1007613603860712
H	13.471844567233726	7.703600370570733	6.571280517174702	1	-0.15411051022648375	-0.10678880258809434	0.07290626245811893
H	2.569394905849336	11.546391136796533	5.289089912597123	1	0.9246298941002726	0.05615011197618188	-0.04572350857138538
H	13.48368630942578	9.511813628311154	0.4625509150134299	1	0.692959677896734	0.258987181787984	-0.3383284066413695
H	2.4341497450242926	13.652600798050688	11.856063082611907	1	-0.4721474965707127	-0.08220286507471035	0.7609152770609078
H	7.640984561856957	0.5765391098544205	3.098741556820474	1	0.7363313964317799	0.7686116237262391	-0.1804807948320505
H	1.7378276041497525	13.591550038304986	6.381618742229678	1	-0.2458002397114765	-0.8971177816220283	0.15156897261751742
H	2.6088258298502476	6.008957037947094	7.9392995151606565	1	-0.47757921367005746	0.10566240134733747	0.03378175280142561
H	0.03939075902739439	4.9122593610633	7.322794871657823	1	1.8501509333045085	-0.01782855851097081	0.6590473129450448
H	11.77051168902089	12.331588669070387	8.448300529546849	1	1.0475577818934685	-0.4501959135683523	-0.4467431762339255
