145
config_type=liquid dft_energy=-13879.90770471167 dft_virial="-36.75299051951407 -0.5951901298706733 4.068758756656898 -0.5951901298706733 -33.911201579762704 -10.474370564199472 4.068758756656898 -10.474370564199472 -33.27942189272785" pbc="T T T" Lattice="13.849990867899999 0.0 0.0 0.0 13.849990867899999 0.0 0.0 0.0 13.849990867899999" Properties=species:S:1:pos:R:3:Z:I:1:dft_force:R:3
Si	1.6743253960204307	0.9960248632632019	10.568817231367547	14	-0.3469732340593034	-2.0648371990947454	-2.2413736612551567
Si	6.670211001944111	7.925034024566719	5.4927817282913285	14	0.0930210478197654	-1.1360081757856066	0.3687155290886036
Si	13.563766956623978	6.842906538075956	0.7986444884074987	14	-0.88325823839377	0.11347264797835128	0.9146601761108666
Si	1.500494160637418	3.410006251585659	4.8734101366788405	14	-0.23654451766947537	0.3348057352422346	0.5367069227175029
Si	2.193450753731059	1.2428497055173082	12.657783653991167	14	1.4797245907358785	-0.010262052664307027	1.4079020491702021
Si	7.3891917278785355	10.558138888408395	8.729635394046502	14	0.30454639672941186	-0.4085041552494912	0.585049616278523
Si	1.453528841604369	1.9123651890670281	3.0099631153572353	14	0.07714164425199885	1.1046512324116127	-0.8179303088667874
Si	2.995337525000733	6.4009533294812675	5.401995038152244	14	-0.35235455749437333	-0.1035967753331305	0.21583503564727868
Si	13.095734215225033	5.681584803802541	4.699080301624583	14	0.5392831702482912	0.42002862062599094	0.4967457753896333
Si	7.693877676981468	2.719127157122203	13.729371297431458	14	0.2863655967895808	-0.7838767902330223	0.19602415493447373
Si	3.368414729009355	0.7937471316366094	4.454392512961394	14	-0.9491227576010673	-0.1662371284689622	-1.5094087729885841
Si	11.423555567789126	13.482522910192877	6.1769020272112485	14	1.4318876335913313	0.18965424150380686	0.8436968979431834
Si	5.037892628226021	7.582426800467476	7.252007568331987	14	-0.44813285865946556	-0.7341827237157322	-0.3281311458311302
Si	1.0376233108349397	8.763360121809837	6.026047926678082	14	1.0876449133820252	-1.414966418147841	1.2678637125819527
Si	3.761629819739904	1.5688715655522403	0.9005056312445562	14	-0.00501931180599308	-1.2025818058402011	1.3915446771234201
Si	7.756064135978338	2.9984676229368783	9.432023830921182	14	-0.15088711548661413	-0.04883506022982858	0.720393114552182
Si	11.290692605393362	10.632139389615585	9.62369385454205	14	-0.36589811187878535	-0.2976087832440563	0.1358821448382299
Si	13.516815487581797	7.952443156494294	11.652371266917703	14	-1.2676978762888031	-0.10306018565281558	-0.01314246195446892
Si	13.126841294714337	1.7607770390178625	4.309078408775387	14	0.6220041130450115	0.0005882688972498805	0.26331795158924143
Si	12.132231900517834	1.8403867865265517	11.094022735069181	14	0.7047070581044905	0.8162853156829568	-0.05941233040638577
Si	5.035801279604968	3.8270294766181276	6.1448392983520606	14	-0.8373313553915609	-0.3491414471757843	-0.8847674772166968
Si	13.84042052421028	10.692442249854421	10.657817272684673	14	-1.0829012240663523	-0.06135891424426987	-1.4084399244031771
Si	13.386251623670102	4.062091521628126	11.556266180285345	14	-0.13008301678863593	-0.36431122567519	-0.31154468830032295
Si	5.878046924263703	7.7580446846724485	3.084379116290462	14	-0.6258188620085152	0.4244902596880438	-0.24578172775317145
Si	9.653554434853241	2.3853839271784167	3.5040892395513032	14	-0.25362025654270687	0.26447340632011596	-1.5238481004665356
Si	2.472320319856225	10.661072020538628	7.459272681670111	14	-1.724641398659352	0.3210809179327522	-1.1110810525962391
Si	11.589464608395701	9.242071206167934	11.756647848162123	14	-0.7345087398703269	0.43527836050085317	-0.274126878355144
Si	4.4377586739290455	10.550936893157086	8.520722131795097	14	1.9902188376039398	1.7382769986142257	0.4048063915780542
Si	10.713895885708798	1.8748040138332835	7.786104766170813	14	-0.11943375566311461	-0.14461156162119668	-0.12985624529939885
Si	5.440636512673685	0.8191757148700737	12.41750016242397	14	0.5359785285803049	-1.372532381723053	-0.6054245974985685
Si	4.233360508700578	12.034298615090913	5.95160422576312	14	0.014399989566553344	0.8400492708254893	0.6258797972046026
Si	3.308042618816179	0.9520151322813629	8.51187198763051	14	-0.38851201161161575	-0.15238298456187627	0.19414441983491348
Si	1.079929492940027	9.534292163489756	2.5034550993272644	14	1.0235215466975323	-1.185774490362393	-0.3312288135208446
Si	13.74203018908472	13.327029062718964	5.784296336078888	14	0.5702071394863722	1.0607694065810493	-0.9299022026697683
Si	3.6002912761197368	8.731172743032838	9.439973725679357	14	-0.2118433946377488	-1.1913085374534798	0.6223954352747378
Si	1.4505787935495063	13.66577213936606	1.1790109426098967	14	0.9833135732589285	-0.20163327830090877	-1.4832117808815954
Si	11.341632871805498	1.502710159176282	13.338053655449812	14	-0.10130540627181454	-0.272253313908352	0.4143904437694382
Si	5.835582852262721	4.981121515658499	9.679260017904065	14	-0.11671558311865407	-0.5847603669300064	1.09099274961939
Si	10.258314286100097	11.136722256914918	3.308942868222592	14	-0.32802495918140806	-0.34473097310960227	-0.3378314119829849
Si	1.6985905800209917	5.459943399943538	2.8977366393546413	14	0.9430976293938323	-0.11024308258571328	-0.029024950848619648
Si	9.730574234069634	13.201381945565375	4.732528029570561	14	-1.056316766387617	-0.5185418065201246	-1.1555598890821406
Si	7.733530200836266	2.897071839792982	4.737943375999911	14	-0.7931577091071607	0.8026687419074525	-0.2831506866972677
Si	13.03962790221917	11.463041891753509	8.282502288867217	14	0.4566185346580823	0.02244960610287295	0.3964808954408827
Si	11.885245013370573	7.607883083682676	6.005134440467553	14	0.5475225343572377	0.3041213930199914	-0.2728829776012563
Si	6.67753764711323	5.384710249549105	6.347436964767702	14	1.4754827811786984	1.3896418020759782	0.447428118691213
Si	9.57760108493368	1.6069174904663617	1.2338721414367355	14	-0.08245071962757262	0.4887637789232337	-0.44141764578430276
Si	9.753495968956008	6.074661394624411	12.708737770394173	14	-2.100251603774465	-0.6233930241389554	0.8983758234551765
Si	8.633668807322822	5.306734800962828	9.858326549835144	14	0.4519645769180823	-0.6506873639965833	-0.08798965181876764
Si	13.037508853616382	12.787322618578635	12.459174784945482	14	0.32631620258563776	0.5171837486900225	0.226675072787555
Si	2.600848235110337	11.484370877690075	1.2006473983437302	14	-0.4959523322878357	1.2990291086095955	0.45197563267095886
Si	0.9285269327684913	6.161113037621843	6.971946902992181	14	0.43090876700926156	0.37994611712701043	-0.4662041295126583
Si	9.916551911443795	6.239767135760647	5.610589750613686	14	0.04072527982901751	0.027286369431135517	-0.2736509667603845
Si	7.090156575049707	6.711262374876567	8.704705410484282	14	-0.18803907314168983	0.27206176656200104	-0.7667830536225497
Si	13.209276440360076	9.302415616379374	4.549625050169074	14	-1.5019973047927253	0.647470654130546	0.11325307558401065
Si	0.252709703373877	4.845668604970437	13.706754262344178	14	0.958214443123643	-1.3086062188166152	0.48077072670395726
Si	7.938191515891224	13.488880056001243	3.188503347635334	14	0.7889033011339118	0.20816517136674498	-0.3300448195209164
Si	5.657942869391036	9.834241415715866	1.231844502773675	14	-1.2138910697014043	0.355716791921531	0.47441829678946745
Si	0.730857093103649	11.136500657061031	5.673524109117423	14	-0.3039522142899257	0.431090544155396	0.6814706937736522
Si	3.7178084486338685	3.3833450191649512	3.146247025497371	14	-0.7918171347932356	-0.6733025492820738	-0.02089434449471538
Si	1.9005511468567096	1.4380722517957927	6.472405432368763	14	-0.38463272790457637	0.014239295484044092	0.02951706040689599
Si	1.5796884084200702	6.94391452147555	11.211207507802484	14	2.090617929250402	-1.8756285301429203	0.9754943277592941
Si	7.647424807610531	8.957869393558624	0.11382614994783614	14	1.4582471195545537	-0.13758833032868018	-0.8973594655221221
Si	0.0753855002939797	11.590835757491622	2.4900206081854015	14	-1.149135982439751	0.78963683748175	-0.5381110033328358
Si	6.908223095008973	12.2419238281916	5.416759128417426	14	0.10641522098507683	-0.0050244540166333755	0.6855374110585305
Si	10.458557454068194	9.227570265729243	1.4644564843991421	14	0.014202014456901944	1.0675216433728223	-0.04442098661619836
Si	0.20447018518098128	1.3524211382705256	13.754661380756243	14	-1.9754010434228624	-0.05854329680817572	0.5975840118247769
Si	7.888165348876369	1.1709059279540017	11.811840061770702	14	-0.04691547299780603	0.4501501478936537	-0.6003487213755322
Si	11.190598721391048	6.999854634590999	1.9344697744921964	14	1.0244193766753278	-0.84485132423193	-0.20427586034895698
Si	13.49133150438486	0.7998619026047872	7.9932729295728615	14	-1.4710633082438958	2.1485935260038893	0.9169528307248427
Si	11.679406449091843	8.101884557958934	8.303014125342578	14	-0.8404945862669391	0.578885134162936	-0.15921801094495794
Si	2.7655384765205357	4.716558990099873	0.32830710852813555	14	-1.8068247233336294	1.004033339702406	1.5480463152976414
Si	3.6993879607795614	3.0812905683269203	13.062729686986827	14	0.7693904115277119	-0.46178054280934355	-1.7952514069560468
Si	12.90607244028001	2.8599677142578783	6.731455661561965	14	0.6360572605038768	0.22259370020235197	0.32243254799955406
Si	7.39847122176003	9.902244870877256	4.325712247807735	14	0.12504750701912593	0.5862009572408855	-0.03593351084385754
Si	0.3535473318857965	7.4525138861265745	3.501374641341195	14	0.3625091379562982	-0.6383149480854988	-0.6388278835968684
Si	11.411367575825375	4.1189734341225925	5.215989660796347	14	-0.6947921046584035	1.1208057442486352	0.05748862940585097
Si	6.038471368486588	11.643853522533945	13.35204214622639	14	-0.32364096750002364	0.19007461722365107	-0.3759835296075982
Si	3.958008840255858	10.675129761269547	11.465784189945353	14	0.5062943463275993	-0.4935146673338032	0.3516531599630369
Si	12.447208392835615	5.911840901981379	10.358518970029353	14	-0.285448740632416	0.6204599071897304	0.6231485120230094
Si	9.258012545656886	13.502979346704764	7.138562293133018	14	-0.8385811696876848	-0.2327277118217156	0.6991778961135121
Si	2.798002855114894	12.429812804305534	10.203399072308873	14	-0.28656434323082824	-0.015531533017950516	-0.08237230091530812
Si	9.940830945435223	8.753678978193175	4.931219998561455	14	-0.16194235414218683	0.28829906799033217	-0.3302564214887646
Si	8.875087998141186	12.21416844649233	9.974500273235089	14	-0.5495786472817602	0.27520082904736975	-0.8318176200325033
Si	1.3987936776944283	3.0719418244910877	9.72598988709236	14	0.47633608424776586	1.933678431840159	1.2851695653813373
Si	10.316290347873126	0.27463146891958906	11.066572053169004	14	-0.9613511916142236	-0.5376849711812872	0.3433685444004558
Si	4.778080649535085	10.342854630357758	4.3862782578730615	14	2.285363216398634	1.6511304122299344	-1.326696258738645
Si	4.51858722063411	0.9551175302357725	6.385122789919257	14	-0.660473247955599	-0.11637259766894631	1.8884534605903507
Si	1.260645558783473	11.649989068488424	12.31111838256763	14	1.2159271280044295	0.7586750729954628	0.23555027124217418
Si	13.802942448921742	4.471774251500609	8.538865619832047	14	2.1560142501789006	-0.6116415301626865	-1.4724532477799677
Si	11.655307464981698	4.586466025877688	2.8478351222575977	14	0.12890339366775203	-0.13942924173790625	-0.24125503972651877
Si	10.438751967127097	13.303068578517497	1.6082609395805478	14	-0.314706119401977	-1.1733437103605409	-0.16040071939222603
Si	11.739764709294152	6.984051795010726	12.991014434272842	14	1.2716460656184225	0.3886855612207258	1.0192517120923623
Si	8.13970888301917	1.7695440832372433	6.706165578237179	14	0.10126452569722418	-0.5484856704101653	1.181262971857129
Si	5.8323973543631045	5.922796244757888	12.354801253764986	14	-0.9738341650540745	1.0222046265525524	-1.4636137876892985
Si	5.7882020335036355	12.598838092857385	3.3112973666701353	14	-1.0580900577269232	-0.37792162879792585	-0.6123035897826248
Si	7.918012079196695	10.720626981270598	1.8293621937957036	14	0.7822117424276943	0.4310612335547463	0.37186950398482926
Si	6.277023611195298	0.9220423670441404	5.089608494126759	14	2.3874633513249064	-0.32946272127643494	-1.3248746306193202
Si	8.111177901831294	8.473812212725521	9.980746619116513	14	-0.6601176640898225	0.3647426571479108	0.15602855479531422
Si	1.2531374787339844	13.448839732402144	3.384217568589629	14	0.2362925493481009	-0.06258147482400028	2.613872057601294
Si	9.850141205232216	11.528178398805244	13.701837515586073	14	0.0029184616489000845	1.0919142337661312	4.250745176609943
Si	10.853115993912928	1.8846652073312282	5.316720644378584	14	0.3818402504163635	-1.488288171225696	0.6533356024763358
Si	13.530097628824112	3.163019364438398	1.7325230576473467	14	0.13104563862049937	0.6115327724076444	-0.2318023710169943
Si	3.2554542034907628	8.933631909539802	4.93441934645194	14	-1.8666312041855937	-2.8341929007006352	0.5237737487360941
Si	5.86315818408071	0.159466024854827	0.7788473114609225	14	-0.4092232934075366	-0.15980910805805998	0.37614910879021574
Si	12.545155528253405	13.23392942410494	10.159203751449404	14	0.05995251963414887	0.2413684254711373	-0.4521640946909258
Si	5.702193590213977	4.208762924919188	0.06310055839415239	14	-0.2084274241094001	-0.4872879644694686	0.5305216146488226
Si	12.150209188664368	10.792286834021112	13.489212455782072	14	-0.14979902371512743	0.017435179396988156	0.26317448391237713
Si	2.262063608490635	10.957891174828593	3.9047694753596502	14	0.8250044480446428	1.1389706033354812	-0.5244347799139041
Si	6.36670230206495	12.262061714913528	10.566587382837815	14	-0.09115262558361381	0.2686373113860958	0.4285425787831293
Si	3.8666820004729257	3.1761214557994313	9.358134129640936	14	-1.4893754916655864	1.1580895996066345	-2.5108434965439166
Si	10.43814256752891	3.5234238268028917	11.880494466502883	14	0.1976069273695569	0.23125575402593082	-0.028122235770715657
Si	3.337238399565712	6.705819328465482	13.212766638058788	14	0.66583940186928	0.9106741915330411	-1.007420256740637
Si	1.7829647243882383	9.38230236370542	12.566027464491329	14	0.6085196940829628	1.610408474837833	3.66083360017102
Si	13.35461824452782	9.136838975553628	0.8984599875933673	14	-0.859469600640164	0.5519756887717342	-0.7163415667886927
Si	9.22698856611279	4.03252179112516	6.591529203823571	14	-0.34554858460140936	0.3149575735022875	0.1511195434075555
Si	5.9284331910411225	2.532941729885023	7.901932239799061	14	0.06159237060733933	-0.09845225069804621	0.164046546736196
Si	4.935693545611787	12.949658361541292	8.496138398004575	14	-0.07961324779625721	-0.06676440606934919	0.32702351365921045
Si	6.0182226818377185	7.432251349486838	0.6593218902709456	14	-0.7379967013476398	-0.5943580459795872	0.22081552376293756
Si	7.9473048098823025	4.46318725716251	12.020808723985578	14	0.26690798594776416	0.2274145226776296	0.15039989102844606
Si	10.170616143924553	7.360286796937229	10.878087527447752	14	-0.15711767500892895	0.4902874159359534	-1.430389964742345
Si	8.237018918857034	9.433976679633556	6.720624968703267	14	-0.20576890120836697	-0.2361225992864391	-0.4296952052981517
Si	5.041673675732958	2.5188147391997653	10.993430251395624	14	1.5208918435694294	0.234314340914779	2.24563758231809
Si	3.015752411540017	9.2705190874106	0.7868152112072254	14	0.595725874009906	-1.310148882008704	-0.2395699372996937
Si	1.5972086468679636	7.42603270358715	8.966927287586232	14	1.6996407418578283	-1.135231959089454	-1.136342419477226
Si	9.862578497031588	11.015687186720339	11.674655902224155	14	-0.23107911909043666	-0.8741300431756484	-2.7576282124824774
Si	5.956687172411639	8.626092862318082	12.145721791623167	14	0.32125035377334993	-0.17421166872993346	-0.5259203645678855
Si	3.3486646420317294	7.559158815809405	2.5394512255929365	14	-0.026203934091353177	-0.1433095538870737	0.6253506637297161
Si	13.671699935457521	8.754205277846156	9.162378358714037	14	-0.08989252686620923	1.1943411561785942	0.350629602935086
H	5.719935428515757	10.086366649475117	7.092885023250683	1	-0.5173745247047774	-0.1728217291938614	-0.14972394743977913
H	4.5525750982239375	0.09856207501232356	3.420379894745716	1	-0.04881886226631165	-0.2535721768732201	0.16876401077760372
H	5.0985140382548195	9.69103251014178	6.592207853376099	1	0.47788620364528317	0.1732403051399815	0.3761807333856536
H	1.6317505240925063	8.82943842824059	11.31384979012449	1	0.46150234921370353	-1.168085285759774	-3.2861952728669235
H	12.473454125530287	4.974376570105831	8.570152749202633	1	-2.2147321250383145	0.44147523854347415	0.3541928977982792
H	7.4653528276611185	0.636564970275899	2.0703935848697674	1	0.2266485904027575	0.11054364479763859	0.022288654909831684
H	6.954052714790854	5.626780389938261	0.700432818164133	1	1.510900785405866	-0.0162483571812078	-0.6375137916677406
H	8.804813144477464	7.573576656302889	13.148031780742222	1	0.2467055258947006	-0.31124772563584585	0.18622284434353722
H	12.642313214191724	0.7882473002629662	0.7181289514960489	1	-0.5044639764501858	0.05086083411157325	-0.4527029983660288
H	0.3656369889143864	13.466069121041812	7.8036111546278395	1	1.6113050192629688	-2.422511887717569	-0.09933568248604908
H	10.175837590481752	9.181602146038681	6.57907806203333	1	-0.3373349315456643	0.009586109075640097	-0.21594147940753283
H	11.517347705946547	6.620254084883596	8.637532954774967	1	-0.0685199567819463	-0.2774993972035822	0.13032624335192194
H	7.691717078406076	5.717857929885572	0.04120095283382892	1	-0.6154714486475792	-0.2971809513187837	1.1101927357081278
H	6.921131286497856	1.78163512526492	1.0536366702764057	1	-0.41521731124039785	-0.24160573849218692	-0.41424080543980557
H	1.8137255541058441	4.124236430652394	11.232605743693389	1	-0.7532924640077328	-0.63743331607122	-1.0532152420399226
H	2.503178099509906	5.5031969214239895	9.642266692295903	1	-0.3690091493161645	0.5792345473759442	0.009985915952923124
H	5.576920422813822	8.363898685197865	8.562604504179626	1	0.25154974542839165	-0.1298169073880006	0.05945835319161642
