145
config_type=liquid dft_energy=-13880.695408230064 dft_virial="-38.228769325136035 2.661280457741412 -2.349049569940403 2.661280457741412 -34.01121303601147 -7.603309978716757 -2.3490495699404033 -7.603309978716757 -43.01224409839992" pbc="T T T" Lattice="13.849990867899999 0.0 0.0 0.0 13.849990867899999 0.0 0.0 0.0 13.849990867899999" Properties=species:S:1:pos:R:3:Z:I:1:dft_force:R:3
Si	1.9909915872240964	12.90172354314749	8.853274262524245	14	0.7498464115471383	-1.1506135966672397	1.0728435742749969
Si	13.333275408600386	13.443161236146304	2.031655160412251	14	0.38754347623751595	-0.6124509141174692	-0.6744628891130567
Si	12.119406808974158	10.103706838041727	7.357239798946291	14	0.3932171343474868	0.1677548519394456	0.3332515020762051
Si	0.26330910138508085	3.164681363342546	4.57933328058072	14	1.6169403679036694	-1.6773289470001154	-1.1600390116603707
Si	1.4886385684544956	10.622125846218093	7.57382595613851	14	-0.37917864218894626	0.6788579365473177	-0.1218297687109606
Si	9.155550313216162	7.648463556925623	10.347009627618128	14	2.00817492293879	-1.522411366813637	-0.011773605482022083
Si	4.509875576378201	13.029171159113906	7.989976631746302	14	0.11346442044132682	0.469514941833413	0.8484233608532118
Si	9.12963698030232	12.92321872897447	7.965032798193214	14	0.3772343723458503	-0.034093627876759576	1.3843661510695666
Si	12.18976476258309	11.110518074192852	1.1346217218782773	14	0.23433773797319235	1.1852834092462445	0.5920198828014446
Si	8.391903366732759	5.527185105607193	3.0585350333309607	14	-0.24823559067072076	0.3935079263591955	-0.3578096716521315
Si	13.015528918109023	12.261438465324472	6.102333676378476	14	0.19902669172734264	-0.36766728944957927	-0.10276373720940252
Si	10.41889108022253	13.845794320667025	12.6742512931331	14	0.015833123672003884	1.525066290167222	1.201574446775767
Si	13.097742463900879	0.9819297275569402	6.906367196232674	14	1.3669821366684494	0.9835172048002843	-0.6878827733315697
Si	2.879260751536863	10.064566763849044	9.704771701082738	14	-0.13789172075645767	1.4576609075415599	-0.5515812812156236
Si	0.9478684450155138	11.900244553480508	13.215328886369349	14	0.9197242251494301	-0.0025397378352422723	0.999886661042071
Si	9.160120810202569	5.42108032556821	9.028919846710954	14	-0.19539680523635758	1.454972302708281	0.04181311448997216
Si	11.40771117823625	10.540798699841785	12.21324049710418	14	0.04823522135863803	-2.4886905959949885	-0.4269454081582532
Si	4.722542186154806	5.57395652476809	5.6493420250620705	14	-0.21716455420832728	1.4491631473479385	0.2620187720709706
Si	11.642593173364965	6.225792494974936	11.05420401132397	14	0.41698726014278775	0.4740711975712474	0.10582283831931472
Si	2.894080241765516	6.378959543983042	0.4743552622301411	14	-0.4964691244571854	-0.2833183227641413	0.28422540872108953
Si	10.02408324054217	1.4789158748652298	6.524772247840293	14	-0.27649692323925645	0.24239455360440834	0.4491672143297611
Si	11.90359625127054	2.522332636880212	5.33494723236074	14	-0.4746291274257195	-0.8509029348239625	0.04290840535635525
Si	6.156404040726757	11.909482497389398	10.254851788383121	14	-0.6191794967402967	-0.8856164561934098	-1.0893156176190575
Si	7.824635440765312	2.724653303478495	3.375353574434173	14	-0.7851721130933128	-1.6281714701631402	0.5361574775105873
Si	8.059558985866632	6.007585888851172	11.996238840185924	14	0.07367990804895148	-0.2158388923052589	-0.5641033354563406
Si	4.337637089944997	10.080965153036637	5.103929384684168	14	-0.14187153468151487	-0.8338104837661501	0.2302550798353292
Si	1.5472101798348448	9.380571114846934	4.1767832960052065	14	0.16222903238538333	-0.6415823087263429	-0.30773199622107533
Si	9.589595177025279	11.708242130078812	12.394038277893747	14	-1.9547524965967529	0.7339811490586325	1.8296952193774108
Si	1.348493280860389	6.350234662923017	4.949294236644064	14	-0.04398646981709334	-0.12083063718355107	-0.272931057270743
Si	10.450385959456133	13.47912966243024	1.7091304230714635	14	0.557232827819841	0.13894227439027015	0.07746046131169722
Si	12.103077669740903	6.751551998311288	13.601231181921648	14	-0.1741898143347122	-0.2349015813699008	-0.04504422254580226
Si	0.3993049317151645	9.110039243224243	1.8162047024711985	14	1.1730763154072454	-0.0005612722913883256	-0.1683575190264883
Si	1.9571283595520808	7.324886220278876	7.389704177540649	14	-1.2176222577420033	-1.0601567121832582	-0.21343850837836867
Si	8.568116800545052	13.581453394962287	5.763022750105793	14	-0.23644270189879754	-0.04732890673328584	-1.170097432783322
Si	8.656230442446631	3.850532911120954	5.2018903700928245	14	1.3031341353637442	1.2267440251968245	-0.08690464537366514
Si	2.4592043785043236	13.027910809944927	6.362796604640202	14	1.3930989102894495	-0.39178657134735634	1.1899684773606185
Si	12.49328731245312	3.6651230833723765	9.826153021049013	14	0.7922681066663895	0.5417231491971117	0.8531688499426089
Si	7.255303866158546	3.1371475814971608	6.785927675645415	14	-1.0144864254919999	-0.5836460498842542	1.4907818862757074
Si	6.100699377456063	4.554444846991103	10.824806612578943	14	0.6188645363385786	0.748781973944597	-0.8460936823226254
Si	9.610882612989242	1.9376968223644173	2.11238675718124	14	-0.26589651311481793	-0.49720240369449165	-0.9458204299278692
Si	5.587903465572066	4.27601848057371	1.0899222613512167	14	0.8240891345506702	1.2405886560142259	-0.4919414079884047
Si	3.632354004978925	7.418345958655466	3.3761568739045114	14	0.1127247134407202	0.4116139071342103	0.1791260794388645
Si	13.743567538071055	8.494822648872125	6.632594426746895	14	0.005745906169466927	0.0963372594616924	-0.2621023329938754
Si	6.791121422220878	12.449479791337952	7.108120013205372	14	-0.1460215557787659	-0.08477628438964656	-0.43745505826489056
Si	3.8881079363455666	7.943052862685856	9.681448316461193	14	0.1331104933031103	-0.9799500532791109	0.11312246343374711
Si	4.025153595983437	1.067878615885867	4.6980000023368875	14	-0.1711595096043857	-0.06063849053356438	-0.27429400020095357
Si	2.757893281561455	5.237775696431553	8.450890477839145	14	-0.20264706512864317	-0.02719663785546235	0.5242650869627743
Si	12.002055836350442	0.00274091319275741	3.8291762252026524	14	-0.9396248374379083	0.16122038776828926	0.9370956411344785
Si	1.5591350219721067	4.276240080427596	6.241498384619135	14	-0.44261655219508783	-0.19714335708033418	0.41462364302197563
Si	7.042900406208432	2.3384324581362357	0.6890993706369305	14	0.06640625109825257	-0.2083464342918154	-0.5156858227305041
Si	11.093995035087447	4.293123219295566	8.083270170232476	14	-0.033591491007734654	1.042735159644467	-1.3313748990897185
Si	5.557350385717479	2.969950491739872	12.379481937491585	14	-0.18209390630991143	-0.8764111278156838	0.9142405717226184
Si	6.333725473808481	0.6664435555752197	2.4654645743766146	14	0.4040664274669157	0.532211087954692	-0.19799593560449527
Si	5.854931289505178	8.351419843425889	2.4635255756551087	14	-1.8286631777019031	0.5185963139529118	0.22141202019721193
Si	9.496218538593899	9.425514335213268	4.181353792991613	14	0.11008753071384433	1.0584003901390648	0.21440344420502022
Si	6.622456233431592	7.781755869038294	12.68064998891407	14	-0.6067795700022866	-0.014405645998257671	0.37849164284740267
Si	9.805876634418407	8.415545301144265	12.716493765280195	14	0.4292218648087124	-0.591611848387137	0.03780090463788109
Si	3.3984415092109623	9.068336920720995	7.514741895096049	14	1.1823333230019066	1.0240699634623198	-0.6802311638988089
Si	9.103862147297159	11.338807473668448	10.269615878648302	14	-0.22468863681720863	-1.3958106550706098	-2.5403636422771965
Si	13.134306439792134	3.5570516046301535	7.014632574847049	14	0.6144252658928109	0.44332386326866063	0.5498776668304934
Si	12.067690943073421	12.6117324343554	11.369180503641752	14	-0.2514204188307882	-0.7516155891179322	-0.34450497295196125
Si	11.675196051868003	6.302050544693593	2.731065849250333	14	1.5594005735019474	1.2484899197735728	-0.014815223075757262
Si	7.547954173197273	10.531823905759385	8.44803737972036	14	-0.3743238811234426	0.01180497296692789	0.5973274155138262
Si	9.283759678680314	11.847032888566037	3.047870540362678	14	-0.10696029531294822	-0.6727682735965471	0.687577068909004
Si	5.965592716539699	10.60790190559676	3.2632240483676545	14	-0.7510057229359931	0.14365665310529369	0.9545362198526391
Si	7.3516028526630555	11.124271115124676	1.6007819445118818	14	1.108229182575131	0.5435388637742004	-1.204909941707595
Si	10.505370423201697	4.320006051570161	3.158476567433727	14	-1.2960276002588549	0.9449475396716789	0.5946403533437394
Si	6.194726965458236	8.969475685905925	6.7176056706940654	14	-1.7635507068007492	0.04110580341639943	-0.07556092870117181
Si	11.259253126123228	8.16483276645354	5.396482741786819	14	0.5030264714656911	0.097858582479624	-0.4911135120753169
Si	12.638241316876561	9.740075327805013	3.701631659300161	14	0.21263735196061054	-0.18548365156399466	0.03785026986002793
Si	11.283684510014204	10.03147913566563	9.825806771277314	14	0.061873392418831503	-0.36626243750265036	-0.4535383504845449
Si	3.6303873062756837	3.936402854501934	13.783607861670154	14	-0.8197979597713432	-0.3848854675575469	-0.3345568522472443
Si	10.442851564423997	2.440756190668281	9.356707580581542	14	-0.7656121722597543	-1.1199097140445635	-1.641697283920843
Si	1.4843450712854467	8.181438905504152	10.44262996457011	14	-0.023184942224435304	-0.5276129232001391	-0.19979056711795865
Si	6.93600617668998	1.9199826840443732	10.601738659660544	14	-0.06543745861362078	-0.32088422837576086	0.46322704666245884
Si	0.3815658634115582	1.412131218900216	0.7391684726234758	14	0.023601718396831308	0.17843316655508462	0.27550036281716705
Si	11.710139578827713	2.4702012712534365	2.975670537968315	14	1.2959206422775364	-1.5597353314146307	-0.30072547711313985
Si	5.213053462732352	4.079819509939038	8.204803840098299	14	0.8767857378608291	0.7635192925291537	0.5769022977400378
Si	1.2952303709797062	13.168834467025809	11.380648296080372	14	1.083997286264331	1.0171385206297328	-1.1123516928454562
Si	6.9131813917396805	12.765411933025618	12.246799024977102	14	0.21846321950553407	0.42510758207541144	0.6601372044902557
Si	10.04974727362039	4.464489156304094	11.058954558191658	14	-0.07881260559956309	0.19678443077764152	1.0900123871608176
Si	7.94046291439356	9.982976467646244	12.956403307093959	14	-1.5885273401212447	-0.565966615481852	0.2936734494410377
Si	3.0455021919242666	9.548931603837126	11.961378413171419	14	0.4924103775987997	0.15912930781141282	1.0266151006187345
Si	0.6189962568599678	10.846204848469847	10.351026124969819	14	-0.15548168069371876	-0.2985073845534481	-0.13872630154337773
Si	13.151064928742294	8.165303666143048	11.351674115184725	14	-0.1807083376528836	0.25965412650803044	0.231883360834579
Si	5.440691912637157	6.824236750386027	8.027039207308803	14	0.29719663506123656	-0.2133693456452567	-0.7047852197062231
Si	13.522715583691522	13.102437610805097	9.488213243872252	14	0.03801096394253719	-0.847127009550793	0.07400566709301425
Si	13.403993461971885	10.049913473510804	13.077770777069366	14	1.30136238668763	-1.3326095438644536	0.6356517971948894
Si	4.38154156099624	12.39581107672484	4.644705237477208	14	-0.0365474907943089	0.5413649942260151	0.40554481302600076
Si	1.418779214516808	13.282473642096928	4.423174633545147	14	-1.388852986963757	0.675684164140127	-1.8854205847547039
Si	10.520757763055933	4.50626072876168	13.481830410649481	14	0.4885768595664589	0.0142012431253059	0.4083704577728435
Si	7.7928220117417455	10.382714904075574	5.827965357285376	14	0.5699436011910571	0.5278160405204307	-0.7429090551723148
Si	5.036659979038777	2.744195640593102	2.64059770890121	14	-1.0495349618846626	-0.5259992975012142	1.4184584933936661
Si	11.508262111937203	13.402774662775508	7.701439771995342	14	-0.8833024614052765	-0.6239704943938607	0.4110989147385846
Si	1.5784973092054309	0.9874683389050134	7.772753374974158	14	-0.12803770250645813	1.185966551929808	-0.7469485187407993
Si	3.437346133558893	0.7752518538316157	12.21739549436455	14	-0.4005517264942731	0.06832840943559527	-0.07641787810437717
Si	10.242179046738993	6.262453420802267	6.84624438587512	14	-0.46503890458156727	-0.12653077767831936	-0.6388700497241188
Si	4.486178242003224	12.965821300884132	2.3210645695878895	14	-0.22820488045304313	-0.41709627500836205	-0.6304599642219144
Si	3.2308012197459006	2.944909708250709	7.4750893712412525	14	-1.3305254058919418	-0.999279623075984	0.11878995089094951
Si	7.391019926673099	8.966387137942384	10.426383925282062	14	-1.503919977351132	1.5130599996537264	0.30666241640789377
Si	12.01353747877993	8.828690528733722	1.388323084598296	14	-1.2419330869861314	-1.3695820383681832	0.06519500338193081
Si	12.798319511327747	4.953837033648735	4.348398532849355	14	-0.09730862305164435	1.7896893348169702	0.16329835508803292
Si	8.103338807000064	7.933537918959609	7.610251432121087	14	0.46061660343091254	-0.8017518857502877	0.5597414552807095
Si	9.334589145165506	2.1854039090368085	11.314002140024037	14	-0.8158669968473686	-0.570984641735185	1.3892990737368025
Si	12.445213994150638	3.3341637015930385	0.8946069201339175	14	0.7717149478476578	0.20037086558871606	-0.320921509402903
Si	5.302926053474155	10.761719904175658	12.559019369112171	14	0.21911936558323583	0.7096026997445845	-0.3554766506846292
Si	10.654936474584149	12.175430022034814	5.523805707835424	14	-0.29346107614159345	0.49673523385782065	-1.011679549813994
Si	1.7410962019945766	2.8099553972338915	11.20681706069736	14	0.36484601558178076	-0.7237694900586005	0.8036761009718866
Si	11.580254364468546	7.735898549274676	8.114681949520874	14	-0.9680982861953562	0.940503127015271	0.1842808884952294
Si	12.471598226753986	1.2737282601572915	9.301335317091677	14	-0.05783187196609074	0.965111947366004	0.8525723535083347
Si	4.072880664514221	7.4601175311130525	12.626316474739298	14	0.9826556274075027	0.5377124820082126	-0.09855303802659601
Si	9.309673011594153	13.698430417832569	10.580381973742243	14	-0.6146813479826977	-0.009647301382259622	-1.058680640618961
Si	0.04259703191331324	5.450151456399932	1.1863708277570988	14	-0.987248392840883	-0.05573744957229811	0.4301217516707643
Si	4.882703480551202	3.2768385893908003	5.848144793979906	14	0.31900500749726457	-1.1161782688934325	-1.0459467272998637
Si	0.6768601337069673	7.470089524537939	13.598461183748068	14	0.2743027419590421	0.295675826264369	0.46617944690158486
Si	3.675939926240207	3.6754690265506977	10.24535069464774	14	0.5786863877216887	-0.38039811744229246	-0.2424524034741117
Si	3.4320692870382232	12.592674846921168	0.04525069016360288	14	0.14383508781451196	-0.19285115385887897	-0.1544303557283102
Si	9.945318342476424	6.348157164292832	1.1849470486958789	14	-0.8908949354156737	-0.010738221369598452	-0.9053576599520388
Si	1.7114849215190067	1.5040120583178644	2.972332690169151	14	-0.2739484436459257	-0.03870207705259299	0.29475279945443583
Si	0.8402124659993271	4.5560375959409125	10.016950495245203	14	0.08277776422429546	0.8500758102424709	-0.540721446564382
Si	8.034878302140033	3.402887356279558	9.175106500321638	14	-0.7926530011328156	-0.07096019284129886	-1.049977706220792
Si	8.059752885738781	6.556613376845595	5.43552586604343	14	-0.059722148597463616	-0.4206438861291023	0.20455662504991712
Si	3.3992309586904326	1.19158673431795	1.208205338360343	14	-0.2078268139066135	0.561660014070604	-0.35880957451113704
Si	13.559805859235759	7.003400232253182	8.880309444698385	14	1.789160458452616	-0.6942529438727686	0.7370348508473724
Si	8.432373040048764	13.154070376760627	0.38549372082169464	14	-0.939653890928026	0.07885168640042935	-0.32578218401064296
Si	4.88152623132743	1.3804382847972005	9.42055603848256	14	-0.4870015433368041	-0.2177116854204548	-0.2223959822032326
Si	7.797226308837737	7.982372986759825	3.44891087593359	14	1.2300756634706724	-0.7692081201605134	0.9156096853055972
Si	6.1793119256222635	6.651236514455088	0.9973877023646033	14	0.1606069220389019	-0.706346651967149	-0.8245491052924447
H	12.443274995429132	0.17134931701948522	11.32750588112024	1	0.2999055516265446	2.0172648086876417	0.34226991109715654
H	2.3370890090220495	5.566602179617235	3.8634965025733083	1	-0.5485296363111398	0.5626784288879146	0.22211264639695227
H	10.41763073105355	10.374931209207814	7.4655328775424	1	-0.6731454547470128	0.1179491994512611	-0.302933542362083
H	3.042953793604573	5.784324036060624	5.859834186272415	1	0.9223354397125725	-0.07380177844112651	-0.06683845390256947
H	3.668433231189805	3.5436863634426294	4.075858412550819	1	0.8297332249494592	-0.4665126621510761	-0.27269888646033374
H	9.682874865520587	10.731720823955786	7.0498808016058545	1	0.024738404058868773	-0.238256616702162	0.14925677760310824
H	9.35519793157694	10.818214016925822	0.3659610787006953	1	0.6556228577691396	-0.22224608676306795	0.7361871574233196
H	2.340731556620307	8.968007586873929	2.415452257352628	1	-0.474046257849642	0.014655043214312036	0.5558107494672672
H	2.744915840118233	7.704431370022808	1.894401750911362	1	0.47014589107897736	-0.4832027352262854	-0.04603384098352725
H	12.217838694072324	1.7920087684249772	11.123038465937434	1	0.30652306249954175	-0.08268880398021834	-0.7493393895780052
H	4.501870281656555	5.836677001541285	10.646515680136465	1	0.29346801812595785	-0.4740796822188039	0.3557656429226138
H	7.5958612916093395	3.848801662262466	2.4024886659002735	1	-0.16602604072217803	1.1365288246129366	-0.6594406920590274
H	6.256497924729071	0.2933815865565521	12.0333983656845	1	-0.14058932445835703	0.14068676934999066	0.13783567066047844
H	0.6123925812141532	0.7832197535779185	4.892827823875637	1	0.053422683452568794	-0.2749082372619369	0.0061554832469665165
H	13.080817775060304	12.208933149944263	12.58626230114933	1	-0.05815403146270529	0.49613745187088637	0.08760501446287348
H	9.870112892063728	10.777384243847253	1.0422478227857315	1	-0.06312552070974362	-0.12267360547703321	-0.15214438598816654
H	4.2648138379615785	6.109535671629784	11.533025895609008	1	-0.024013352358587016	0.12467623941089655	-0.1984127117768913
