145
config_type=liquid dft_energy=-13881.086471365397 dft_virial="-25.256551658528494 -6.122652565472909 5.137173825850976 -6.12265256547291 -21.004845116050685 -3.2345168533135773 5.137173825850975 -3.2345168533135773 -13.072229122856305" pbc="T T T" Lattice="13.849990867899999 0.0 0.0 0.0 13.849990867899999 0.0 0.0 0.0 13.849990867899999" Properties=species:S:1:pos:R:3:Z:I:1:dft_force:R:3
Si	10.16496534765045	7.977830189755154	5.279699618788687	14	-0.00534121419207562	0.6691828672276006	-1.0591418969133957
Si	3.1785036542287104	5.172376039553329	7.518481392630382	14	1.5460850761594325	0.06342402603741282	-0.11587868833694587
Si	3.2721295924957143	10.545590796682077	3.2527257552897866	14	0.9925764943958261	0.845634740022979	1.046454006379529
Si	9.945401442421632	6.696567534565725	7.109823562082125	14	0.9734862945042586	-0.40689052955056626	0.2268187975749513
Si	10.622139696208961	0.058445576463451214	0.9415847041587475	14	-1.0257288406148795	-0.9080092408687074	-0.9975379563321157
Si	2.0062542771605223	2.2738915006918217	12.419037511410307	14	-1.1999970736618562	0.27884022862803937	0.9077457025733923
Si	11.597926952815987	11.382864294619237	11.135074108001639	14	-0.139424870858862	-0.1790494605003241	-0.011812686282888334
Si	6.804445113435798	4.969445973356859	12.741963898486263	14	0.4122551408010552	-3.2389987780576255	-0.014182731167000832
Si	9.639136594359758	7.6570644012545905	9.187654592047954	14	-0.5548039046238971	0.2610396951650582	0.6727039959635434
Si	2.1267353477203845	10.430857472332393	8.737543738832073	14	-0.028263903673855815	-0.26254739132479304	-0.1317285241935307
Si	9.562726194741554	9.911884464521313	8.135359985886648	14	-0.2026858888189774	-0.47873338284827194	-2.451093065787931
Si	7.559865165343667	8.821253083637659	11.597303703226931	14	0.021628909284681686	0.39542648514909	-0.5777013972735399
Si	11.301772598087682	13.316877019412793	4.166423502836017	14	0.3424388327166903	-0.4582573571891447	0.4594701475686585
Si	0.12401835822752375	8.795990700294611	8.492842100178015	14	0.3169704918574314	-0.45275699157775184	1.606519935151641
Si	6.341356818776694	8.485196905218935	8.334204304777089	14	-0.3545417967902233	0.7233187752959785	1.364113811573292
Si	13.186728655227137	4.642406138993136	3.442110530417451	14	-1.2494584551476726	0.8009103629790033	1.2829681850062267
Si	5.273494822879868	10.197208126390922	9.616630359199421	14	-0.014166533203483902	0.1777734209299346	0.4623634123854211
Si	9.345475237987676	8.404880808175983	3.07080612523992	14	0.20667701560744328	0.5219966007388077	0.02578664369789314
Si	0.5520204710209771	6.728284013653216	9.977602671189498	14	2.9265372336001376	1.0815979307795691	-1.880505659824709
Si	10.704353242000815	11.655709114716867	6.35048396275864	14	-0.425256963294512	-0.2097476866912961	0.43451037134172504
Si	7.315011176790063	9.880874334968086	6.746178201854542	14	0.8231565946510525	0.22820179512665897	-0.32571199283540286
Si	3.3794393217402035	1.939081821451207	10.616904399660894	14	-1.044734965362478	0.15100872876825713	-2.0070444079295204
Si	8.442303483501048	12.414577814350844	11.740415658864944	14	0.6031995629545124	0.1664268760415891	0.03435819461420281
Si	8.514877435648845	12.175194572190058	8.062509033921494	14	0.4084211085476504	0.4720821904955808	-0.3262681229161509
Si	5.204771168193348	1.2932221223038605	11.811549211962477	14	1.075520866244867	-0.3039097910521432	0.7213711630159664
Si	3.048438389988261	10.983790657751566	1.0132168569275262	14	-0.2901613195737154	0.04860520341420735	-1.4062668261865878
Si	6.149368245365864	6.982459046060916	12.848775028059508	14	-1.2713478174012856	3.640566605374421	0.5554356252010575
Si	13.59125918849676	8.253168008209006	6.383488490996845	14	-0.5942785988251946	0.9482532097817932	-1.2735494548869282
Si	6.110269721145782	11.894205957462104	6.078636342003498	14	0.38176620258314325	0.39145078499254504	0.1078385848903108
Si	6.45151964613997	13.416029104036088	13.073865079644618	14	0.16448080642476903	0.9804673596695247	1.988049853155863
Si	8.184001153814712	10.067904611648208	13.629360513374351	14	-0.5480624664744688	-0.47196314831925806	-0.2798817833932314
Si	9.280047881127715	1.2181066968318048	7.384856680736883	14	0.10919072917817668	0.037145787002307355	0.32153908890080257
Si	4.06220232155507	5.011439145668332	5.155908400411397	14	1.0889692897324335	1.018152307457467	0.21754122113772895
Si	3.9762492782288827	12.174959122345305	8.884810691730454	14	0.48492691845397673	-0.3647177174263054	-0.5068533046241995
Si	0.2711842061925688	12.382792085309013	5.887187918236517	14	0.5685390063546601	-1.0963753586071203	1.7668208956574456
Si	0.7823915241240181	0.5899292810255061	7.502969402858334	14	-0.09786423891132834	0.35655471514536724	0.16620010455235204
Si	8.860337757866873	3.433634336006296	5.243689642532147	14	-1.8366202344466975	0.31651669176842534	1.0155644899527378
Si	10.179854087833442	11.688034993402546	13.414657954940166	14	0.20864493961948463	0.8739145845498199	-0.9254912143825224
Si	10.951658678938038	1.3269800900452802	5.65402332197542	14	0.47799907516883766	0.007084680709668032	0.5126658024214583
Si	5.782772837083418	8.327085409470989	2.757519331808022	14	-0.9165417109841509	0.1484227110372522	0.5204197418459607
Si	8.566205501805282	7.529782985178589	13.618142020771353	14	-0.09067260022034215	0.18143570334795353	-0.5923898648570138
Si	11.999465888058145	12.765024133281317	7.962484399873521	14	0.674260286013829	-0.32130511831666914	0.7275996656540251
Si	7.592440343864968	1.3062037187443432	9.423852336309121	14	-0.4715494574732462	0.020132525988355503	-0.1906932251636787
Si	4.005168059161058	7.433691748537099	8.230675623039536	14	-0.9371043828925671	0.7539393541062821	-0.6503826880161458
Si	12.428497055173082	6.018707431518095	9.651975535894302	14	-1.8408743853094145	-2.2025743964214617	-0.06737427225128832
Si	3.039491295887598	12.230663785615999	5.393214143941996	14	-0.09724485963970467	-0.46753236252104685	-0.20770777173029062
Si	1.9466300664742129	3.3671266798586403	8.30649047305042	14	-0.9430796316565913	-0.7427627592795983	0.5495480511284504
Si	6.944593171028079	1.8677820684632582	2.5606001616482197	14	1.202982641159612	-0.12602015616173795	-0.36255927451004105
Si	6.137471103210338	3.0667203779338896	10.526325459384829	14	0.49131534384294856	1.2701481396589043	-0.7190761944072022
Si	3.9276635102642894	4.760629661041531	10.34858852657707	14	0.4344754043093709	-0.6847221135615116	-0.5048223885318146
Si	0.6138094352799394	0.01785402322780989	9.903685269927516	14	-2.7454236897487987	0.5799040632013108	-0.6844403204184234
Si	8.093519163474722	6.668202753268266	1.9448018676796497	14	-0.6872726500390983	0.6167343755808359	-0.981759854313963
Si	9.386291161075375	10.909997906407396	1.6531487599834118	14	-1.0849974462338687	-0.27465035539832605	0.6549631121439896
Si	13.442233286758155	0.6216651501002122	12.405727670186256	14	0.701729203922695	0.0008656911612938582	-1.5310428244839063
Si	11.956433966431579	7.9890625323490205	1.8802747602261038	14	-0.6773582108140754	-0.07397249983438434	2.0495152111603865
Si	8.706505909297109	6.099702178113574	11.628133782898878	14	0.8936930693355909	0.5273195600831101	0.18338151585424156
Si	12.380091337089773	8.047924993537595	13.521967684184656	14	-0.34395321375025745	0.009707465246751087	-1.3584239554998043
Si	1.1685278845219833	13.104515109435281	13.619651669775955	14	-0.4028595506296381	-0.5647211720647723	0.21925974793371594
Si	9.248539151903243	3.0332449500061753	2.906434433619683	14	-0.6385522611065485	0.2994486662111543	-0.28166484493275407
Si	3.140900929022362	0.193207372607205	12.77258622829519	14	-0.17487629945519173	0.5877893861076728	-0.9397425940615711
Si	0.7641289261656051	11.402129631916484	11.667481606954581	14	-0.046663761786963534	0.31604103728419797	-0.5392698005006266
Si	11.751744951394885	5.6973599434010795	13.273678897895813	14	0.9453967117711086	-0.3082842696438432	0.30569208126006986
Si	8.242143415478157	0.023349699604192607	1.4417286493849182	14	-0.9111598733280171	0.47816002636187893	-0.38997599898090807
Si	4.789216042192876	8.49425479924654	11.238519689793982	14	0.2848226764869599	-0.6897103149931308	0.23341368272113114
Si	10.254422438666216	2.1953066525073575	11.949869070760194	14	1.4415503616055119	-1.1033808492729273	0.577756676037923
Si	12.828235491602413	3.488009400153672	9.400196551906747	14	-0.06063052010707192	-0.012458033718245502	-0.8385613721767198
Si	5.733411469630224	13.565858305245031	9.926634704795626	14	0.21520691461756652	-0.13123975707217056	0.11875884051657574
Si	3.0296024024079173	7.1769129178462325	4.279868778034986	14	0.08945003964061174	-1.7954444969655898	-0.9490047438668725
Si	11.406797078838968	6.484177924606478	3.7879448023889144	14	-0.39701054313683326	-0.09074793360622249	-0.48091547993348166
Si	10.330001838832347	1.7750702295935354	9.672002622689284	14	0.2819895755346888	-0.851066457122324	-1.0904433044124744
Si	11.088773588530247	3.6177561146041586	5.008253647768715	14	1.7736939743992652	-0.05697492256288538	-0.37119047506977815
Si	5.951701175699195	2.2250564328916065	5.523085508310293	14	0.9685487438474462	0.4992096656179312	2.025523456086489
Si	9.355239481549544	10.394819796094119	10.266721230556913	14	-0.4921974900782914	0.40524116548769124	2.220350761494434
Si	2.777172468849572	3.2006497896264823	4.645647036856225	14	0.6533973090040194	-2.74361568848767	-1.9214325143108262
Si	0.14745115777692375	13.390683620747831	3.94256610043815	14	-1.1949895889403355	1.6705571698079091	-0.865862139797648
Si	13.16988706633177	3.2930292287153753	11.694156689366157	14	-0.18475422898466864	-0.6295479931648579	1.0996409194742403
Si	2.1643657729084684	5.014029093960629	2.196885551466298	14	0.5529380534930657	0.2006598578267007	1.0391471821702
Si	9.513378677279228	11.283518310123789	4.263595038765203	14	0.28733901726378885	0.5045596215680954	0.04856252306589289
Si	4.92340860371196	12.594032146026224	2.89022994430424	14	-2.414909643506955	0.34162584921445943	1.5569428539264178
Si	11.382268745011917	10.499511877064574	2.7496802369767903	14	-0.5588629085928148	-0.5998630395805563	0.2590589156264161
Si	0.49008746685698856	3.2124222818641974	2.0881215731806795	14	1.1945483872673983	-1.3024967583548794	-0.5932604411184159
Si	0.23825862290231012	8.90342507945691	1.009248834543873	14	0.9123053007481429	-0.11849710199498464	1.2586686686255073
Si	5.734547168881391	9.398257553185243	0.0945386526651986	14	-0.3264727828996347	-0.3474476029908707	-0.2866239928742557
Si	0.37109388531633897	8.41485280160087	3.596385578694989	14	-0.6925997231519133	0.19620181831209596	-0.4364078470679943
Si	11.804222566793358	9.717749142525959	5.441121262354062	14	0.3887009878526466	0.08234530430944656	-0.0028217880888625167
Si	13.240591269712398	6.184907321932895	5.465732696126319	14	0.09608811935617005	0.2171234165232049	-1.0574753064448756
Si	5.562294832457319	6.275513962190697	9.417675240382039	14	-0.46728810751563277	0.06357392147757744	0.29609208821570093
Si	0.06633314626272026	2.1679806205249905	4.154193960899661	14	0.30638473703331776	-0.3583951123335292	0.6721398954563029
Si	6.723948966511563	7.077373033478635	6.640295021669447	14	-0.029378734940672026	-0.6874659971591736	-1.316417493889757
Si	3.1183531438894203	5.779711989101613	13.051137244630395	14	1.0609676388012328	-0.5022602820802871	0.30659119679052566
Si	7.266286908916792	0.4950194486050479	6.463430638286364	14	-0.4575240779518384	-0.9586962682606387	-0.6089261858340782
Si	1.6310026245856397	6.811453208814956	0.6393709784257355	14	-0.8058635973782686	0.8380831465871722	0.7307567258766349
Si	5.754144905959469	5.981603305982992	3.3200505608986486	14	0.9212298644249088	0.11574139131284994	1.5125923155959915
Si	7.533854882493752	5.32307779018695	9.81166593060119	14	0.6965643675555816	-1.3634643503694226	-0.931771139126984
Si	3.8341068219516243	7.492429559807862	1.409624370553126	14	0.904373440835486	0.011238815575431282	0.4943551616629597
Si	2.1233559499486168	0.6468915234670052	5.634854934614247	14	0.5122855359446084	0.1317632341153527	-1.0835316590908526
Si	8.563061553878269	5.533237551616464	3.802916642517114	14	0.4313836501618929	-1.0636523869765313	1.246857525005811
Si	0.564835867571045	6.893874504469828	12.267227761507256	14	-0.23056129847895884	0.5518931562909575	1.4650849741534875
Si	5.6180410457006165	3.80234879289153	7.924923224639775	14	-0.02182662728380107	0.18703402807204395	-0.24078504167399564
Si	0.6666208354583288	5.514969413661705	7.571014407992327	14	0.060672686234322364	-0.8077384473777205	1.2517161427292947
Si	4.312333156629344	10.38682835136334	6.962542759192877	14	-0.4769721757039705	0.8345992988783715	0.04139068188587183
Si	11.826756501935431	7.437514346016639	11.357421861394904	14	-0.5828315237188313	0.38379557601233616	0.3408627451554395
Si	12.399993773966944	4.601174716179398	6.867033222167838	14	-1.1418242731303136	-0.6162587210966086	0.5261232247776453
Si	7.714444913420301	12.874369811183387	4.418327136741382	14	-0.458385141123556	0.017708745003051907	-0.23800901925983176
Si	1.4984443619889687	9.452535667396543	12.950087711258197	14	0.8207135303758478	0.4096279853849279	-0.532943852970934
Si	10.174161741586737	13.030694658109375	9.846207807825731	14	0.0977068872657353	0.1790394331895755	-0.14099298799362028
Si	3.9176222668850613	10.41083038553741	12.362335648797124	14	0.0011497982991702208	0.24010241321149633	0.8027412470774806
Si	0.21866365582240518	1.1865439526429475	0.9302692616196733	14	0.10027670703322329	-0.1500188532200001	-0.17407437170583756
Si	2.89075624395722	7.016322273732932	11.039855420784825	14	0.849316048620367	1.8043374360469182	-0.8831350824489348
Si	13.670037936553374	11.019911433935048	9.222584269016798	14	-0.4693776448093171	1.6669776769811993	0.40313105935144566
Si	8.520791381749437	4.52175886854286	0.7175209368969481	14	1.6830116039787066	0.34286435064717474	-0.7353073251827649
Si	5.2043141184947075	5.32518298879887	1.2329677370330616	14	-0.8883456844907469	-0.06274602556448976	-1.6718782037214013
Si	4.124125630725451	13.088421420046782	0.7310052880059356	14	0.9027459311678324	-0.281923241017429	0.21504339231920513
Si	6.0453686639388025	11.760041095924757	11.57528221774697	14	-0.14312057764604283	-1.1252391011521665	-1.2160166024695707
Si	10.23968604838277	4.349797381927013	12.122578456882907	14	-0.28133574345177514	2.0695682899943497	0.5408111781400553
Si	11.900507703306998	1.6907099352171566	13.748456584847425	14	-0.2997782819131973	0.550252019765107	-0.06781213148730954
Si	4.982326464864006	2.532941729885023	3.5833804372700313	14	-1.0692463408215775	0.2942907718284053	-0.774618754196233
Si	1.8210937492475672	7.112455060347026	6.337409571379342	14	0.7065847363197947	0.3455326437484244	0.02656928815734622
Si	6.732355910968378	1.9431537187663699	0.10626405493396274	14	0.22700468848959798	-0.3765309179302577	-0.8876982801711336
Si	13.710729209723263	5.094940740610902	0.9193291538331189	14	-1.220900417025192	0.50377414889279	-0.8189721207425115
Si	12.489007665274938	1.3159956622879485	8.260910153104161	14	-0.6574030910928101	-0.14278067752271925	-0.31941509879582825
Si	11.536197543517757	9.072824317762196	9.588501027746716	14	0.6818059659073996	0.5044228387650636	0.20378015124323243
Si	8.240093616829707	1.2847833228680492	11.726441018079232	14	-1.6289044922899143	-0.9661159639935222	0.6887633769037204
Si	6.813724607317291	12.061929346872372	1.9943848349867317	14	2.708514958657009	-0.856954031194931	-0.8783731382854886
Si	13.371459833423186	10.73993386854045	3.76165751972164	14	0.9125449277639807	-0.09454725593780532	1.0439860023827188
Si	1.7664693852645694	4.970443172699348	11.249959782250867	14	-0.5711723324235558	-1.2783720771359302	-0.07899823940367778
Si	8.219498680409142	5.279381068998725	7.194862506011031	14	-1.2422375058560369	-1.3616514640081865	0.12692801345028223
Si	2.5927598404434837	13.236020772725992	10.464803799949618	14	1.903289509619201	-0.5590822238766235	1.2887935383300861
H	7.403651118344624	4.101037695948661	1.519177798318215	1	-1.6674749287501158	-0.642885344902594	0.9793962371931509
H	0.7447112389688093	9.101909298584786	11.073538598575558	1	-1.3063037940024227	-0.41674017692152154	-0.174533314005484
H	3.049047789586449	3.4563206210479165	12.258516117251347	1	0.21951171625509047	-0.1277466533842174	0.6787471219080194
H	0.3304330821263582	4.286059723952937	10.803034426934603	1	-0.0006402052247168717	-0.1971937507446091	-0.15914524866439775
H	0.7497567906419853	4.509626276542579	13.652462298142009	1	0.052072853159491055	-0.35181848203512245	-0.38637259487472053
H	0.9166921155718708	13.0088947724833	2.7336142475700265	1	0.26458962028058663	-0.16648164058490827	-0.45730013467845354
H	10.870483882461276	8.981622127897074	1.225459656983573	1	0.23921281077072512	-0.25578461300120753	-0.3612603521023023
H	2.3243054674509778	9.521550171891288	4.3326510932325535	1	0.24283626949840975	0.9376435436782021	-0.46825869977398865
H	6.742203254475456	8.850836664131494	1.6585918063944964	1	0.34845676182902885	0.28314862981301153	-0.3040355181022985
H	0.00992351845685035	8.529696925877499	10.882034774845105	1	1.048364337632399	1.214335356700726	0.2080299312269052
H	1.1004247094263453	4.3636196728131775	5.824669059458816	1	-0.5053206687428592	0.2546805803767359	0.3024388616984865
H	1.5488860287298607	6.3249584295891	3.5721757946579	1	0.7990609669222207	-0.23872970008106928	-0.2723371319417888
H	0.7731175702388722	2.379857780822125	7.176622068038006	1	0.5815493134956735	-0.029464095637300944	0.44120681514805066
H	2.2218986349737255	8.623142814263218	4.506496178606433	1	-0.4723261883904629	0.06347441970168771	0.20301139075250813
H	11.329929629522123	5.681847953629031	8.734496740841134	1	-0.8112030117966201	0.14273336918482854	-0.8080660061955073
H	1.8137255541058441	4.039128236769148	5.5112022161456355	1	-1.2367955043354113	0.9312417485415656	0.9334955794652073
H	10.746526464193572	13.77709836596224	2.4851315614090326	1	0.4576089244274033	-0.1248976115789613	0.6604814754926234
