145
config_type=liquid dft_energy=-13877.825802028974 dft_virial="-35.33575500535481 -5.534780347035072 5.154248952527593 -5.534780347035074 -52.915817570838186 -8.596106629771526 5.154248952527593 -8.596106629771526 -30.657170295961567" pbc="T T T" Lattice="13.849990867899999 0.0 0.0 0.0 13.849990867899999 0.0 0.0 0.0 13.849990867899999" Properties=species:S:1:pos:R:3:Z:I:1:dft_force:R:3
Si	2.304195280710787	9.179787797234987	13.487688956786602	14	0.32096650374600555	-0.2476005276566442	-0.7076579156804246
Si	10.60110156008062	4.029336293225543	8.602146228107483	14	-0.07945949569811235	-1.2217439966807326	0.9850547257817327
Si	12.561789367285753	13.365421237404782	7.514381795333484	14	0.12291734626138325	1.0037528321119777	-0.2689754117356952
Si	11.349250366782842	2.879565451335957	3.3474042928627505	14	1.1093028761568247	-0.4435202957151199	0.05170801331456204
Si	0.5980966206403068	11.548357835499774	6.987749742572453	14	0.490853059106386	-0.8284150192518194	0.36085000369320663
Si	13.263416054662699	6.470757283455483	11.034135374556381	14	0.22116390853381762	0.5859942403731455	0.9038306805024028
Si	10.61864949851025	8.275120243734627	13.215079586533726	14	0.05982293592601341	-0.11702514419919988	-0.47636153819043536
Si	10.596378713194667	13.714274807385447	10.291304964347434	14	2.1350584562670334	-0.24607843330711654	0.2445470829784363
Si	5.400693139010661	11.76067819550468	8.649859446647397	14	0.5129470813434824	0.034129623351241645	0.7342153767532981
Si	7.54731707361735	3.6191688136726845	9.823355322893697	14	-0.8009149909685794	0.5367583448239057	-1.0835851380815114
Si	5.123651771680058	12.444881594369809	4.780241248110477	14	-0.1479786811484626	-0.06058141199545709	-0.6549736536758023
Si	2.1678421206163114	0.406048492268745	10.624757344482994	14	-0.4069941450949682	1.5258072827204887	1.2024388523844007
Si	8.821100733738113	3.4342575855953514	11.718352623412379	14	0.15772214186969577	0.1198381905299739	1.2224762474759108
Si	10.67695796006411	2.6182299736495516	10.304393205717599	14	0.323820687761902	-1.6587619670411982	1.5835496802214384
Si	8.282626938785029	12.179321869468694	12.48001902120167	14	0.3599118073618846	-0.7624232303311747	-0.6447349980699086
Si	10.962046172088963	10.528375258033277	3.548547710237263	14	0.6509814984452084	0.49109242901169176	-0.16008730165369997
Si	0.39461255480912	7.398775921559123	5.349877522516336	14	-0.37877163621676674	-0.7146212402189815	0.25037989250772424
Si	9.549319403581428	7.451765986619709	6.160489788032788	14	-0.6145090839262478	-0.668476841706688	-0.6860333772747871
Si	9.402731100235574	11.9285954847871	4.965097076224339	14	0.8944469174154583	0.012757053266978725	-1.0182775202865582
Si	5.785362785375716	10.392977747308686	3.314981464240997	14	-0.30053315843519274	3.4911859004948815	-2.8076832621867163
Si	4.3779267133797175	7.856005670081105	0.5197458373015097	14	0.30076944301411435	0.13982004974656875	0.8433418282984709
Si	3.5067899877705435	3.1574516681095024	8.957453893832588	14	-1.3184777205827918	0.7033806248698261	0.6548253008988296
Si	0.5154786551151097	2.8539845182029455	2.192051904653401	14	0.16091571178785172	0.02664744975907872	-0.6402044533852757
Si	4.957798131036955	5.802938423787081	11.876131719379496	14	0.03273479871506132	-0.4497619109903113	-1.7029361275466621
Si	13.554806012532445	6.506088610159496	13.821321386803445	14	-0.247579958814083	0.14630386314291816	-0.20406322993898074
Si	2.032777009672551	6.638217523039262	0.7482097466620409	14	0.007411211085326838	-0.06306741372950828	-0.6078663762211132
Si	1.0931479242243507	3.9857780719459974	13.661326292297465	14	0.343771436604123	0.28460798919272756	-0.20239586813886468
Si	6.045147064084916	7.692492677894678	12.551027924381394	14	0.8076335462806585	1.5142475932011028	0.7118727286317433
Si	11.079951144347396	13.600344782506102	3.7900915509734383	14	-0.3772184314928654	-0.3218219104860188	0.0765415482702763
Si	12.085183481539579	8.563006153914797	8.69251741852053	14	0.5380436403734478	0.1824890851976182	-0.9673207839465433
Si	10.279338572237569	4.682820412345669	2.090212921801732	14	2.6779720272273737	1.112888282525771	1.4418511809279693
Si	8.372942729234605	12.7614508356374	2.8688732583859378	14	-0.04564637541178094	-0.2804217155104625	1.6533809007166602
Si	9.74411952513844	0.45246258166525144	12.776547325683408	14	0.7163320536990081	0.0527732222486994	0.8071177825534368
Si	12.347807008376696	11.123426265681733	9.74096172722056	14	-0.505249706236023	-0.49519488466052	-0.6949725962518779
Si	1.6547553589240882	7.095197971725622	10.206404520327208	14	-1.3011962932839485	-0.5132954661143625	-1.3611632111078902
Si	13.594638586268527	4.126535529136466	11.415591823040085	14	-0.28034021147181376	0.9374231999522655	2.096887312463051
Si	9.188000841819653	12.98245513991648	8.310770120228602	14	0.4685749457283669	0.7545376503142804	0.2971742664449513
Si	6.326094128840268	3.7724189626259976	12.848331828351736	14	1.1151369712387726	-0.03877818177006937	-0.4865217750840644
Si	8.878758245721182	4.579457930498531	0.47888420924394437	14	-1.9919569048003598	0.17621378844273278	-2.261190455510198
Si	1.3906775830458389	10.764129802586673	11.827379751524488	14	-0.1594416971078108	0.046154682933574206	-0.21723397405197126
Si	4.315934154254998	4.541301205657467	13.655869395895513	14	-1.4329325307934397	-0.6132530989773554	1.7994142835798985
Si	1.9337634249579336	11.054023961442686	3.8270294766181276	14	-0.4899896819398802	0.8935159201790327	-0.3079412841941354
Si	11.951586469627815	11.08400919167169	7.146955387598965	14	0.928386278973009	1.3590834440144224	1.3102928639066322
Si	2.256717512015626	3.515099982291284	5.059623263897755	14	0.7517485152629839	-0.6497396545755768	-0.1341047397304116
Si	3.352085589776101	13.150524779098445	2.994091025822622	14	0.014691295799326123	0.014753259437541693	-0.08477474172645448
Si	7.125931101461492	0.17117342213546288	4.949737436351837	14	-0.21739466813448055	-0.9967522265462785	0.161111630013247
Si	13.371944583103563	11.016379686263734	2.526224484314092	14	0.5067172931527637	-0.8116172168636959	2.108413320502743
Si	12.034589464899138	2.8747872044865312	12.463218982278908	14	-1.0007816628040147	-1.5976689050870314	-0.25238895420488794
Si	2.4316567466680707	5.3438250765070645	11.608480645857327	14	0.29669346975008365	-0.7580204695809531	0.5633857399614873
Si	11.144464401810074	5.653012272642064	10.196986526537035	14	-0.25533466957018164	0.8265504536736481	0.9421059540718512
Si	0.5835873702070947	8.088006867109298	7.733737950699284	14	-0.30942301219013674	0.1403926349013657	-0.012344133752562943
Si	8.31209971935192	6.139867151630484	9.906884617818001	14	-0.5311952442427014	0.5115964797188086	1.8900634867418273
Si	6.8372834417835895	9.393036106628044	0.7134241095982233	14	-0.5683052928810588	-2.6333386673117314	1.2828748538831052
Si	3.869410448673902	7.149988535599034	4.8438265561850065	14	0.4059014253339053	-0.060513020593941154	-0.012861440142976736
Si	3.4819708041352673	8.102147707785424	11.167413836678184	14	0.8494021806485921	0.8520285647331233	0.3045605378086727
Si	3.6842776207426824	1.254320267954103	4.383009660028237	14	-0.026207533638801385	0.3543296806013111	0.4888640520307194
Si	12.279748153251836	6.872365468651979	3.0849885158886496	14	0.23006970314174652	-0.04958787986756794	0.041791774315814934
Si	0.016604754051525308	2.086972023938644	4.57708958206012	14	-0.018143776023220964	0.22522985448709978	0.27507021689710626
Si	3.310507917190665	2.549630968880843	1.17036300831198	14	-0.043603375124391275	0.07828887144584894	0.06417813122781225
Si	4.700963900382618	0.23492077510314618	8.327805608996119	14	0.14636685522326176	-0.02256196340536342	0.030139782115435852
Si	1.9313673765377868	0.7595598141782849	13.489738755435052	14	-2.672485031363646	-0.22430682767716661	1.7591998823779946
Si	4.290242421195043	3.6505390429884783	3.5992525268046442	14	-0.8117347163768266	0.15662016612948032	-0.5230556390201766
Si	4.576840282224498	8.636508055450742	6.821355952285503	14	-0.8478641454460796	-0.22668124344032337	-0.3775027957412737
Si	8.48410275594037	9.615896309683423	6.099840678022253	14	0.15457228074198234	0.22595516329791354	-0.02253625235216194
Si	5.436897015139352	13.07669047778167	11.418320271241061	14	-0.43738281020539443	-0.9220569890064005	0.2449618022665762
Si	3.394466561831875	6.214366252508919	7.054714448418751	14	0.24868322010695854	0.5113563384819069	-0.548866708218611
Si	6.541350686909169	11.41469157363367	0.1189021716009215	14	-1.4317495652356393	1.3116871743217486	-2.693777640072452
Si	0.23484598515245955	4.446054818458918	5.8212342617235775	14	0.036132000174572965	0.42958696176417344	1.483969228508911
Si	10.012130698423174	10.856107591940395	8.75938517443075	14	-0.15890382187483582	-0.7116513564636786	-0.9215198851050216
Si	1.7987537139776444	5.237554096577668	2.6128284772110706	14	0.3052621924505411	-0.27591533921583894	1.2073612335198243
Si	13.58017919580244	0.19373644225835876	1.0637554736044934	14	2.3800148592124373	-1.6446476272757131	-0.22593279468162825
Si	7.494922558164085	10.424444926560556	8.51075013837021	14	-0.11022662751166434	-1.1622910428102884	0.0867200400116785
Si	4.262182339696677	5.526617255981608	9.186047993107278	14	0.3333476614151787	0.18735001691589015	0.36902894682712967
Si	10.077197955520568	5.739339265721685	12.474894524580549	14	-0.4137731213820706	-0.4348638983232454	-0.8363101123583981
Si	3.936832204218839	10.992253002171852	11.456740145908615	14	-0.8323403257440894	-0.04525531029258642	0.007013718202831945
Si	2.164476572835412	8.662615288236733	4.212848672225218	14	-0.4147575976091553	-0.06322836492254955	-0.10272105686108807
Si	3.085722565404648	13.52892037960034	6.48693407278919	14	0.9284986362754994	0.19388730930289866	-0.14003756525665326
Si	3.487067600774654	10.640892583844098	5.588595965115461	14	0.5069756892374385	0.04423303881729554	0.668026126944066
Si	6.17735907690989	7.524796988466145	8.266394749487851	14	-0.02231256618930906	-0.010764446643863963	0.2836651648718293
Si	4.058892173737642	10.254976438300933	1.6599629554904185	14	-0.16329758375643688	0.0538880535155156	-0.3247835667042974
Si	1.5894665019728076	2.0252287646495453	7.134905895543891	14	0.16545294134631702	0.10117787944793519	-0.2641990693824562
Si	5.652721422833837	2.516944990432599	8.345381247407483	14	1.8825013517742077	-0.24745140354807563	1.3924728461439935
Si	4.297596766345898	12.228143087278042	13.729121997595835	14	0.026330432473104466	-0.15966049817055541	0.5982743536032367
Si	11.129201711873648	9.300310417767452	6.212399553805676	14	-0.6595414793875773	-0.9709319013686913	-0.7065801083302184
Si	4.932203347913076	6.34731231484989	2.6406808088464175	14	-1.0640995021917052	-0.26448600473618467	-0.08492875093513134
Si	2.6769677849203157	12.745578746102787	9.117116588557739	14	0.30149629448812026	-1.4036723238080266	-1.2802620966567708
Si	9.023185950491643	2.837101379334975	2.84471887431232	14	-1.0809376709333551	-0.7991938930672724	-0.26423069397789395
Si	0.8154556073229557	0.200851182567199	3.299441774487213	14	0.4104268278078979	-0.6332969218321658	0.03137905487974724
Si	7.341894009064658	6.207316607157158	6.618924485760278	14	-0.07944869705576772	-0.11265503648654422	-0.8016906934436683
Si	7.514672645141709	4.434393126148146	4.908118213793798	14	0.6570793889330035	-1.6289008927424664	0.9601173181710845
Si	3.721312496323447	1.0804447126003127	12.363900697765196	14	2.7366485072911333	0.5321547807481807	-1.412499699703691
Si	8.555305558992245	8.687462171853745	10.166170296855958	14	0.029382077377588217	0.4311280822930702	0.04826607462247981
Si	9.15207396550832	5.628622438723692	7.942332663160727	14	0.030106100635741918	0.5230201577667586	-1.4725964583463
Si	11.259280826104964	8.455114725053855	10.877256527995678	14	-0.3534639894400173	-0.31944466650701	0.20079895462452071
Si	7.575848054805223	0.51997436215083	12.117994109905633	14	-1.491364498741253	0.7806569950406007	-0.013525042426106955
Si	9.876788587662055	3.0762491716510048	5.280655268158572	14	-0.26442455531903314	-0.013435567960965804	0.4901179800953556
Si	0.3209222933973712	13.045749598182782	11.611236794040039	14	0.4003689209060107	0.13638659570204298	2.1027162653343585
Si	8.308124771972833	2.0357686077000174	8.04097229812191	14	0.505371062407134	0.5625439600796709	-0.31876589470249084
Si	9.964375929910656	10.890344769365845	11.041212719889879	14	-0.3729501395508875	-0.3283957125685735	0.734264999085977
Si	11.349956716317106	10.692234499991402	12.962151053304137	14	-0.6316982085440978	-1.1518261299362218	-0.05451900276107994
Si	12.914548634691165	11.546488086732607	0.4485028692761189	14	1.1613711013267394	1.2259917197801493	-0.9946814583214312
Si	11.789153776729083	1.4124636186810458	1.2456584836653184	14	-2.0035428195940113	1.6157358050611799	0.830683505475786
Si	6.268408916875464	10.547737545266601	11.272604517319886	14	0.6831293138156798	-0.15966666882332375	-0.18967609589902812
Si	1.7208059653731032	9.44615082160644	1.8866042060527342	14	-0.6703419215059233	0.0029742546343472977	1.313151933022637
Si	4.170343050251633	2.717077358473754	6.636472424189907	14	-1.362497100547983	-0.17685090834106545	-1.773257914936968
Si	2.5708630048813337	10.225392857807098	8.787057456184815	14	-0.7122033727759143	0.04159405631669555	-0.02087428987321822
Si	11.97752750252339	6.874595317181711	6.6925233372322985	14	0.4453542651399815	1.4103474274401948	-0.14272539875833604
Si	8.912178273685424	0.5227803703006666	1.3355241494116874	14	4.282853139847952	0.6319072394066257	1.1234889497607419
Si	0.797594659099712	13.724191400846864	5.992766398622519	14	-0.8434613846958579	0.4343602187910284	-0.6603801739430096
Si	1.004942872383043	3.591468831936884	9.790503144555037	14	1.9558863540429383	-0.8463862741080584	-2.5861195467756155
Si	13.421846100200607	4.651976482682855	3.655400389783111	14	-0.8734222178810115	0.49846944439626056	-1.3091142692278765
Si	0.1513360802153697	12.959270255203613	9.399836452144182	14	-0.03958370906687176	0.13823393487456936	-2.0945638045852335
Si	8.49921309597725	7.734278100343133	3.3492601916390496	14	1.833924430518522	1.057842203174061	0.49438910025318566
Si	10.298243809772252	0.719342210696077	6.832228195116805	14	0.3283309207145057	0.8168962103070239	-0.42503841934229947
Si	4.792789339836795	3.0464855412758873	11.067098352821985	14	-0.9458844504503409	0.7593268481941203	0.9997748179606445
Si	13.53948792263255	9.212736925509722	13.127796944084222	14	-0.13729393876952323	0.2508930851296258	-0.15748919972769038
Si	1.4258842598320407	5.436869315157616	8.2201634799708	14	-0.13383503078232806	0.701155847436302	-0.01407834429100282
Si	7.004951431230387	6.213659902974656	3.6287530073532714	14	-1.3919154305105852	-0.5134224787171778	-0.17155777381847662
Si	5.9809662064030675	1.2326270272577113	10.509012970799953	14	0.823476954373943	-0.3382810983034788	-0.9125099607316267
Si	6.708700126566005	2.3256350665742964	6.231097041477342	14	0.3764746107237465	-0.026932328228551128	-1.1720283328787533
Si	11.225306798506006	4.725076734483632	6.676817447588099	14	0.6770298806646925	-0.4706151177999044	-2.5719486426930875
Si	7.8877913991229365	12.053093052698653	6.7513442484482695	14	-1.5493303252945236	0.5901509463442289	-1.1868774945447365
Si	8.148683677101568	7.320135673411187	0.4984403963494191	14	-0.8330386379490416	-1.4674354786371666	-0.5127251949543536
Si	9.244952004268457	9.317498256434517	0.920957912759184	14	0.3348018785842544	1.4145948934290795	0.22111120087475455
Si	8.579972392727974	0.7011557876874375	9.971010075536379	14	-1.8004334697288054	0.7915901061934666	-0.33246551517983586
Si	12.104892018544598	1.8689870176687655	8.279787690657109	14	-0.2136665654202658	-0.21335751856078403	0.05805093013936735
Si	12.473038625804248	4.133751374378641	0.5647416876331433	14	-0.40790097394138447	0.21065837219569256	0.7846131547967127
Si	5.133097465451965	0.6858653977692759	0.7995627428020405	14	-1.1787450884171082	-0.2076746044716607	-0.46348749963138985
H	11.962527962413455	9.358812779193462	4.588017224854893	1	-0.33523793804655155	-0.0847040363301504	0.12803564562220204
H	10.58930136786117	6.941310723192386	0.12473578775448098	1	0.7986251645704556	-0.34047502247316114	0.4862800911839706
H	8.975375782015652	9.10274029803686	2.5673312572100193	1	0.06210504900817685	0.1527725070178787	0.4709683876708927
H	4.224995114216366	12.1966205080627	7.705428569365297	1	-0.26383268687433503	-0.8086702159457422	-0.7609687560515669
H	5.892104664994621	9.4344752793048	4.241545853303506	1	0.25281524346696854	-3.08326230082668	2.6348525341242346
H	13.339092404764903	11.21973910217711	10.94445668368673	1	0.08473951758356844	-0.647172405913409	0.7514520668195708
H	2.986736680671767	7.363264544973827	12.49888270876375	1	-0.29230073631061065	-0.04347867651636409	0.015671401147366572
H	12.271161158913738	8.635898655852554	3.750425177127773	1	0.12501125443411185	-0.9511019944765174	-0.4286811613598852
H	12.128949452682141	1.206637519394097	12.639723265899425	1	0.3374485744008149	1.1939686030177048	-0.15145995775194313
H	1.9073653423637162	6.063761451811374	4.089209803747475	1	0.10480185239668391	-0.1285699213077288	-0.7955550077076669
H	11.316910638106297	12.550487774737546	12.645332512200925	1	0.1261528251962576	0.20208527861619077	0.44841799423946993
H	13.667891187968848	3.4377754832757983	8.7363664896083	1	-0.0173960985961219	-0.44393475789272774	0.09164807757880633
H	13.630316162744236	9.366056324417375	6.86880602099893	1	0.44790660139129257	-0.15132343205944326	0.14201474524784713
H	1.2042525509666446	9.811125780957342	9.662695428826057	1	0.5157292744104147	0.4491363610659193	0.09073379252696169
H	11.4621831923197	12.827570692040753	11.883763064347708	1	0.3259675607042256	0.266053864760411	-0.2603786639872481
H	7.648131157144795	0.7257048965007902	0.906171662508614	1	-3.8797935572244078	0.7434896107536042	-1.1491984602990304
H	7.3842888311112995	12.022290673008444	1.0685780404246963	1	1.2682205820003893	1.2665362509051603	2.1493363183308802
