234
config_type=amorph dft_energy=-23363.59501972997 dft_virial="-33.80628817339873 26.6573753690684 -5.368780801436958 26.6573753690684 -56.35192356311888 16.021188026040345 -5.368780801436958 16.021188026040345 -41.539116714441235" pbc="T T T" Lattice="16.585800391913832 0.075883830984555 0.1473390318329622 0.07548575187119341 16.35323925656204 -0.0089899533100828 0.1466589800143028 -0.009122646347870002 16.284520849617994" Properties=species:S:1:pos:R:3:Z:I:1:dft_force:R:3
Si	8.228671789678994	3.997530360332856	14.688722862592652	14	0.24594859248844905	0.20737558492292751	0.053637370746801166
Si	7.577968353652178	14.952481789791186	14.105674630544613	14	-0.06998317281964259	0.07543083077197232	-0.06682791237075685
Si	12.304565682140051	3.2864963760131167	12.73897117325887	14	-0.2292130108490732	-0.3756099480045807	0.5602667320976157
Si	10.78998412755534	3.74692628916795	3.0511354175640153	14	0.33883414305784265	-0.44332334904759657	-0.018322982064035286
Si	1.8527431267335035	13.042664070179464	10.217307515073342	14	0.08955468362714177	0.12295874105703761	-0.11170244196542933
Si	1.2620451410570317	13.37744196986468	15.724365483914191	14	0.04909268498290742	0.04772331428939656	0.16715655573144714
Si	6.966638259262768	15.066539749084146	5.563419336640963	14	-0.4572710811883358	0.23990366677024888	0.0860669792603609
Si	1.6636256919532415	5.534961656024525	6.070155802657584	14	0.396555200384635	0.037540451668950085	-0.2544342684870658
Si	15.776644882139374	15.789249062066187	10.793563522249649	14	-0.5252616473848636	-0.15265732149953606	0.19471391966332624
Si	5.50639947964083	12.622280915828808	3.075521080583358	14	0.11225882915670937	-0.21322022153668813	-0.21653643317861507
Si	17.068018501873325	5.6229968519444435	8.233724077092742	14	0.018062014874040255	0.4297106319300726	-0.1697050353247779
Si	16.88080852951125	9.253466755161428	13.204323998115608	14	-0.3006822825437614	0.17037609381333654	0.15304093041330216
Si	10.193183920803628	3.1466528421521587	11.683328393816858	14	0.3475861855676267	0.13349333088528034	-0.1131774850875983
Si	14.716875349222178	12.609694981194691	5.1330128819484555	14	0.003298471015217971	0.12171689718740612	-0.18909811142305882
Si	13.52163285937614	6.250968311935339	2.8578016615080646	14	0.28745368856106746	-0.32763800783072583	-0.2564263608891165
Si	4.651099965975876	11.8137341353652	15.94163540532398	14	0.18052604628568514	-0.039061003355285666	-0.06400226762391412
Si	1.7897786216405047	10.192974929269115	4.02865848833476	14	0.030251882307394312	0.26769577261785754	0.13543785783890833
Si	16.740668094978243	7.0402049380749645	5.05702953118556	14	0.06747943045888238	-0.26602506838082535	0.22412890718901238
Si	5.1863189925535185	1.7287149443138077	3.4725668469131903	14	0.021409851111405066	0.06570819600383238	-0.14652086443193862
Si	11.497097032608467	6.265992481138795	5.878983284454592	14	-0.3898638987889496	0.5303380377289639	0.19468820861012479
Si	13.578745601502725	8.990862257391642	5.76926936348619	14	-0.10328052937875229	0.18961644625560067	-0.044381648704800096
Si	10.94271713137435	6.560527899789099	12.940052544058622	14	-0.16708585033514306	0.08909239889057914	-0.1801126125502053
Si	9.0809160461489	0.3551479396485238	13.653994164568871	14	0.04989461273226161	-0.3309817302995784	0.04887979746239916
Si	7.9246388668490715	4.45903840441971	5.277238603382336	14	0.0221343885906228	-0.03951686032854791	-0.44275153522439564
Si	14.724410655105519	14.133641346921237	1.5373002613168547	14	0.015878375125638493	0.038258818495399464	-0.055889916117782906
Si	12.654248327294717	-0.15044073159123802	12.330304814144826	14	-0.3582814694783787	0.2799730576320966	-0.49091913651311375
Si	10.479379582029006	15.68686145544661	11.998814384470787	14	-0.028356463465381152	-0.041491726324953654	0.10650880921873022
Si	13.736010072562168	3.039493262161161	10.875829888351769	14	-2.1565549536277273	0.8965421111408469	0.984436117841705
Si	16.323492794816094	7.8231950394607574	8.629777962965115	14	-0.045446857638937445	-0.22968583711744842	0.4418876438368258
Si	10.395159310945472	13.419661577162623	12.501842080081255	14	0.04702500208444434	-0.005863405682597693	0.005763132575111919
Si	12.312981738061707	7.712359862323054	4.230889312574342	14	0.0312152754708538	-0.0416243953594733	0.23438350364789098
Si	9.885493646119697	3.0142102624737825	16.0584003025878	14	-0.09197332240180507	-0.15873772847115428	0.17723323170217148
Si	9.849774339010354	6.570707114450349	0.1643386686364749	14	-0.16835674769489226	0.07281421688765763	-0.20278924725284733
Si	16.39477549471538	8.982321801747064	15.452752787541627	14	0.3177937597809429	-0.3231496292733433	-0.023932105430470335
Si	9.571412543003339	11.317465491367015	9.215689047303412	14	-0.3106013497583606	0.2377105139321626	-0.27741815027546546
Si	2.7631550349803997	5.717318380529529	13.485996485415415	14	-0.21394115946845763	-0.4196198148800874	-0.4040528006087188
Si	10.729920624000963	1.9208793429742586	9.695039328983729	14	-0.17860105973249027	-0.12670946949806966	0.28394824356757753
Si	12.878728456645268	15.488088943504358	2.0777507109092586	14	0.07760547165175356	0.08695555325900407	0.34087971445055243
Si	2.022019635038635	0.5686029362219308	13.972024544222373	14	-0.0037317022616629226	-0.01633114677251657	0.06259175924528088
Si	6.382689373220749	12.305710159590967	0.9296142494776765	14	0.16899206781950085	-0.03315543154543754	0.1769797207176049
Si	10.223535794534477	0.08005702702296245	4.519377246027495	14	0.8073581809008706	0.7777665584396903	-0.4084529902536202
Si	12.444135536610574	10.302705436867237	11.597834269570564	14	-0.2840904256917817	0.16140319335655176	-0.1886466253288408
Si	9.39159025552007	11.10092040567614	15.788275426901423	14	0.11962735989372174	-0.11944429719492723	-0.1395925069257356
Si	1.3409709599328583	-0.4729179866735808	5.961840134574865	14	-0.0029290031807126912	-0.4600244778756824	-0.4686597922039318
Si	5.775462811024909	1.751123481070121	13.4749696939753	14	0.10083643666141952	-0.09727725556673855	0.2388603122313328
Si	13.492375703207037	1.2027877477072129	2.9227748074605673	14	-0.36335066072758265	0.07827807280350432	0.12546762562843813
Si	1.4604311845267297	6.335405867868252	11.616237135248676	14	-0.02167210385406017	0.2546916361296126	-0.2048978107259008
Si	4.521790600652249	15.623011224326383	8.969261489502859	14	0.357782160825206	-0.740309410583113	0.3517680883708476
Si	1.1711935354100804	9.340125260814304	9.455326038895207	14	0.08709824960427229	0.0932640172725194	-0.012456491055053413
Si	7.0103854951582365	4.294961804532864	9.042799971044525	14	0.1349133523535981	0.2026524644498155	-0.26517686073570845
Si	10.717800773662075	0.9262106730584349	15.2939341492771	14	0.05847670518038388	0.18498691401614206	0.017827787179374763
Si	0.25674941747742563	5.303890000021895	0.39005781922736377	14	0.1123405903058901	0.46327486922141364	0.19339288574983415
Si	1.6894825890290497	3.410425038654472	5.018898528114436	14	-0.06990475410737806	0.104004809747438	-0.05121256131936951
Si	14.762589759402843	2.1022392110328862	15.08879237152106	14	0.003240621145514639	-0.32333346330373397	-0.01236701658991226
Si	11.039503433136336	7.345181640136148	7.948371016657313	14	-0.023559295159048862	-0.5874669695005263	-0.1554138035132668
Si	3.99344341476901	9.03687025091841	4.258797975746936	14	-0.24447149248202396	0.006465558548576375	0.28546236749061277
Si	7.488106969799714	1.2928183151828556	7.565206600742994	14	0.7189424969305545	0.3530443850517691	0.07936770723818307
Si	6.506017599866117	8.600582177325986	0.7893162419622975	14	0.11440055988839272	0.07517140624516938	0.24149132430544032
Si	9.145741571096863	11.005570506048203	5.31388842041916	14	-0.11803173193203785	-0.2016299358639926	0.5167008951108986
Si	16.363799963706928	3.454173933212912	1.786373386558291	14	0.05517360617558965	0.10163862152130573	0.040426517390816305
Si	15.883515854773185	7.308591534966328	12.231309173303684	14	0.087318850440741	-0.10177051922422933	-0.16755456283500605
Si	1.3901669036924627	4.612114751473996	10.05917390461639	14	-0.05878292382401351	-0.14305809978676323	0.5174478012064017
Si	8.085222322516168	5.993560405257894	10.17495355607464	14	0.1210988034684425	-0.042838471291647216	0.1130093347996606
Si	13.60170149703991	14.131986001274841	13.064638037237025	14	-0.6281325996861163	3.327698312055286	2.2845872568130137
Si	3.0689759964945043	10.303720538606312	0.7388962049291062	14	-0.11783324260132244	0.13098521764547588	-0.2956655418430884
Si	2.750418162015801	2.239007583743126	15.540633727805117	14	-0.19228011136727408	0.30628909191540826	-0.015392950441194535
Si	7.301953565751023	14.063730361300077	3.5227646231080882	14	-0.6009878981581209	0.27575413091226564	0.08667555988963994
Si	14.411610039803808	1.401183743154745	6.658707478447847	14	-0.19459693437125952	-0.4016369900499077	0.29010192704082
Si	14.413890701390775	15.508976486315035	7.236600585977855	14	0.07497034580913381	0.013051959047199708	-0.06681222862830395
Si	11.030974588132562	8.938778581397195	12.984567740910283	14	0.06988675637013701	0.05638871054989162	0.07363182837946472
Si	4.0907455607153915	11.296843334631914	12.503661633361911	14	-0.2568590779144974	-0.08351875677756214	-0.1697744551684219
Si	9.85571235245133	14.696374274884056	8.10278756339325	14	-0.38255398925323664	0.14967098267018408	-0.05310078106648627
Si	2.492585637617437	0.40466068803584515	9.728988842701584	14	-0.012317651367765418	-0.5122888783815245	0.4933161780030878
Si	1.4300627241661565	1.8056205116893242	6.735486987437466	14	0.18224200197635196	-0.07346933452323134	0.06611931574452405
Si	15.395887186197923	6.855902601903406	15.872193821323993	14	0.3667126380442083	0.11698066407716134	-0.04615776825995839
Si	15.166439361245212	9.303143711183013	2.541544392571997	14	-0.3822053473718246	0.0726316684099271	-0.41783623911950063
Si	3.939518622875264	8.7863922381394	6.733385461451512	14	-0.06737092981437212	-0.07469498042934594	-0.11100824352898936
Si	16.28227833727939	0.26860554040371193	14.724435535050105	14	0.0024577195755295486	-0.31657968384876894	0.10545337048480943
Si	4.330888444513748	13.828772457953256	7.460994464853844	14	0.1453772367855368	-0.3153941471856486	-0.006459645006340034
Si	13.084764253743398	14.097334873119687	5.85928334433211	14	-0.23170209790950855	-0.1361040312273587	-0.4130681243032861
Si	6.044952418792877	9.510163095423739	7.394545108855959	14	0.124302143586815	0.3705824086615631	-0.13503650829843325
Si	7.8183434502666636	6.741383534304135	1.4675866565894047	14	0.03775462474211842	-0.20758975799609583	-0.21174569263558315
Si	12.54422589501346	5.238002930771633	14.017544890835271	14	0.039357194688166716	0.04942718578505869	-0.3275487904761167
Si	6.554495342558698	13.258626965167048	6.997706675397669	14	-0.03898104197982905	0.10364562633421331	-0.20620830310758026
Si	12.78547676567734	0.9665443805568266	10.229200128585019	14	-0.08300427860300051	-0.24786252328876726	0.15332632310383862
Si	10.688072557208825	11.064204242120422	7.149422918814637	14	0.03243089406621981	0.04716744131918054	0.46105240578267764
Si	15.794589956837122	14.999873108236885	13.059821279965348	14	0.18686279245772205	-0.20096530513873428	0.175106413381345
Si	16.462394208108762	15.311950546482656	0.3898654143225723	14	0.17777933447217092	-0.2213806527123061	-0.16223468881708766
Si	5.230674957759835	0.5448940076953028	1.3931209824462	14	0.1376436090930634	-0.28968720775268014	0.1987466983579785
Si	11.254491034296183	12.128951422617611	10.71460784744032	14	-0.05571353829282075	-0.064208727381122	0.0533134114764625
Si	5.7877452103350855	8.375762022066105	14.848282923205817	14	-0.23601178464714076	0.7915075737126896	0.16392904722306523
Si	5.633736694690344	15.835787827744102	13.047965157039062	14	-0.0969988048605665	0.017730342287741153	-0.23607760494333654
Si	1.7742767575010152	2.1328514948503936	1.4823238770986455	14	-0.2825045679303144	-0.10887345478167042	-0.24452702835693912
Si	3.5357950794187913	15.26784338072219	1.4577275638818155	14	-0.12940244521039274	-0.0019159876845743485	0.29443655350005765
Si	4.954048123221886	4.9925158348763965	12.894572005357059	14	-0.1643013432734227	0.17748725690780212	0.016759750029385255
Si	11.491958494720157	4.772567172766278	16.118661187035883	14	-0.21400620843305734	-0.1501939454923022	0.1554806522515907
Si	5.201734606218447	0.9342618231261731	7.448834806603619	14	0.9879533899196677	-0.4431518563227427	-0.8794710002571918
Si	0.9934910192054622	15.036031961033897	9.357418480963922	14	-0.3974615150099872	-0.00516637903030555	-0.08599318853767264
Si	15.707959648454777	1.8027841980066226	10.458865238387105	14	12.283330711288889	-12.604587492825537	4.071126730502271
Si	15.995745967470627	13.788163412401454	3.5643390105097903	14	0.07737561483613234	0.01803758937349885	0.3312208430943522
Si	5.67138668549949	10.710092966829611	14.16964428539885	14	-0.01431205776460428	-0.04505039319857061	-0.14010338555284904
Si	2.6998388933372652	13.23680891242889	12.423964536203947	14	-0.0002982482171371772	-0.05462878895825027	0.1169107300124533
Si	17.32258511887915	10.544798908321068	6.298484030103963	14	0.33808749407287164	-0.15206622438643402	0.01114934111029013
Si	12.971869017194047	13.07233423342868	9.35368814793913	14	-0.1918929029060598	0.11749257114640281	0.3051066405786722
Si	14.78502981075563	11.536452128953178	9.027848783011851	14	0.37052790122877605	0.10389630910292776	0.20778310511617096
Si	10.173311479732021	5.397478399573208	11.047377106266033	14	0.047091593712236174	-0.05293623032599678	0.01735316113727543
Si	1.1814954911312843	11.673461007794405	1.0092333894759413	14	-0.057041771301209236	0.09194221202743127	0.11586814680513324
Si	1.4791525134955315	12.474409453181723	3.1671738204459494	14	-0.07402340771972328	-0.3882333037949117	-0.35426874540522363
Si	13.851179336046597	15.278946470659035	9.494289690778446	14	-0.1926495792017794	0.29030890101909185	-0.11485410286686686
Si	4.81380153425865	5.97189494951319	-1.046064000776751	14	0.11864134100344498	-1.3318109585520157	0.4642210359792282
Si	12.644331181383095	4.382096346458802	1.7176019023991298	14	-0.17991515166161795	-0.001956611148632688	0.0755483302851031
Si	15.948712920226955	12.273797484003147	7.052552025241064	14	0.15848318904445963	-0.05101484332025013	-0.1621081904353364
Si	13.842308806470523	7.80409387667129	1.1763071933538047	14	-0.17841516881784356	-0.48623406839873995	0.1967769745722131
Si	11.240599731902837	9.193890898520921	2.6826982701811035	14	-0.09467169743530048	0.05199700555254669	-0.3190587435984557
Si	9.629127379788882	-0.11223674734933078	9.894054005719944	14	0.3557712993543181	0.025886659694846905	-0.12750985458423172
Si	3.5494690969627625	13.902828442342292	15.796487467277478	14	-0.0653562116855041	0.04607163623173342	-0.17516426325104834
Si	3.8150707987235664	6.5266198526455526	1.1581929350328795	14	-0.21539820485338557	0.42623244065297616	-0.09358129166902568
Si	17.215591405185386	13.146325529961796	13.626586417613925	14	0.11975591515972916	0.07494540608752838	0.07939161851766045
Si	13.988040593883287	10.633583819904484	4.140454031333449	14	-0.09276702261413478	0.4332885820935906	0.1514980101106813
Si	13.87567944681103	12.026711437002573	0.7395745980847933	14	0.2000967857615883	-0.08868873535531589	-0.0630609859662079
Si	8.772238866996425	9.395106621021432	12.474965105277459	14	0.26019482995685755	0.156927413215238	-0.27626140999193083
Si	16.77867967431536	-0.41157565396753065	4.063153702170515	14	0.188893194329043	0.014224640183719248	-0.07279261960296837
Si	15.036370328280254	5.49539093349341	4.483566712454674	14	-0.19661550915810777	-0.16633868712910801	-0.1741916141084363
Si	2.4341890903502628	10.264647414966896	7.74567908411142	14	0.08062806306611965	-0.2332761285865032	-0.1927526805251173
Si	12.24811142921349	9.352762614000563	7.688811824104743	14	-0.2129651678889294	0.0020604838035666708	-0.14096007784552236
Si	7.322119590168732	15.625966961743092	1.7530425541291184	14	-0.04524554009236985	0.035022311118397056	-0.10311983529624304
Si	11.290633300463472	9.81121705955534	15.188225899386898	14	0.10264469503307967	0.11597176234953523	-0.03413553689347799
Si	6.272559127846289	4.108035463539063	16.007363242928896	14	-0.06511118534849399	-0.11843770946208926	0.09674452254440385
Si	5.0192966072277985	0.15296521663513948	5.276308093454853	14	0.01029907658091716	-0.3114847815463635	-0.040100501236221525
Si	9.029198934671337	9.66753703823936	3.3209186086780886	14	0.3400744442642821	-0.029728405264212162	0.12545477010183737
Si	6.109801165022454	9.557959127634689	9.715973314357633	14	0.08704528483467724	0.0702839921420999	-0.3246987202287325
Si	14.229246680646915	2.638395382189902	1.1855675087283788	14	0.29220997629280937	0.33129977602768074	-0.2940534588073556
Si	4.409475896143218	8.713205393147872	1.8681089805092614	14	-0.03740006931847	-0.23457170855732584	0.019153449082443114
Si	8.160598602631188	13.147395367578955	8.73514950427193	14	0.0044241009243787995	0.04052216250872581	-0.039665984437116504
Si	3.467599151311032	13.780030987848072	3.3196281688856084	14	0.1503554109064075	-0.17493389221436306	0.031073093346649608
Si	2.7019437366491648	8.123731500744986	10.755027805413274	14	-0.16525779445251776	-0.15426169121930847	0.14538572143309328
Si	2.658095322312384	9.382356478753053	12.694218787602166	14	0.14693969748859076	-0.05168795869306488	-0.30081675135200503
Si	1.4913685662868155	4.217528782332145	14.868236638763065	14	0.6303398936034635	0.11975745782292126	0.12454048504999272
Si	7.453357980529191	7.649702209879939	13.35246250550124	14	0.4893039681509967	-0.2419908900691451	-0.048021819617065746
Si	6.49387784557156	4.826211650617698	1.9078157134041087	14	0.02069354116921181	-0.31421375273316865	0.1653642382127719
Si	13.490576053882046	4.913157104964789	6.151433605628188	14	0.08916490406060731	-0.1101307252832228	-0.46924626132745756
Si	9.051688745913296	6.192462292911991	14.298942040081668	14	0.3675898991794428	-0.3729010314392727	0.1292368660277752
Si	15.76094729576915	10.649581624272702	0.7501386225556268	14	0.19065542991547252	-0.07850355874008129	0.18602538345494984
Si	4.890867991942485	7.540429493262178	10.071534261086267	14	0.07918721564470867	-0.03596976342887163	0.11274399673062131
Si	17.11536171909282	3.1050087909056185	11.781710329358232	14	0.19119407648004355	-0.27949740314786925	-0.3964711252406662
Si	6.293514675838833	6.523436878401632	11.656482933609535	14	-0.26823236229817243	-0.34528607474822226	-0.15810292256760972
Si	7.957830371588567	11.143858214041106	13.850296927345312	14	0.022824473258550543	0.014941721457508545	0.011001502554381615
Si	11.559905623382067	5.3988849457737516	9.153681590745453	14	-0.12451374555466319	-0.18387748207049814	-0.038851972492757625
Si	3.207628610341322	3.0655044148933968	3.2116392574084403	14	0.25383751494225937	-0.02919130136283323	0.06996183264548533
Si	8.517554484919563	7.358006422238281	3.57864331998325	14	-2.307671925929963	2.407020978163677	0.32301721734935573
Si	8.142718215789362	2.4718971343634406	12.873787299650665	14	-0.1587413280186025	0.030142610331288015	0.48063317256932936
Si	3.4519529834929488	14.815980461819494	5.467969917234685	14	0.15229248165460704	0.35814545800694286	-0.11134891498390899
Si	13.824886210609064	11.708035837452833	12.932251852099705	14	0.39106434786292676	-3.591313483419536	1.3073350643463342
Si	4.955132888805798	5.5698284103660844	8.64855236914903	14	-0.027687718971610632	0.10205694035689382	-0.08551239184280497
Si	6.973098751540033	6.624361544279603	5.20004276998666	14	0.551158077279927	0.020859891683425398	-0.2186398544410282
Si	8.415848588781618	3.4307386840767204	7.327465460928584	14	-0.03905791802890148	0.20118796285945914	0.27810180718009286
Si	16.734640513736764	11.460165242866344	10.421638206635906	14	-0.29848912970567504	-0.051723697057014954	0.12719797950889777
Si	14.846335652876288	5.835602613076012	13.825216284540558	14	0.008532213004911401	0.08148167003240882	0.104178359356548
Si	0.631930688505872	8.348614685197816	3.0662093466566414	14	0.19528290527067502	-0.42777921761357723	0.09758193154717609
Si	12.492243397460324	2.7863033354223767	6.374993177029091	14	0.05658899965433116	-0.28570353716964264	-0.26263840845312625
Si	6.026158108653292	15.38819430733221	10.732300805366272	14	0.022740141004049686	-0.09723586077108416	0.07704985579206956
Si	7.856011686368504	10.459085840562427	1.3139811960469419	14	0.07596562067856313	0.11411439586626025	-0.2271813234250922
Si	9.30064742340964	0.2296452058464177	2.344181744156233	14	-0.14201474524784713	0.33663739067230813	-0.6713559654441897
Si	15.842636447156895	8.682311136625067	6.488069207842426	14	0.3342958850572493	-0.16814334595331998	-0.19452211520644322
Si	16.600846123735927	14.560158236943606	7.401937769723679	14	0.11909565531351514	0.4342077522455436	0.030163436284381222
Si	2.4385629846083234	1.5818287274722944	11.839697186871238	14	0.01106166641887308	0.32123081337291687	0.21349507269541193
Si	7.832194944748674	8.21157926774903	6.704387056706092	14	-0.470260819486788	-0.48783406723946815	0.2637493830619623
Si	16.086843055237484	11.342088343191403	12.679758563809306	14	0.2200904720626558	0.16434119540588502	-0.3501948290254489
Si	5.115236990873888	2.0677854637714397	15.75426454265359	14	0.21493077790618265	-0.2644078431344522	0.04643184808708617
Si	15.255736799687082	1.3288063256937168	4.4657692587614655	14	-0.1691021111272032	0.2883294070331099	-0.23214432802457405
Si	11.549927106940467	8.211602489030643	0.5559058711686681	14	-0.27963315750877304	0.2134112546619751	0.27735978618469814
Si	16.004644694317232	2.3436940972423645	8.113386419786503	14	0.03773045635210903	-0.0767901741547346	-0.463489556515646
Si	6.788200955361404	2.6519466586739195	10.814388035867378	14	-0.49192443869329167	0.5027161390535492	-0.1553729229386765
Si	11.653140727720269	1.9669221684234446	4.3381550469955705	14	0.27690675742728804	0.6525791832911484	-0.4326195804892881
Si	1.5598050005255637	6.977084518662566	1.372006202808312	14	0.03642176374415366	-0.10924163706351563	0.011555318640341513
Si	12.851813332593105	11.5673812173984	15.042298389743397	14	-0.30064345885342714	0.3109564194030731	-0.04670104281410568
Si	12.415825476998675	11.238181401289166	2.472825985627951	14	0.08392242031282539	-0.00032524482299873197	0.18261044136872917
Si	3.540309960029501	15.025406566033087	13.740098676788987	14	0.10279356203111623	0.08985421739693902	0.03180148748384756
Si	7.187379762273665	3.149258601681705	3.405258303495633	14	0.10507130423423543	0.003280987499040964	-0.15433753882625287
Si	11.699084033391115	13.572558788615897	14.553283078923256	14	0.30327164271168244	-0.3192562044870431	-1.001712145819376
Si	7.724270721127428	14.08965360489478	0.04313021326975702	14	-0.3457298475264798	0.15826953019235532	0.09198000727563745
Si	10.791619569246066	12.941663105804762	2.4451578285863476	14	0.4151748880026154	0.19461827454541678	0.2161042303742982
Si	1.8730816521003368	8.569261644419289	-0.2856715237261182	14	-0.236241127241698	0.023126835244199954	-0.09564331813578444
Si	14.638367513415382	7.3807732301966205	10.197370386145813	14	0.14781567307116522	0.09269400322304258	-0.05728139831704704
Si	9.057961809274687	2.526548420639071	2.0301802568625473	14	0.1592799745831735	0.18507021782851485	-0.03070876772278463
Si	16.19190940255739	3.4812532648993346	4.0963468655729836	14	-0.07562726321843165	0.02550562188640096	-0.10978105495968267
Si	3.275897519619864	2.045026949127963	8.178238483342025	14	-9.833541710119338	16.310026942085273	-3.2954954750309633
Si	10.029447346826112	13.41750531529858	0.19090547346444467	14	-0.09897212819378015	0.33712718623579635	0.10625067024458734
Si	12.696053268849573	1.41605863269069	14.079675088453182	14	0.18962595934528523	-0.028752670795215967	0.07635771423988572
Si	3.5806303982241134	3.907202892185164	9.619964925529676	14	0.293280070327055	-0.11211818969569728	0.2117616334885681
Si	6.822190276990596	13.209598546367651	10.646887955605623	14	0.2619323829322136	0.003617288074916333	0.27217180986970335
Si	6.896480132858731	11.176824140616365	6.009496839096138	14	-0.24181374091258692	0.17130117750752583	0.30891239067355536
Si	11.623754195839322	13.224204732502077	7.430229584042881	14	0.15392256242758096	-0.05154551945832869	0.08025962367374243
Si	1.2977793761331247	-0.14881192455240014	1.838710837987507	14	0.042512712247584454	0.35297753631344525	0.04922355424370296
Si	9.329013877562598	13.101121987976615	4.246440936603003	14	-0.2655527563335141	0.049560883261706386	0.20681611240526326
Si	3.4467497577487185	7.848053421427217	14.310997202564636	14	-0.7704139685556629	-0.32251430914873475	-0.5254673358104756
Si	3.4328169887810622	12.131260281475107	8.750601608522249	14	-0.05352012834420241	0.048948703084979124	0.1166747025440637
Si	13.805101678674992	5.1075971892232905	9.712257909299591	14	0.042717372231068244	0.11021660020091575	0.07126718281652453
Si	4.686668334754734	6.677312701008585	4.671136614681743	14	0.0001524665454847811	0.03311429386031517	-0.17542754443583147
Si	5.084356003654862	11.553232822244341	10.375328336448172	14	0.0452689371507832	-0.08204242810273311	0.02918281671527674
Si	8.812864499177948	-0.28663188958710306	6.405617071487405	14	-0.30018888743282496	-0.4750556737983321	0.3908306343893253
Si	10.839614641013696	-0.6517251724177775	0.7667086656493034	14	-0.1967682328141246	-0.14053533124663392	0.031013700813754184
Si	15.07772743083258	4.507534392404986	7.863595093478043	14	-0.31453565511925125	0.25018423139286106	0.0946824960776451
Si	7.431379037482714	0.6294758673068088	9.831701547263737	14	0.12322305068394884	-0.5517967398414519	0.292775619463242
Si	4.369288150986392	5.136721652354608	2.9086048496878667	14	0.1796940366040852	0.10152266467136704	-0.22050981934037192
Si	13.569913221175012	9.50894397813907	9.662967421750563	14	0.3374830272121048	0.06295582775861384	0.396259009051754
Si	8.860650579411065	7.682994893060747	8.73631222701554	14	0.15166307507223484	-0.028506616016077797	0.09449531961033832
Si	16.070112121835493	3.7722839286890837	13.861963962692752	14	-0.16816108658002898	0.09234921799961072	-0.11634328706829664
Si	8.073588460428176	13.13918996185479	12.690763792630781	14	0.2606442591668194	-0.049285517881918525	-0.10794708553482106
Si	3.7131841083216375	6.420226574947774	6.778773115026624	14	0.3379321993115347	0.10157974320947434	-0.13254819256959394
Si	10.78055628722056	3.464590336679207	7.9353704162801115	14	0.001964838685657162	-0.12469937935877788	0.030158036963208908
Si	8.415350989889916	9.514755933194149	10.14592695405869	14	0.017090394173556296	-0.0005558729702160147	-0.12020997235926731
Si	9.870540799424052	5.478376368723146	4.358913214094406	14	2.154636909058897	-3.835149141555888	4.731150549247908
Si	4.532759338888334	2.9431166501533452	11.706946095880006	14	-0.18442229928783754	-0.1828212720049813	0.060656488270805414
Si	11.731767987261074	14.632316710892287	3.98901312596989	14	0.9432619230237898	0.1661067734292307	-0.649169383415568
Si	5.827020690857125	10.510973794326137	4.049902643684491	14	-0.9630301233882803	1.125420106966705	0.9028690871126674
H	4.641300585135291	11.32986565574823	5.015116776537501	1	0.7359519012865261	-0.4739884079799386	-0.5098108470739657
H	8.700878209937441	12.125836453555557	3.2278460533111746	1	-0.41184736349727974	-0.5329181419177327	-0.5286097407327605
H	6.838309163755795	7.275368515630357	7.515161421541551	1	-0.22420089813797653	-0.25475128577304	0.2568261677663995
H	9.337819719282752	6.150667303334967	3.324325502423275	1	-0.29048347907032995	0.834225974385886	-4.167621084499023
H	3.8201081581705627	1.114382669944463	8.38500077482204	1	7.917741459122827	-13.81077295988246	3.422069961499725
H	14.987209216443068	2.5840161166417355	10.184258655349467	1	-9.854339895275078	11.832701052253027	-4.822875502875786
H	8.082402595463192	1.4013595614298129	11.600244306869374	1	-0.06721049284239489	-0.5211211393772972	-0.5445665345706636
H	3.892596706050738	9.237740971520672	14.849070788117677	1	0.43737252578411384	0.6964000739256242	0.5530727794118414
H	8.988720923494352	13.305319986501392	1.5044039985864355	1	-0.06726191494879785	0.03813643388216041	0.07891622114396507
H	4.269587578382008	4.384562778298672	-0.7893925404590252	1	0.08313051987421978	0.3589062480711747	0.17719955022247755
H	13.735837571613045	12.964157893035638	12.190111302396705	1	-0.15349113095486008	0.401451613356325	-2.82747357405696
H	6.355731123931307	8.65043826894858	12.702482246530364	1	-0.1249899142599546	0.38716140998694193	-0.025688941695727517
H	8.255931915629402	8.429039935400638	14.526022952972848	1	-0.33105449258013864	0.5211159971666569	0.3649498882367147
H	15.504484826985939	9.28646253767019	4.98196342104637	1	-0.2025714746322308	0.2844912610111929	-0.1519703221579925
H	16.237391599921924	5.631538966251994	9.651300386403124	1	-0.1698125075271601	-0.1865612018036687	0.5389180732928301
H	10.84564222225518	-0.02077641239153084	5.985646924216861	1	-0.1584626202018984	-0.3446551255026579	0.3001312946736536
H	9.262537982957156	-1.1883159132735464	4.641196089368033	1	-0.09036509602405243	-0.7077826142884517	0.7405660068940638
H	11.342735221750615	9.245785486936523	6.3366034225342815	1	-0.061116716123111925	-0.09171466920659817	-0.5688714502725553
