72
config_type=amorph dft_energy=-6957.053302578234 dft_virial="16.306640057783774 7.731347199012485 2.369588111751996 7.731347199012486 11.100841122252186 -10.629187437588175 2.3695881117519964 -10.629187437588175 10.080811420218815" pbc="T T T" Lattice="11.105996452100001 0.0 0.0 0.0 11.105996452100001 0.0 0.0 0.0 11.105996452100001" Properties=species:S:1:pos:R:3:Z:I:1:dft_force:R:3
Si	-0.8473542113058739	-3.052156608563994	-4.448851164778671	14	1.5696803667929635	-1.3480811701284448	0.07407662959985034
Si	0.0023789044400398204	4.817141555525339	1.6293940574769477	14	1.1761675553336597	1.1348905163029384	-1.012043361216795
Si	-1.1781962926157068	-5.459328030773698	-3.8536186213305	14	1.5771993071912045	1.5993475797505559	0.9883840500607926
Si	5.027254791802974	4.193476550560147	0.5300647774665385	14	0.1657216218522725	-1.0521407771266327	-1.9443932561513446
Si	1.317562110294174	3.1732341818847876	0.3757458461649637	14	-1.146223434333087	-0.6398049036185246	0.8642053195293445
Si	3.5623816339685006	-3.4682560928376622	0.4476149704057932	14	0.30829249718086765	0.2301753755704046	0.5744376361801439
Si	1.381061755608701	0.5524944479011996	3.2736157308170934	14	1.2450230413598853	-0.9681759335760246	1.1210070617952028
Si	4.945212574812021	2.631731338672232	4.617179200004924	14	-0.4463410553618543	0.47106608967305835	0.05550167921444054
Si	-0.8093561550446589	1.79261222373559	-2.766421531844365	14	-0.7638741050633342	2.242086885870966	0.455537641981492
Si	2.181315435961219	-0.3781425201993269	-4.1049140030521665	14	1.0871587173659853	-0.7662418359526585	1.0884154736464737
Si	3.740452959882181	-5.439688186647805	1.785357786853078	14	-0.02674000955060405	0.2719069860217281	1.2032824320399411
Si	1.6470925734230142	-2.69225124513866	-4.299770932003551	14	0.10059141032440941	-0.3908105797678281	-0.6603935436906744
Si	-1.6091411623468979	-1.4520879347188163	-0.7473136164646473	14	1.3014526324843672	1.0104577605658598	-0.648405765135484
Si	4.614503765459613	-0.3396902286832211	-4.203948394614833	14	-0.9091574965046856	-1.1758927041749356	0.1074963707721991
Si	5.415638151330783	-1.9049727004411308	-2.5453455664688622	14	-0.30622301450868045	1.1124244551260165	0.05670495650426985
Si	-1.7506448843423945	-1.3977040912921728	-3.1486343997433868	14	0.29619210421265474	0.1947928525966548	0.01603804076601969
Si	0.8137352494457218	5.326970096856507	-2.279470232604879	14	-1.2082559781712359	1.6175281225798552	0.04118242235493984
Si	1.043713781577228	3.0542534206941503	-1.9751992478066949	14	0.039287003512926674	-0.6093375626853018	-0.0318976468228211
Si	-4.01669352023491	-4.506727844089499	-1.5088206963950785	14	-0.4893116814669572	-0.865653623156184	-1.3053092904645893
Si	-1.0631148467794014	0.429421127017963	-4.59452296724264	14	-1.3110225435964904	-0.5461058553258362	0.6801607156130369
Si	-0.5785657745725044	-3.0681059300688545	4.316293322925341	14	-0.4613457688997066	-0.623073949968725	-0.38605300648342616
Si	-0.576638884188065	4.247964790353441	-5.497912483647585	14	2.0522176999623944	-0.1597661705992135	-0.7918685568996385
Si	-2.772721963631641	-2.453369035651505	3.639723793260925	14	-0.5076423768469529	-0.012512026929968612	-0.02496620399023389
Si	-5.186546988315799	1.4788644921648293	-4.657983741569585	14	0.5564542971289002	0.8535048934079524	-0.42156459894424736
Si	-5.467012269718907	-0.4485567589049313	2.8495077125018153	14	-0.9833413411963862	0.5257560709379282	1.0649842195323682
Si	2.812650242076231	-5.282281788332547	4.110660245616483	14	-0.06821656635416883	0.2986873619258585	-1.1326590539955819
Si	-3.6787569283914756	-2.652121948158287	-3.303671889015412	14	-0.1544933478086538	-0.2850754161399305	-0.5649528286541176
Si	3.7912584512519585	1.4117176376154328	2.9579544360576357	14	0.06376829703978065	-1.3921427162208866	-0.0839018514702642
Si	1.8861913498409846	0.32121873538408835	-1.8310311972623396	14	0.7451122353211497	-1.3587394301225866	0.7046330102712703
Si	-3.3417132586627902	5.006181163535114	-3.590759676102907	14	-1.4054582135634015	0.5379361681710656	-0.46612699635305394
Si	-4.222898556361051	-3.1374184539264105	5.550426077271695	14	-0.47002839156584664	1.266656064413079	-0.7000363881799095
Si	4.399975895592268	5.048490567619035	-3.54199213508209	14	-0.5995110552622279	0.32319642339017	-1.1533675075756507
Si	-4.1491447445223	2.8927700110813257	-3.072959250518422	14	-0.9240686218088843	0.4120535661439556	1.012594606197435
Si	-2.729418572865258	2.2916512895135415	-1.3492952739567594	14	0.7329321380880122	-0.7531024593245738	-2.0701570731126635
Si	0.9707140668975746	0.9004741923362681	-5.465690656141106	14	0.35569930840535396	1.2359994901282936	-0.9674490821020189
Si	-1.9832211090440468	3.7379041336964245	1.7391368508187284	14	-1.5043118138019225	-1.1586968946832534	0.49939967030109017
Si	4.514643087760911	-3.8909136680162963	-1.7026580948721608	14	0.2501001562488921	0.17292483051719934	0.6776281768726911
Si	-3.934369210934074	-3.3661331236616676	1.6778439669992338	14	0.9569008654155794	0.008386945554323035	-0.48628651894727093
Si	1.271503321808025	-3.074227555313252	0.9552345290426375	14	0.9046711748315592	2.3185633851766423	0.7188465947021129
Si	3.4381666166499882	2.561212703599977	0.9148064807577031	14	0.12040331947934246	2.781651077930749	3.1291932975974013
Si	4.920890442581922	-1.5972899535328617	4.901703723111274	14	0.44244634502289404	-0.9388445069732433	-0.26911733674936744
Si	-2.361890053475203	1.293038959528292	1.645806499033861	14	0.9856183120679093	0.7801201482497538	-1.615043149287932
Si	-3.0735689697236426	1.1063638181631692	5.433994142266814	14	0.14033787035804657	-0.7700491287107338	-0.0073127377515651674
Si	-4.8807467078061615	5.541529063513917	2.049330663524817	14	0.03317857149331887	0.29297770834140563	0.9733369132851579
Si	5.343695727513369	-1.9100181546293198	1.049785429837591	14	-0.38165307394905673	-1.2045337889992573	1.4429480144575444
Si	1.4454376640432987	3.0716176461470086	-4.298932429271417	14	0.0023602746838959363	0.07780858897204528	-2.1669890132379526
Si	1.2253434687541618	-2.0461487955412903	3.3140271201073497	14	0.4363926775466053	0.5506929643275124	-0.7706214567549988
Si	-0.026932041396342504	-4.419991122398244	-0.2763904913048319	14	-0.903033380742625	-2.259643421439065	0.05880554955083082
Si	3.339162211277743	4.0778597956948515	5.52993329261828	14	-0.03598364739760042	-0.46843224938309863	1.4582286075962485
Si	2.8912662591617115	-3.0455252180824446	4.669107507616008	14	0.3477841606772781	1.1824289681198163	0.818806284449362
Si	0.06611510747899652	1.3735318900141773	1.598167327252578	14	0.21123609956112985	-0.7235846275860818	-1.54062559112263
Si	-2.2831674188237825	3.4354911821046774	4.20539106355396	14	-0.8119704867346843	0.5474330598920966	-0.3133529466719831
Si	-3.1087694254785734	0.28728880562327763	-0.4993633608743532	14	-0.8077160787614351	-0.5156058613550476	1.4473461472181897
Si	4.169764137535269	1.0319836281245198	-1.2602884865906945	14	-0.7082906646997129	0.5575331329212343	-1.5799002533300202
Si	-2.2800255324274836	-3.587743287466516	-0.3374834671881888	14	-0.21829995431770466	-0.04161205405393658	1.643987110318967
Si	-5.372734576436675	-0.5278613477704418	-0.6261649647665598	14	1.1657360668287546	0.3528325259733889	-1.239011025789783
Si	-3.696105605449301	4.467080547355147	-0.018126096809472414	14	-1.1853500008740365	1.0821478902075488	0.994766304796996
Si	0.4522961479103534	-5.333619256932378	3.856521728803079	14	-0.6042529448041771	-0.47523153740223034	0.25537966391328415
Si	-4.564626735393232	4.337917808617225	4.158120610854887	14	0.17391753428130852	-0.8240739650292813	-1.0305787165802747
Si	-5.051489186661102	-5.282039677609891	-5.302323669530006	14	0.22623181423036148	-0.05209187933886016	1.7566755711746733
Si	0.6119837178968732	-0.8153034161447584	0.18243487191971108	14	-0.5930115581234255	0.7631009736935657	-0.6646734056065928
Si	-3.0960819351316946	0.0801941791813237	3.3528214763141806	14	-1.2456650463583263	-1.6499176218504208	0.7338019430178182
Si	2.6620073956003014	-4.389742830461304	-2.9805173784497225	14	-0.4065498580956467	-0.7290687952339577	-0.3081495437250674
Si	4.928063805690334	3.367486944629179	-1.824565286127927	14	0.3461779911837816	0.3987239277221799	-0.08553347490643018
H	-2.4510778685834373	3.424950480871989	-0.3144729531390828	1	1.1360932793717036	-0.5154706212152078	-0.33240946508385666
H	-2.8852523620828987	4.137661144190829	-4.917452026080352	1	-0.028057443916647926	-0.08677480455499766	-0.1887152738408888
H	2.6894547552320214	-1.1101831703430463	-1.6829593889650711	1	-0.25526936349504986	0.42076704207393745	0.05193581324592717
H	3.796728154504618	1.4013990563117864	0.19112309294418892	1	0.5394515776467609	-2.526724442774875	-0.7407120456762482
H	3.056309140637434	3.7696550669533333	2.1049850329455806	1	-0.017966112645598734	0.5897051166817152	0.20461756024600464
H	-2.1582149633408507	4.973839391266955	3.957156494454493	1	0.07706476820292643	0.46836257242892265	0.14876595359749195
H	-3.451804780293167	-0.3552897112998407	5.839037607072417	1	-0.1374615748363969	-0.24969109339245657	0.07277179364987518
H	-1.2308065084089497	3.089442770452629	-3.7269902709829457	1	0.1570449127283688	-0.5479233696766488	0.5086949873650215
