72
config_type=amorph dft_energy=-6945.39592719825 dft_virial="2.523032777162688 -12.08188078635333 -2.334371303297083 -12.08188078635333 2.334371303297083 -9.204164438323305 -2.334371303297083 -9.204164438323305 -43.68141991568302" pbc="T T T" Lattice="11.105996452100001 0.0 0.0 0.0 11.105996452100001 0.0 0.0 0.0 11.105996452100001" Properties=species:S:1:pos:R:3:Z:I:1:dft_force:R:3
Si	-0.14572400064729454	-2.864107655437746	-4.724156600230133	14	-1.7576237948167437	-0.4497667960904196	-0.12344030908350137
Si	-0.33006132975925034	4.669347397139374	1.585665307046449	14	2.070649439781472	1.2966102127244004	-0.6132579840774636
Si	-0.8760099033515821	-5.006489910236483	-4.009138110848546	14	-0.4085368082870571	-0.37800776082615084	0.005381837656133959
Si	4.542252594940831	4.136577198937103	0.6162073283476068	14	1.7381376447058734	3.598928583156751	-0.8061096521574068
Si	1.223684232884218	3.0496688653587234	0.7833070403662583	14	-0.10160134049416358	-0.771804679423331	0.5024230330470524
Si	3.8394829090462665	-3.2699074386017375	0.6604602818106445	14	1.0465625070240394	-1.1142463403558733	0.9784297587033072
Si	1.3086017923566198	0.21197904368158751	3.225435697008593	14	0.6899903083624949	0.7632693810920353	0.41206462189683224
Si	4.956259709482925	2.6354052022985863	4.775476299235641	14	0.02248045936671473	-1.0078786848192192	0.02529093459216859
Si	-1.1622336439151033	1.6592969529242267	-2.4395831622555137	14	-0.4115347170903497	0.9685073490517918	0.9434182462272547
Si	2.393093461107023	-0.557029026252592	-3.7885885697048733	14	-2.798838659885407	2.048075135070572	0.28655534436220775
Si	4.381571038271849	-5.146989650152709	2.2689028769807056	14	0.5756409134699731	0.6031507119534296	-2.51569440095144
Si	2.045436901168711	-2.739477273851925	-4.2036862930985635	14	0.41156634168578754	-0.14733873303427775	-1.8275275204819939
Si	-1.210531401285996	-1.5455504478614637	-1.349462974503186	14	-1.0338103388571689	1.6310750194011834	-0.583210761753553
Si	4.450069492589466	-0.6880820055866624	-4.355298693064761	14	3.1111073714438833	0.25876272429353503	-1.4021972806858574
Si	-5.477518542362594	-2.0534909697957735	-2.841766832974702	14	-2.3514719906113455	0.7991363003081011	2.22935065855708
Si	-1.8195353803347707	-1.473965637129808	-3.670086476961321	14	1.0115605076376715	-0.4472509695346547	0.07780756052991722
Si	0.4456825270231279	-5.284003217782622	-2.0791191672086398	14	1.3807552907579506	-1.2602861509824121	-1.392097721877784
Si	0.7837535014236328	3.1026344730384334	-1.961586627955356	14	-2.8241535057570526	-0.1431671146523375	-16.708755754907568
Si	-4.036293382773576	-4.778196157766761	-0.8470765613945713	14	-0.21276050790544565	0.21776876395856204	-1.4464796847252999
Si	-1.113741531606299	0.5890687154172554	-4.536751794898106	14	-1.212569007345784	-0.23469383606003286	0.49688847173490147
Si	-0.6796403376834212	-3.169212700569483	4.084209093866517	14	1.3447299914541637	-0.44703911045627454	-0.04897801368562881
Si	-0.49394030280679274	4.356633633838303	5.409115599614464	14	1.7851582759112734	0.9313451069754353	1.2121090366040097
Si	-2.8095494478668046	-2.3810045839689122	3.643727504981907	14	-0.08009353027006087	0.7450852387152881	-0.9879827005203174
Si	-5.326199340702731	1.434946939794645	-4.372290867636474	14	0.20546319678580136	-0.6132430716666069	-1.1650704076613685
Si	-5.5379740340496	-0.43957533957411804	2.977542082000205	14	0.5311044842249002	0.41881377336222103	0.6685837996880061
Si	2.931186763408785	5.550516035842956	3.8489007940376476	14	-1.690158505437122	0.3680555263529216	1.3620965223391042
Si	-3.7596196885592157	-2.7695978468296656	-3.8978193766102125	14	2.051030106415018	-1.0392574825884344	-1.2478563994226886
Si	3.885639430301194	1.2485894299280522	3.1109706339753793	14	-2.1836204651118623	-1.168533429417076	0.631392247011
Si	2.047865782592785	0.7030384510087055	-1.6878371426068335	14	0.27830955248996087	-0.026275667929785307	-0.9954954702657901
Si	-3.1744469566973574	-4.9454435795382246	-3.272994905615421	14	0.018830261143700504	0.20933373873475225	0.5511503639639665
Si	-4.32012600230096	-3.4865787657843375	4.953419906190123	14	-1.123339054320577	1.544428255891129	0.7153270086293622
Si	4.081526995723334	5.090463460010456	-4.014895459409315	14	-0.5984247632644655	0.3895504810504236	0.8252345619707961
Si	-4.717193140454666	3.22906735784843	-3.0343181570626307	14	-0.26287263614779177	0.23432231134127146	0.06281158875015354
Si	-3.059414377245441	3.0226979529747986	-1.374156047014785	14	-0.01541789016279997	-0.3779846208782695	-0.33381251725706146
Si	0.925356066787553	0.6687187007724261	5.537370978442251	14	1.1538089663591198	-0.2258500050903195	1.2651529962429204
Si	-2.282524381629206	3.6883602835236062	1.8601055853742923	14	-1.7763717805901995	-1.868355130302753	1.020982837304418
Si	4.623042055531988	-3.8644469678712974	-1.4256701009582058	14	0.6438502807292457	0.406678413361654	-0.6615438562109086
Si	-3.550749213284571	-3.526986823275658	1.5136351458570638	14	-0.969446059604178	2.3597419508736017	-0.04605209583130031
Si	1.5988314658404135	-2.9548947340350824	0.6874833923778942	14	-1.7513906641891088	1.6835489649906175	0.6622887054221555
Si	3.5567098015804133	2.2672269821160835	0.9151740892402676	14	-2.0673478834398695	-1.1774687917361863	2.196948046649382
Si	4.789338804007152	-1.8612983693932474	4.570038687464341	14	0.5861526204608666	-0.9680568913997019	1.4331166219343623
Si	-2.5691623758603908	1.2584282321849676	1.5758942513678913	14	1.7133133657293118	-0.038556038270408585	0.02957439605553529
Si	-3.1122655931616947	1.1946231719680078	5.534136912275399	14	0.18704456960385657	1.523518741875025	0.415949819146108
Si	-4.532790285963642	-4.898843929024858	3.1109628597778634	14	-1.338795880375262	-1.0993807236158413	0.32845793331732104
Si	5.462836415052917	-1.6260056179594118	1.0575129821689622	14	0.6691980367489895	-0.8736934694922872	-0.343111176757909
Si	1.141891900813437	2.8313749520944715	-4.530999999335564	14	-6.561050942829866	-10.69677720872192	-37.48533694108633
Si	1.1099754882093922	-2.0457378736725627	3.0584714781466578	14	1.0259039328871815	-1.907401478357714	-0.3627297387927669
Si	-0.1132012006369649	-4.600170366438533	-0.02340699812244596	14	0.17398438301963237	0.09483290573887376	1.4154608417009051
Si	3.117408780118662	3.779750417728292	5.419630757055312	14	-0.6090909936850997	0.8378165229654728	0.6866447861199183
Si	2.877419302785233	-3.2187809839344954	4.475970897515054	14	-0.8191752380628031	0.8482397839333531	0.6075015363761842
Si	0.12385629363310963	1.0163175095291876	1.4049285419842639	14	-1.0781349090238617	-0.3374871409806171	-0.8664825475113997
Si	-2.185574585600599	3.3501271615749006	4.3799351249944545	14	-2.080078711432583	-1.238211154924685	-0.8993924384987633
Si	-2.8749037945888323	0.5802205680438672	-0.7678297237106118	14	0.15090948410289942	-0.42954428141585893	0.2228322987760617
Si	4.287454381938173	1.2956877396821178	-0.9068634720951613	14	0.38537114935252287	-1.4809404664417767	-1.6914607702817774
Si	-2.0883249276677853	-3.436039818329411	-0.473088794467975	14	-0.48860565594604455	-0.47705522240581133	0.6068605598198712
Si	-4.984522249254229	-0.6282406755034572	-0.9520970850449194	14	-0.07640630813043651	1.0698978589097032	-0.5480771217747937
Si	-4.130418923904414	4.414217114842796	0.4893435308752686	14	0.302100761348887	-0.6998083311380124	-0.5137523515297528
Si	0.5737113435232915	-5.493159117166086	3.588761707341174	14	-1.327126404658706	0.25546322483618905	0.442341701036364
Si	-4.4162650605885645	4.176098997911547	4.381888669770379	14	0.5029745351382241	0.30192566907658497	-0.36051010356988306
Si	-4.741011060445839	5.095100213529208	-4.632511028107048	14	-0.020482196311895642	-0.21866942215220994	0.7702643302260302
Si	0.7534474583051423	-0.7299793772022097	-0.37917093547079134	14	0.13496451734946907	-0.22556204129446292	1.194284591861551
Si	-3.2399212481810675	0.007943008662541922	3.6490095168945262	14	-0.43467517919274645	-0.7665002320373334	-2.0314673373656076
Si	2.672604737414895	-4.335075784125132	-2.7798009257702097	14	0.5752364786031139	-1.9305614808605438	0.6736799875430716
Si	3.9771839378565645	3.319987708403192	-2.206788149423755	14	0.15868862035953943	-0.26555121367032203	-0.4293385929902471
H	1.307682215850386	3.122755206810703	-3.6566981982383147	1	6.900965721453766	11.376052692773232	33.78617073169722
H	2.1363505881256013	4.138776186234619	-1.4664057853448635	1	0.9502648425842771	-0.5081977355961049	-1.1147101677556281
H	5.059767596416497	3.561174412154157	1.8700632217932451	1	0.7070310802033725	-0.6123958924636179	1.4666816305572994
H	5.103168719951658	1.7784576312573885	2.6190205257328034	1	2.494150852363387	0.9982509238373928	-1.1962401745680555
H	4.30806933255256	-0.7533208499455883	0.8529771773095721	1	-1.4512611692891793	0.9722516497295234	-0.34388353679608147
H	3.680502791033746	2.3183345565893574	-3.410107316613758	1	-0.3929872775318655	0.22326218758559047	0.19371761635176887
H	-2.48737004378961	-4.33818324193243	1.9078169461325138	1	2.378627490781686	-1.891813638133252	0.5667248344407637
H	0.9659173870299125	3.100595412089828	-0.8933907877991187	1	2.2416359139978117	-0.4130868933721231	19.12010236066186
