72
config_type=amorph dft_energy=-6943.411229336461 dft_virial="-15.24762031781818 -5.725246860241553 13.207560913751442 -5.725246860241553 -2.83243759430228 3.022356811326989 13.20756091375144 3.022356811326989 -35.64066789953095" pbc="T T T" Lattice="11.105996452100001 0.0 0.0 0.0 11.105996452100001 0.0 0.0 0.0 11.105996452100001" Properties=species:S:1:pos:R:3:Z:I:1:dft_force:R:3
Si	-0.6083587206549078	-3.1432157840744064	-4.78340153830386	14	1.6443025849417492	-1.0594828254788473	0.4366680429263933
Si	-0.1351477602259597	4.531895142649603	1.5519141838285169	14	1.0558261994925329	0.05492215207527916	0.3301101255960482
Si	-1.1046312827166416	-5.23322215960504	-3.623546798828796	14	3.4266817531124745	-0.5069759463479706	0.11315871601876121
Si	4.882078316780769	4.141717054095135	0.5503843085753006	14	2.197025436919519	2.3134844237272216	-0.12407460076598188
Si	1.2347446947508645	2.5842820794302797	0.6205675425547014	14	-0.3339223034542318	4.08986366052285	0.33557372440136285
Si	3.720099000184418	-3.172196881816162	0.5901126790837526	14	1.0937060370637424	-0.9400318434100877	0.020650603710365343
Si	1.3878775056313548	0.6130054695704664	3.5168037351287276	14	1.164558500592127	-1.6067346224458736	0.5743839000789527
Si	4.855337298523402	2.55321305435553	4.757602308545632	14	-0.1749968842947067	0.5829235692892927	-0.22754899148587338
Si	-1.2342937912949092	2.450574766944157	-2.819768075202382	14	-1.0191334412476354	0.30347090337399396	0.38621704300285165
Si	2.4021059772279023	-0.5248927149187955	-3.700737916569472	14	-0.25912370748048386	-0.5102708178157402	-1.3004141630455595
Si	4.404627086906408	-5.226711824484819	2.0835504597930274	14	-2.4932244831165375	1.2368014178776479	-0.24172040978946557
Si	1.796895806567165	-2.8807677607155413	-4.047363840037029	14	-5.989347934268231	2.156925449904361	14.206676127957905
Si	-1.4237254409794433	-1.1078786760792356	-1.1154873942485695	14	-0.3529654521184405	-0.2623072500878912	-1.6032988544065596
Si	4.649889691355295	-0.6773536130139338	-4.373373702290554	14	0.1746466997501025	-0.7145525917069336	1.245641392189381
Si	-5.3202731809958905	-2.0316799033634947	-2.6375808670035528	14	-0.7238044570909545	0.591576881354783	0.13327452982253576
Si	-1.4672054170894149	-1.4572844304587538	-3.6404123650409557	14	-1.173326741065428	-0.3854580527123439	2.025086882403128
Si	0.9655197923569273	5.474338895578358	-1.722661105082038	14	-0.9377070499796099	-1.094877946868666	-0.2745781073388299
Si	1.0009134924501248	2.5786935420155825	-1.9824914450771438	14	-0.08699309139667823	1.9182944802675854	-2.251331295049558
Si	-3.794330369870609	-4.574904224510005	-1.0526007999381983	14	-1.011606787533434	-1.8225380334977146	-0.27300921887247553
Si	-1.197050942792437	0.616149577166056	-4.3863255153529925	14	-0.5517239775608918	0.9948326393142559	0.17324827556647399
Si	-0.8315292769612764	-3.0040110033444947	4.012813085074547	14	3.727556611444715	-0.8758958783095259	-0.20170835457625708
Si	-0.7466006114924225	4.2913181581038575	5.446098567799957	14	1.3801976180140105	0.8382484686592576	-0.016796516835463373
Si	-2.755386613769558	-2.739395089478179	3.06670879571518	14	-1.9158629859663212	2.052799798206876	-0.8892807954956848
Si	-5.011671968181033	1.0484205028736278	-4.81196171878008	14	-0.34271059854902997	1.303602847863607	-0.3855084463766188
Si	5.545230692131402	-0.3557428359550864	3.20032170723146	14	-0.11912676568788894	-0.5804193127074684	-1.5135821911442486
Si	2.6510035743155607	-5.231316370613859	4.036110133832117	14	0.019200243199269808	-1.775007294996797	-0.7503344073369024
Si	-3.4892830759204236	-2.809031908432137	-3.92742129955364	14	-0.11215727049656353	0.7554470502660169	-0.08555738618590755
Si	3.838674392504554	1.2285042353444293	3.025202355174747	14	-0.5901031237852741	0.5803722614801097	0.4941469021320276
Si	2.169300968999337	0.5367494767310574	-1.673322715843584	14	-0.3005321299930647	-1.180808400436527	0.2709592766007215
Si	-3.244515798913301	-5.02529680462847	-3.342327420266591	14	-1.0241003025050974	0.9362152946728599	1.4244522541159952
Si	-4.111385467184805	-3.3776067285963323	4.849876480067905	14	-0.9357684365682182	0.36958276291308956	0.08598881765862838
Si	3.998591856617632	4.912328829916999	-3.7462158614411765	14	0.6608185474000949	0.7865376271288435	0.22156525807429273
Si	-5.125752763737004	2.7245008376362683	-3.148945367644045	14	1.0747153389480646	0.7202897561183121	0.30101446935112447
Si	-3.3410913228614727	2.5471247471004883	-1.4294361443551131	14	0.4916624430611686	0.42330343747226346	-2.0014008317517957
Si	0.9109415939923723	0.709899735616813	-5.164914728426399	14	1.4164170357694685	0.9027184203409069	-0.7165804224729343
Si	-2.086043755996524	3.404556539586998	1.7550373059392	14	-1.7213136170434844	0.8870416198723678	0.8913201962356262
Si	4.878644342677779	-4.062371373042752	-1.526110511671708	14	0.10367956492443926	1.4223537179536905	0.9876787958714758
Si	-3.9371823598353903	-3.0898081577359027	0.914467747865914	14	0.522039795308186	0.29128694948287626	0.6365344576512962
Si	1.4347859028460896	-2.6691085697317742	0.963635104759006	14	-0.24989215382849217	-1.148359251522534	-0.5406314578781768
Si	3.4368727680633184	2.3904091417645508	0.9740214326410099	14	-1.7412414830483562	-4.818182207224388	6.63939277904531
Si	5.068212596118674	-1.8920675325637906	4.873594446091009	14	-0.6646343248057266	-1.2974836172016548	-0.9207866058677153
Si	-2.202607852359185	1.1685862738857047	1.538772458226747	14	0.30462430122061235	-0.7803518048390992	-0.3090386319447746
Si	-2.862104133677787	0.9193477227069669	5.1982627039731195	14	-0.5828868024832146	1.3476610515191325	-0.769115046147924
Si	-4.601439781833008	-4.701578109443013	2.555128838743517	14	0.8429569338320448	-0.761612560823732	1.5327477244216965
Si	5.347475098106019	-1.4383287157143094	1.0113053733303548	14	-0.31317554040489287	-1.2880900839144935	1.4709231830039475
Si	1.1175808745797902	3.091194186093125	-4.524579622786605	14	-0.4726362636920728	-0.46315377016083464	-0.6822227420797956
Si	1.4486939422030543	-1.9669730362346243	3.1991155960167617	14	-2.840735078187752	1.9838625510314694	-0.5584214498093455
Si	-0.14267207282225744	-4.708933610893239	0.20943577049405662	14	0.4331880518755728	1.6881543288400667	-0.20170295525508478
Si	3.01506480161327	3.9489980294607796	-5.541286952791261	14	0.3699036368570441	-0.15030604568426065	-0.8102231635591117
Si	2.822128099448453	-3.0443024478730685	4.433859180167981	14	5.807436833546583	0.3466004237878819	-7.710649467116712
Si	0.1728404015847419	1.0057823612947256	1.5563854580001324	14	-1.4807990556491684	-2.964349708211959	0.8926908524817972
Si	-2.5428356112706876	3.333805789188895	4.213364058406922	14	-0.7383157755178702	-0.3942545753441665	0.2840670286333684
Si	-3.0937985422611423	0.47339198817111733	-0.5296582979963916	14	1.0537050376034107	-0.07047245416206675	0.4261082562660131
Si	4.237138665011933	1.5034176291211319	-0.985868199056465	14	-0.01559966730893444	-2.4641882194045093	-0.8587702599930835
Si	-1.9589467325986916	-3.3089172511397384	-0.658442322255298	14	0.5065290882433288	-0.29094165003838035	1.0902119049336612
Si	-5.1910782348682565	-0.26306551676160234	-0.804850452284042	14	-0.8484912380336636	-0.42826952739812957	-1.4155809123193563
Si	-3.7063009101923288	4.247405048132255	0.11693281544487048	14	-0.31868696176916234	0.5077385361859265	0.6959712135582234
Si	0.25362541977731734	-5.303206596247948	3.6181615011491726	14	-0.3640487158220029	-0.5069584628317936	0.6041035635850764
Si	-4.6918725791435225	4.54216485756886	4.452485046817798	14	0.6151819421885305	-0.703152824938461	-0.6598610677788718
Si	-4.815637803605726	4.919649902778223	-4.353879346718182	14	-0.9370431905859478	-1.3018501253668622	-0.3689512994464612
Si	0.6101068044964684	-0.7593236410279484	-0.10560469906372849	14	1.046873867878309	0.9114779190561192	0.0030619293257643475
Si	-3.1857661882813377	-0.17284817578225836	3.1416376219785636	14	-0.023832603654580606	-0.9054643608228249	0.8196177252884007
Si	2.847596370512409	-4.335746586310838	-2.6588410760118077	14	0.9611624724837247	-0.7806667652408174	-0.6301493746992405
Si	3.9977022663018196	3.6134192406641263	-1.8114846435066434	14	0.4591672713619451	0.6979712763867666	-0.606944120742776
H	1.807954047234521	6.953022360001016	-1.4056182243639395	1	-0.03420110007914177	-0.1645288860942558	-0.20392619002541681
H	1.9748116485305165	5.12044631863219	-3.0838386846428993	1	-0.44009789742347083	0.6462308671451708	0.4893990990478422
H	2.1308242442910363	-2.9172298576674307	5.922481400815625	1	-18.1219545381478	12.646202889316392	0.7008488574610764
H	2.5146330438802247	-3.158723086920474	-5.370900976422433	1	20.406560821140186	-13.708677967166828	-6.154938172638645
H	-1.9694374568473452	-4.920492847908937	-4.797106337925751	1	-1.3299047410676579	0.05846384965378314	-1.7593335798546423
H	-1.368940671080879	3.8017069727140935	-3.7997478749399436	1	-0.12605435186249592	-0.855602144017597	0.8102581305914657
H	1.1395030009765903	1.753079318764695	-0.6791838812292399	1	-0.23339697053655015	-0.8215259996570146	0.7854562202311892
H	3.922914486193378	3.0811699136954593	-0.00213790431702925	1	1.0868555840487397	3.036544288717461	-4.521235740710802
