233
config_type=amorph dft_energy=-23351.927792600123 dft_virial="-31.114511789287207 3.4287973132391527 -5.503908689573015 3.428797313239153 -45.948315768548795 -2.569571508975914 -5.503908689573015 -2.569571508975914 -59.89047032829192" pbc="T T T" Lattice="16.55616437812862 0.04720459853175219 0.17977815884172757 0.047237712946716595 16.379714217990816 0.017517525516167597 0.17876816918531338 0.017053923706666002 16.279559669930986" Properties=species:S:1:pos:R:3:Z:I:1:dft_force:R:3
Si	8.35313766630187	4.220137468919597	14.675772258699656	14	0.22436776287325413	0.3170630516489568	0.18057823972368414
Si	7.661607682879558	15.183649696729406	14.082438105692026	14	-0.020549816381815536	0.08010690001772564	0.0881750285123503
Si	12.49127887660737	3.501557975633613	12.758008866262617	14	-0.17084686319745568	-0.5405417263025037	0.2772258315975184
Si	10.923712012464097	3.9462133726133315	3.1223184496953187	14	0.18382991662207543	-0.5185585187047056	-0.19018028965230915
Si	1.9559360342872503	13.287481870011403	10.21741631140916	14	0.02852667063757495	0.037517825942132786	-0.15995951771928862
Si	1.3901464516470083	13.624427665157166	15.715636084573989	14	0.029910953741942678	0.025423346516156218	0.1665549170865325
Si	7.108621788785301	15.19091996653484	5.572876221702071	14	0.1343345965460328	-0.01792060408143211	-0.11965744182596749
Si	1.8026146372813299	5.773016434305408	6.023988929599847	14	0.10250328424047152	-0.05745109126817681	0.31461818760002797
Si	15.873416337554866	15.985910972351178	10.81921450888169	14	-0.2812843213453722	0.27865793726084087	0.11273576919359685
Si	5.689592944406343	12.874326560266569	3.0939741662065403	14	0.44366659160783634	-0.2607396471741969	-0.4327627910556204
Si	17.21277189952948	5.829347365601349	8.24281864856872	14	-0.18564280298331184	0.3316147364293988	-0.06655177565937295
Si	16.95331549112116	9.453907179899476	13.197592790590539	14	-0.11213515899081027	0.21992772109589043	0.10247397363982183
Si	10.37316333931122	3.308851949189784	11.747595345336872	14	0.3252635920675691	0.2069770635983045	-0.06088891619174681
Si	14.742617016746793	12.815881273575151	5.121722120785589	14	-0.2082235354575123	-0.03698586425139415	-0.19669418498090432
Si	13.655152875081882	6.402172105700777	2.8766939324176297	14	0.32588554244451284	-0.25028373316875074	-0.2686702215341937
Si	4.8405310661153855	12.071724206170664	15.98078320519394	14	0.16153971904905162	-0.1275353085269012	-0.24547808021486195
Si	1.9024794342102194	10.431436431044823	4.012821362593474	14	0.003709847866441663	0.25829375468314003	0.047305766785404504
Si	16.829831837718913	7.244106106170648	5.066892928208283	14	-0.06575781833651123	0.0012516140698480848	0.1772198619545067
Si	5.3110157067673365	1.8583197061344436	3.4248484333685805	14	0.028634657061021168	0.005375667003365604	-0.08111657307694779
Si	11.613407457297384	6.442377972629804	5.900078100244559	14	-0.2476421795628306	0.49596750180922455	0.09890373679226422
Si	13.678223687987582	9.203168141230536	5.769858974838552	14	0.2925573326215614	0.1641655889125189	-0.03481482291906111
Si	11.080680962278347	6.749096929796062	12.973416479885291	14	-0.14137222602834212	0.12012461166263841	-0.06908714261557097
Si	9.246541401950907	0.5301137676783456	13.691391635098174	14	0.0342903174337509	-0.27288966247508867	-0.025920341174540843
Si	7.978618600216751	4.566469544987018	5.318890314645871	14	0.07737818594145249	-0.10613702738943681	-0.5826967978000557
Si	14.747940158952321	14.319307171653126	1.5579934867770626	14	0.025681742600831104	0.039889156378905354	-0.1550263379415205
Si	12.809549797433958	0.05069485786899996	12.36585140704671	14	-0.2833358062803183	-0.2377889326444271	-0.1289571297689431
Si	10.61844346667328	15.875490955652385	12.058612553565512	14	-0.08859103335315027	0.1343675066941307	0.0906057514820183
Si	13.894270409819066	3.2575477860854387	10.879754282319606	14	0.4622644248305954	0.3324187210630091	0.30150529335674076
Si	16.414351896043577	8.010910121969287	8.639954860074525	14	-0.03868767886280016	-0.12959373544621175	0.0434303397363453
Si	10.443604322823491	13.593101428600843	12.437666638780005	14	-0.723138797923568	0.27549624904865483	-0.027452205724285073
Si	12.451731986536133	7.867887308017295	4.247706875098207	14	0.03497166034359014	-0.08630532072353862	0.12691155837623327
Si	10.014206392538622	3.2899386510828665	16.057780842869164	14	-0.0078914935591305	-0.14221863389973485	0.02819114139329563
Si	9.895224643850783	6.75596320373893	0.22767816008773217	14	0.0675110550543202	-0.05979053999897955	-0.2025421640315811
Si	16.5232105680768	9.181690131684627	15.457034028071751	14	0.3245318554934549	-0.33789029029481626	-0.09124184293822295
Si	9.623221183612454	11.481438235060509	9.176939868857984	14	-0.4959052810604769	0.23633985768599164	-0.36914336101387624
Si	2.8819889273704375	5.941598609447672	13.450133253433542	14	-0.19294242809774423	0.04354706791788003	-0.19937919026673495
Si	10.894822996849154	2.1176320668376674	9.742421487439058	14	-0.3315409457067106	-0.2518284532450957	0.08124152879550699
Si	12.897455323398454	15.610194820165095	2.2795979818700443	14	-0.050580069410613084	0.08071136687849245	0.14977999753575835
Si	2.2001415988837145	0.807811251569804	13.929229297696986	14	0.023640799197697557	0.07122321691554999	0.13489149795837688
Si	6.581615808951365	12.491020584170647	0.9482196824603565	14	0.11947180802185282	0.08165444830992277	0.21301813265852446
Si	10.314570693473211	0.3540493904748755	4.5852785326867975	14	-0.22387745308870188	0.2644201844399889	-0.20416967369923486
Si	12.552987588893528	10.480828236684975	11.60829459162688	14	-0.028898709577400376	0.1218127994158476	0.3649408893680942
Si	9.550771810832593	11.119350320353025	15.93438494266657	14	-1.5840001378735282	-3.2692020664744685	-1.776793956083768
Si	1.4901023132170497	-0.264418603490734	5.934096538737487	14	-0.0796950089454379	-0.3962973185210242	-0.5209565886368077
Si	5.926771630147361	1.9836395538464673	13.431450100510627	14	-0.07894681729727483	-0.20591982509065967	0.2571331577416252
Si	13.627427831152941	1.3290602903621798	3.0010534620956855	14	-0.38026596262883683	-0.029428357273350886	0.2700910143341075
Si	1.6104119499449596	6.5597238692183995	11.568497687722664	14	0.07747640216468214	0.13124335661961878	-0.20919155661054806
Si	4.643953964562218	15.831195458475257	8.944408791257219	14	-0.007118876410426001	0.11928488866507803	-0.06797513956460692
Si	1.2952355711967933	9.558399716319641	9.42490226383216	14	0.07394704589171487	-0.005737164411378424	0.028577064301849853
Si	7.173903546446119	4.467257102032928	9.064350857979024	14	0.4219183830362998	0.07995109103532468	0.028142033281680794
Si	10.888332571516132	1.2330847814708592	15.283108842074983	14	0.07517757689793773	0.2374798857849453	0.30447132045406355
Si	0.35976824993922735	5.487452621139156	0.3539384571847447	14	0.06683074058660902	0.4628838041022191	0.2215493172213078
Si	1.834967420701549	3.6248396311045776	5.001813168478748	14	-0.29931136918705836	0.2401453506703428	0.34258949948845097
Si	14.943758940402804	2.3014551514672963	15.09981889952628	14	0.017497914366799764	-0.4058209497373847	0.0329967943471844
Si	11.049156039232237	7.549078277947533	7.927473386304237	14	-0.13573662027710956	-0.41857234657265907	-0.43538249026631926
Si	4.106218914279816	9.268943303674325	4.200691028731752	14	-0.21741189454012552	-0.08281016015132933	0.40182699473306666
Si	7.623799299593953	1.4269713368081696	7.619747750923059	14	0.5661028840638199	0.1461706798873345	-0.10054307354439063
Si	6.551168760112347	8.71794593019868	0.8298174360343961	14	0.22112765594880351	0.01845899353547112	0.5577686461685599
Si	9.306137414562338	11.362593911194773	5.1706635703822235	14	0.021530178840388	-0.14108349090088948	0.06359474743067063
Si	16.451188371249977	3.6115011447569176	1.7964421103319659	14	0.04108034947372997	0.05667770278787627	0.012762452588151037
Si	15.988735631947641	7.493732500496784	12.203271219616745	14	0.03481867957704133	-0.06160985412351633	-0.1300040838553074
Si	1.6483097421509671	4.8450958882182285	9.996958749504413	14	-0.4086679346583847	-0.27395512851975806	0.33495177402441906
Si	8.227233349165726	6.110727172436848	10.319733230766161	14	-0.12791017568257879	-0.3895669361244725	0.1704899937790191
Si	13.690722723915895	14.449342512056083	13.321136049939721	14	1.059322645617402	0.10891382113519672	-0.4948315874787831
Si	3.187533978526208	10.523997843753314	0.729578446216409	14	-0.07617670842534728	0.08156368829212154	-0.31114513853357195
Si	2.9148715414300863	2.467376583367171	15.514871665248572	14	-0.20314277423436772	0.2244454102539226	-0.037306481084816615
Si	7.5574744378617575	14.262017578043967	3.512394667930713	14	-0.3725014816725217	0.21249079895736211	0.03955337002409402
Si	14.537001335629093	1.5603181187075637	6.7053544433488375	14	-0.030617750594451383	-0.14988644129601247	0.2063962509064831
Si	14.465959325485217	15.687409357258336	7.2755366531341075	14	0.19825767412608636	0.019175046367132357	-0.5214623250532808
Si	11.163069626709774	9.118277682748548	13.010791064334862	14	-0.008419598591888913	-0.005977819869344284	-0.05348978930142466
Si	4.215819349208239	11.52454989190266	12.540015016831225	14	-0.30732164781197974	-0.27666558774825817	-0.018360520201709446
Si	9.936846152019537	14.888841994625842	8.168468508369902	14	-0.27483727475510084	0.16874035660865835	-0.21391133464674392
Si	2.6623923402547667	0.6267565320311987	9.663499902254403	14	-0.022522882604497172	-0.41378674824026745	0.46424469014817343
Si	1.6090542589314192	2.0213866754643868	6.7182227050040035	14	-0.3635005561677473	-0.3730496413267772	0.058225765301137426
Si	15.526938558061602	7.050641759624133	15.854804380624126	14	0.4021923487990597	0.08845219366586227	-0.04501234083983242
Si	15.240798554074967	9.511171937697414	2.5516593923345616	14	-0.3663118027247972	0.05115342589700611	-0.4513670520416799
Si	4.031088929608585	9.047626422701253	6.653982395693816	14	-0.05548419569826352	0.28424263512673453	-0.19151752152931817
Si	16.453049401370976	0.4646614707804608	14.727703939967576	14	0.013445338161182364	-0.26011512569193296	-0.023566751364477292
Si	4.426435306985565	14.024032556298566	7.451178821546781	14	0.17554787216481443	-0.30419055575310344	0.021026499308170993
Si	13.115076635661499	14.297895390937146	5.8908077197752755	14	-0.6005181572161299	-0.21109983097916196	-0.23651494995829372
Si	6.18303746467386	9.619730924275206	7.3747159816732335	14	0.2770687370624573	-0.1631502594215924	-0.5285403208891165
Si	7.915532328268073	6.931254359352982	1.6149999521382774	14	-0.16968498070328075	-0.3357565299896254	-0.2789479579409536
Si	12.687950354243185	5.447928911158397	14.049984323306166	14	0.10000571253247968	0.060709453040400464	-0.32818205371646914
Si	6.630461226744603	13.360861757851763	6.985566967056843	14	-0.003214910092313158	0.0850007418840955	-0.2819772342291521
Si	12.952681888955333	1.160171806881495	10.266533267405105	14	-1.0401152033232357	1.3209598656588628	1.298498432471517
Si	10.740599232035455	11.264720946325992	7.1025121792243695	14	0.17571962200020033	-0.037185896245301664	0.3199200638807053
Si	15.934053798516926	15.226812680914755	13.092870108986371	14	0.16728665366064663	-0.016514466581843124	0.4540080914265359
Si	16.509118728788696	15.500521533523749	0.42637127275712505	14	0.2420448832808682	-0.2542751170677486	-0.12972563314913538
Si	5.355183713446853	0.7020653345432373	1.3314461839603646	14	0.21865039597284086	-0.1867416933971431	0.32593567899825576
Si	11.301138524183092	12.24720742539151	10.699919828972439	14	-0.27982419063406005	0.7608309448064069	0.8350466712040773
Si	5.90246730528424	8.563627789302332	14.860989460199287	14	0.8181020587021733	0.7796331809021179	1.9946758486764162
Si	5.732126754707366	16.091135337342056	13.03764519915024	14	-0.020093445187489255	-0.040944595112826145	-0.2532603017978861
Si	1.8954525553547736	2.318934595406255	1.4543056306405333	14	-0.5463030591038914	-0.258483245145235	-0.1861194859096673
Si	3.6343964512633034	15.473506793795792	1.4463912854640417	14	-0.21821613628426784	0.021591114036475508	0.26472691730468256
Si	5.063122852064586	5.1917061253713515	12.9275049992579	14	-0.77227416325479	-0.25710976068321184	-1.1545090783377963
Si	11.633127091408683	5.016668295031778	16.15484084885057	14	-0.2357415614779932	-0.12843622383108108	0.21262243954975366
Si	5.348689976672334	1.0941383520009849	7.370316731645213	14	0.2049952556175344	-0.2950734162878583	-0.04863322846219696
Si	1.1157968351084508	15.280353722749945	9.330642081635995	14	-0.18474188767913197	0.020323559113642507	0.1513974798926635
Si	15.854960018374458	1.985811859468132	10.467060918663526	14	0.21742397873513022	0.14418218703273195	-0.027858954585932495
Si	16.05813516710928	13.979790042185378	3.5670897471274126	14	0.2428121011084004	0.12414787726760611	0.05549139479315994
Si	5.814118046159221	10.925414093393268	14.208186785077839	14	-0.18457065206481008	0.06843613874850947	0.22511209786343697
Si	2.828921421669238	13.47491442587215	12.420299783851926	14	0.0702091729772836	-0.000861834503313636	-0.017267286219582484
Si	17.386125861868113	10.76137356026337	6.303850440509229	14	0.18379597803184947	-0.26647886846983143	-0.15981707848455243
Si	13.048683889378625	13.248487990670073	9.409469290738	14	-0.49686456045542415	-0.06412413801608914	0.18724280182404
Si	14.864107182368185	11.724822562165857	9.035239975783819	14	0.428954726965949	0.07037655193362523	0.30072264889728767
Si	10.346168468232243	5.553527469038372	11.101930482361004	14	-0.08570959562086032	-0.10761746983277808	-0.029653328988863838
Si	1.298267195886784	11.892580188375506	1.0031780212560228	14	-0.14886468404178563	0.007374187168716705	0.07317391452194634
Si	1.5930583407828658	12.701889867222448	3.1555851909685546	14	-0.0244766655372777	-0.42308540774111497	-0.33278278957634216
Si	13.928909743592579	15.4722434788649	9.545124147360415	14	0.8634884953660874	-2.752787592496235	1.0455872867761071
Si	4.916974037339955	6.145452603689266	-1.0359364562595557	14	0.481321200353001	0.5508454308729971	1.6003683085626548
Si	12.759704324308796	4.544615686831262	1.738130937021154	14	-0.21827552881716325	-0.04658817129055118	0.12668478688699622
Si	15.995168107054477	12.47937093298617	7.042379713090515	14	0.23289920454656948	-0.1003913783305019	0.15033149962693013
Si	13.976577943933831	7.952340656221753	1.196410566897786	14	-0.22914744766340944	-0.47695880595630574	0.2655728109550113
Si	11.372077879640578	9.321184604722163	2.694394110876363	14	-0.03515935103196095	0.11335566268628455	-0.322779390107242
Si	9.799282249374428	0.0740438318603984	9.926292587970384	14	0.28010572666661626	-0.10510061483488511	-0.14398292637042046
Si	3.687621250435584	14.133472386314413	15.78941665683542	14	-0.088933504581794	0.04430631531891976	-0.14321365165863217
Si	3.855430203988429	6.669691874152927	1.1356340253928745	14	-0.36700034472953286	0.1434933879174643	-0.010112671445206426
Si	17.31760220298228	13.345382424576655	13.649445605662768	14	0.026833854894789455	0.0605240763468178	0.10650598100287804
Si	13.989744235323677	10.842227371561199	4.1004983990947155	14	-0.33474120049869893	0.051970523167749166	0.041368313269586544
Si	13.976427273345744	12.220007244939753	0.6556372690424003	14	0.14371398875393301	-0.289476377116428	0.010430460062776727
Si	8.90947970635277	9.636940485732206	12.511298196174096	14	-0.1531057222673699	-0.06466766968076845	0.0777363409125491
Si	16.88832348459128	-0.25003039018870216	4.068360859371766	14	0.2101683195216723	0.041613339606596654	-0.054468866207337055
Si	15.157540636250726	5.665911170544552	4.511681745428419	14	-0.19033661285577416	-0.10395698718848324	-0.19018903141039764
Si	2.529704535213164	10.501971790639743	7.710747818965979	14	0.04314571837740492	-0.31145675649837384	-0.0696067630007729
Si	12.29717707757279	9.545831140119903	7.665432397807946	14	-0.10341911195550826	-0.050854663458804905	0.09376306881516014
Si	7.42913455550498	15.833561483424463	1.7353956863450946	14	0.12526527963974246	-0.030600267078274377	0.019838648650262577
Si	11.449015911368864	9.913139542346524	15.234334620273916	14	0.19422540965249813	0.09121098967438117	0.010813811866010806
Si	6.423651770967435	4.319790333592714	16.022378221830724	14	0.1720403702870684	0.14091456928135576	0.4814317578817674
Si	5.185220667200574	0.2570042859802048	5.209899184952793	14	0.24973223107757891	-0.3553159566021199	0.15690350193576064
Si	9.159665734291805	9.782160441117085	3.3704017122841137	14	0.5132579279766883	0.3680023044727946	0.07821328094943657
Si	6.196284886380368	9.824386287358939	9.714603723148212	14	0.9785989374333729	-2.669098114325415	0.29926226107544357
Si	14.321017531186039	2.7642820836587294	1.2194234295772959	14	0.19693818287578638	0.28221120481328554	-0.25577612835365104
Si	4.44110830425629	8.849795940541682	1.8375023291670736	14	0.056674617461492084	-0.18002802318517244	0.07646647199492798
Si	8.226362440052162	13.334527519351326	8.733271281444205	14	-0.06739741219916966	-0.03526399501849098	0.10332346683759878
Si	3.6074446289237785	13.98703547617959	3.300901178156831	14	0.09275185309274592	-0.15176154840599648	0.11193461277583872
Si	2.8373242044664546	8.365214493439387	10.737940144513814	14	-0.19765397859691558	0.1315336344102635	0.177798103541008
Si	2.7705837568264546	9.610783409351825	12.683421957996803	14	0.21290500402443796	-0.022729085251173047	-0.08079389935926921
Si	1.6482584148077724	4.436172600705846	14.83724808039056	14	0.5908063210903346	0.13625958309922767	0.22947320670747218
Si	7.603496851779281	7.877250408848479	13.387909611994687	14	0.20323224869950887	-0.22470329211753345	-0.08849718800896486
Si	6.597149781011165	4.99501146764506	1.9330192034111373	14	0.014562997643850736	-0.3280136463179995	0.14853146879229445
Si	13.626748985646168	5.104537395139813	6.197736953476557	14	0.1813899376732549	-0.14385051444643285	-0.4302816744216775
Si	9.186440394511271	6.406486913970639	14.336256784952656	14	-0.01872227472025428	0.19758841541125183	0.05311235104042692
Si	15.855513029104364	10.835915764068984	0.7525515715979615	14	0.13745874662054475	-0.062128703177122206	0.10851864224748997
Si	5.03796748673688	7.79570947344014	10.113129084361773	14	0.061887533498092326	-0.9990032292540681	0.5241432165705993
Si	17.28718330139598	3.3087724745938694	11.750916721157802	14	0.2783887425338214	-0.3318116830969222	-0.42069942200401755
Si	6.402425430975255	6.730299532141521	11.728470114974185	14	0.4749158056689161	0.15367625053791076	0.16816700012226535
Si	8.115457297174142	11.362163423800236	13.938168534016624	14	-0.11692924197075837	0.026376198147803093	-0.1424952848321828
Si	11.629322245129273	5.607406277906199	9.134916020547413	14	-0.16098744562628384	-0.11067451405843413	-0.047356674670743434
Si	3.332290332101586	3.2102835816067508	3.197460024411787	14	0.44154954348722636	-0.03190304614399341	-0.2978011019220034
Si	8.650520014168919	7.511624218902049	3.7435597759141968	14	-2.226321639379414	2.86018266171882	0.5547409125435534
Si	8.302446119874368	2.65190666075629	12.897756664574631	14	0.03760627196514588	0.29273808132556783	0.6048317006117424
Si	3.549267568993572	15.002137998264292	5.456364808370577	14	0.14376438241820788	0.36243560434414196	-0.03688841935976053
Si	13.928408060205866	12.008124660790038	12.842798325778965	14	0.2749498891681233	-0.2743608489392774	-0.06753445211273354
Si	5.249297060156687	5.962819982277607	8.522352326769955	14	1.6595713509959804	-1.2523488917485832	0.6032648690296442
Si	7.050881839132625	6.746994164445823	5.264203514052912	14	0.13817068568369373	-0.3065559726476397	-0.19494454781054354
Si	8.540533796306159	3.5570511122309547	7.3627616778710845	14	0.036746237235556346	0.29600518485587995	0.32325067371242516
Si	16.827785366874114	11.653656372965864	10.414327868553466	14	-0.15421026911290553	-0.04816040219382172	0.11433859625017716
Si	14.984739684641996	6.016604415062786	13.813438122890968	14	0.03710876308569723	0.14663810683453737	0.10338723024953844
Si	0.7369298463385058	8.586051215395475	3.050049550477012	14	0.13134722927455275	-0.4569772038502429	0.14223406053165577
Si	12.636250473880015	2.9760918160955208	6.4317217538942595	14	0.03622995928727061	-0.22242863524079845	-0.3062461544565618
Si	6.125016042493987	15.595790049655582	10.736031098491116	14	-0.010910742536580387	-0.008385917112194973	0.12750856903157168
Si	7.9083299430133165	10.531206851891065	1.3981783529966236	14	0.08367842241794334	0.0804761107416989	-0.2533078672463089
Si	9.359670177793788	0.548058469147554	2.3981956033442944	14	0.1370481411009171	0.1140475471279364	-0.06397552812858458
Si	15.932889826830928	8.883541185111156	6.499311586278097	14	0.025979219486372235	-0.2734604478561616	0.14475014419795265
Si	16.668768290494317	14.761171023451347	7.413196587582615	14	0.2126262962077339	0.28438661702466284	0.11579229919818888
Si	2.632349287278315	1.8106730301629168	11.778765944142863	14	-0.007827215926126797	0.2304443131868921	0.17958502173851093
Si	7.036583034750997	7.457594739446134	7.453635911137139	14	-0.7237874877958416	0.08660485449333588	-0.3381507432637473
Si	16.187302909840167	11.559094849593523	12.668788698024034	14	-0.1172719703099341	-0.04175063663069257	-0.27990389489898465
Si	5.273715629751436	2.2840982308637057	15.71585795115425	14	0.10039086410943786	0.010215515658012347	0.11311217901246653
Si	15.399977891088092	1.5118866311013803	4.522306505469746	14	-0.28552741645521257	0.15948052079814504	-0.3420079154650334
Si	11.67511948102504	8.297614726731062	0.5951173642534627	14	-0.23440432960098415	0.31683679438078377	0.3150714734679701
Si	16.14725764782372	2.5118674555925904	8.129686561284345	14	-0.3424226347531733	-0.19119381936951155	-0.08774359703962946
Si	6.965358895324817	2.8391587430554823	10.81917477158373	14	-0.34981456254859905	0.48631685799004865	-0.17465544150819104
Si	11.815363995561517	2.1647489121697636	4.39377952666842	14	0.032687233266638575	0.17371158874516465	-0.19806664100079935
Si	1.6210383657070355	7.187609602799884	1.3491607402455703	14	-0.014669955625168894	0.001490726864621856	0.038940932736834744
Si	13.01023474216346	11.636615695025183	14.967887758866613	14	0.030625721020943842	0.33651089229055686	0.2229127743725823
Si	12.47265532963139	11.412515547474355	2.314383019069398	14	0.19272002748755143	-0.1700518774324659	0.008604718174939576
Si	3.653160734502881	15.270603183263677	13.740043333563872	14	0.1527496241805294	0.05979105422004358	0.056115916275423915
Si	7.276737050676567	3.3108537155743814	3.4060245441820673	14	0.0740272643777035	0.0717042707209497	-0.05479359680927176
Si	11.683717638870547	13.513800683364847	14.459328163888596	14	-6.706908204978674	-0.20268331771365725	9.360248014796904
Si	7.867696900131249	14.328229850765284	-0.0063662462769059	14	-0.18167430192166326	0.01931311472282431	0.009171646898032227
Si	10.485580155232366	12.498064020233574	1.6253366167694148	14	1.5569230564154526	0.8075630979948865	3.072532049883574
Si	1.9934447321174262	8.783327031104392	-0.29830955148604915	14	0.037083823364091786	0.10425266430030028	-0.09924183714186369
Si	14.709022442765411	7.566766342700768	10.18595761719298	14	0.2015543453675802	0.17519717339914623	-0.05310335217180641
Si	9.163849740622556	2.8307824517902374	2.0297530324051425	14	0.24202354310671098	-0.015451314531961895	0.07296848320686651
Si	16.312424071062406	3.6615817302283276	4.109321734961981	14	-0.018722788941318312	-0.054739603597548654	0.0077701373880195105
Si	3.486265738803053	2.2866215492839936	8.127924874408238	14	-1.0381614203904554	0.40840902435264576	-1.1952235595244693
Si	10.271536855506227	14.21688263044749	0.061365978091277855	14	0.061533492295507926	1.1746521458579644	0.40758112843955807
Si	12.886413321728575	1.6391900322697714	14.090261386227365	14	0.13042008869610733	0.18723046051850326	-0.13988021361106018
Si	3.860607642768113	4.192261754402565	9.508595636213183	14	0.20501890978647977	0.528515638278043	0.5227553339187833
Si	6.910397245087654	13.410862868727259	10.6599573529934	14	0.219746972391884	0.2545065165465619	0.34387119549054473
Si	7.060773114882491	11.277791205912441	5.94469811868834	14	0.20829012708530414	0.10599227415991246	0.20212513074865307
Si	11.70136927776732	13.402604133635139	7.486111217892727	14	0.10151623690806667	-0.05420532791202187	0.27883508641739907
Si	1.424800686907253	0.03487444611975786	1.8057787196311783	14	-0.021371798752666878	0.3311915324937025	0.0030732421891729988
Si	9.718340684876944	13.274451347722911	3.716516888933519	14	-0.2874076657758368	-0.23337408769920084	0.11283655652214665
Si	3.5675119559182087	8.062644772468168	14.282805152037868	14	-0.3292686028247637	0.2848219051553639	-0.28580072495074427
Si	3.5118416572008075	12.357511541637926	8.75139645647497	14	0.004302487642735796	0.06146638644665207	-0.013546382600264185
Si	13.881345853658463	5.297259978791125	9.658762885193745	14	0.026529436024883925	0.09766652091220895	0.13465444204785923
Si	4.811822524061999	6.8765559687147855	4.591808695317778	14	0.2529875075234185	0.09839748615472706	-0.40173726315739344
Si	5.160187825208236	11.796063258799519	10.390412638066177	14	-0.29093419383295194	0.7733555701524443	0.14077110160449152
Si	8.934524138390344	-0.1307108744682279	6.435597796165842	14	-0.0821169901570174	-0.0952607376641464	0.13299093690572342
Si	11.032524324316368	-0.1660108408202783	0.8961985922720322	14	-0.20112599922124352	-0.036477813840132885	-0.21201257336781454
Si	15.241518792600445	4.680310280751633	7.875824833284262	14	-0.040403891663999006	0.3221044749607031	0.3088185453293699
Si	7.5951122819102945	0.7993637643123855	9.881566603398719	14	0.018473648835795962	-0.4125497894707442	0.06941547276495388
Si	4.445752600955046	5.2936091145413	2.8834724531608424	14	0.18182882535140416	0.2377709349071861	-0.05889759512129211
Si	13.632052259202718	9.695892422972578	9.647244035948379	14	0.0023124521249411824	-0.09454262794822904	-0.09089242972521482
Si	8.87488507703946	7.787987191870442	8.825968463254048	14	-0.10501242592240403	0.022341105458362702	0.041945269303427776
Si	16.2236906847238	3.961027106147656	13.839762427066917	14	-0.16102909753247024	0.11351532832666576	-0.12468909493749729
Si	8.144457246079215	13.32712810332753	12.719508391704258	14	0.1855121908330483	0.02435479514510268	-0.18361805754369523
Si	3.8447259693511864	6.6797122961211555	6.703884163324418	14	-0.49540288708092006	0.06875032781863158	-1.9658205907789261
Si	10.898048340866689	3.6401600151878575	7.959506615620048	14	-0.0012924946444384392	-0.12739261218163297	-0.07922886755089507
Si	8.484515796231632	9.691355748122456	10.172973455085437	14	0.7714591228683031	-0.1782930413151365	0.252249600296536
Si	9.955060735970706	5.60678207118412	4.482978170537277	14	2.197249894413967	-4.108943061772073	4.551977161471152
Si	4.702707215312805	3.2008227932514215	11.634406963547058	14	-0.10561535011997877	-0.23690832907227638	0.23944061070209025
Si	11.604289403136935	14.803913454566647	4.155675293029147	14	0.10888271076082294	0.2057467897026137	-0.2803132148659522
Si	5.952907182158015	10.716202186810433	3.9819007776204653	14	0.5598674394413967	-0.009903640582678385	-0.39022359642323834
H	4.973901028105255	11.409965737522095	4.841335746399021	1	-1.1530425198631837	0.6929324241803404	0.9640613937321918
H	8.268500533094361	1.601759153314762	11.707127874529629	1	-0.10978773983351506	-0.7576988243054026	-0.7812393503956143
H	4.037817778729352	6.904228029579786	8.181181132274734	1	-1.1802630689981235	1.0544555432463618	1.227985354845392
H	9.867810875422506	12.27376353047221	0.3046244704197602	1	-0.25763632305277817	1.0378454315466092	-1.4321213470649328
H	5.084251504532622	4.723276234167942	14.485366028375104	1	0.0650505072629385	-1.0540349104159856	-0.47542025653272907
H	5.410264575577888	8.461685062834427	13.523577714383084	1	-1.3529942952847156	-0.5318760729314767	-2.6209441398948936
H	9.442439657997305	6.304656776513612	3.4575240823347024	1	-0.2697629412952566	0.8327591588007415	-4.176496282953644
H	13.567520543040844	0.4467714080959437	9.00048805299943	1	-0.2964188757018918	1.799160258374268	-1.2592453675488164
H	12.375946336448607	13.499823088808371	13.494256555652855	1	5.680710394753399	0.061197963051228606	-9.321820788903032
H	4.021979154051879	3.3659279548224235	7.129435854311175	1	0.1552747067154468	0.37152780408778163	0.1353882355062295
H	4.729690496346547	2.4623067664361207	9.06168349185364	1	0.7176633720337807	0.2793032846961981	0.25643613108933305
H	6.904580698099157	11.064895320664817	9.470908120542202	1	0.5291869538771337	2.313399834362189	-0.5624598849357021
H	4.777699775161934	9.906857737827778	9.430437338293459	1	-2.084384541512235	0.8723716642471989	-0.4147395998719143
H	10.121248738911044	8.011991307617874	9.75640736059927	1	0.7056226287089953	0.5205210433955747	0.6235894565854148
H	11.846930311626332	11.390588837605677	9.59389836916148	1	0.6658689695804617	-0.8755310384645969	-1.4007338075376292
H	15.273455990112861	14.207469857993859	5.841768582654495	1	0.44779270142561	0.5004877620725768	0.02024154085392978
H	4.3520255608398095	2.927955046782521	1.96862382238086	1	0.3248874393592314	0.18337585942253729	-0.5190058910304113
