233
config_type=amorph dft_energy=-23335.85208162673 dft_virial="-72.04576424197232 29.619757707383247 1.8439057357770317 29.61975770738324 -86.70400611081385 -4.751292191969325 1.8439057357770319 -4.751292191969325 -50.75997522194973" pbc="T T T" Lattice="16.48769933091906 -0.024897745570203002 0.16752390396904804 -0.024732859837950004 16.391076291818802 -0.013702004350224301 0.16656756672198061 -0.0139658215218291 16.29798180738876" Properties=species:S:1:pos:R:3:Z:I:1:dft_force:R:3
Si	8.335870743772606	4.095995726904319	14.6893500080992	14	0.1837512407992789	0.0306406334318007	0.01609537641465899
Si	7.5429550436558	15.173466059995267	14.069198280522441	14	-0.08439241836534846	-0.1660728348390047	0.016338602977944996
Si	12.447392111225868	3.451515109533631	12.769268846871595	14	-0.12360306005026674	-0.5662044427239658	0.34975876956315183
Si	10.87623389230545	3.8828232079610285	3.1210676135253936	14	0.11429180213335045	-0.3663691383734365	-0.028695335146576666
Si	1.8718158096825068	13.307625709249608	10.208598371554473	14	0.03738335713388904	0.1795063459157144	-0.19429328683295002
Si	1.289365204785397	13.66314737856156	15.703720437490366	14	0.1379475137419049	-0.10899018296320515	0.02337031891801798
Si	6.991468330418481	15.14014595122158	5.549793228179021	14	0.22084971946369553	-0.045836380094939885	-0.16975131522054057
Si	1.76275214208376	5.786082726784183	6.001281691376863	14	0.09345787861365858	-0.029016723311595174	0.3504776506106652
Si	15.730212628091456	15.939935737516015	10.805568814033784	14	-0.3759357070486435	0.13831723868694218	0.12322510756820496
Si	5.530536223509193	12.959055622409444	2.9616494921539034	14	0.8019884274397413	1.0973001851907773	0.25872415771373286
Si	17.095034490527794	5.787083583178958	8.204972907508918	14	-0.20104578073525495	0.17081858103893405	-0.1490554600565406
Si	16.812049352548584	9.407613163701205	13.245175238158783	14	-0.11502533848118872	-0.0160521818452805	0.21384782834533625
Si	10.339774864705669	3.2640548716778732	11.734772465001628	14	0.06117610865600735	0.0690076954611784	-0.21213830041796983
Si	14.605035688911629	12.768324051625784	5.081290206269991	14	-0.161389309387823	-0.06955919755235015	-0.006436505058458701
Si	13.560820941982671	6.372934131875125	2.863672741191848	14	0.4069985159740125	-0.4113539683863433	-0.23812266211498231
Si	4.7253101546223775	12.131753002831275	15.920235190226427	14	0.03783715722289518	-0.2084559633784537	-0.22849335846996371
Si	1.7102525249344047	10.532249277679242	4.014347610007279	14	-0.2379941068489749	0.4889129030318022	0.05763929617761165
Si	16.73574518223386	7.194299216234864	5.032431266088783	14	-0.07482019325843717	-0.024198471941637673	0.2409400793248006
Si	5.2878574027792276	1.818237839844217	3.4195652011949673	14	0.013841545491017185	0.07179760184407108	-0.17283561316259022
Si	11.51509685277828	6.38023692095661	5.880054403309812	14	-0.22774619526392872	0.13654343312657202	0.14996280312402088
Si	13.534528263117608	9.155473199654562	5.73415856084039	14	0.2842529195480151	0.14307661174506828	-0.15962527402766938
Si	10.985051880163141	6.682431246743295	13.002887196614259	14	-0.15744214850033164	0.09106186556581257	-0.20779338953745155
Si	9.240323397471954	0.4500424153259833	13.69766290889408	14	-0.04151923715187924	-0.031605569258452273	-0.0648196220051892
Si	7.895700037236611	4.5105926563678755	5.329316271296922	14	0.1753509254972911	-0.06034924118504773	-0.4275403619293356
Si	14.639815036415754	14.262294312706608	1.5234122574319178	14	-0.5128596637625974	0.06310598030931049	-0.22988715466401602
Si	12.765924964221506	-0.01854469830649491	12.375064984773092	14	-0.32789717524699674	0.27604723691876254	0.018171543960678563
Si	10.5105321778842	15.79496490400453	12.026766959391143	14	-0.0690094952349025	0.10128098077127314	0.10446426626814845
Si	13.824402326990349	3.1981582887829614	10.880387363900903	14	0.2955824951412476	0.2945525103499963	0.33947152006670733
Si	16.273926627910367	7.9568330713267335	8.61149868037869	14	-0.2907254200809559	-0.6150479876013508	-0.5473027048523651
Si	10.336904204107144	13.516844268333472	12.412098320237114	14	-0.4786914738315535	0.0014393047582188948	-0.41254670414436
Si	12.311125595520021	7.816464198602432	4.210254943926358	14	0.07679454503377887	-0.0381153508185352	0.13099061696664818
Si	10.00467923990522	3.1768385636026486	16.06937928162123	14	-0.06001396905130042	-0.07766075041613676	0.01105780976089286
Si	9.812859423288693	6.671370711823765	0.1782958888571365	14	0.06449566273485054	0.010729479611509949	-0.2768972443376035
Si	16.59380000190922	9.086231085252237	15.547677527058093	14	0.5202299942733338	0.25044699835658013	0.12457365230862263
Si	9.49904065337817	11.41257585103533	9.143040815442687	14	-0.30232496173280393	0.12888385326731885	-0.2613040047919694
Si	2.7326298054837763	6.0959030176875695	13.365393425544447	14	-0.05942055794341024	-0.03376992571695293	-0.0874957424867672
Si	10.839701809467476	2.053734238077242	9.742723628217558	14	-0.28398243926833555	-0.11853438302212681	0.19242743570211857
Si	12.79358784352159	15.555394179327536	2.2507133292559653	14	-0.18926703304259257	0.11720126491363003	0.1843140557538593
Si	2.190742739578227	0.8681316245986578	13.945562011907175	14	0.017756567562006664	-0.010832066713783856	0.0630833545824932
Si	6.48668879855647	12.354582879112623	0.8918339486100264	14	0.1759782751954072	0.1910176986550814	0.04210570627540502
Si	10.277512363349613	0.2718833816266168	4.575077817394701	14	-0.17726562762920536	0.25080283933288866	-0.2456228334443863
Si	12.426379073507546	10.411435852800146	11.583089133330125	14	-0.33982890370620794	0.39526681950870884	-0.19667361613834314
Si	9.399091869058369	10.96228775596829	15.970911171177063	14	0.23511215489562096	-0.039761372444494	0.11666004724373887
Si	1.466259564918383	-0.2432097527878201	5.949306410856073	14	0.038453194057602655	-0.5461516210005348	-0.49926700126657053
Si	5.920728415741982	1.9407232060483581	13.35184641378254	14	-0.2020744799738462	-0.2540424320362752	0.31820333685844243
Si	13.579868541772536	1.2865011396161623	2.9709655360261977	14	-0.35850027054112327	-0.05635554329126171	0.30119316117087475
Si	1.5065972104567569	6.655071757190556	11.477216004650476	14	-0.09868622128217969	-0.022673292265725835	-0.07858069189968574
Si	4.546931822899115	15.832609965535214	8.868354376367767	14	0.25934405120642057	-0.7301131782150018	0.33465532558100597
Si	1.194021678967422	9.596809648317587	9.416423008375483	14	-0.23302158915980853	-0.17808169645782035	0.636547570288429
Si	7.090642151796693	4.420785993438957	9.100823472556629	14	0.1696474425656066	0.20858606130765323	0.03529022029275649
Si	10.869920417617484	1.1172706683182956	15.30979523227937	14	0.046733952962203576	0.31494137553877055	0.22103458193621417
Si	0.5861358010129645	5.585913096686363	0.43395781214470314	14	-0.031152540501042183	-0.10719529433920977	0.3461376248302553
Si	1.8482420965422954	3.654735125678131	4.961848630683241	14	-0.1604192313505311	0.03927054843887773	-0.07990609669222208
Si	14.890114875690452	2.2546112279664263	15.108390608046975	14	-0.12970840674349038	-0.3934521333737483	0.06998600103549474
Si	10.950290670089563	7.478700722654128	7.914508552714711	14	0.15106940685381262	-0.43560926175555625	-0.6210859713351865
Si	3.762370882835567	9.214569894951358	4.351415268165474	14	-5.159136740839758	2.2735150488623277	0.6393446757662181
Si	7.602490335000391	1.4088315132319855	7.612510440949405	14	0.7163855326896671	0.13151537956249043	0.26591862462057125
Si	6.081574447554783	8.291625306379837	0.856388462747599	14	0.407546161407204	0.2610294107437776	-0.030038737676354038
Si	9.169457158606939	11.251850185807076	5.0737714168792545	14	0.12443404128973858	0.23046539625051732	0.3004786510024056
Si	16.452990884279803	3.5915575085080715	1.7558533230462945	14	0.11138413912679501	0.048941503990082715	0.1859996724017484
Si	15.842697674634453	7.474946274530728	12.211940232140552	14	0.28473988689565116	0.23550219157268742	-0.254160702881002
Si	1.5620186027816352	4.875392445833702	9.986207091320917	14	-0.2165973683747026	-0.12682079835843205	0.25398432505603985
Si	8.13690148180559	6.059657836023715	10.370219366308865	14	-0.26160662388815087	-0.4107096493931142	0.24421952416064943
Si	13.557971716529337	14.398071117787664	13.327880272599566	14	2.6842786914671652	5.187546169074733	1.605773543277202
Si	3.2061601933691994	10.642351725391181	0.8158282214706836	14	-0.563535121180588	0.10123110132806225	-0.7410416613782912
Si	2.991681779426465	2.588872530961676	15.461486808237485	14	-0.17447854946216484	-0.4123345879554478	0.09118425017905163
Si	7.456455988515876	14.208533319705518	3.490151134315154	14	-0.3473056779771986	0.42935839050121233	0.06523099885641288
Si	14.46188519388422	1.5033456638167277	6.702210939184366	14	-0.1262554122985315	-0.27707182238884154	0.2655435003543616
Si	14.297093446498602	15.64470948277434	7.257109138222	14	0.15522199905638379	0.0806530027877251	-0.16176546209616063
Si	11.056900837992385	9.047192739284016	12.997066730265727	14	-0.055166407080693224	0.018967815278328422	0.03045731362247414
Si	4.147139983334555	11.576501948326618	12.519437283076496	14	-0.43462041464942736	-0.21517246180627655	0.05481082321491675
Si	9.81358821822525	14.850557139665636	8.137284016704417	14	-0.3202946739258509	0.20180142858884642	-0.20627772295122423
Si	2.642971539713885	0.6210866296786328	9.653860111677124	14	-0.04879752209215442	-0.41903668819347784	0.3859321645333792
Si	1.599406442570003	2.0577376636563445	6.694245309459223	14	0.09346816303493917	-0.10923880884766345	0.05377389643930102
Si	15.583065302914235	6.967149333768486	15.930665861648752	14	-0.2582685578510026	0.5828119833183981	0.6522719362053907
Si	15.160497797153567	9.441480693105971	2.542602296776839	14	-0.2328007312128078	0.11409536968689116	-0.5321005304259255
Si	3.9288823884085815	8.994383136958026	6.7279974188514124	14	-0.5552952428505774	0.18658408464101803	0.3157008800503423
Si	16.390662428630847	0.4144732651643661	14.747625572449378	14	-0.06533281462709074	0.026578801247030766	-0.3581637128547159
Si	4.356983459343658	13.986804880115619	7.4102846857703915	14	0.18081092475515756	-0.22108317582676495	-0.1237863798595933
Si	12.975029752150114	14.24363749210218	5.858582983255826	14	-0.23709447709745513	-0.18291588868076275	-0.26180125656088604
Si	6.100410993607366	9.552541126922302	7.3776125779244595	14	0.18842139650279588	0.04889291009953192	0.09315525951747713
Si	7.849675482792831	6.770564319489846	1.563857078696256	14	0.2646685532139152	-0.03205988356852244	-0.02512381274635897
Si	12.628914813863197	5.401097625975943	14.060065259812948	14	-0.14138251044962272	-0.018580606817114122	-0.17754767788282558
Si	6.55073371467818	13.262336545171678	6.94546850883454	14	-0.07321248110174858	0.22684527995974882	-0.371863590442593
Si	12.892934794918668	1.0930687405382005	10.271902950738369	14	-0.0832765586564042	-0.37892204587799544	0.0035100729830661575
Si	10.590033482547305	11.200844433391932	7.051930279578334	14	0.1195882790928555	0.0028287300732269165	0.4681926223672608
Si	15.796867685354732	15.185441710728801	13.079349657231942	14	0.39488758147398695	-0.10768277590790981	0.28534975307759025
Si	16.37304933471158	15.494750855862204	0.39770603505155855	14	0.20383260179176346	-0.05133700281686469	-0.4977191958638414
Si	5.364387466547135	0.5754281215604546	1.38694952770469	14	-0.0016470500680868594	-0.1452407110930369	0.12687967667026345
Si	11.167524324618245	12.166626335202784	10.66748031098654	14	0.14466041262227952	0.1409917024409602	0.0756663440192979
Si	5.744731033992453	8.72604644743217	14.856723866051897	14	0.05123313016193069	-0.1302334264498646	-0.4690014921009794
Si	5.6389551878948305	16.062134202546034	12.953836988983635	14	-0.06723543256400032	-0.004085486353715298	-0.1843294823857802
Si	1.9598186227005778	2.364965950848714	1.386191053336326	14	-0.3742423770847939	0.0017969455082514922	-0.23672012416284155
Si	3.5271481949180825	15.476621669600988	1.4310910870861406	14	-0.29073030518106413	0.00963701696097903	0.2798437310344932
Si	4.8418810696106025	5.223011141998767	12.91832060225634	14	-0.15529913221598823	-0.09986584440306363	0.20493766285836307
Si	11.583230935059863	4.935692806975948	16.15546612243052	14	-0.2647760254162974	-0.18684350916782097	0.2493229111106114
Si	5.320544350341062	1.1131106012935525	7.353664574172034	14	1.471868578430166	-0.7779928157078634	-1.2392925618223392
Si	1.0221860130999583	15.291558870292187	9.314836908734408	14	-0.3515048071860644	-0.03752425370543316	-0.0643285408890409
Si	15.781302472230047	1.9262676739017375	10.459861143505531	14	0.09567545695228628	-0.09710139196284041	-0.09172623918053883
Si	15.915003365942038	13.975566268605252	3.549569356789845	14	0.2686383398282238	0.10241766643331059	0.44527507509612096
Si	5.768880198338227	11.006071513310753	14.189411521336137	14	0.23626349585798323	-0.10025022464842576	-0.02217578338627718
Si	2.742565819709342	13.509905876720266	12.41418082703547	14	-0.1110648078460326	0.18200726006062243	-0.2750187947907033
Si	17.18658564450395	10.72148863258601	6.305083653053015	14	0.28456813706026524	-0.28744957479255523	-0.17246691665968097
Si	12.889646973417545	13.194543776355856	9.38103358366202	14	-0.23611925684952295	0.0568777347817838	0.30387199580393703
Si	14.707459408072548	11.6818721755229	9.032071068779093	14	0.2697395442368432	0.0854817956894952	0.17965701268747508
Si	10.280303878796657	5.51003103384621	11.107103596891456	14	-0.20388093857178222	-0.15743006430532694	0.01998365899031893
Si	1.2718988591678366	11.977873393206162	0.9782522097411464	14	-0.21227842565791785	-0.12517991894311356	0.016542748740364755
Si	1.4809987005244787	12.783272592111844	3.1236546706644432	14	-0.04954262841393334	-0.6171285260264147	-0.20342431026692392
Si	13.788671588811123	15.41029803265954	9.531643509216556	14	-0.20142039078040053	0.20882825942881117	-0.15337388855226133
Si	4.59451124979804	5.188586298818986	-0.9443978711949603	14	1.23062536578812	1.0743150178497176	-0.6122881631507039
Si	12.7034613022721	4.503469592734546	1.7302102939663078	14	-0.23117733531366633	-0.06987544350672836	0.11721437755076279
Si	15.817056294411788	12.441692011461882	7.035964394124275	14	0.2346233877742608	0.07067968525087069	-0.16969192268764516
Si	13.910997015854978	7.893632370154158	1.1621756486400776	14	-0.5362158416013545	-0.015531018796886486	0.7348805216996204
Si	11.231227927274192	9.250737580321056	2.620334377532871	14	0.38263369351816123	0.054395075484648794	-0.1809021989940228
Si	9.736133145499405	0.01162279526651397	9.943213136635947	14	0.2557995254120644	-0.019559426612494497	-0.08135928541916977
Si	3.5785496730906323	14.182699023176117	15.761687665521231	14	-0.08098210426870404	0.032753567783898395	-0.1974824858720617
Si	4.176885369432997	6.6723616750746055	0.8976033003815589	14	37.313243863140194	-31.54606513958596	-1.2014672316839168
Si	17.163640146003623	13.294777812992455	13.629842109503775	14	0.09933671092817715	0.07033618558009891	0.0761006037078709
Si	13.870740164325408	10.784812998057776	4.0566952126218165	14	-0.143088953050605	0.584700203065515	0.28399375213174416
Si	13.897115286056598	12.146261298412215	0.6103558662236076	14	0.27417418669303467	-0.34374032622974926	0.05494426358103243
Si	8.803890650486135	9.57610000034661	12.515818041253542	14	-0.06662273816620905	-0.18349747270418026	0.03787289558684523
Si	16.82789322256077	-0.2647636157079322	4.052680245041457	14	0.11607332100968108	0.13414999118404616	0.02061255135162715
Si	15.06815024509063	5.608319418842223	4.48419445063417	14	-0.12179403034701053	-0.1596460999807626	-0.19798950784119493
Si	2.4305855257134406	10.510660788755356	7.693954099538453	14	0.2312830077423244	-0.18343139529745248	-0.7396535216159432
Si	12.16282407021703	9.49584681674443	7.638781684669277	14	-0.1663505142135807	-0.08204988430816154	0.014769200290526611
Si	7.355913615559965	15.745939429233747	1.6916929869120072	14	0.1658051827751773	-0.07577818710072434	0.052374958034608454
Si	11.337880965467399	9.826797214236038	15.22263333649579	14	-0.0683132399142064	-0.08382317564746768	-0.13450377527609855
Si	6.47404536060731	3.8476052644091103	16.103180856733097	14	-0.0006384054509927681	-0.4450963832763707	0.04740835388767842
Si	5.16049966318701	0.23043440625285766	5.209165687061483	14	-0.03388099746678333	-0.2679675384501972	0.10940515936187703
Si	8.98084272062541	9.679193155580476	3.253909452572346	14	0.5805620090527366	2.5222039254009907	2.8373268209753637
Si	6.126764680193363	9.802042919252896	9.707505684665637	14	-0.02126072700283648	-0.021014415113166297	-0.29154380290435905
Si	14.300094366825608	2.7508876026161513	1.203655952302965	14	0.18461230397099646	0.2916510179962092	-0.30129009184144434
Si	4.83691306249782	9.737702857670453	2.2620129484872638	14	-1.8271030309936374	-2.965630632882457	-5.545471283355739
Si	8.125654626008613	13.280843319759754	8.708332773216231	14	0.03022668547525686	-0.14829878376082106	0.11515595063145224
Si	3.476142442502939	14.04261210505397	3.2824214933935347	14	0.005604752487390797	-0.19315274451293235	0.09389470940755172
Si	2.774434934039202	8.452873659379335	10.713620285442897	14	0.25691075713143235	-0.6542773983551061	0.158993553450509
Si	2.689276399902495	9.67815932203925	12.66567443901168	14	0.09530136112820474	-0.19805584235845472	-0.13033472799947843
Si	1.6773149510595453	4.540550745060923	14.810000196103367	14	0.49135596730700687	0.16163125039844892	0.21077278638243915
Si	7.460917796430643	7.857558669651847	13.461071669398896	14	-0.05251636882721661	0.15249405631170668	0.23286912261432374
Si	6.651289278492672	4.790172903976063	1.904914971574974	14	-0.058007478459456856	-0.48419595321145853	0.1710846904395694
Si	13.537237335698524	5.049213335917494	6.1741314044976825	14	0.10326201742044722	-0.003963615961540278	-0.34610008669258113
Si	9.057188112373193	6.334148061077252	14.328258498751742	14	-0.046908273902909615	0.20571105133866363	0.08619219208945211
Si	15.790135400906841	10.782232536348015	0.7588931781237227	14	0.0994105016508654	-0.16232981971393315	0.021130371963104973
Si	4.968955205743345	7.786060918432301	10.13918807370525	14	-0.03779267710085661	-0.1125732753373635	0.11527242170245496
Si	17.18273391379852	3.2641653451184824	11.760733723544863	14	0.19301596170990046	-0.09249911343977535	-0.4059893571358543
Si	6.303969025502985	6.719514047926996	11.78762163990336	14	0.19475274335366052	0.12004516450824583	0.047653894445752555
Si	8.08887026800029	11.357932719366687	13.93003472250091	14	-0.14605600859005588	0.05335223516679674	-0.03011124284638221
Si	11.558336487204306	5.558645943143684	9.1388263361263	14	-0.11505516330290243	-0.11844979365709393	-0.047759823984942655
Si	3.365217214987056	3.2495498738115765	3.1506810910380323	14	0.006662762326631732	-0.02352021435818261	0.20294402779312024
Si	8.546716725033807	7.407272223442129	3.6898294049308595	14	0.026691158549521237	-0.21213624353371363	0.6802638169363748
Si	8.314270712847465	2.5649640997849907	12.89289027577096	14	-0.05191652995602605	-0.02342714034559325	0.08419212926090892
Si	3.442481020263489	15.006844080981642	5.448904595185378	14	0.19938793202482344	0.3573103629989588	-0.0667230112736948
Si	13.78512324785304	11.976061299008702	12.795668701462624	14	0.8591646675491943	-4.904771120864739	0.9192873943555369
Si	5.17670133523819	5.944061395713104	8.552977436287454	14	0.3447289162253461	0.2129281439723193	-0.10374512811010304
Si	6.964001665139777	6.688057147927768	5.239743746107802	14	0.0684816473126761	-0.38728353748964905	-0.16653871912301554
Si	8.481491227069167	3.5547550130692023	7.393913181414991	14	-0.08452405895774004	0.16456333890554578	0.17719312245917718
Si	16.67142820465393	11.607431213982638	10.406632731419617	14	-0.16215447033109906	0.5938939614693004	0.0974747164553259
Si	14.926521645371915	5.996030080804605	13.869228162160649	14	-0.16459727749577172	-0.11106866450401283	-0.004983830552575037
Si	0.7464756336277493	8.595198076888158	3.0387978774177595	14	-0.11080204088231348	-0.3270839346342339	0.3973275604228075
Si	12.558808698223865	2.918118009981789	6.420731207940625	14	0.13738572722945253	-0.2022950808103149	-0.3086352255200434
Si	6.017029927664347	15.559389360620026	10.66199291381716	14	0.011300007882050806	-0.12241469517129429	0.08038046562378938
Si	7.641442940387839	10.22572999913556	1.2500927210773773	14	-0.08202520169708812	0.44224785569217867	-0.014407445771981775
Si	9.341249954184017	0.4656950178887606	2.3844587421156644	14	0.0701868043609983	0.2291502758792616	-0.023586548875442433
Si	15.781452518246398	8.813450725242165	6.466839854107853	14	0.037617841939086544	-0.32088705659161304	0.08862034395379996
Si	16.49823058263806	14.723263705508998	7.389411800924484	14	0.10048393812202722	0.393724670537684	0.04500642729759608
Si	2.5817560627576364	1.8127207632430316	11.761048655293468	14	-0.2929908209785384	0.06703488634902877	0.315469994792593
Si	6.951071326016497	7.3958670773421895	7.428990972094494	14	-0.43783609607333646	0.08203034390772841	-0.3859365354124234
Si	16.041404768287187	11.5003956408906	12.662749366121512	14	0.06234313336082257	0.1356090934532302	-0.2671003046257112
Si	5.271850295892106	1.8839085292859417	15.680296770366505	14	0.33226368341220425	0.3588327144590184	0.12877252440695647
Si	15.32900277122952	1.475201318178463	4.515918465519648	14	-0.23891404833252392	0.2522814820025058	-0.32738064018817903
Si	11.595988144164277	8.215540434089013	0.5364722184583609	14	-0.19599484433382403	0.3381705407747124	0.21443404035833
Si	16.07580322974981	2.463391191002498	8.118421088934673	14	-0.31306601131825457	-0.1164975533875055	-0.05232482148086558
Si	6.877949450334259	2.785653759261696	10.858925836990853	14	0.2837397269261136	0.2832162498829314	0.006996491797186952
Si	11.767485794280622	2.0922119725558015	4.37998337013563	14	-0.03252139697348902	0.20595864878099387	-0.2881658847347485
Si	1.940635816610264	7.224173213204463	1.4904631415558007	14	-1.8576349066703957	0.38290545935050085	0.14752385261732842
Si	12.921001644262773	11.536274776228854	14.938604471831415	14	-0.09403714864228793	0.6556899636179955	0.13072425045548086
Si	12.358127922356063	11.328302753280822	2.243173104720036	14	0.20429848607577428	-0.14470386430219	0.16073959107342156
Si	3.551854673038872	15.323047098580544	13.717023791575228	14	0.1865383189663194	0.12331818158079433	0.02562774938910799
Si	7.277185624981125	3.169255468776333	3.4680020339016084	14	0.29511403975191663	-0.02478956905473972	0.1393634214417104
Si	11.559139480720377	13.402642761317722	14.442529257775039	14	-7.536189429612852	-2.357311227903934	6.663049519095992
Si	7.745381959428164	14.236334703020695	-0.06534421569186391	14	-0.1337273014694138	0.06736013117202751	0.029280775827974382
Si	10.339141703493818	12.369234625280624	1.556935175656275	14	-0.18262201134266984	-0.31390367743155884	-0.25268026043766073
Si	2.185583465016031	8.78145464889847	-0.19746880180351534	14	-0.8995202224331745	0.47927614318135514	-0.5840468852036653
Si	14.586057341129308	7.528079052891935	10.179075581194574	14	0.08884017345867261	0.12773765451559688	-0.07301990531326946
Si	9.139830490235719	2.7544738672926536	2.021024206512892	14	0.24470392040296537	-0.09695689584384809	0.0386483409514019
Si	16.24738332273228	3.6126249585180377	4.063092779033234	14	0.0009952748694293215	0.011185336584772203	0.04017377773784575
Si	3.4511803914971577	2.2909569899269555	8.13263259019756	14	-9.335561032844437	13.80030136213456	-1.704652083237329
Si	10.141803161418784	14.11991383404882	0.01659245123661939	14	-0.0975508211728023	0.28012398151438933	0.432322360714279
Si	12.83961734453734	1.5791865052238176	14.092295473896444	14	0.1059683628804351	-0.0034347395971858186	0.06708373735011158
Si	3.7739458612397274	4.202419573929696	9.513774842412298	14	-0.13538977816942158	0.061401594592584326	0.29918821324222333
Si	6.8101715212343406	13.382386549110441	10.625048616648552	14	0.20138979462709078	0.018872427270950932	0.2961910757705267
Si	6.950072118479043	11.160498543566945	5.883531843403028	14	0.04348767538498461	0.15741489478393808	0.3586429668863915
Si	11.557690135133873	13.341135436615385	7.446587577440535	14	0.22540597520152988	-0.051423649066153675	0.07698892059598206
Si	1.4360508499123106	0.09223048319303809	1.801858091202204	14	0.13890190803674385	0.5496992321212751	0.055724079824633344
Si	9.59445178234637	13.172336965936022	3.65410855989557	14	-0.09377335323644075	-0.06816334447404176	-0.04423715258580777
Si	3.5366719948130156	8.14491163067844	14.208744373442801	14	0.13075278972453452	0.000358669192160657	0.3815327462200738
Si	3.417215579510362	12.356586240759498	8.737082249491865	14	-0.13105797992603607	-0.11256710468459513	0.35780324388883117
Si	13.806733171922117	5.241178251978403	9.672328962546784	14	-0.026053010209060486	0.09346610615068304	0.05261767037683044
Si	4.727204691685964	6.8485635151321285	4.530960990873088	14	0.46404877192277816	-1.0790445660861299	0.31688795937665465
Si	5.068664905751379	11.769726591381943	10.359541366288159	14	0.2207628161038745	0.04525479607152238	-0.4606428287051781
Si	8.889245398644222	-0.17705100157862635	6.428782578246539	14	-0.06487335810638027	-0.08170509908472968	0.13242220840890664
Si	10.99961129032108	-0.2796033316107023	0.8867884452030848	14	-0.17389747965981137	0.022997251536064495	-0.23345584884838153
Si	15.13098984650957	4.6214403875896	7.86705608782962	14	-0.062104020566048794	0.44169121139036654	0.2375493056285893
Si	7.543636021730006	0.7743891392408596	9.871586774545245	14	0.10311083642762252	-0.3083310637606699	0.045799356178329746
Si	4.5103205949096585	5.308893524500065	2.7728075118618647	14	-0.27364993831825646	0.28627946476135585	-0.3145729361463933
Si	13.494462679037449	9.639960244448197	9.618648763554496	14	0.10858934764379405	0.047166927098116505	-0.07860151785277894
Si	8.77924518008628	7.7009980180203	8.82532909339367	14	-1.9834881980968562	-0.12759315839660454	-1.2145603284162387
Si	16.152907095865956	3.9362841089294185	13.863218077220026	14	-0.1798652722184071	-0.14381040520343855	-0.06158851394935911
Si	8.035961734234949	13.319926184875683	12.69631185692161	14	0.26604563722338653	0.008603689732811516	-0.10214770037469503
Si	3.8210058980820563	6.623214184861954	6.680723030557155	14	-0.15655537427541255	0.4091744424064538	-0.3019017577971076
Si	10.838559151342961	3.5914305464942364	7.96751931563405	14	-0.002226577207248237	-0.1706550587405726	-0.03291194787161951
Si	8.405624003944917	9.613474649276396	10.165988600625653	14	-0.3108774864697445	0.5471517809700724	-0.02715729994406408
Si	9.869273427721735	5.538012142609544	4.459593499382022	14	0.06190038902469307	-0.2709222526841114	0.0772532302228933
Si	4.604066377982101	3.2124967520596823	11.638588021949163	14	0.14091456928135576	-0.16268977445875388	-0.0955386741492544
Si	11.476971973766739	14.72599586209243	4.10699030753095	14	0.08314080429550037	0.17549850694266758	-0.15854103891416294
Si	5.358611519346312	11.031280892914914	4.194297302758913	14	1.5217431365409304	4.426733993337163	4.941891453924376
H	5.892955063001287	6.2528099293568475	-1.1502263796237029	1	-0.793927755150545	-0.22714172840316188	-0.05898835513909335
H	4.9127423619036525	8.47590819617508	4.5403660730408	1	3.890189821586426	-2.3191992195223152	0.5664052460494692
H	4.444785111768381	1.8659227936117846	10.781465817693038	1	0.181426704479333	-0.4827777315168648	-0.24309389425148864
H	3.503714634650286	7.237838942693592	0.9245110030279261	1	-35.182879473856154	30.477128102734397	1.0762706005562224
H	4.0649906138114655	1.3527027611157416	8.271357552171299	1	7.17940691453612	-11.430725704742986	2.457340851715891
H	5.138531937078943	9.823619866175523	3.6036353883956043	1	1.9877094388114753	-4.5595817196765545	2.077366966651423
H	13.688595842477488	13.338243340871667	12.373793715777419	1	-0.2185922889926055	0.45701448487738505	-3.1077641631960953
H	5.038019243554837	11.07480742851506	2.766019166265009	1	-0.5555451542876958	2.519320173673912	-2.4527673695724115
H	12.411090868413048	13.586632154509553	13.605035051086313	1	4.221959338556097	0.6870350799075168	-6.2061857009903685
H	3.5247045883660926	11.44598829581908	13.97831986033388	1	-0.3061163136378943	0.055848778432660534	0.6576370616769436
H	9.884134578769697	7.885409518686702	9.669230759637749	1	2.7044238158715896	0.5083188346566839	1.911623490403929
H	8.873970384408304	8.788106139337556	2.2227520067805018	1	-0.16999377045223055	-2.6695254320296233	-3.6349824217295916
H	2.2182984431523485	10.771894200935751	10.123954280902396	1	-0.2388235454252547	-0.00904771962160109	0.4838339415823817
H	0.2772025953490985	8.919257899628914	10.693504226108029	1	0.2825202516727673	0.5348297587232628	0.12723526053603992
H	6.199472692687646	5.960269663193574	0.7765656309065992	1	-0.046818799437768455	0.21642818964463686	-0.26619193311610295
H	16.49427497392131	14.570137623680282	1.7669072625365356	1	0.287168038759999	-0.408223904769595	0.5106289727868368
H	16.562244170470642	6.373649735953102	14.935878910677275	1	1.121270342979986	-0.2618454795723926	-1.0221035821134705
