72
config_type=amorph dft_energy=-6954.487223036632 dft_virial="9.843097963148155 4.595793503366132 -2.8387263100977997 4.595793503366132 0.7911204470764361 6.18558085647363 -2.8387263100977997 6.18558085647363 -12.759804349110402" pbc="T T T" Lattice="11.105996452100001 0.0 0.0 0.0 11.105996452100001 0.0 0.0 0.0 11.105996452100001" Properties=species:S:1:pos:R:3:Z:I:1:dft_force:R:3
Si	-0.24288925300707223	-3.1387078601144998	-4.754956860190741	14	-1.7579282136866494	-0.10517954776821366	0.6866864380261047
Si	-0.00044979285631005007	4.8228200515112984	1.5779288699179161	14	-0.9215440534950309	-0.8594940261407054	-0.2833491760279831
Si	-0.9109060548037257	-5.379139404590601	-4.072935396867989	14	0.2806433447890592	1.5054163606474582	2.05234985477585
Si	4.953433233385866	4.530068206233232	0.4500749486199334	14	-0.5195743624166961	-0.8475381292914848	1.138550998947233
Si	1.1278194927089813	2.920294002088565	0.5286798597089616	14	0.04366842408899101	-0.5456003760198951	1.0386702421333127
Si	4.157957352707041	-3.135428259362194	0.5877037884532922	14	-1.1423976296167067	0.43138390727242487	0.6571999737725185
Si	1.4910044568866196	0.054261677465670184	3.498065697914744	14	-0.3155317013202766	0.744300794482111	-1.2401137728615945
Si	4.666111109773231	2.478393066857377	4.926431224211875	14	-0.9270999549813389	0.3348905817177995	-2.3909353719492343
Si	-1.1569427472053229	2.094663119842999	-2.4572194846214486	14	-1.1617837637306232	-0.01960416384506507	-1.2009643234832958
Si	2.48618059156959	-0.3580406666210259	-3.949109089425301	14	-0.21340816933559095	-0.4038944205209977	0.36370701592495513
Si	4.180253751184277	-5.007982556159645	2.1399900231629547	14	1.0946997692699794	0.8472956740597949	-2.2215663800897993
Si	1.8741646662830054	-2.622410075849984	-4.312632786494729	14	1.8964205446458935	-0.6906703657196741	-0.5662707772412255
Si	-1.7927266154990467	-1.6619035302915346	-1.2250935838339894	14	0.9514802040691112	3.1537794922213176	-1.6933129945544119
Si	4.729008810080055	-0.5119253534613235	-4.556705938723595	14	0.23714538498279403	-0.684958141029901	1.152280444246292
Si	-5.369853680957	-1.8711016324615164	-2.7494560116641367	14	-0.3498567286758495	-0.20427226080150873	-0.38324330258956835
Si	-1.7374309697636858	-1.5447907977041402	-3.6884191453048025	14	-0.9004954426811067	-2.4434748807243323	0.46793834005109824
Si	0.5052184422039003	5.3203520335707	-2.019958634707948	14	0.5799943089980479	0.9987558889222699	-0.44342182238135824
Si	0.9106550592839082	2.821921527914444	-1.8482699249552892	14	1.6562055170213745	-0.42252953477089894	5.428474164204529
Si	-3.629702852662195	-4.518724541457058	-0.786907604416029	14	-0.13197200786734872	-0.7764686644740795	-1.4122482456033802
Si	-1.2011623826790043	0.48921692251571464	-4.441090294457943	14	-0.9551067481231799	0.8948194705763478	0.4653029570979465
Si	-0.6884718260621312	-3.330813833744699	4.097034298569401	14	2.664031494181531	0.01750279946690805	-0.0659812473888321
Si	-0.6917580904123075	4.385863505900586	5.292623692228743	14	-0.208479103326335	-1.7253497381750529	-0.5460328359347439
Si	-2.4763262409176416	-2.3767110057405305	3.2677151149020927	14	-2.1960229629551926	1.0832133562522182	-0.211447444418446
Si	-5.112745420692304	1.420901186081674	-4.756650524649687	14	-0.6670231387586761	-0.4844402082168726	1.6184719753428813
Si	5.479838585021437	-0.23432208734392232	2.9410122384699577	14	-0.5945197685042245	-0.7831463392115682	-0.8984092478243385
Si	2.91738312041847	-5.4908735030962434	3.8637261887015564	14	-2.0413938607856355	-0.8440838492938658	1.7404302993198493
Si	-3.7995268656105465	-3.0214662979682605	-4.16247194026482	14	1.061616328673506	0.7028360647630189	0.46805249712731284
Si	3.598209578522975	1.2634214881898318	2.9019191309585657	14	0.983478638220482	-1.0053667149214347	2.2955743611776023
Si	1.929745736127185	0.6014385742656043	-1.8583375107391176	14	1.065380169751671	-0.1612664105535199	0.22414073427348505
Si	-3.0818429370804568	-5.07789591442526	-3.217146181256746	14	-0.6828943147894183	0.8275819811280913	0.5351550035462616
Si	-4.329812652406482	-3.116862365093218	4.6003969287661555	14	0.7108671693410332	-0.6363107714884434	0.2121508988340385
Si	3.8673956099293294	4.885014742242704	-3.465176400021495	14	-0.37832606366478516	1.6968150971109857	-3.4281652808821996
Si	-5.017309371980119	3.1550381172976674	-3.1703133048178853	14	0.2804412559108956	-1.2066719201834923	1.0484810658139336
Si	-3.141847525311508	3.0573753162968353	-1.6912211397257881	14	-0.650976099124036	-0.7548292136575853	-0.3267867148592248
Si	0.9181138465011385	0.5540737205966882	-5.344350981304043	14	0.034418358478694275	1.499614918603076	-0.40969406279165566
Si	-2.3241540987302574	3.620573723578569	1.9826113898388262	14	0.2819839191029845	-0.4779558805994592	-0.9515743065238285
Si	4.616869342703911	-3.80546635251313	-1.5966380315411237	14	-0.8624996482599583	1.2301651379358136	-0.37192786807559663
Si	-3.5726146990994656	-3.676009304869226	1.588601732508384	14	0.46603057990354835	1.5807574598437575	-0.5873972925463503
Si	1.5787285016624673	-2.737123913203725	0.8760365577430672	14	1.1977165032428847	1.0907104422552378	-1.210119001086215
Si	3.464606662403503	2.828340793863758	1.3210460613811978	14	-0.5785529473555728	0.29890950542551925	-1.8102288667775057
Si	4.959498218048358	-1.7618663831575962	4.622367921547345	14	-0.8494314912492418	-0.23412716444747222	-0.49147809480971394
Si	-2.309850685899598	1.0780868405964774	1.6258934473952456	14	0.9274126013882689	1.3716466359402621	-0.5920224539067647
Si	-3.147205058000001	1.109509036358404	5.34314598068899	14	2.383731649063243	0.39433479383015513	-0.2774883414507055
Si	-4.801194455219769	-4.941657545347704	3.016990581398064	14	-0.4635124393529953	-0.8912818867663561	1.948013629552645
Si	-5.019520575873732	-1.6591692339650275	1.037241206844944	14	-1.2276297709796153	-0.8470385635277798	0.9730633476790942
Si	0.8192615932802868	2.9899641390318785	-4.650061834300303	14	1.3213157066351713	-0.4814129888129302	-4.156140327912966
Si	1.3963213947338864	-2.2934726729316863	3.1657454084771364	14	-0.2987521537799262	-0.29556424029347456	0.766213553794137
Si	0.20167490017332915	-4.436881121802597	0.04298798046714347	14	2.229275582281732	-2.2804794018430132	0.20097584667054688
Si	3.0609725485476704	3.9514180260876923	-5.458511740034469	14	-1.0203670575802426	-0.4101789732550357	0.4489450708301004
Si	3.1089393472242906	-3.3332116183787073	4.543344314392073	14	-0.6918949831836606	2.11385172247592	1.0227849250233099
Si	0.09497514985942358	0.8533247949985228	1.4795119717579868	14	0.5593100238079887	-0.27832986422198996	-0.3174188926252653
Si	-2.6073558976591626	3.2366472004269884	4.338470887240539	14	-0.5156184597711163	0.724022743932635	0.14669415693051663
Si	-2.813897445477802	0.7798597390675264	-0.7097020488799656	14	-0.6903831732554137	-1.1398753752976414	0.4108302342326292
Si	4.181535383174849	0.9254948917432042	-0.7733005375629162	14	-1.1193391857740227	0.22565614374918036	-0.5960274646639593
Si	-1.695240399841803	-3.4880614163106927	-0.049170688692027543	14	-1.3776465673153595	-0.8892869661484532	0.6929023422480947
Si	-4.980841722030003	-0.37908430869846493	-0.8686088673159027	14	0.6320530210782781	-0.08061983552909519	-0.9453458038857699
Si	-3.910667903905647	4.381653222645594	-0.008212884376327952	14	1.3065200239598471	-0.12283352822794642	1.8431639545970064
Si	0.3812399826098176	-5.450355496240047	3.738678221649136	14	0.7775901806147281	0.20091953946403565	-0.8886099941176581
Si	-4.835800740164513	4.205558764100386	4.470018083416727	14	0.7826899680172419	0.6797706789359703	0.6425233332735172
Si	-4.978423946602381	5.129634309497013	-4.235313949794854	14	-0.06343765289560958	0.30780938649121187	-1.4215924136683946
Si	0.5018921962664964	-0.7651387407702679	-0.5581229669031239	14	-0.18716978243294777	-0.37608637382040416	1.8176408491944283
Si	-3.370169042772361	-0.05103649609598035	3.37555989345021	14	0.7079746758558668	-0.6071675497950969	-0.4135378652452771
Si	2.433752514118161	-4.305002966932135	-2.72435201728381	14	0.5292491746258813	-0.8327583874691455	-0.022593073779737214
Si	4.191664051939165	3.353207964990714	-1.6783681700317727	14	0.02608592035715838	-5.034473356955461	0.20718069513966028
H	0.6962127055892448	3.1165091944060417	-3.1938635702945635	1	0.04781021764921756	1.0789952008639834	-2.7030719286942553
H	3.1008952739940345	3.742344311077974	2.3377567231847896	1	-0.6983960229856551	1.6890380177386017	1.7863540969956742
H	3.605978223041219	-2.43342821902176	-1.554886148479099	1	0.44918366940381005	-0.37064514363137474	0.06414470685865031
H	3.8593282141065246	1.0903378652827889	0.755831915743408	1	0.25311040635772153	-0.5594095255838784	-0.8368865541711752
H	-1.1301939547504403	3.282232873464278	-3.5474374051425546	1	-0.12781067390668907	-0.3453981749401807	0.027915776013507764
H	4.451395548565847	4.855470570480827	-1.1194233593911935	1	0.8823467815577775	0.9762782577714073	1.9463915192061636
H	3.9905022488019224	4.775243073310147	-2.009279108519609	1	-0.7441539843683305	2.4084214592315614	-0.10835871949657674
H	-3.142775986614904	-2.76401819421213	-0.1194971900256604	1	-1.0689506637097608	1.0505790877551746	-0.11559329564640942
