72
config_type=amorph dft_energy=-6950.806552061569 dft_virial="-0.14464046329696367 -0.5471182742102538 -5.159262438644738 -0.5471182742102539 -36.00541341567112 -12.801309873360838 -5.159262438644738 -12.801309873360838 0.2565796044572225" pbc="T T T" Lattice="11.105996452100001 0.0 0.0 0.0 11.105996452100001 0.0 0.0 0.0 11.105996452100001" Properties=species:S:1:pos:R:3:Z:I:1:dft_force:R:3
Si	-0.3187643101681742	-3.1571549202214375	-4.759474779547455	14	0.0744754080350053	-0.20431159871290705	1.065362943346026
Si	-0.39720263131042094	4.5998283017478085	1.5225266066166152	14	1.3339256926778376	0.7062666905916924	-0.7030831479842851
Si	-0.8571097185893984	-5.198471496706419	-3.5881242231448227	14	-1.7547600977111628	0.5714309856187627	-2.3899215851215
Si	4.9061694442846635	4.075629711607269	0.44598349952697974	14	0.18477145539031364	0.42180294040742516	0.5910096955211583
Si	1.0491057428547226	2.975845085742324	0.49582832220364975	14	-0.9726113473638122	-0.3401968288775212	-0.2945198573124304
Si	3.6397970928375085	-3.433602052108175	0.5815799420096043	14	0.7196696055150923	1.1198942874126425	-0.17840179907017878
Si	1.616358949441118	0.4443375908527785	3.3328229085028838	14	0.2159638480238181	-0.450101554003103	0.48497602656559147
Si	4.912349931310257	2.5936355496422383	4.780240771713593	14	0.34401389183581293	0.6669107814561858	0.3448183906904873
Si	-0.8712831912615684	2.0998385141896776	-2.501079285810082	14	-2.2038897739032497	1.3941196391015482	-0.727931595350856
Si	2.2894667400114135	-0.45118110586656257	-3.896800956735555	14	0.7604951584515955	-0.6002232514359089	-0.2962103590604278
Si	4.227666360637937	-5.192651954565519	1.9466179659372154	14	0.11261209902769773	-0.5939011605641968	0.46408039651821603
Si	1.959444281239746	-2.8542210973960866	-4.205005685477072	14	-0.4156184036703409	1.3319842510505937	-1.173066030985965
Si	-1.6681062293100324	-1.4456753323673737	-1.1668726186331457	14	0.35472383104688976	0.4703153269195751	0.8083416286858274
Si	4.559519087624912	-0.9540506298208437	-4.726790942588571	14	-0.7342416020275636	1.6606627852043836	1.1181320518262132
Si	5.432848003432957	-1.9022828281004323	-2.8055701693380173	14	0.7491943792379488	0.85516479900264	-0.3033374630078783
Si	-1.3748357339976538	-1.370557704164305	-3.416894191045636	14	-1.1058185142269599	-2.3975012036052967	-1.3115575906136134
Si	0.671562946463809	-5.500065936359647	-2.055706616087968	14	0.7405459522725666	0.3410884882025485	2.2463546635918794
Si	1.2140020251772772	2.930020633781314	-2.1969948817522935	14	0.8971422071225696	-0.6364146441433773	1.135907131346525
Si	-3.896185684532109	-4.9549669714959	-1.130462719864581	14	-1.2074008285417546	-0.3153884907539444	-0.5785164376600268
Si	-1.0725604967619125	0.6210550957989485	-4.335916508056556	14	0.6007991790276221	0.8905092696176516	-1.1322571902340428
Si	-0.5320794052229494	-3.025902032951229	4.004814546429744	14	-6.3549220868766785	18.564627911770465	7.211662716330037
Si	-0.5787323645192859	4.35111395360161	-5.380253336034746	14	0.8188664483138534	0.3669718054604792	-0.21781350119113263
Si	-2.7470349044375793	-2.0307792070512294	3.640642259167514	14	0.21346704764742236	-2.2293951386791186	-0.2901947439428773
Si	-5.230054729416901	1.117623077366308	-4.791117984638778	14	0.9390265412299098	-0.275742303827793	-0.252527279671112
Si	5.323211827657116	-0.419684499928407	2.752636769048018	14	0.6829624490804023	-1.0571886282016791	0.17367816437600272
Si	2.8007024110930616	-5.461008368036902	3.9768218823722257	14	-0.6350046499858082	1.1931867298898478	-1.1259582393102119
Si	-3.6683250659240185	-2.4335514955823783	-3.9441236076179536	14	0.6148579829181918	0.2152948464195156	0.2315084936789014
Si	3.951278090532396	1.4052284038884706	3.11009881325389	14	-1.6219301119984808	-0.3355793808330672	-1.3961448987622287
Si	1.8951072437927303	0.4019882051816308	-1.680209544243531	14	-0.5073706110146133	0.417094989455702	-1.6836934611096097
Si	-3.182494361726549	-4.598906504042285	-3.285560230001327	14	0.7570905007866555	-1.113508690239523	-0.19442698430959773
Si	-4.367980630413414	-3.1738694448818476	4.981251533299086	14	0.1630790398042243	0.5789195869742261	0.2352013722502301
Si	4.4732499283842895	5.137412949412064	-3.6923739906413955	14	-0.5835735447142261	-2.2043214624865026	-0.5824296599572921
Si	-4.782474187600109	2.8941593712374836	-3.2717443704149147	14	0.43985055709167253	-0.2948715845202267	1.337462505156233
Si	-3.089691544773156	2.634625561347649	-1.4601164595540392	14	0.33355463539345065	-0.5751320917271159	-0.5586726467991239
Si	1.1638040318134304	0.8995124130435161	-5.479961861582056	14	-1.1469096623430344	-0.30558435194715566	0.6511403927539935
Si	-2.244498560376861	3.421052276117302	2.1165541494497333	14	-0.425760385716197	-0.09037692310852513	0.5809016520655281
Si	5.023901891474085	-3.8031440886549954	-1.6790223132228015	14	0.8431996461742669	-0.37997054262755187	2.2476515291153625
Si	-3.7713753858037635	-3.2476165931227277	1.8796221529395674	14	0.9589922024829877	1.9404406959426808	-1.4283490213392118
Si	1.3568573469409944	-2.619089382910806	0.9212690600931801	14	0.5017630303113703	-1.8018882011189452	0.06375698417637199
Si	3.164129485993356	2.6244002704142004	1.1616328095070447	14	2.369224701515372	-1.1155203230420068	-0.3378401537410734
Si	4.623976069833609	-2.131935954535892	4.414760198069304	14	4.055350942478905	1.9235613895159087	-0.8471210960085568
Si	-2.423967020644216	1.2693254359037682	1.3708186950809291	14	1.2135971923633113	-1.4587487422025145	0.16058815297006482
Si	-2.8918637617708343	0.9236435221346391	5.247587766015831	14	-0.6768907838668726	1.6364715123576423	1.2075116431810529
Si	-4.619920159929302	-5.1165714364700525	2.7784981923863783	14	-1.4656287629286988	-0.6849889942937428	0.7880154984668646
Si	5.486575482469281	-1.8458454859297957	0.8031656726222582	14	-0.44158939561968863	-0.7541159890417762	1.7350296925948787
Si	1.3843502411581678	3.096736078322723	-4.651241291123515	14	-0.3339870953082995	0.1034805613726598	-0.17485727327582265
Si	1.236557193371847	-1.976983981436547	3.222197188443161	14	1.953048110880027	0.7235424614588314	-0.35859694410116083
Si	-0.2347341198122952	-4.4520208161661	0.11834994059215845	14	-0.19201014530865854	-0.5909886124575332	-0.04155600395795735
Si	3.3155364250251904	4.098358133346492	-5.4810902308215885	14	0.08461404764394521	-0.3165686280958923	0.21637933864355402
Si	2.794288698141974	-3.109798951349683	4.70018541748792	14	-2.981361683673251	-2.147729377505787	-0.2085243547799697
Si	0.20904928181752352	0.8678603231550313	1.4865809384997484	14	-0.8414608076462506	0.4454604517897036	-1.2085262013403835
Si	-2.3658648896054095	3.2734924542564756	4.695725249312757	14	-0.05239501265610561	-1.0113769307178129	-1.1637737992484178
Si	-3.2362729283465526	0.3271260148969603	-0.7280347172234469	14	0.2381434880680755	0.9916578384649369	0.18801619030434052
Si	3.83304809470192	1.2459051105855796	-0.9998617545861109	14	1.0237395764286807	0.8121808031498723	1.2843930915746529
Si	-2.5426679107242607	-3.4579475069308234	-0.268474137033775	14	1.7661418667423943	0.7564451533512984	1.7188749236473242
Si	-5.457157919066958	-0.4251253275902907	-0.9601100614851095	14	-0.03576921721390008	0.6321458379803355	-0.4264098469200664
Si	-3.6851661989439823	4.405923156692369	0.4171612175344898	14	-0.26798116530839394	-2.834971174281044	-2.261630114519943
Si	0.33698480794748953	5.447396858785208	3.5767616781746794	14	3.3521873188981006	-6.297936365671449	1.0016293562280674
Si	-4.418993803916845	4.281303881103	4.561083922525013	14	-0.653338430692188	-0.7735728285519967	-2.1185635300856234
Si	-4.450232750737312	4.935529256505435	-4.461346521386928	14	0.1224856576781304	0.5963426821762094	1.657859509073826
Si	0.5906946332978428	-0.8778812637537611	-0.28069850732860147	14	-1.3541196680833445	1.1975051583855685	0.3543746749444137
Si	-3.350403700886558	0.0634030231453937	3.1913136335091616	14	-0.7963309672932876	0.6748452124741627	-0.6383411733597643
Si	2.699226921510224	-4.559831166125216	-2.9117223940268344	14	-3.4550454156727524	0.49765774644668986	-0.223878995751894
Si	4.434991991806095	3.5348221037726146	-1.7456049831524316	14	-0.06908919949982709	-0.4011600500130202	-1.4633476782886634
H	-1.1390176689316336	3.3494530275902585	-3.563823192307983	1	-0.10021345784234764	-0.4397862794586689	0.3493180821112785
H	3.3792737386637923	-3.787311380112882	-1.553240239804898	1	-1.3370565276261819	-0.08495009110928857	0.047721514515672456
H	0.44006844581659127	-3.913786467709397	-2.336297395250984	1	0.21924354997019904	0.06745320518461687	0.13128398008367712
H	-0.24422308318096947	7.060531737456281	3.6471137233001523	1	9.357393316559941	-3.78581143023597	-1.0500931488496663
H	-0.573238228074432	-4.516176825870946	3.4213943408080265	1	-7.766270702728539	-8.946176388087162	-5.170183751958305
H	-4.0618060778233405	-6.046161109105146	1.673217208877289	1	-0.5506477128738777	1.1458650222514584	1.6941704581786812
H	4.1090765305224135	-4.8647707319098155	-2.6432593629895114	1	2.835336528347037	0.09354118242603136	0.7681812206956463
H	-4.361862336967952	-4.887840107740118	4.786801083817847	1	0.09544868546304923	1.8411559213419708	0.21696400799335572
