227
config_type=amorph dft_energy=-23266.2068315675 dft_virial="-30.862827234094354 16.95459880912309 -2.158524470054105 16.95459880912309 -43.63070310884835 7.318619759787219 -2.158524470054105 7.318619759787219 -27.115954569094775" pbc="T T T" Lattice="16.48100429051465 0.028925001354892503 0.12132019086801352 0.028578890227569004 16.43373539941161 0.05880592868048801 0.1214520427260415 0.05920148425457201 16.378505952380134" Properties=species:S:1:pos:R:3:Z:I:1:dft_force:R:3
Si	8.216790236739214	4.234687772433501	14.72021172655488	14	0.345455767699352	-0.17855555116832364	0.0798978691551976
Si	7.4505727193669005	15.34473958914208	14.138824143766215	14	-0.23724694364293986	0.07862491491119229	0.26783846896312574
Si	12.304120372640623	3.560403963071211	12.844652009071085	14	-0.19593673735358869	-0.5062647786164176	0.6877292783439568
Si	10.823175136604156	4.037079744658713	3.0584834951160236	14	-0.09827047355191175	-0.21452300060240712	0.09688644755807604
Si	1.7290146180267978	13.417922461849901	10.390008820017668	14	0.006926557732478925	0.12873241516396214	-0.0639878694341213
Si	1.0833064025956256	13.788363553276016	15.8915622073487	14	0.011793917214051253	0.0491965576378414	0.15404186171443582
Si	6.830755264407752	15.364558571551912	5.698914192872019	14	0.14022654149768413	0.12510330000457315	-0.03514495284216812
Si	1.5911766856443266	5.8834886644807405	6.146229861973136	14	0.13531753010992542	-0.16312351992626287	0.4403534652922936
Si	15.647016566264169	16.163676423798663	10.886831565511848	14	-0.5711589626758911	-0.07115508262456607	0.2572036060273973
Si	5.426565939374059	12.995988275419172	3.107154960358834	14	0.24999499804129807	-0.040212344317647974	0.013757727457580356
Si	16.92207347784169	5.953620667765834	8.30409759268068	14	-0.1676440373001472	0.26853009629424557	-0.12726328558402952
Si	16.6806576702371	9.58729965278788	13.372044607849057	14	-0.06260024389283736	0.11159034177347088	0.2426627198892998
Si	10.194676884942089	3.4089111226417153	11.787994515131144	14	0.2655098188746676	0.05176946273171359	-0.39674134840981373
Si	14.406498248897083	12.911720104805253	5.208232447665493	14	-0.030495108870680323	0.10843636687724523	-0.17151715035441828
Si	13.506169262279814	6.509592156771374	2.8970523208876666	14	0.0958112113131901	-0.49603126522116414	0.3269939459480287
Si	4.5402396200793635	12.246140166221036	16.14706144153891	14	0.179377790649707	-0.19179520090389415	-0.004937550656812372
Si	1.6628777260399532	10.586426884773754	4.141964601423536	14	-0.06354615354011985	0.0023988412636981576	0.25958907754343064
Si	16.599041370117764	7.336006639926372	5.0830555899501615	14	-0.04695223980388414	0.05664453552924636	0.2899507460479953
Si	4.852679079158962	1.8209269001098913	3.515351831331269	14	-0.03675549321470888	0.41444880786020555	-0.05457788107291134
Si	11.369747236280524	6.489347952119401	5.898475276293848	14	-0.2704571397316966	0.19016100636240804	0.3031207188293898
Si	13.403576979696453	9.282637805183706	5.8144510316172795	14	0.27040854584114576	0.15840168500581092	-0.06618076516167559
Si	10.870120990655025	6.816732819306474	13.049975018688738	14	-0.0391381365148901	0.06623475837339869	-0.26529744557522345
Si	9.038972275251513	0.6366252705612685	13.691383215399972	14	0.022719057940424472	-0.3063163456318018	0.12032078699856572
Si	7.709455601863752	4.5545686207505565	5.42880577281231	14	-0.12286952370242848	0.08841259864393199	-0.27142336111100823
Si	14.433448768678007	14.376020691913912	1.6673063003214685	14	0.013570550990273576	0.08421732609304637	-0.14314320337286013
Si	12.638109369766674	0.0953223007613426	12.456157101984484	14	-0.84419029305412	1.140179537057015	0.7064744359015603
Si	10.433778692438288	15.961522803218358	12.21020559046373	14	-0.28802730215799255	0.22017634698034874	0.09045611315238569
Si	13.647305139261212	3.3186486369321972	10.935564012238997	14	-2.817712886930082	1.1462825697554504	1.0238030827300884
Si	16.11105269911146	8.127940214058821	8.70834385235695	14	-0.03695501098755237	-0.1771018482203119	-0.006660705442375613
Si	10.18571590304086	13.703564678933533	12.65381951865071	14	-0.09059418150807763	-0.09937964838702362	-0.14965401337507112
Si	12.239598665914622	7.915849907827882	4.26535816275904	14	-0.07435842274293857	-0.07098307567864817	0.11327852952668012
Si	10.022064673152958	3.2912234504623727	15.961460173585795	14	-0.020237684195949558	-0.010443315589377469	-0.02785792614380444
Si	9.815370404211814	6.664867497378049	0.1866494902244368	14	-0.18622155879087715	0.354761626295096	-0.00572148066892552
Si	16.407566101889504	9.326341751675313	15.681200808606153	14	0.431871131730593	-0.36023473819009516	0.005019568916525095
Si	9.356511104940346	11.588761413206159	9.353140641819504	14	-0.2101870885905094	0.34877326489393906	-0.1765513745712682
Si	2.626027530414662	6.143770824820914	13.527003503996463	14	-0.03943278518457907	0.024394647277564973	-0.0703115029690255
Si	10.680765241044563	2.1592109715112042	9.802518144350534	14	-0.3657795839235265	-0.1020530836989136	0.34979553636922994
Si	12.629024776748546	15.730641959070203	2.3898709637971622	14	-0.17480328006409954	0.03340560009308795	0.09197203684914498
Si	1.9655964068864384	0.9114358575079021	14.05477023242159	14	0.030242112107177747	-0.03592091242778881	0.14614753993945317
Si	6.315931443996298	12.845403564661844	0.9179163763299784	14	0.004758601726530065	0.07133814532336061	0.025717480964781162
Si	10.001747949979068	0.5608170447880698	4.614734271716958	14	-0.024532201412192894	0.028351064144208838	-0.1441065965363196
Si	12.289710612706388	10.610084404400428	11.692014603227886	14	-0.18864611110777676	0.42677854342297566	-0.09031727346509769
Si	9.224492783941585	11.186990672164365	15.505902115209702	14	-0.031130428995288912	-0.07799936498680027	-0.24947177810864798
Si	1.2748855041620841	-0.19059021263124867	6.028403745342865	14	-0.009282718647862625	-0.5701703726802941	-0.4545601077387717
Si	5.71766023078715	2.0255840578445024	13.496801187766927	14	0.006370427651730896	-0.2260862896692411	0.25720797690644154
Si	13.386999904845885	1.4178854367863516	2.9796608062386594	14	-0.31318171105766124	-0.1321591843346555	0.35718489305933554
Si	1.3968797876542658	6.739498945318347	11.638815674810038	14	-0.08682905487725279	0.09556798474990409	-0.058195426258359675
Si	4.397839613409124	16.010812324045673	9.031240811926397	14	0.39204522454256324	-0.7557337285092134	0.11793942925104456
Si	1.034852492918561	9.707950695476402	9.578600726454484	14	0.08024959636299386	0.17295748355476523	0.040494394571268216
Si	6.91296819418466	4.578807936700779	9.228501080425636	14	0.4521628091382656	-0.007862182958480811	0.1358726317485454
Si	10.70733503858543	1.1427699424180282	15.347913922624103	14	-0.04532215903091026	0.20287795038639247	0.10741718072833853
Si	0.5401195993741247	5.653672524086161	0.49715896773215146	14	-0.31019614355990527	0.12525833765537808	0.248622027800339
Si	1.549951554083647	3.711728692381721	5.159092908326683	14	0.10403026369010747	0.11573239244422943	-0.15736912910923945
Si	14.713151059557479	2.4066738349546055	15.192215007923513	14	0.04989127029534541	-0.3988349994720103	0.03386582794539445
Si	10.774750893595145	7.60961078237205	7.897364277332356	14	0.07617439443055915	-0.33875006791387374	-0.09563663326195204
Si	3.8133271415851966	9.493587592842704	4.4701966167984395	14	0.05493269360709177	-0.10485121761883073	0.6950096201684881
Si	7.399938309587698	1.5294749605318987	7.7804759570423085	14	0.6894061532337574	0.07024002624112538	0.14385745643079725
Si	6.038164079133387	8.150361622516483	0.9697539343136866	14	0.4315821394926083	-0.12360820226090702	0.24282727062978926
Si	9.159830984616427	11.334663105007499	5.3626144919340275	14	-0.26229953677193074	0.5553664624679455	0.4941155346471218
Si	16.276081780915757	3.744078545748891	1.7850252873170922	14	0.15825564622362648	0.061280238421473336	0.00041317662494779633
Si	15.743210737436723	7.650615062070532	12.321261114184264	14	0.024077372881058698	-0.12742372255600679	-0.11849041712115228
Si	1.4087728252483915	4.985681344648257	10.121639196335702	14	-0.21312046265026632	-0.1359772757350754	0.34263860760006576
Si	7.987069688941706	6.237238958828737	10.455092545288515	14	-0.08151560862263478	-0.26302381714061646	0.1503677522119442
Si	13.625704508619775	14.458627529116677	13.049615722375611	14	0.13903740528711567	-0.7005380108278705	-1.0868992928391823
Si	3.040924123923144	10.683115500413912	0.9920500835062214	14	0.004220212272491058	0.08517583415639758	-0.16698094923808104
Si	2.706910404573714	2.5785674541174832	15.634596121237932	14	-0.05291977525194784	0.17057921113362826	-0.029758230085925878
Si	7.260696154917229	14.40343763764261	3.6512614302900803	14	-0.31845247696396484	0.1592923158887102	-0.013643313270833766
Si	14.275007335330436	1.6504770587924198	6.74009722312415	14	-0.22852832550231775	-0.3725531608894566	0.28963141476723286
Si	14.193915146346765	15.825842296862868	7.356372807547022	14	0.045177662911917944	0.106158110453062	-0.1400380794777173
Si	10.93178810465472	9.175340059416973	13.027195962066175	14	-0.1071544137646194	0.08369642015518437	0.05813191995695202
Si	3.967222982127253	11.63321197084385	12.673468741793332	14	-0.33355720649877074	-0.004097827659252008	-0.07118902121479202
Si	9.665016434206034	15.01964564798824	8.301636907380232	14	-0.37467252300485476	0.15901386518253818	-0.28536517970951114
Si	2.4474638553837926	0.734278052913256	9.770163346538688	14	-0.007090594251904372	-0.41432282369951834	0.3454627096837164
Si	1.3919238059406382	2.086733653301438	6.853928228456173	14	0.07387299805849461	0.019264263721741497	0.020538503518406886
Si	15.457313057378158	7.177560262134124	16.06289875241141	14	0.6793076228678118	-0.21392084773642844	-0.15199371921640586
Si	15.06920052067984	9.598548264425894	2.6317119936438944	14	0.22931816905666724	0.011373284383675027	0.05982704969452564
Si	3.7892971404595936	9.21347491305512	6.821225671368778	14	-0.06797231134875477	0.4891515016055119	-0.12469320870600953
Si	16.153715015924647	0.5175201909081254	14.836083139389885	14	0.016024156797290887	-0.26225377109723214	-0.09671109817524193
Si	4.237634661460427	14.125128032013556	7.609363560138246	14	0.019564825933666808	-0.30695963618290284	-0.14456091084638975
Si	12.820198433851568	14.431680305632206	6.014091226153925	14	-0.24408171291548952	-0.057789448728308296	-0.20972248985915867
Si	5.9680963536290825	9.764243198113231	7.4640759977771935	14	-0.09806427090523587	-0.12279624720080427	0.19678751610402567
Si	7.863775016499723	6.624001662130495	1.571631295839901	14	-0.13047716723421465	-0.08514035290297953	-0.39410442279346986
Si	12.5552355325514	5.55166863041925	14.071355548013287	14	0.07836857571077352	0.08072370818402916	-0.15095319289334194
Si	6.425109726888159	13.450832685613689	7.025928977253699	14	0.016326261672408287	0.11371870275748946	-0.11104758144038764
Si	12.732373559367343	1.2177359644480727	10.336949984198975	14	-0.007940858781277342	0.11498600056979044	-0.1543293112892284
Si	10.514999436983535	11.343724623950473	7.328482843277649	14	0.09157505818771414	0.11383954470753642	0.2371705818149315
Si	15.728507607118376	15.379307850020568	13.147678893635712	14	0.3409187952514187	0.1905790680874641	0.4017524326787824
Si	16.180436443102245	15.563129117890306	0.4965343195547438	14	0.23601692685778103	-0.15973454600377568	-0.21132120314722674
Si	5.081473367653825	0.7076522183327267	1.414991288502637	14	0.032553021568926845	-0.16390436461199184	0.3302991018370791
Si	11.04402864694928	12.4163164149331	10.855848027023493	14	-0.011248585775647846	-0.11641913467524098	0.16668270102094382
Si	5.586111632032614	8.749020150558588	15.04473705657097	14	0.3670000876190008	0.3194729486655316	-0.22188433224452309
Si	5.475392330550052	16.200636147752135	13.136303374584346	14	-0.059397932216592945	-0.009768143332306582	-0.16717943856879647
Si	1.6874170049671893	2.3535886287643075	1.4675968835593585	14	-0.25754324904018877	0.03726817161554641	-0.007512255524408657
Si	3.358134972115132	15.5562827101622	1.5694903512951714	14	-0.19638950900046676	-0.07565554537695326	0.2925902427696593
Si	4.77913376089917	5.335530472146851	13.106874039872496	14	-0.5645203687392687	-0.39504596156170807	0.015469569379734946
Si	11.559361745162366	5.065588515057902	16.165860220197253	14	-0.01138742546293584	-0.15603061167957036	0.02407248778095042
Si	5.120605350968309	1.2775390228048977	7.461600479142718	14	1.244549700870446	-0.8833078607264487	-1.1717725078993986
Si	0.9256659692855741	15.404831073438338	9.453054683536672	14	-0.39899235111760334	0.01831244053222268	-0.04845916463202294
Si	15.623789213324311	2.0961973204113975	10.525956326385662	14	12.77290078884052	-12.14141418226427	3.3699731970607565
Si	15.747309682073167	14.083344178204484	3.6750985980733177	14	0.10106372237172062	-0.05584492177468031	0.35022413962609866
Si	5.5121344989377805	11.058449943921094	14.381935895894694	14	-0.19993994833705925	-0.13077618678294786	-0.12284406975975902
Si	2.5984985106066407	13.58848602539492	12.59657768263608	14	0.044377277825755845	-0.04121378983984565	0.09439041851327629
Si	17.062873132585114	10.871362046268713	6.376509132019038	14	0.20282781383264956	-0.2532091368020152	-0.10536235335647617
Si	12.771622561205827	13.400981146241527	9.530018261215842	14	-0.18598861664887176	-0.06997905905113035	0.15425809167186028
Si	14.558645404172044	11.850045647667347	9.139842242939384	14	0.3707842404291948	0.050983218724812304	0.2737337563516933
Si	10.138209678593372	5.658541153943846	11.149167318540806	14	-0.21203468487356783	-0.1789977812833891	0.13379235043401358
Si	1.100119162642421	12.029410322735735	1.083690421132132	14	0.06483916240562232	-0.041608197395956364	0.14924006541852725
Si	1.339087470132368	12.830725156566878	3.2550993376591517	14	0.005714281574029105	-0.3448543861649694	-0.4041499883898204
Si	13.690254233865605	15.6023072493551	9.626166284238083	14	-0.12835909067147666	0.4151903146345363	-0.31857820401412
Si	4.7622616675162615	5.554801760195641	-0.8012983523488884	14	0.5544573196267412	0.28980393593421483	-0.35741783520134096
Si	12.681580927358507	4.6579553107785365	1.715712413699998	14	-0.29454119748658764	-0.16550899144229625	0.026456930854855745
Si	15.666767974596764	12.577197107654188	7.130317741402692	14	0.1742170680511058	0.06748200156420253	-0.2063808242745622
Si	13.822008851148311	8.050142673377625	1.2105780567053779	14	0.2890709138074406	0.9571330362259887	-0.8736885843921788
Si	11.102241242268644	9.294265490913551	2.682799644185068	14	0.41858185966234357	-0.027065768594666813	-0.005837180408332184
Si	9.564454670236305	0.1139892275616567	10.057389434066883	14	0.2572036060273973	0.04577544489885237	-0.09188076261027975
Si	3.3735237320952254	14.306182059012931	15.978628933649265	14	-0.05671935469406266	-0.04360517489811538	-0.2627782765825423
Si	4.248385532334385	6.623973643610664	1.3278767659035373	14	-0.3457725278747943	-0.16658885567675843	0.16725605750733688
Si	17.010030204183945	13.45072555597904	13.755832403604058	14	0.12124227114530677	0.1163222040046714	0.07855678062020836
Si	13.709282105127272	10.922047548642901	4.145269138615363	14	-0.16457182355310226	0.45261892322205993	0.31143335943996053
Si	13.623982193724284	12.256937185245304	0.8004528523092839	14	0.20950831678599036	-0.24155225950152784	-0.015121698829918914
Si	8.640150071384868	9.560225521890056	12.506259159886898	14	-0.09007378979127967	0.1144658659635245	0.07140756516700461
Si	16.59666803667326	-0.19612963881665002	4.103903914455528	14	0.22195015254071887	0.12030561747717682	-0.03541003380067539
Si	14.935247273664519	5.73795552803411	4.564808565674656	14	-0.11871718861038934	-0.16932708284271616	-0.2604002612719374
Si	2.258703087282682	10.652202832299249	7.868983164891829	14	0.14585289126976417	-0.44945620656774576	-0.20885577025573676
Si	12.050648360767596	9.598775708880991	7.748068418487252	14	-0.01703228719332095	-0.12645441585031095	0.05938944756903644
Si	7.155094353674378	16.0187069540451	1.8833422734038958	14	0.23600664243650046	-0.16207219496085432	-0.09329178520997701
Si	11.212624321513234	9.912795742108703	15.265669678030912	14	-0.05997720224522229	0.02170938488120232	0.05585649174862098
Si	6.386325502849223	4.012540465731476	16.178580628200503	14	-0.011873621478975844	-0.2991097945299588	0.04180051607390344
Si	4.884785006588781	0.33518884903410556	5.356072991627614	14	0.04664730671291458	-0.32615139473461624	-0.03717972559253332
Si	9.070526073025837	9.461771739500547	3.835964457460379	14	0.9529781300286295	2.759426186432857	1.479856745549334
Si	5.965348890537424	9.943950688012494	9.803289477719998	14	0.16781553002500108	-0.020254139269998507	-0.47252930571075463
Si	14.173293515751185	2.8451719110500995	1.2077218158308463	14	0.1642704900095809	0.3207273909512318	-0.2260932316536055
Si	7.098249721382057	9.69836341724954	2.5098676916402196	14	-0.6270028560084434	0.8321323233236895	-0.3341413616275084
Si	7.964171965646919	13.432689869949037	8.81494937586904	14	0.08130992019702292	-0.04053141848787835	0.11103498302431888
Si	3.3516626940341827	14.100285493812855	3.4460455503070757	14	0.10949643360074228	-0.19042017377867898	0.05608609145371019
Si	2.6282096786650255	8.547021455911466	10.847927026652462	14	-0.20158211330503784	-0.17060055130778548	0.19063717506769948
Si	2.5577150827703554	9.718444455227205	12.833512175215946	14	0.17746231718619668	0.020043308633746364	-0.016633508758165983
Si	1.5271593122752818	4.606516604665363	14.966573626983745	14	0.5466339603585946	0.017696146586983184	0.2850635890554578
Si	7.305754879250072	7.942347186846834	13.607057359598164	14	-0.07380614932017075	0.3821387557440328	0.024337568739457686
Si	7.269780747935357	4.364209148870857	1.8178053073710785	14	0.1854170599362028	-0.42020422711935707	0.27157942720394124
Si	13.390461016119119	5.191332335762754	6.246984459285232	14	0.032382814396733045	-0.009263692468493527	-0.29872875672151283
Si	8.957771308484968	6.465227302841403	14.416515693810762	14	-0.06960239212172865	0.18268988852312176	-0.23264620778306688
Si	15.581646063202113	10.932302326901029	0.8148461307612654	14	-0.059976688024158266	-0.0923438186784384	0.08205605496092991
Si	4.822425670334439	7.920388908040496	10.253655869186236	14	0.0562110471722694	0.15139850833479157	0.36548082148532535
Si	17.009896704177688	3.4359506424268074	11.844896832611353	14	0.31916390180604975	-0.19490443856754924	-0.4421784358485346
Si	6.152141769657466	6.84967270973832	11.90320337237956	14	0.3376784312164361	0.0444909206809064	0.029770571391462594
Si	7.7304002695115	11.375461366177813	13.712464679350424	14	-0.04351647176457027	-0.05076776009898389	0.08145673031080339
Si	11.384376199928731	5.700435433684017	9.161062151340765	14	-0.0772221198485195	-0.13031904425702556	0.11457076706058654
Si	2.972138657738162	3.2838644686361853	3.312616414427416	14	0.1398511601209425	-0.2632811847831633	-0.2038855665613585
Si	8.453301155225164	7.230170801635521	3.7671311949768618	14	-0.1423996397142733	-3.6803935410045785	2.6716316815078884
Si	8.134330084728504	2.7424741469803156	12.915179567930263	14	-0.21778933280112325	-0.23267346149946047	0.05861425931501181
Si	3.293206172777469	15.081825336086021	5.628078430294702	14	0.21846244817393803	0.3563605966936961	-0.008821205242896044
Si	13.587144432739485	12.076857213847113	13.091183668767163	14	-0.1288635415352897	-0.5967969964862797	0.27188821695289106
Si	5.01229893848766	6.088134285177774	8.664956350324612	14	1.4804923227844748	-0.8817376867074345	0.3472809953661251
Si	6.782833706607475	6.749771853206954	5.3264425828322715	14	-0.1902903329600115	0.19109508892521784	-0.05423952361277984
Si	8.275978535807983	3.6696580607814373	7.529349260093954	14	-0.10401406572659053	0.21047273839157787	0.19221686217639844
Si	16.494141680018913	11.777982014662141	10.546274697707778	14	-0.1877624222092419	-0.08286338203145639	0.1753830643137929
Si	14.831962768826509	6.18773682688035	13.989729359004603	14	0.07809346744151768	0.0791494203965025	0.01676977734013383
Si	0.7055475330489548	8.654273053527893	3.131110794814296	14	-0.14508875876861618	-0.28146764115469874	0.22374272716992613
Si	12.371778505439465	3.072141699459499	6.436539634830961	14	0.19335894715960822	-0.21553061677737315	-0.26036169469213516
Si	5.830891310165145	15.731451199848848	10.836795433538448	14	0.1300094831764797	-0.08720263648027031	0.055296505009892714
Si	8.104571120371583	11.36026049509541	1.2135760383272896	14	0.007776308040787864	-0.011618824941749168	0.034411416494329876
Si	9.0944885000742	0.7269915896089836	2.3987380012495447	14	-0.024813737444749108	0.3619362956909692	0.06681531395468812
Si	15.663153585538572	8.953543808286947	6.528440379876477	14	-0.070251081994002	-0.2571560405789745	0.19111437221511896
Si	16.372902248413943	14.86058780720439	7.491703906478735	14	0.052156156971863855	0.4061785904874173	0.06328955722916907
Si	2.4027050940279624	1.912676015518675	11.90023011298103	14	0.0009201985940809975	0.22630303384772962	0.31897235445969874
Si	6.78367920664708	7.586337281281882	7.476033313152108	14	-0.2337175873699726	0.3251720607181718	-0.1680970660575573
Si	15.849254242403967	11.660637157313674	12.814688674334223	14	0.022235175919172602	0.16123067218956982	-0.25988758287109986
Si	5.040475680548243	2.151820674868735	15.809655833141706	14	0.20426223349076017	0.03531053202478566	0.14017846182819738
Si	15.119277856358874	1.5726992958899277	4.5467086018638625	14	-0.17593739462081684	0.2843881596878549	-0.3588756519178649
Si	11.488542464067303	8.290948666138837	0.5848388051725462	14	-0.03533418619373102	0.03786106850237255	-0.18740889522772153
Si	15.867426724736674	2.6135180853842557	8.185824827881339	14	-0.06571822331458094	-0.05619407787715642	-0.5294911156365072
Si	6.696098258100205	2.9240671184493787	10.955618679845056	14	-0.03462636089909425	0.19312703345973087	-0.07829221388276511
Si	11.589478357684186	2.27715245851725	4.374684778991181	14	0.160122525796586	0.06170395657823374	-0.21463021569425733
Si	1.9544285545114668	7.245315635678262	1.578044240584738	14	-0.2820530818360964	0.19549630701224735	-0.17422940935664247
Si	12.635928869664536	11.788772441093508	15.184036896429326	14	-0.04091065652260019	0.19760127093785254	-0.027117190701069774
Si	12.048980434763543	11.449321480748647	2.4482961702375943	14	0.35961561602900355	-0.1270732809008706	0.017804133010429404
Si	3.3950666775487752	15.417279536984408	13.900543114086238	14	0.14729168180691904	0.07713238827284633	0.13373964277495054
Si	6.185337123064241	3.776838788024173	3.7789187510845648	14	-0.12327370145875577	-0.04078647213563704	0.09306321394701583
Si	10.666655444087342	13.0299088140451	14.891828456815897	14	-0.009856589355319677	-0.029109540213652522	0.054172674874456
Si	7.574498632579193	14.640154574656728	0.04036479818704685	14	-0.24222640331647066	0.02250719886204427	-0.014747860116369381
Si	9.939807243373963	12.563387273673982	2.125422284743304	14	0.09024605384772959	0.07492895101347942	-0.02737095879616839
Si	2.042111688248312	8.843549692023537	-0.0893494115926742	14	0.06643556169890226	0.24849115853954346	-0.19888579515579852
Si	14.449542936098549	7.663968358992317	10.30292561223485	14	0.1316606470130788	0.3186028866251935	-0.06459027941063197
Si	9.16113796615913	2.9998473257027465	1.7848423428640783	14	0.22201648705797872	0.14993040719698703	-0.08228076956591084
Si	16.020491898573155	3.7155688777467866	4.093828784353963	14	0.06743546455790785	0.035822953315091166	0.025124584077955012
Si	3.2585934118968938	2.4295320026919844	8.261253979562708	14	-9.191546481878577	14.247980677815553	-1.8290629845791861
Si	9.867277184420985	14.1691269970375	0.40153670399379515	14	-0.07874575686123925	-0.05673863798396379	-0.21962690177343308
Si	12.681562797728027	1.6767650229867521	14.183085164357989	14	0.16735453084109853	0.3891373044254758	0.1582263356229768
Si	3.6248251327554666	4.325382072978061	9.655201711524075	14	-0.056916815582650035	-0.02572596561233765	0.11029836135009648
Si	6.630838180969247	13.563851153870614	10.720193891039612	14	0.18886208395466925	0.01675640759246906	0.2322014065626813
Si	6.858282636067547	11.362783810028422	5.975514668791383	14	-0.20822739211549254	-0.1164417604020583	-0.018799150769326707
Si	11.416394775502607	13.521721188934217	7.617134579020772	14	0.2807153357380234	-0.019883385882833154	0.03255687822690707
Si	1.1860008703689586	0.0883374485823093	1.8876884402741436	14	-0.025402006341998993	0.31383065804046656	-0.10220555024439838
Si	9.420661978315643	13.484463150151955	4.18038128840822	14	0.15427608940910129	-0.26831258078416104	-0.15214078644071832
Si	3.3585832684324273	8.196163661698959	14.429493212937167	14	0.01961419115581365	0.11555138662969101	0.21217069634500366
Si	3.274362894117042	12.482796121750816	8.915115584264687	14	0.013239906846102533	0.015677828910666942	0.09622644482239402
Si	13.620877082467725	5.3897314746857115	9.772310883676319	14	0.10974068860615634	0.20103626764557037	-0.008797036852886651
Si	4.525078304554369	7.053998589679635	4.692872979080802	14	0.21569671018105477	0.4372380569758701	-0.4702029696170847
Si	4.928319193813176	11.89760626100627	10.532061067412359	14	0.040230599165421016	-0.1105783547194606	0.040212087207115964
Si	8.68687507357354	-0.00794242629796165	6.528868898415068	14	-0.060278535788743655	-0.11415759043563875	-0.036235101497910906
Si	10.748223947908139	-0.22605341799610462	0.9567434522227737	14	-0.038834488976580615	0.16054315862696222	-0.17121427414770482
Si	14.958113682143024	4.789619279908846	7.964048354530018	14	0.02725808727261389	0.32771334121660617	0.2417507488322433
Si	7.364010326423293	0.877007689228566	10.035426210815869	14	0.04825630442226325	-0.24864516774822035	-0.040391293247930275
Si	4.370434204718003	5.234538541490304	3.203601298209865	14	-0.0239071657088649	-0.3750399339551038	0.18300870558282012
Si	13.363998348212899	9.791994717931674	9.7392622154616	14	0.060749048062330765	-0.014092228259731623	-0.0333613770815814
Si	8.624017996555143	7.838592959764601	8.851773951668035	14	-0.18705176869875298	-0.013995554699694055	0.05313677654096833
Si	15.999029712382647	4.095404414057398	13.961798191029597	14	-0.2003487540829628	0.05082303886336708	0.013321410884751226
Si	7.86632470180434	13.473099168138168	12.74437537474434	14	0.23704768298062837	-0.04213398843392664	-0.15509678622729256
Si	3.6199087065992472	6.824523615967704	6.834504801620422	14	-0.6494848580383501	0.07126666859546049	-1.9328343379635549
Si	10.65411633238888	3.7100310997096106	8.0247133944087	14	-0.017481202182218804	-0.20724805809904814	-0.05639873786064021
Si	8.244380238031574	9.72340538138551	10.208409255955704	14	0.06288486525177776	0.04842239782594481	-0.04520260263352338
Si	9.746075660225198	5.432481143354839	4.598303882058444	14	0.26853626694701394	-0.10698060704497739	-0.44674214779179744
Si	4.444480560038303	3.334307693221247	11.806574090075515	14	0.0552283707189088	-0.11603166910349468	-0.03219358104517014
Si	11.319613863561829	15.062973816684467	4.320905702398011	14	-0.011739924002328143	0.028292700053441477	0.002427637643283816
Si	5.675709914007316	10.841626155986948	3.996461131644962	14	0.1874479760285878	0.15932779714212825	0.11346082089387861
H	13.90100294744111	14.307604410931408	11.442976110081052	1	0.18821802207197214	-0.5005697803322896	0.9823918320016554
H	5.941373278303258	6.552267658770362	-0.9886268796421694	1	-0.14068419824467052	-0.0484689348322395	-0.005350984392292182
H	3.631229836759177	10.324972891045357	2.438764929050395	1	-0.36788274807540766	0.23591485397657116	-1.0540822187538763
H	3.7768898806191586	7.069174738538657	8.298660351685252	1	-0.809899975620369	0.841619701955036	1.379769528978206
H	3.8422125873826807	1.4772978840137685	8.403441375111877	1	7.166799242488241	-11.965187281184406	2.552808563358309
H	14.866016807458692	2.8552239670765096	10.289656370872557	1	-9.906233799504287	11.307766706575418	-4.373251660241167
H	8.689909314456411	8.370814632842848	2.996106029231202	1	0.04982210756223343	-0.042747968384378006	-3.638184733405836
H	8.662208887232953	5.544159667104555	-0.08778531892681705	1	-0.4150728151214055	-0.41662756250849897	0.03631789108921968
H	12.922395160860844	6.933260195135169	0.18549743461491716	1	-0.44712832781088374	0.5443176515756732	-0.05665070618201472
H	14.06346091801386	9.227855006321299	-0.07869083701933575	1	-0.6884427600702978	-0.6510208363566066	0.7153882009359817
H	12.60967057213826	-0.939670284756373	11.325952641636526	1	0.12708613642747135	-0.7300578994506186	-0.8575381863236686
