239
config_type=amorph dft_energy=-23426.576735925704 dft_virial="-78.23325272279051 -16.39977135783746 -6.77566311088776 -16.39977135783746 -90.72600784435578 8.626142362400339 -6.775663110887759 8.626142362400339 -45.8983499938491" pbc="T T T" Lattice="16.498159387519024 0.0845397812133336 0.115738986184921 0.08427580063187119 16.37377503729121 0.047615497381280396 0.1153925116717516 0.04758249980859759 16.29124810801153" Properties=species:S:1:pos:R:3:Z:I:1:dft_force:R:3
Si	8.054078888111873	4.035778026241659	14.676084570212467	14	0.25636491147196494	0.0715726301285581	-0.10696595174465255
Si	7.507454298077681	14.956095372484173	14.132827382470555	14	-0.06413982175854203	-0.06511427067487816	0.08510847119700969
Si	12.207522958783127	3.322680682022741	12.726413088977427	14	-0.5000630154736884	-0.61461784168129	0.44791148649140083
Si	10.739942714686524	3.7055069711381474	3.080485098045526	14	0.06382049047777964	-0.31588651385445704	-0.016038554987083717
Si	1.7831855280212436	13.044691176289373	10.229806840524974	14	0.04344370948401007	0.07023565536208111	0.027463775698225737
Si	1.1847613483895925	13.450899545407813	15.718878811770216	14	-0.05104363969983578	0.023295756863733686	0.22346530490588215
Si	6.930198061322046	15.069973295569783	5.566982540106602	14	-0.10339262957071074	0.11157105848356977	-0.10899095429480118
Si	1.6265411008600896	5.5352867216661386	6.101985385041912	14	0.28532969845609313	0.11680634313645528	0.14681808420694775
Si	15.5125416900274	15.676726062546575	10.894739277777441	14	-0.20544211372217613	0.21721134832515396	0.30175597612545524
Si	5.371640209581694	12.576211437882588	3.014270518821585	14	0.09492289442507895	0.42085368832322645	0.520006308110481
Si	16.937114547767873	5.6182855162351855	8.229201955975395	14	-0.2022678270939213	0.23242637827819423	0.040907314085683995
Si	16.79586513814188	9.300811327878396	13.229338993507785	14	-0.12404631860746027	0.4642606310011584	0.16522591274654794
Si	10.08752955650991	3.152682137196858	11.716415134909113	14	0.11098716046536412	0.01714670138006754	-0.17317294218059365
Si	14.598225147588767	12.65111427799391	5.08997952867585	14	0.12993929200123966	0.18331312445272566	-0.036839311248145705
Si	13.4219029284128	6.216272478028789	2.88236602177936	14	0.22412350786784008	-0.23765240695192724	-0.23822139255927605
Si	4.607538517266973	11.895994524963445	15.966453000094727	14	0.37833326275968154	0.2230577847126387	0.014229782394359543
Si	1.6657801644158412	10.215350603932638	4.090379109759888	14	0.01743337962326405	0.3634221374554828	-0.5387049286617899
Si	16.602411918653065	7.051876610589871	5.058880966300945	14	-0.07677037664376947	-0.11555601461926727	0.1511054023282947
Si	5.156885407047495	1.729886198745351	3.457550010970515	14	0.013001051161860776	0.057962998337418296	-0.13149018273035298
Si	11.427199659737541	6.242825624766639	5.9050393724846195	14	-0.3625081095141701	0.2903731786520956	0.14031370196803716
Si	13.46188608723255	9.066419669840664	5.7740192103902945	14	0.26881523187425	0.18697669242340464	-0.1818365386673646
Si	10.835518534083619	6.537535195789896	12.921265405547993	14	-0.1942894301749698	0.13916544633205902	0.008915307697613463
Si	9.015261883031885	0.3261975047558194	13.63803207984924	14	-0.09933208293860088	-0.014384305824100442	0.055732564472189834
Si	7.848705295491393	4.494881504370626	5.314956979227181	14	0.20033384167210594	-0.2223841551187599	-0.34918078508718253
Si	14.733792375198783	14.196725532092165	1.5174643245998258	14	-0.13070445294451571	0.2287445554597422	0.07968909540320158
Si	12.70864884572364	-0.16183989498006088	12.54629088885246	14	1.7029083596092045	-0.1139328758306578	0.9046097254144075
Si	10.542686524946014	15.637006884308287	12.156723195637957	14	-45.84591426768805	-32.72136983197418	3.9127062764276226
Si	13.619657381500822	3.0090387536727268	10.864652091005265	14	-1.152926048792181	4.073802994030013	3.539994735450445
Si	16.199095786780273	7.81700947705093	8.632801866973258	14	0.047826158502202475	0.12628112335173297	-0.18523322590581223
Si	10.208315521436665	13.374515114283032	12.449400116183954	14	0.09875101313624743	0.013149918159897349	-0.14502191003029233
Si	12.249547017473306	7.704118181388534	4.274495666058107	14	0.08790969044331103	-0.10766554950226484	0.2472457151224637
Si	9.687694668555155	3.0438280945522034	16.07838736614932	14	-0.06825359027077897	0.05616553860810277	0.1562190736995372
Si	9.739563553055246	6.464787097174762	0.1515496019389297	14	-0.1106115219780905	0.09050239304814835	-0.29687858933313427
Si	16.25381566156016	9.03412164569874	15.470558878303073	14	1.3012615993590801	-0.16782684288840974	-0.11511301317260576
Si	9.44038611069074	11.296176197885947	9.207591535170852	14	-0.3088740812042851	0.3107278481401119	-0.21316417144070887
Si	2.8178953642717057	5.685173245941855	13.47063044399349	14	-0.11300059304157212	-0.15272365601679588	0.1215310062727594
Si	10.658286921325667	1.8855538977550939	9.773762237383702	14	-0.5975426170291226	-0.20942835541053373	0.31231190612785514
Si	12.907327230846779	15.56929586516318	2.0772499964985522	14	-0.05889939489501622	0.09284004200522698	0.40804469872878074
Si	1.9182990390068706	0.5876653210584242	13.970101502663962	14	-0.1327996466699044	-0.09427163344748543	-0.058911221979488906
Si	6.409346225431754	12.279261331674169	0.9377382195288835	14	-0.09769943106030686	-0.04117753725483156	-0.04675709291008491
Si	10.170595996102955	-0.00489683978612752	4.494224852674238	14	-0.06409199919958729	0.23565157279178803	-0.1340340343341075
Si	12.311838185305263	10.243058665714386	11.61683176030969	14	-0.5842836840036509	0.302307992437691	0.5697944770824884
Si	9.552889684874112	11.234889806142181	15.695358141961917	14	-2.6591237683464324	-2.1928869857962083	3.5634275322277422
Si	1.3110612077116435	-0.497403760741893	5.967195250268577	14	-0.023871427344914844	-0.32210370362910706	-0.45716412320701766
Si	5.694704594811282	1.7298565009299363	13.479782320777066	14	-0.03680948642643199	-0.35705170980375184	0.16527347819497068
Si	13.431653711140568	1.2633087704037296	2.885523889485104	14	-0.2132598165586184	0.04838280280401454	0.08873424391948252
Si	1.4382536513747644	6.29914918157891	11.647671291739035	14	0.16744837618528394	0.15952551514124763	-0.2325698459550585
Si	4.4318115938233555	15.637199920108483	8.997840814534	14	-0.01910382674976426	0.15260975605111335	0.024119539008309127
Si	1.1024819009050308	9.330875416349695	9.505534868317024	14	0.01312369288563184	0.14816097251566113	0.13332158104989444
Si	6.935476023072659	4.279720831692429	9.059145354942741	14	0.2622781965977735	0.16823127775526903	-0.20249048481464613
Si	10.574624875545696	0.995632460800856	15.301094894154652	14	0.034987086975511034	0.10461930391895341	0.07050639275229272
Si	0.34485433235067453	5.367536961418589	0.42033133022667707	14	0.41150617782129606	0.580533469783683	0.3607592436754054
Si	1.6970305156250869	3.4059451070518847	5.055396422625642	14	0.013668767213503233	0.09663447923670151	-0.003750728441032018
Si	14.651499728685149	2.1843584675482868	15.114693255948147	14	0.21280833046440037	-0.45421249429948773	0.025836523141104017
Si	10.989277323513663	7.303629941494659	7.985844857439744	14	-0.06529990447899284	-0.2572388301702833	-0.28727731073610535
Si	3.798213651590474	9.029723069260122	4.456980492387161	14	-0.6272872202568517	0.3707348752070479	0.6263685643259627
Si	7.454229213340324	1.2642030046234334	7.601885101702684	14	0.6134970968722374	0.05325067650665089	0.09743692120711973
Si	6.60642917791568	8.660071061038323	0.7730192863322484	14	0.29714135629685345	-0.09241606673793458	0.29725757025732413
Si	8.847091403732628	10.634162395937272	5.456283933148979	14	0.19071636511156004	0.22841185443131506	0.2570930484986309
Si	16.336733612076134	3.5376928656238658	1.8040663920149194	14	0.06351787138159821	0.08317037200668208	-0.09882171853255149
Si	15.816927799239888	7.34763880418171	12.266304834760268	14	0.37041502970522155	0.7704841597309029	0.18504476388584537
Si	1.2976856416246707	4.569855289263216	10.09464713293759	14	0.07904477640997247	-0.058358691446189076	0.31167658600324655
Si	8.001319069149343	6.0114944915952355	10.15239288513249	14	0.01416704742454793	-0.19796251123533334	0.15293011577400378
Si	13.318130511961298	13.331463181203782	14.522695353596472	14	0.2683565466851356	-0.05701734580066783	-0.22639996451829916
Si	3.0633247103718353	10.307172949437065	0.7270965644295956	14	-0.6425690989482158	-0.1841957849091325	0.11855366631202792
Si	2.661148644635235	2.276256707469885	15.535826427191019	14	-0.19168721448044793	0.12123507205041034	0.06064260430207662
Si	7.172882009374966	13.977633198628812	3.553383211434537	14	-0.3066025096539343	0.4861181115488012	0.3444455804190658
Si	14.3224495837709	1.3741806146179376	6.620487793757187	14	-0.2670905344254947	-0.31006913095708993	0.5155338704060833
Si	14.279143569381993	15.50775539210976	7.25892812978127	14	0.0354519428173938	0.12294125754086063	-0.3582675855096499
Si	10.916484678175406	8.899455251822964	13.000489277802128	14	-0.45661647777382613	0.06855415248270429	-0.4919792032366109
Si	3.990794085281831	11.336690617625889	12.557354974973002	14	-0.3059476491288926	-0.14456013951479374	-0.0661028606704751
Si	9.805956319171676	14.696255986393464	8.164973830626959	14	-0.5251827144515352	0.10097964722775175	-0.18700240347660615
Si	2.3808062167580686	0.3678074439088302	9.734836650768436	14	0.22271865592091117	-0.06772959900653279	0.019796225412480137
Si	1.393875215873667	1.7761999418842949	6.747508650042358	14	0.25276587824482166	0.08074556257925043	0.16459059262193934
Si	15.27457309511085	6.894460040227939	15.887898978566055	14	0.5108650002552265	0.28370527411482355	0.1013293175512919
Si	14.975954961603314	9.347621684486217	2.496121184134015	14	-0.11821428040976836	-0.0012040486214253453	-0.20912650764594837
Si	3.844989360746977	8.75025837681632	6.863853141686008	14	-0.29875703888003446	-0.03338117459254653	-0.09900118168389782
Si	16.040535850524883	0.2621871633870898	14.601531504371584	14	-0.17316702863835728	-0.24494406163986718	0.044980973354926616
Si	4.277646934249314	13.836271597255697	7.491529669500961	14	0.058200054247935944	-0.3147094618388932	0.022461433187345635
Si	12.969207578898834	14.115099436546721	5.858166320488703	14	-0.18500054087433884	-0.2757965541500481	-0.3969056420397712
Si	5.9528660543310705	9.50149926517792	7.439263164250041	14	-0.0024888299499033406	0.051628566160169476	-0.0965887135620029
Si	7.750596912390892	6.691780699417011	1.4268744384351009	14	0.1381331475460196	-0.2101228109575057	0.18016609154086438
Si	12.440381879569744	5.250171194900405	14.02461844237185	14	0.14757707449745547	0.25295099782787234	-0.4262702359011824
Si	6.488716936884328	13.277168975111502	7.01086062774515	14	0.007542337456654389	0.24951497267802647	-0.23892896074338077
Si	12.673075812492948	0.8776611888239436	10.37244874771818	14	-1.728685747327945	-3.189383387363132	0.7090154592894626
Si	10.534516325949753	11.01639472874439	7.131146679445761	14	0.05310952282457477	-0.20340219876117063	0.5032784397870655
Si	14.936211035185517	15.005439942674032	13.219347328499433	14	1.1351417132927168	0.10263878149084334	0.049798967614352097
Si	16.405418059615382	15.388752945986509	0.35100507989874846	14	0.08969712286187798	-0.3563631677990162	-0.12741240969259812
Si	5.200277215125378	0.5478339510730162	1.3747085757808624	14	0.12807112687562008	-0.17261886898410173	0.3069082140765
Si	11.121962213149835	12.052680199090455	10.721530069129521	14	0.08807526962592857	0.06188264839798404	-0.031864993785255216
Si	5.7798696800269544	8.45890795869217	14.899466588124586	14	0.8754783308055339	0.2928524955123144	1.3129146200015873
Si	5.54693981445907	15.833621271260116	13.084844272608438	14	-0.06384285909406494	0.07226451457020996	-0.09927834683740978
Si	1.790887161485409	2.1598429209236008	1.5047239617869967	14	-0.34028604623213027	0.020513306686269432	-0.33980653508992265
Si	3.5005689464770815	15.29612875946589	1.4719623217488789	14	-0.098987040604637	0.004472180593865569	0.20900232325898516
Si	4.962905876274388	4.8329927827435695	12.863531202503532	14	0.3076070405025162	0.3596600961510421	0.5490443715962334
Si	11.357441141207469	4.740960902652606	16.104544542014978	14	-0.04430168732934349	-0.08076844541659975	0.27060343562441297
Si	5.165242042329415	0.9133266152581481	7.435211062324592	14	-0.438295809704579	0.16992974992975884	-0.24553464453190524
Si	0.8621341809980521	15.036792586358594	9.455193771432146	14	-0.2845755932656937	-0.04107006505244937	-0.07542517434026799
Si	15.542680023037235	1.690336958006381	10.429290366421572	14	10.713409431927426	-10.880400665586789	2.635773761160444
Si	15.920526978434808	13.828569963791532	3.560251656188462	14	0.03741343906613477	-0.027557878152943156	0.18788892059099319
Si	5.604608022358165	10.759132453080207	14.211450698901864	14	-0.2281889396000582	0.34494411774064254	0.008059643847068183
Si	2.527496926119456	13.256759976407192	12.473391001402984	14	-0.08391907787590919	0.17469246542480116	0.033512043853342076
Si	17.144281558463664	10.56005644720624	6.322590657212771	14	0.19992657858939447	-0.12244349155087994	0.3152159695869624
Si	12.793559849629654	13.046101822521562	9.344975279157056	14	-0.05525305332998221	0.0059384819579460174	0.1907017098112352
Si	14.625997554637246	11.549427618590535	8.991924349751974	14	0.5026120092880831	0.4938869633841607	-0.027251916619845534
Si	10.071180909124216	5.3861723405912	11.032251712297107	14	0.0017637782496215822	-0.05076056100408748	-0.053995011496833764
Si	1.1430870639698503	11.67567303191766	0.9952859862876866	14	-0.5023906371200185	0.2687576391150787	-0.08254430786122602
Si	1.430609763662794	12.465545828497648	3.1644655704018856	14	-0.3083040671548083	-0.0638022356300066	-0.25283658364112577
Si	13.645595123508135	15.262136309966705	9.49060841631396	14	0.32932902379978723	-0.3275238507545113	-0.6944799724725376
Si	4.661631438165887	6.255973507602101	-0.5840042403692675	14	0.253379343974209	-0.19783369885879393	0.29176800328827596
Si	12.552345943439754	4.369922996378131	1.7095910416667948	14	-0.17672749528569837	-0.08758701672563245	0.021528379066663893
Si	15.795999088765821	12.307530352191524	7.0379912320049485	14	0.07486621604366779	0.09329204232050901	-0.05921589795992646
Si	13.72986762438274	7.751370705470304	1.1950169939794066	14	-0.27466706758290704	-0.3414039628253307	0.1162736101141206
Si	11.201525960402604	9.187182536466542	2.7102539824231435	14	-0.136577885937862	-0.36377489310540706	0.03043957299576512
Si	9.638698222757098	-0.19534728016081013	9.971802119475427	14	-0.10715029999610717	0.1833504054798678	-0.40708002001266114
Si	3.4744051710968895	13.965391099163494	15.826973910243167	14	-0.036472928740024606	0.0648530463743511	-0.2078126728273527
Si	3.806438296581662	6.8425664075483335	1.5051776784113853	14	-0.3024033804450685	-0.23839545638945003	-0.09301616271965713
Si	16.88775017903441	13.303251906438621	13.604897567239806	14	-0.2449486896294435	-0.08606132282865657	0.17599498737998814
Si	13.830906191937473	10.69836742298483	4.0933224932431935	14	-0.010698883458200187	-0.029549970554993886	0.4560778312092551
Si	13.677025311488503	12.236207748716286	0.5578553138967826	14	0.2732856126943915	0.7286556186090098	-1.455823595679782
Si	8.672568891691933	9.420490224241643	12.500419313187464	14	0.011123630057088649	-0.1495761088838706	-0.050377209200853396
Si	16.710523515912353	-0.4056490602614652	4.013443619171305	14	0.13319199734175902	-0.16287335137861245	-0.0261471126637779
Si	14.932832083742799	5.468262052032836	4.499966430321045	14	-0.48738360958737814	0.2670923341992188	-0.05610408919095124
Si	2.342583478440947	10.272525498120125	7.797349523246518	14	0.1742000987559928	-0.36420606746759593	-0.21955773904032114
Si	12.141748897154502	9.349515745158211	7.719889371252279	14	-0.22636396904381711	0.05296631225824251	-0.6247317986791564
Si	7.269896522941032	15.592488209123289	1.8143995819005383	14	-0.08103918280681133	0.055785272131252873	-0.11734216148517415
Si	11.297215621425455	9.690826138202752	15.22924927915239	14	-0.5337141561248505	-0.09551142043286083	-0.8203497189730468
Si	6.040694043662245	4.274531963388059	15.905217754588623	14	-0.04112431537470449	-0.1873752137480276	0.18025633733760157
Si	4.982316698405045	0.14900383920645166	5.25318552316498	14	0.14922283901288227	-0.3304603101406524	0.14282541475528981
Si	8.986273515430046	9.597416609452281	3.3045963623139327	14	-0.18056769819187155	-0.10844845107224992	0.19201374485610676
Si	6.014733203354052	9.53947122194265	9.760079793870778	14	0.11605738015669617	0.005482624984683764	-0.31756955939702597
Si	14.215885572670432	2.7107951426151415	1.1847398999673486	14	0.007431522817356008	0.2173800128341557	-0.15993663488193932
Si	4.608503696267945	9.028823885404517	2.024872949379144	14	-0.5044462358234768	-2.5195831977481635	-1.0651107179141195
Si	8.071257424450538	13.172860348103905	8.770596430739362	14	0.06369399209602836	-0.15324610461785	-0.020634405746848408
Si	3.3893440282351674	13.793866416601029	3.324403155316783	14	0.17396998482983955	-0.16842745309119633	0.08577644435918416
Si	2.64166687772331	8.11071592186463	10.79071278001628	14	-0.09235101777333482	-0.07945589615066415	0.22215712651899083
Si	2.6396672248187323	9.376197582429523	12.729051244913416	14	0.11468286725254499	-0.002105221036137247	-0.2326701190625443
Si	1.4879496457136954	4.2886169772877105	14.885398073011272	14	0.700027132200757	0.13198409206235343	0.0565722874697502
Si	7.35492796798734	7.66473062875571	13.351575201753949	14	0.3476039261943357	-0.202835270038078	-0.038764040690808556
Si	6.435726134913019	4.790016744081491	1.8517841818715166	14	-0.13833806464003537	-0.11458593658197541	0.06782575834550632
Si	13.384447383660554	4.865457444627543	6.157738083846771	14	0.12002331011302457	-0.040560986199060046	-0.1810654641818522
Si	8.937268820238819	6.19662572325345	14.274845635540059	14	0.19300696284127994	0.188354033543408	0.09297631058719483
Si	15.571356563577222	10.71018385376254	0.7111306888870228	14	1.299433286365923	0.1955850101457924	0.4526284363117445
Si	4.815395177231832	7.509399504987332	10.119814381622762	14	0.2124334633087228	-0.02042228955793619	0.0757794726533844
Si	16.929638947676587	3.0372087814720334	11.760313455727676	14	0.032048313594581775	0.09921046965695787	-0.3698131339497749
Si	6.231756589010193	6.476372544943692	11.674877790416005	14	0.36612874002600265	0.4630149304735467	0.3772878513365094
Si	7.9112191969389585	11.18621673655642	13.90114482515008	14	-0.3233411766196944	-0.1361037741168267	-0.08874735655661528
Si	11.500672055073064	5.353772023973958	9.17937036113389	14	-0.11893547545206991	-0.2360999735596218	-0.026799144972967457
Si	3.214092269838183	3.1172130463201158	3.2257849597183332	14	0.07655286113368495	-0.03855835226519671	0.24987287053859103
Si	8.50727250097335	7.279647305668799	3.50649036089501	14	0.100011111853652	-0.07130986316483898	0.13299685044795975
Si	8.035938472529503	2.4535922625817888	12.893146523986346	14	-0.21991769378514187	-0.12448314940135342	0.058100552472046214
Si	3.425893789617271	14.818370103620703	5.490772996117042	14	0.18791900252323893	0.38760903942317976	-0.12629603576258983
Si	13.699948725231245	11.414947661000419	13.14887111276351	14	0.1999998550910187	0.13583509361087123	-0.05497743083966235
Si	4.866473769866173	5.533790281744974	8.706086176144488	14	0.06372124581242194	0.05343913852661775	-0.0652276564194967
Si	6.98679384810895	6.702242579836092	5.207861707206519	14	0.5146573806024449	-0.3172350585948747	-0.07923863775111162
Si	8.348448584136497	3.4256248593999064	7.34650698743869	14	-0.23113671184960796	-0.01892487781948195	0.2886870477831425
Si	16.58160364931929	11.47960145503646	10.381584125715415	14	-0.372923142945026	-0.1277692791110347	0.21143278911812116
Si	14.751790901218616	5.867661372028179	13.83728132297979	14	-0.1959850741336075	-0.26622792859058503	0.0333091836435824
Si	0.5148396781474845	8.393505119756226	3.1129316112645227	14	-0.14984530361089013	-0.4154908768464615	0.1080710128112522
Si	12.38946497504155	2.7377954064628427	6.386473957926672	14	0.1526228686882461	-0.18718366640167655	-0.3756929947064215
Si	5.93763437478069	15.410519794806717	10.763367691534045	14	0.05697980766299367	0.05231453705958498	0.04536818181614091
Si	7.979116652369721	10.528550364808703	1.279588122886789	14	-0.02845313702541872	-0.3372534275070156	0.21353466771734222
Si	9.21774488828535	0.2296961034449708	2.3418360834196816	14	-0.02699069231931849	0.28734878746400544	0.15730845102368396
Si	15.697337996322885	8.68328320354204	6.5006158615937455	14	-0.046960981561972655	-0.20872850054238942	-0.06176463466378924
Si	16.46780657028675	14.580916270838005	7.4271910022840375	14	0.11104835277198367	0.2791407908399647	0.040779273040740624
Si	2.3723192410640523	1.5597936108373216	11.833295837108858	14	-0.40654600143766645	0.06288332258858567	0.2885433229957462
Si	7.833524762178671	8.341316158801108	6.678857200075791	14	-0.8338541925565927	-0.7650670979318829	0.6441079054823244
Si	15.95752715668403	11.373916829247989	12.645369400589834	14	0.0321843250660176	0.08255870605101885	-0.07021380096685986
Si	5.020009825680607	2.1450534088471698	15.731563078709485	14	0.01988004344591696	-0.04594719473423826	-0.15217806746786047
Si	15.186989287817529	1.3223991736854537	4.434319409347249	14	-0.3445162858153699	0.055714566734948796	-0.13469995061202583
Si	11.414162318770567	8.080178318225332	0.6434906145231851	14	-0.2966065663902626	-0.29795022603057203	0.7684265041431884
Si	15.883937619965485	2.3038096806600232	8.105982420063283	14	-0.0010209859226308021	-0.036929299934350894	-0.4943595325420039
Si	6.7543539964954045	2.597814753506503	10.792329661077737	14	0.12498245805452617	0.3972738243216164	0.09573047860613745
Si	11.579981721016173	1.9110956688902154	4.344655105096276	14	0.15039834836525398	0.07112885735030057	-0.16708019390343873
Si	1.5400280648003246	7.145535271014096	1.416174975492703	14	0.20168855706529193	0.4326815441275036	0.017934230939628894
Si	13.56354500915372	10.408973760920771	15.233476268213057	14	-0.48307392284974593	-0.06633168904396827	-0.16526962153699046
Si	12.306756559112113	11.272639029291307	2.355706613096897	14	-0.7038061428003106	-0.2311333694126918	0.46103286538224447
Si	3.4265124941050735	15.057124040767102	13.760451424623794	14	0.24978725273143015	0.046597684380235725	0.05361345946732379
Si	7.132459982838537	3.1685968665017725	3.4296538630244764	14	-0.0024363794013723197	0.05557341305287267	-0.23809026618794843
Si	10.974357471025135	13.035927020984822	14.656645700145031	14	1.34869823540528	1.7775992262700382	0.006664304989823821
Si	7.692305050368092	14.087231336537464	0.08989528725975203	14	-0.2775803870211668	0.16772142757028366	-0.05346819201673542
Si	10.69306306317607	12.923852415246325	2.705535329529503	14	0.4477716183619847	0.26003362165328425	0.11933399677669286
Si	1.9167992993284373	8.578382270104782	-0.3982130572573962	14	0.28117864891671407	-0.04291431889859158	0.5230728654258215
Si	14.556971582220731	7.390385509713642	10.236698383579775	14	-1.3816083835031758	1.6309364368244272	0.1396596127745915
Si	8.977969676264419	2.529301893345205	2.058896746572379	14	0.2469047865570121	0.09016480691961291	-0.06192944251481073
Si	16.115395793791716	3.479778825808283	4.107851324495431	14	0.0831986541652037	0.055104443442477655	0.1256445176744643
Si	3.225030965182531	1.994597676442675	8.194760739487721	14	-0.2425045969121107	0.4653438376725368	0.27170001204345623
Si	9.987014000482198	13.630013669687319	0.49241947738815606	14	-0.1618510799033216	0.1771625263058674	-0.20258407304829953
Si	12.567765709154425	1.5222572220320025	14.146460329624455	14	-0.04065354599058538	0.32365459435822036	0.1288563424403933
Si	3.4826100175444674	3.861894017232376	9.62885999646172	14	-0.2237033892585279	0.003864114185650548	0.09226797107149404
Si	6.676959839646531	13.215275428030376	10.64498065014133	14	0.18210933294183235	-0.042240689304712795	0.17456391015879374
Si	6.623211743382153	11.185593082432714	5.990451939495413	14	0.17986090133936283	0.15380300603019406	0.1979475988244765
Si	11.487270090927945	13.185488519169613	7.388545895036576	14	0.1434419658110613	-0.1167649483408009	0.12446952254315663
Si	1.2791806028641564	-0.11600296676638339	1.8126903076355692	14	0.07039789210778247	0.2680528991468261	0.01677466244024211
Si	9.035236963655418	12.76246953664792	4.3186035214632055	14	0.18997460122669732	0.33726345481776415	0.29359143118132497
Si	3.494513891889788	7.785178368562467	14.281040929811255	14	-0.522211545143572	0.23357026303512812	-0.4047577976875034
Si	3.3700750956670467	12.13686195664018	8.778664337260306	14	-0.13959996313116407	0.051642450128898267	0.020272908338835587
Si	13.746430755990872	5.109111521317338	9.753861401298705	14	-0.4940538281194383	0.03171741233987872	-0.18898395434684426
Si	4.684601048510385	6.7146925640093125	4.736875803154476	14	-0.014038235048008512	-0.9060361746460258	0.33052381644206
Si	4.977772932646624	11.530538158108266	10.421506239025698	14	0.07596742045228723	0.035823210425623184	-0.00984939026042326
Si	8.757963310037752	-0.31552608975020185	6.404444436009725	14	0.09645141653790698	-0.20590645534299487	-0.15611237282875104
Si	10.813547100312778	-0.5580384504251722	0.7995163371965367	14	-0.0021515009318999125	0.029492377795822568	-0.16404371852034386
Si	14.960814025377813	4.476152082115868	7.876131228026702	14	-0.026151997763886187	0.3064857814723996	0.24837468746854077
Si	7.43653756474644	0.5605644146140405	9.864155787990963	14	0.09799716505638001	-0.35025267889515227	0.15542871592412366
Si	4.386611518762456	5.188485532527179	2.9722761579468195	14	0.29332017957004936	0.14123312923052211	-0.3481744544648766
Si	13.47332799556031	9.496503432673743	9.685511879122187	14	0.0009312543469576343	1.3511564692018738	-0.7025254752403449
Si	8.8059203322963	7.6980169301994845	8.723345556536227	14	-0.10860888804422716	-0.09916264709800313	0.16202565795455964
Si	15.979280806475167	3.807050401554928	13.864373980031003	14	-0.2163749677645098	0.13732042115432075	-0.09527256474861907
Si	7.90657313870522	13.145513609743034	12.676887032137811	14	0.14919635662808475	0.16778724786647947	-0.18302387510420898
Si	3.6814764888318985	6.3875529785534	6.822982348161092	14	0.26170458300084853	0.4014819523991027	-0.16070282426734345
Si	10.708245246367426	3.413910721097512	7.982137580148832	14	-0.015535132565398723	-0.12694806807177939	-0.03557715564648501
Si	8.319483314835535	9.496533130489158	10.169371786156425	14	0.01226494370870238	0.0881228350743513	-0.005696283836788069
Si	9.821922194714247	5.436838463567005	4.380269385292823	14	-0.16209816312458783	-0.04956705391447474	0.25499374100473
Si	4.480124989866878	2.8603582906785667	11.65477071950174	14	0.17306418442555138	0.6768589021609027	0.15161910917126029
Si	11.763073702682592	14.648698234764378	3.9268018925780774	14	0.10433056879150077	0.6236485920077782	-0.21273299707852003
Si	5.617552970121627	10.445619215263655	3.954041388827729	14	0.8683699959269205	0.3130850374976237	2.102060890588253
H	6.7779373616918015	7.2753114246182795	7.527031757950385	1	0.31978559507246157	0.24001962362018756	-0.20476385613872108
H	8.517059581031068	11.89333822036248	3.247409918976006	1	-0.788144825064468	-0.8579156245846664	-1.0736557864456318
H	14.627213515190608	9.228911266881209	15.483980640991803	1	-1.5134158406300349	-0.11332300964871865	-0.37498362674859265
H	4.215255123820676	5.202159726646932	11.60484374215403	1	-0.4915788821382637	0.32664093318757237	-0.7755818902491605
H	5.2917431868448315	8.199324303789753	4.7137428548252	1	0.5377639041146157	0.29899178079576394	-0.21372981461114146
H	13.007433616973223	15.777246568210188	10.981673032888914	1	-0.5379518519135186	-1.8946719359176611	1.06046961570072
H	11.134227410916035	-0.2353304389805589	12.046318267077211	1	43.997617358429906	32.91047951337118	-4.100931754705023
H	10.119847379195443	11.788757363380249	14.574938760546516	1	1.420767603081691	0.6908724545978379	-3.7102047358600996
H	13.967639883741825	11.594258120837386	1.9833257056142304	1	0.2294667789441718	-0.42142781614121555	0.6829619348593382
H	5.0325241551205595	10.303450823238446	2.573614333700937	1	0.36763360796988526	1.9205717082496405	-1.3081848146546429
H	14.771241320436493	2.493166251500271	10.212379172512552	1	-7.597159078511651	9.069707971409528	-4.069343411852216
H	4.182650222252801	1.644882801635824	10.909969307449188	1	0.010850321561556908	-2.085162557982112	-1.0060156619042402
H	5.191374470015558	8.303504240263889	13.54699012693876	1	-1.2468048173467479	-0.6239640666305604	-1.6482836844194664
H	13.055530878915674	2.1029699545261606	9.927349439435794	1	0.42215261073096527	3.386207156052172	-3.509244058710942
H	12.475172870327855	8.64810614118354	14.91448048369526	1	0.7106221430040233	0.029622218614490048	0.2678114723572642
H	11.55219941469589	10.220824901240714	16.721901078973385	1	0.6481594532458138	-0.22367330732628213	0.4946086726475262
H	15.10594229967267	5.929081403941308	11.566868485632028	1	0.6663394818540488	-1.085293123345686	-0.4369868599860916
H	12.729699647216632	8.172091407054637	10.13296886397276	1	0.37297379371983286	-0.4582365312360514	0.3931016917186121
H	14.359712092722951	9.594347835192782	10.993953079562816	1	0.3019326110609494	-0.6955876046444573	-0.10679908700937493
H	-0.4414085297778156	4.197850554109133	-0.23480082793899995	1	-0.7407459842664742	-0.8256215133214785	-0.4362260699218598
H	2.4207827760632807	10.022709124731817	2.523245188879277	1	0.36595853285380886	0.26746488736010826	-0.3654129443048734
H	15.259222624298811	6.025520109864059	10.593893808113817	1	0.9988307080870862	-2.5050515675892187	1.2086154186949922
H	16.953940010078835	2.0697677968927275	3.8298071775556206	1	-0.05944524055448366	-0.27441895591951276	-0.11438384770381177
