72
config_type=amorph dft_energy=-6929.273669363259 dft_virial="-21.238250984630685 -14.440149209673391 -17.13171957015602 -14.44014920967339 -6.634595164273769 -17.16190540597452 -17.13171957015602 -17.16190540597452 -45.44226033842868" pbc="T T T" Lattice="11.105996452100001 0.0 0.0 0.0 11.105996452100001 0.0 0.0 0.0 11.105996452100001" Properties=species:S:1:pos:R:3:Z:I:1:dft_force:R:3
Si	-0.2587252933481216	-3.02862855508022	-4.573364933401745	14	-0.16125355502691915	0.7636959274646479	0.2154447418596802
Si	-0.14629262766564208	4.671850688739677	1.2324613018803126	14	-0.1940996826023429	-0.6405201851185898	1.335652961231913
Si	-0.8858209406173674	-5.185155406960351	-4.107337331478015	14	-0.4936293386310819	-1.2156952143045523	-0.40480099225688193
Si	4.7259913108440195	4.234359944699618	0.8105922524497775	14	0.8566879217942958	-0.09089114417255474	0.9488823592536336
Si	1.042260006641648	2.8696917504538617	0.3909188585178227	14	-0.5112524658269728	-0.9735372023895975	0.3584812443617542
Si	3.867180153598159	-3.2698763418116714	0.7781882866014854	14	2.549591853492272	-0.05545102843963362	-0.6689560957383636
Si	1.7345578484815274	0.33417276964581777	3.391990104601447	14	-0.0005697569389448143	0.3523982662848159	-0.3152357670979275
Si	4.790185080936802	2.5523834364205578	4.795408231068225	14	-0.859175723302071	-0.7452076233285271	0.6270239390720685
Si	-1.572686839592525	2.4274898427188223	-2.634360128032444	14	2.3684402572821948	0.3546248434920641	-0.9953651152260586
Si	2.306804311072787	-0.6190504634393444	-4.001295056154073	14	0.6634307904053652	0.6998299284227018	0.9368871244930146
Si	4.234909691523996	-5.029746977406826	2.3382564930251344	14	-0.7929273380704754	-0.11653946240422391	-0.5099792544724354
Si	2.062164753024864	-2.953052249223679	-4.3772063816661735	14	0.17766414895382832	0.19809183783293682	-0.14176483381072874
Si	-1.6240465201852612	-1.2314873059914633	-1.1064837629248518	14	1.1611078201419562	-1.4766384930201049	0.57173180494122
Si	4.744586080703771	-0.4926053620332504	-4.206905921470027	14	-0.8561919555780391	-0.30583066383682583	0.6312253822757226
Si	-5.462186714260469	-1.9240816779366139	-2.495431886614189	14	-0.14945166738637547	1.5099816152539132	0.6675903245923008
Si	-1.6626942772389242	-1.3918545629608519	-3.3660476074889867	14	0.15363562707385242	-0.4162830343955992	-1.7417829578287796
Si	0.5221828517844831	5.322598776652961	-2.316853016662647	14	0.4671960619451715	0.12984673220971435	0.02693618488653135
Si	0.7373604224442754	2.943902018746794	-2.0211858473159054	14	-0.3458342344024778	-1.842556145299323	8.731648502384646
Si	-3.960015177941263	-4.729444165140977	-0.6709143562710063	14	-2.3441325133644506	3.0005513853407084	6.320957271376458
Si	-1.302785582014655	0.7970418261785704	-4.37517842671402	14	-0.1530067347125442	-1.1212592872271092	-0.11326927354752758
Si	-0.3375823105566125	-3.183431707827106	4.204560335019344	14	0.6292859975327348	0.5309239926314258	-1.2842642791981131
Si	-0.7305480042205572	4.221212666099622	5.05581830407813	14	-0.6321337537853309	1.0741972612260546	0.639931659110808
Si	-2.441651098794895	-2.5258911924837184	3.488353504017383	14	-0.6429313676878247	1.1726855073985831	-0.29398043941626334
Si	-4.935346007563975	1.363719742148747	-4.588724526494999	14	-2.066121980423223	0.5927436489490662	0.23841473967935115
Si	5.542589686175092	-0.4919101266553489	3.08508366684518	14	1.0800647806771648	-0.4214854089003868	1.3470640408637942
Si	2.3371458933799243	-5.468361648287837	3.84058351329467	14	1.9232927090099534	0.9369395750415457	-0.42290774436349277
Si	-3.686155743227865	-2.566254825989231	-3.7675782456167903	14	0.8644760569195562	-1.0594157196299914	-0.14447632148135692
Si	4.094357753424445	1.2702161368192266	3.020913219344946	14	-1.775301943666486	0.09320796717654016	-0.7622859333070787
Si	1.914948106454407	0.6591097926420693	-1.880937102919496	14	0.19691684270162915	-1.0617592821293065	-0.4206811671562445
Si	-3.17285102500719	-4.9087171598707755	-3.3804620802841665	14	1.2073290947033222	2.6035850652153814	-7.691053530808671
Si	-4.148576117503953	-3.1397662615763844	4.961949311465336	14	-0.1478154159606332	0.4134396490220475	1.0619911958291839
Si	3.788917307199856	4.839602322750067	-3.7397654987017965	14	0.4006345160855819	0.8152422182545728	-0.6141936093034656
Si	-4.79675649903751	3.208221402507838	-3.084375104271536	14	-1.9210630464763208	-0.2900137381283389	-1.2033567369836935
Si	-3.353437859117272	2.986668989884541	-1.5113428681893504	14	0.10324916189384649	0.05870656199600512	2.973827830864153
Si	0.8734166531800168	0.46991025828338395	-5.479888562005471	14	-0.442201832906948	1.143720977524987	0.24163324931911254
Si	-2.0362633480992764	3.2641323204466453	1.5932662510182662	14	-0.6604827610452836	0.9649283704461457	1.491416692179252
Si	4.793564635657177	-3.864297036919194	-1.5230685792434775	14	-0.8693701558964579	-0.3472380579072787	0.9738827589446253
Si	-3.7937995032401988	-3.630347000456417	1.7920380437190162	14	1.2993021599945953	1.0401260019655805	-1.5440292203454422
Si	1.7152689538435204	-2.7404490485414836	0.7888189464054356	14	3.0790873400078236	8.732050623256718	3.0403577521283047
Si	3.17211136564348	2.3461106537160594	0.9814668926624978	14	2.0220650623203578	-0.028600204249731184	0.10306944163196814
Si	4.932691674411924	-1.8725676239931934	5.093646438593629	14	0.7006876491575031	-0.07614636938256954	-1.9947264994512233
Si	-2.031777636132273	0.973730455533965	1.3590163526512826	14	0.13721809116257888	-0.30541131655910975	0.6803946861971703
Si	-3.094852501324447	1.3158606716377124	5.281475492990125	14	1.9869982710799226	-0.04797708238449517	-1.690240266586303
Si	-4.765772990135441	-4.823035507842469	3.4475711744456263	14	-1.2064693170842649	-0.38759849789136713	0.3952457364450836
Si	-5.253267372601435	-1.7313104551189336	1.255077553055369	14	-0.8526091203144128	-0.8139579511471589	-0.9729833863036376
Si	0.838972515783474	2.885910947672509	-4.9746134792196655	14	1.3967377956490548	-0.5746654361115091	-1.4065722734986215
Si	1.6712858760942688	-1.9422599729294114	3.0299257354658247	14	-1.4242823040543335	-0.8364576938037745	0.670579234526973
Si	-0.00514762935554835	-4.817198196107245	-0.3122217676582421	14	-4.063008722564435	-2.4986004072304353	-2.7272284916191745
Si	2.9479168364642283	3.9600118461423275	5.292547060853223	14	-0.4662280407921357	-0.6208712840409543	1.5413365017436509
Si	3.0195593983774347	-3.1503980319799796	4.393383376098303	14	0.20046291115917736	-0.663634164836189	1.6147911809665578
Si	0.3257999589205796	0.5624554161190881	1.4076983774994178	14	-0.016426534779894062	2.053226858800553	0.5854393958450576
Si	-2.772043387248418	3.4747075661766877	4.022810703080727	14	1.1584868353785975	-1.1027059341263887	0.22247928601560538
Si	-2.7508675838131986	0.7270318457438223	-0.8870903560118424	14	-1.0058135730260762	0.31119836041369897	1.1110856805858154
Si	4.104387578820337	1.2133212275947636	-0.9554377687777109	14	-0.3716805277437984	0.3598382737497283	0.41275779189114414
Si	-1.9337860976364591	-3.512838894395328	-0.10857111071608441	14	-1.2270939526308966	0.47024410730220706	-0.1412709244787283
Si	-4.870681343221623	-0.17146881102290754	-0.5924671503315979	14	-1.4663201331492866	-1.505722579291088	-0.7201817696948658
Si	-3.7929754383034533	4.376718828421926	0.5248227471411473	14	-1.17836122239281	-0.7378177524173575	-1.1365650771979507
Si	0.09938089865197165	-5.425661313128803	3.398256107799721	14	-0.20675697698289985	0.07624818515324741	0.14223046098420755
Si	-4.881872855846404	4.230717177863329	4.473777463215764	14	1.0410598274178584	0.5593398486297024	-0.9718664981525653
Si	-4.867142972751984	5.09418174762262	-4.550090096637079	14	-0.7267069778868696	0.02547991083319948	1.7601293369512283
Si	0.6259173010456779	-0.8643163996871661	-0.3229257270387761	14	0.5389833793679619	-0.17285541067355537	-1.1329508744494186
Si	-2.9789780873414617	-0.11992810268800187	3.327487587807295	14	-1.1474184840858919	-0.30041694447472206	-0.13975294389771287
Si	2.5582640615419447	-4.533110138661463	-2.6293202268424807	14	1.0745384469020385	0.17493106399851088	-0.7389546951899271
Si	4.218497249967084	3.5572195668175643	-1.8079584896331016	14	1.0560486001027256	0.04661413945428467	1.0658553100148345
H	-1.6811357843476362	3.5917381143903366	-3.6021733086567296	1	0.3129932490376944	0.2127684783319381	-0.48919803861180666
H	0.8757078202480851	-3.926385110084659	0.6693028761858065	1	-4.289875856919405	-1.934875281366688	6.641513169602836
H	5.184384650806575	3.6068156151737076	2.1767930742059236	1	0.21666910221313473	-0.10200063315038256	0.1877038010079425
H	1.273999949810457	-3.841827384897305	0.10752159405136096	1	3.4978908289487642	-2.345556648601281	-7.425827304850816
H	-3.4713491128495724	-5.28271936459276	-2.0461332471462574	1	-132.7924989971144	-50.64640778453088	-100.71978741281814
H	3.9369035993244426	2.6716596171168217	-2.9293986979799964	1	-0.7539748353597	-1.2826619663625969	-1.8229954331341687
H	-3.2752760772866827	-5.210926871727449	-1.8951872069671856	1	134.16496427298858	46.96497731675069	101.42167371127589
H	0.7452945463096556	3.1036773261052852	-3.2786933923949935	1	0.5272750799610717	0.7288772478876065	-8.433781323055914
