72
config_type=amorph dft_energy=-6952.21665286091 dft_virial="-13.735813040575135 -7.935101590787336 -11.572494806916195 -7.935101590787337 0.3006006150258636 3.3845868411489497 -11.572494806916197 3.3845868411489497 -8.133825009925776" pbc="T T T" Lattice="11.105996452100001 0.0 0.0 0.0 11.105996452100001 0.0 0.0 0.0 11.105996452100001" Properties=species:S:1:pos:R:3:Z:I:1:dft_force:R:3
Si	-0.2932316243247963	-3.1792614061593425	-4.837429989844035	14	-1.1129679867906956	0.09769223196541045	1.4554083621705782
Si	-0.022900564684230202	4.546235205268554	1.7805688811829326	14	-0.5485584326907254	0.6662240392251741	-1.3919048889787726
Si	-0.9663005439075101	-5.27148342798217	-3.7905654370733473	14	0.11196083805010422	0.18241735135918608	-0.3027309392628553
Si	4.963316459628589	4.189598336599074	0.43615580326651643	14	0.5100705287113008	-0.42427222995689534	1.123473008907757
Si	1.3840192824638953	2.976034998281655	0.5418382443054097	14	0.3029096310826056	-0.7477550744797299	1.8544045699461618
Si	3.840494665323053	-3.4926826214344113	0.7700920151879046	14	0.6299912517220513	1.2471447174700716	-0.1968834183324672
Si	1.68382676728798	0.19212263262487791	3.2525021209620064	14	-0.10853381176887884	0.2804240295052506	1.003883444262241
Si	4.526676434916761	2.8755834815717005	4.4160140650687465	14	-0.3672445997349469	0.9981012855077602	0.8653296638858454
Si	-1.4650297523844482	2.1231411159454736	-2.8142661645600113	14	1.7841118360459733	-2.326369518039144	-0.526066917571134
Si	2.2717882148589608	-0.4242301842762514	-4.098736847825508	14	0.3783859704187446	-0.2937950627226807	0.6896041283434087
Si	4.3177171116704995	-5.344801884759998	2.0186214727351155	14	-0.7497736492665781	0.03680357288419565	0.8617560846013714
Si	1.8934668881167551	-2.7829017199796358	-4.256899564499155	14	-0.27212938663192093	0.6791340732587017	1.0987657152232617
Si	-1.5807275810238455	-0.9600567527021394	-1.1185304372764446	14	-1.079217087253112	0.18188076167887116	-1.9866773971359675
Si	4.679889208971707	-0.5845507960605411	-4.467151625732441	14	-0.570791808836174	0.31397026905935066	-0.9781093989804168
Si	5.409045631836816	-1.9758967043838866	-2.6709255107513377	14	1.0523822039161943	0.39758235696003413	-0.8800433283014568
Si	-1.6375269786788202	-1.4693066716181522	-3.513676286527816	14	-0.7885628867895241	-1.1314051259309457	-0.8391673817006787
Si	0.5470191916503143	5.264664346160581	-1.931527137958102	14	-0.018862142849670336	1.022512387859374	-0.7839474956293262
Si	0.7023720912215795	2.7096898807677476	-2.256774018255367	14	-0.6649078904117904	-1.8625295198683616	-5.714210097301206
Si	-3.6635072846630967	-4.673015707767502	-0.8652137642004959	14	0.04712758918671824	0.7936436480126687	0.06629877889587038
Si	-1.5357971617772295	0.41416148789277757	-4.901647082529369	14	0.5989266430229583	0.7347082576431705	0.9947110260326129
Si	-0.34283100447987497	-3.2197938508109263	3.923894035080453	14	1.8669340803923073	-1.0453857121190075	0.5160840869445951
Si	-0.8449331040793159	4.206955898454061	5.512703449722491	14	0.626925722848839	1.0995195633031292	0.16204288436020461
Si	-2.3059402645488136	-2.4065028412232885	3.410910280157244	14	-1.8854133856598077	1.958847753150685	-1.4714068079146676
Si	5.518999439111187	1.7959706770627049	-4.959870268929502	14	1.1081674760474474	-2.657100308459476	0.383133516392398
Si	-5.537856310487207	-0.4875732350408038	2.81510577789179	14	0.9577364746446274	-0.27839748429190986	0.1665775428133498
Si	2.8506216439459613	-5.4642246646094295	4.099389880416893	14	-0.40053450008862823	0.18521754216335934	0.18685070826271738
Si	-3.8268465062830677	-2.8372544666162134	-3.844746040764917	14	1.086180411791669	0.2268082560431387	0.30049433474485854
Si	3.89561261511518	1.1149998410043223	3.0459761215384002	14	-0.561886271338777	0.41509441240609474	-1.4092806758428655
Si	1.9463780764138503	0.487013492819618	-1.837734776720827	14	-1.4957950274289322	-0.6185737443268698	-0.9991564671311489
Si	-3.279272014810148	-5.08051137658973	-3.1206084176965123	14	-0.2250110534243552	0.7235231781689303	-0.6607406429088944
Si	-3.772874695324797	-3.2253046462504584	4.877511531039665	14	-1.1165672771283708	-0.5144277808973557	0.4514539554015009
Si	3.7025759589822944	4.970690841272784	-3.08963490419125	14	1.0590462517954862	-1.186419323576686	-1.8694861595330865
Si	-4.906374905219027	2.8247746584029882	-3.0626073512254197	14	-0.25017703229796456	0.6981309420271478	-0.41779818676076247
Si	-3.1140714281848063	2.950210224731587	-1.726489342059077	14	-1.453065056781795	-0.3297386008772868	2.9130325029060598
Si	0.8571885711642083	0.6970456553231523	5.4992074428338995	14	-0.4242156656398521	0.7990758793330776	0.2726628909858516
Si	-2.280509753872795	3.6099141881838435	1.7749225925866852	14	0.8162961143253014	-0.6797040873081786	1.644597233611438
Si	4.751319646352679	-3.861865934295829	-1.3575725731125095	14	15.061219233694134	11.458669762915019	7.300040862162679
Si	-3.354866090261012	-3.221098805394049	1.3377861298334481	14	-0.21191255737086082	1.1275667227984965	0.4679409111564184
Si	1.6323449207342704	-2.8530327557757116	0.7196219249109813	14	-0.9483953919059974	0.15049862147273974	0.5867277767209836
Si	3.74681780644888	2.188197821962585	0.7443472048122916	14	-0.5326371201062404	0.16098975962107198	1.7543260951331219
Si	4.959991324290831	-1.9810665457323393	4.522719368380878	14	1.2633830473405308	0.5109884133105936	1.3411191311425479
Si	-1.9580049440995535	1.1906749902292864	1.5433025941795588	14	-0.015103186871613845	0.7708047765643253	1.4497529589083804
Si	-3.3320799173402382	1.540257329952393	5.144439713367308	14	0.033471677499815757	-0.7523923200351489	-0.4924126915935877
Si	-4.784974147401477	-4.785572760610245	3.042031271598614	14	-0.29730307882149076	1.5956292472365579	0.31173674986773797
Si	-5.423590044790486	-1.930680861028452	1.0262018463715565	14	-0.3435706332786194	-0.007809989520481804	-0.4819164112346153
Si	0.9715770028219027	3.035824130181535	-4.632191175409227	14	0.10405468919064888	-1.1724893320626557	-1.0689496352676324
Si	1.6034115787772594	-2.148036317592501	3.179914438750726	14	-0.14325324668056247	-0.6246150704976218	-0.8039818053944522
Si	0.03873105202705354	-4.616103028948716	0.09357357310716857	14	0.4309311356255469	-0.6198520978920475	0.6193322203963135
Si	3.011397601584787	4.098795709606704	-5.101137433200569	14	-0.13651540807858242	-0.3967876283055764	-1.6549446469723739
Si	3.0588679622199972	-3.2223415663970387	4.978637181734261	14	-0.4108927120919087	-0.6585847710979502	-2.549854363345459
Si	0.41746107943869654	0.9656797187058377	1.465964877285715	14	-0.35068308192574504	-0.6869988273225027	-1.4848832564502237
Si	-2.872510452353405	3.742199933124097	4.3127260768649265	14	1.5844616512784948	-1.3389061807934963	-0.891001122065396
Si	-3.099353761686483	0.663085739371921	-0.3233455337046655	14	-0.9297312241659785	0.2872613698831204	-2.0434052364775868
Si	4.039205375043317	1.0693808499776762	-1.24204688741812	14	0.48689664223974205	-0.39496214352827125	0.48847812912216515
Si	-1.6403312427829755	-3.0102936655374477	-0.2163303730915203	14	-1.0649865335271564	-1.9102489774997777	0.16830995357806558
Si	-5.244141575316744	-0.4564808873735047	-0.9247041447958146	14	0.3335055272818358	-0.11510350008292124	0.7959447872742013
Si	-3.8155195005015705	4.416106244839299	0.2611075295870971	14	0.4092572319977626	-0.9144431748218459	-0.773803713809746
Si	0.4736518684880965	5.437293733812733	3.866792554321981	14	-0.3595263986743944	0.6095316811369731	0.057811303123529556
Si	-4.907235619944065	4.663986532651945	4.488081986646069	14	-0.9107526102453055	-1.1303792549082066	1.5643291252901392
Si	-5.164396078392087	4.933139246068944	-4.208188664060245	14	0.24880303361487746	0.3447019196194846	0.6454163409797478
Si	0.4962270274762801	-0.9910569205988862	-0.38635651517530006	14	2.9264619002142576	1.753372215059347	1.108928009001147
Si	-3.180553033546722	-0.07314409263353061	3.188383871645097	14	0.17345782065006604	0.4084509333693641	0.4423093051093301
Si	2.584832936854304	-4.2857573856802915	-2.4411102367676776	14	-3.1267088385265422	0.26170381166925244	-1.3481670450461376
Si	4.519023292761619	3.344210997264867	-1.584263730294194	14	-0.8769292055376935	0.3882482162057686	-1.560537773385049
H	3.7708789477623545	-2.6546241291589454	-1.2723484881380298	1	-0.7789001587753437	0.33695697906360256	-0.01303550397315076
H	-2.772044497848063	-4.310658140325545	5.151423163936388	1	0.22755541924917375	-0.8762038967268796	0.1346642122480758
H	3.797227924344962	-1.1103986266742172	4.274692481415064	1	-1.237240305555797	1.2028684840833976	-0.19030138871288813
H	-1.521329380199079	3.2160111484193417	-3.7151446151671363	1	-0.11412827983498905	1.6594114282450676	-1.5429601547533243
H	-3.636362008134874	-5.069436476927695	2.0409833965914186	1	0.29339628428752573	-0.26484030304930106	-0.2058619752209563
H	1.01127871893887	3.0676583584118347	-1.0226701394997888	1	1.2976887914062023	1.4344854784068088	5.74644250203671
H	3.9744440885318313	-4.509132292321379	-1.729039278844479	1	-12.296490656759534	-11.364855529103986	-5.731350113807441
H	3.885436190566121	-3.8324494814931516	6.000150076403742	1	1.368178471973914	-0.8752495024320406	1.2708030001839459
