72
config_type=amorph dft_energy=-6954.776033364989 dft_virial="4.148036938725097 -9.9198202958535 -3.173285990419472 -9.919820295853498 -12.563596416290174 -0.0943307369328024 -3.173285990419473 -0.0943307369328024 -10.934819025250455" pbc="T T T" Lattice="11.105996452100001 0.0 0.0 0.0 11.105996452100001 0.0 0.0 0.0 11.105996452100001" Properties=species:S:1:pos:R:3:Z:I:1:dft_force:R:3
Si	-0.43644344857462586	-3.172964306171002	-4.790076242171572	14	0.21202311489962714	0.8984935800788394	-1.2132845459563812
Si	-0.3871405985248183	4.663145808720521	1.6592891787267103	14	0.9357805207632228	-1.5666996843953158	0.8143847546303034
Si	-0.9813880400876879	-5.083833180128552	-3.8409522323768797	14	-0.2529651389071331	-1.7477461223977986	0.5027673040494202
Si	5.074202060005291	4.0837748494052395	0.3841219886891375	14	-1.0811443878010947	-0.7636576179953778	-0.31226099824251624
Si	1.1402337755431387	2.7710238567741152	0.8444388872371976	14	-0.059825249920801536	1.8016840553565256	2.8400205680192827
Si	3.734700053719994	-3.3823867494693163	0.3767276162513294	14	0.6954870744264395	-0.5999149759080232	0.8425820666763673
Si	1.6692512575442442	0.1590922885766873	3.5151111812694276	14	0.24207907898162614	-0.3946253287313318	0.2300033686244867
Si	4.929889631507059	2.8020917712492195	4.495454147090973	14	-0.21677863129977307	-0.9356843614242494	0.8253577179156313
Si	-1.4143597541713873	1.8104784402280831	-2.255542363248829	14	-0.12976882771851384	-1.2264892286595976	-0.39716455234551007
Si	2.3263997312128724	-0.6282229059091339	-3.7680435868681332	14	1.4593406106472124	0.627067647862511	-0.33522353985675873
Si	4.4812373610326395	-5.303439822173442	1.8111281410205309	14	-0.5498151889712137	1.2762262326357343	-0.015342299666387617
Si	1.7262083603488387	-2.7833859414249478	-4.290227549252262	14	1.0842515685804939	-0.6300401027231343	-0.08354601049395571
Si	-1.5042772332465244	-1.2888619942626574	-1.431798389800475	14	-0.22143464592402923	-0.9620798428619537	-0.008357634953673346
Si	4.841414821371049	-0.5911255459601842	-4.061240782603928	14	-1.6142563910599668	-0.4449683422314273	-1.9242820703371462
Si	-5.271324612232904	-1.792671085516786	-2.3932922584435157	14	-0.14673298062085088	-1.2119136325996784	-1.1272355644332612
Si	-1.837924689260158	-1.6332478382458262	-3.9169527872978906	14	-0.11451188874875513	0.8970411626834878	1.605372193736727
Si	0.6546140852782592	5.527648789148082	-2.0571392896302885	14	-0.12778290596923145	0.0545668253200347	0.3074203782562734
Si	1.0245181773094183	3.0239296079813363	-1.977077271806745	14	2.877494685170973	1.5570441554760317	3.934927311267534
Si	-3.84275140380212	-4.600999984373505	-0.9873908311700479	14	-1.6743608630185363	-0.46502502061283846	-0.23778327621272277
Si	-0.9982402791041045	0.6104544221854191	-4.36603152803607	14	-1.7018724612757168	-0.4742172363534319	-0.5734102224942127
Si	-0.5661226161475715	-3.00681748864794	3.923779643316996	14	0.35258544275212267	-1.1701912781275075	0.9401112905644804
Si	-0.7173896196241091	4.452400641244762	5.454053793058597	14	0.5466283039268902	0.31655217302184335	-0.5066514728565679
Si	-2.6223312232751743	-1.9696195951891595	3.7744328666270266	14	0.6737938875087542	1.279431115417299	-1.9315017340761222
Si	-5.206988685385535	1.3767759515778357	-4.803086917015207	14	0.4709583603601441	0.9444860262667122	0.11988369909414054
Si	5.302815665172834	-0.28461559227725713	2.86000510034834	14	0.6009290198462897	-1.7321073742879982	0.5952281080199253
Si	2.954208383454343	-5.525162156542457	3.7856976788283916	14	0.3110309814573574	0.2657988111126523	-0.05443055673806685
Si	-3.838351208007798	-2.9922119927137842	-3.861161814120766	14	0.6360428623140839	1.3096868543826734	-0.30415430316808933
Si	3.743549311693027	1.3428860034042525	3.062472968668349	14	-0.24990166691817672	0.09490206847198575	0.09344528019758985
Si	1.9577084139942826	0.4815093609779572	-1.772902411832048	14	0.730308067998269	0.4852421359662268	0.05651649448430298
Si	-3.3239236735458166	-5.144781778058032	-3.154149637581499	14	0.5035913433045276	-0.1059963879284247	-0.7567238611680023
Si	-4.16641345840567	-3.0585136809331757	4.844637781541449	14	-1.8799698414759902	0.02623890112370719	1.8648214031507415
Si	3.617376307200009	4.74001374196444	-3.8726143176621717	14	0.39733861617568417	1.205152139828753	0.9663645898779802
Si	-4.819945819629495	3.2034713678252755	-3.140121653462852	14	-0.7310475178883435	-2.513068531087973	-0.8080912030276448
Si	-3.069620787984921	3.2325168803464526	-1.7521330878669759	14	0.9983712515663757	0.8755387517805574	0.16645952907915498
Si	1.177187868137856	0.6693639591662931	-5.30921605092818	14	-0.6822515384593812	0.18533298479223398	0.02378118154817764
Si	-2.3555718520936035	3.435129126620339	2.1378487870469898	14	0.07634640137647707	0.18038386416148094	-0.13279527579086015
Si	4.710051984735965	-3.889254432146353	-1.7392334729878616	14	-0.5173171890561381	0.42811166153147245	0.6083677417585421
Si	-3.320383081876887	-3.0436782908724607	1.7534447060479688	14	-1.2382396941937386	0.7036660175603626	0.6400149629231807
Si	1.4772941042665022	-2.8258908110464245	0.9659296036260099	14	1.2910075171212656	1.9145280680841004	0.1510547515534878
Si	3.402408639873162	2.3803782057690137	1.0485548854306983	14	1.495485209237854	0.3540417168054545	-0.41615987845076413
Si	4.815646688402887	-1.921575054537375	4.801363266365841	14	1.2056280514235123	1.2245768405224717	0.2826328660857898
Si	-1.8460209606737388	1.1647902442983769	1.5645983423764604	14	-2.0475074350158833	0.24239275383068423	-1.2063081087806915
Si	-3.0338350462169643	1.208717792065368	5.259490062413547	14	0.2549356340244946	-0.13674475067313963	0.19695000996025905
Si	-4.276040749384349	-5.15198623795651	2.2747957186981895	14	-0.888919298087672	-0.4912549228679251	0.152968939464338
Si	5.476755560406334	-1.9256576188331669	1.1784539517333954	14	0.6425007075466999	0.2576610056638516	-0.21145875728185465
Si	1.0031591249327394	2.9645680569448616	-4.848953571762735	14	-0.6164836928121215	-0.15302653222350934	-1.490649988572784
Si	1.5277386507515858	-2.318465607347492	3.4243241026720908	14	0.045125212363386916	1.477718871475631	-1.49235823094749
Si	-0.22937325532486655	-4.901739262299921	0.05691156821914125	14	-5.636054923332003	-3.883601364203546	-5.3004567734301
Si	2.9084972126571444	3.7252210857481267	5.26571941582353	14	0.902238394977635	0.6653940864278304	-0.1008305231191832
Si	2.976839072424787	-3.382466712643771	4.8349922236228	14	0.3520162000342419	0.034060460618129666	0.2291870426853397
Si	0.3724751302098202	0.8166039283292993	1.6692123865566615	14	0.35535606584511426	-1.648295511503939	-0.7942578850736521
Si	-2.804738330203755	3.4463506254355405	4.6453628872014185	14	0.8356210561325984	0.44391701726601873	-0.9933041172014277
Si	-2.96268114814765	0.4487888742307802	-0.7423370194544614	14	0.9819323754809449	0.3349422609347345	1.0300112736361178
Si	4.07031771350423	1.1853363377347619	-0.8585124059412986	14	-0.8565269706012545	0.14269917348407055	-0.6076815137485946
Si	-2.1877113793179834	-3.3645793947580187	-0.21305188293886038	14	2.110294084044431	1.180238643497582	0.09591431263652804
Si	-5.254173621911927	-0.3721186277237078	-0.6504648850037545	14	0.4737955750809276	0.32634808429160755	1.0120778140280853
Si	-3.6826262575553876	4.483357495755345	0.22687884852172485	14	-0.349570564653717	-1.279307959472464	1.1327989221249979
Si	0.6466088830355854	-5.32732882054191	3.4972693979691285	14	-2.188628206943915	-0.40499382515589305	0.7255283832081137
Si	-4.746889464367936	4.767712097115978	4.3879058986481265	14	0.33199705979050487	-1.0614114115794906	-0.6526689148668215
Si	-5.082098423482734	4.97323522505996	-4.446036905277708	14	-0.5468651027268759	1.5069713651450838	0.13059312408415333
Si	0.6500961659215448	-0.8528772233415031	-0.4218712706298255	14	-0.5353228967236671	-0.045495451529488244	1.4740252215727063
Si	-3.4327413373831375	0.2553879414142656	3.0064487695657305	14	0.3175541327651051	-0.7771392087415743	1.695696409186189
Si	2.6020050285685405	-4.268477565800469	-2.689204870311849	14	-0.046205333708381126	-1.5821628260117504	-0.970127916735081
Si	4.366200339182143	3.398565965100735	-1.8712793284047498	14	-0.5045315965201058	-0.05489489835888559	0.18506996071798285
H	-2.340894167182508	4.541759488698358	-2.4959638638442447	1	-0.5753125833205903	-0.6071955748430865	0.22322490655844832
H	0.8774392450949675	2.715456114125678	-0.5784802583998232	1	-0.3437308131400647	-0.2860406090771141	1.8772665813423863
H	0.49705997721018763	-4.1044297816068545	0.7024187364066784	1	4.604273186572432	4.594263359340031	3.893271291312623
H	0.02725855769203424	2.1549286989906746	-1.4586593528195237	1	-3.1678467807594433	-2.0880367966195057	0.10798359523036716
H	-2.44114688655597	-5.2631061748583505	-1.1280982532199288	1	0.7308667691843372	-0.13999719890312695	0.06343328201656534
H	-4.321235491346525	-4.519214315900595	4.35997764937003	1	0.20171992455019774	0.47463478385742386	0.20466049770485112
H	3.723598499666475	-2.600273603721658	-1.7473230808035716	1	-0.12655803139471292	0.46364742238230305	0.06906374555715762
H	1.129711954504419	3.175050012304706	-3.225210245280616	1	0.6833123765144743	0.533342374295557	-7.952740373182811
