72
config_type=amorph dft_energy=-6948.183331173448 dft_virial="-7.507468916691966 10.673208448156815 7.986669060310603 10.673208448156815 -18.50517509989762 -10.255637719334276 7.986669060310603 -10.255637719334276 -5.559224763239821" pbc="T T T" Lattice="11.105996452100001 0.0 0.0 0.0 11.105996452100001 0.0 0.0 0.0 11.105996452100001" Properties=species:S:1:pos:R:3:Z:I:1:dft_force:R:3
Si	-0.13700246163346042	-2.655532599668727	-4.736005587844878	14	-3.400659853277788	-1.1115970734339928	0.45838822644994015
Si	-0.20283103440399275	4.422458874809901	1.573057779874025	14	-0.10118045055325535	-0.9681412236542026	-0.07565734515067737
Si	-0.8629314819295891	-4.9077065141936345	-3.995939744664871	14	0.44459347507574964	-0.38132654357339796	0.11107174983039701
Si	4.930161728420135	4.514500931006324	0.45118110586656257	14	-1.2566554931598313	-0.9373422101346809	0.05096290699278313
Si	1.0444945331278106	2.5155048646017146	0.3337696219746065	14	0.07317520007460641	1.3040381359943083	0.7052773292644995
Si	3.6932424795639496	-3.068654566293588	0.5119297958599044	14	-0.7648922627701129	-0.24103392466898596	1.601115728879222
Si	1.4581829055717286	0.3834200897133648	3.484568580426507	14	-3.2600856983408195	-1.7380731099623379	-0.8534771254704947
Si	5.009529621465423	2.551448311519291	4.740931097271384	14	0.2505277310636328	-0.2697323451419469	0.049014266270642905
Si	-1.1897665197195044	2.6745704987869168	-3.267635151727638	14	0.5228630632316975	1.5357358630247724	1.391598670335143
Si	2.2648269762827846	-0.2061139669552335	-3.808169552049571	14	-1.397117805015373	0.06176360622166119	-0.5573318153746667
Si	4.000047852752503	-4.858351465960502	2.1142596505827296	14	0.7769466329530951	-0.5238925338018848	-1.0861919817656098
Si	2.006090576938211	-2.5077662062738915	-4.519971744858628	14	1.5853569101509704	0.026700414528673774	0.9479271936271985
Si	-1.4816198898845954	-1.3707209623121506	-1.3433091418690775	14	0.9234335587948078	-1.4465912706961943	2.5227117187017196
Si	4.475199030761633	-0.44144114697807085	-3.79065983804319	14	0.6682863228024649	-0.6448617535621919	-1.2832805743026245
Si	5.433894188298744	-2.161485679295994	-2.663132433040899	14	0.34523722374713944	0.12912322317262465	2.102251152381944
Si	-1.9031080036368233	-1.427161636281723	-3.4519424946491726	14	0.7501181773794781	0.15383283085190777	-3.2323720112054755
Si	0.6502971844573279	5.336278032483011	-2.1897648780619763	14	0.6610041812042096	0.8852667858698697	-0.6314742652707128
Si	1.109948833817907	2.923927884127692	-2.2095368835456504	14	-0.8007051887744554	0.19016563435198433	-0.3032595585166778
Si	-3.7998955846927567	-5.136402303734923	-0.8869970656416448	14	0.16487881352832795	1.0210514858164659	0.7774636822329769
Si	-1.2951268868612869	0.7921240909495805	-4.485342137321336	14	-0.7420557053165576	-1.8332024641446245	-1.0060902239585243
Si	-0.5760924691626217	-3.136086844951804	4.07410152649546	14	0.4348785536235702	1.7510854739876074	0.03914893515723473
Si	-0.598136761520395	4.7418284617847135	5.0983076253045745	14	-0.10503479453868932	0.8289354109686173	0.6268339343889096
Si	-2.7545880926246524	-2.341702683724221	3.5587888441162465	14	0.677887601399494	-4.708836697505938	0.6481057171446226
Si	-5.154358478798678	1.110334211894795	-4.507543024229084	14	0.45374686712600887	0.4967285489839883	-2.5109509687462985
Si	5.451624911634522	-0.4908239602023335	3.0623052681219223	14	-0.6953436067495753	-1.096669750166277	-0.44332540593185266
Si	2.546838212392024	-5.48984953022336	3.8120644250053224	14	-0.25915378941272954	1.6243222683883465	-0.16941295776040907
Si	-3.730628595420654	-2.9354636826424882	-3.4780793466995448	14	-0.029962632958877654	0.8296432362632541	-1.748322821321108
Si	4.100468272672391	1.332200924217687	2.8992770144026108	14	3.756967485201889	1.8062860767690583	-0.06018289067083414
Si	2.0747967133894822	0.6487701099451642	-1.5184562589169206	14	0.03797985356816339	-0.3898541285887331	-0.4758930828011043
Si	-3.051697930910522	-5.0235331723918755	-3.002452832042265	14	0.3494003574815232	-0.4722608823153312	-0.8820927563521468
Si	-4.636419228258542	-3.560423646793995	5.16232925245235	14	3.1341933261134933	0.394819704293535	1.7649630149531064
Si	4.117330507085614	4.936595432164837	-3.7083044319522878	14	0.005981419416792491	0.2779799367879178	-0.322571644797374
Si	-4.777910733657941	2.7753263197996585	-3.1259348535949387	14	1.955430497069676	0.39167215716060977	1.5047776980859335
Si	-2.8115674074221513	2.613298716360681	-1.4891597508759262	14	-1.113685325175017	-0.8136823286568388	-0.3951176954001402
Si	0.9184792337844127	1.039869996205156	-5.4775585239498215	14	-0.13536792377420032	0.11300624947327642	1.2802446131405936
Si	-2.3365928147566097	3.264979707975941	1.9881277382765845	14	0.03701954573108809	1.5763842668047174	0.8857028453321668
Si	4.404464939358208	-3.9335906805827814	-1.378368551469067	14	0.9904522471803197	-1.6098986246528477	-2.190051827959681
Si	-3.6055972873629116	-3.5371121602410374	1.2778004217963657	14	-0.9321624613567104	0.5984391614542582	1.5504089039763256
Si	1.3418575881327879	-2.85942314613425	0.777705175755819	14	0.704228832514943	-1.0143586415575885	-0.19703537065688795
Si	3.338840137380632	2.5647621800660687	1.1469862213860154	14	0.43590545308843726	1.0189202966165951	-0.7574753952530817
Si	4.872875888120558	-1.9686855808875383	4.9772256095852	14	-1.051264544433526	1.4230381461899138	-0.4276537476739541
Si	-2.2504724758684453	1.038314046102217	1.688908871264461	14	-0.39158653935344884	-0.7581086584934341	-1.2709814348931645
Si	-3.1738239102963948	1.2757313746573395	5.109707930662655	14	-0.049139221989202106	-1.983240857765058	1.3384426105042737
Si	-4.884771520920403	-4.799903938432036	2.992508522819055	14	7.038354791120136	-18.444289127034658	-14.035335098317915
Si	-5.477030989118346	-1.9496321333743154	1.0810810172399636	14	0.29188216036449055	0.7719604884057318	0.43176314530714677
Si	1.0067918963722213	3.4316729405244453	-5.082169501860028	14	2.134195850432124	-1.2557435221027748	0.3469781191594117
Si	1.3481324761282245	-1.9967126735340577	2.9349017192220126	14	-1.0325839216194581	0.4993634177160761	0.8263457936901643
Si	0.11969376616286255	-5.012961374369121	0.05655950813160968	14	-0.3106648560597683	1.4649440775819431	-0.7635038658972328
Si	3.354422961002573	4.064926862826381	5.293203425243542	14	-1.230467242810931	-0.43582857703936495	1.34115641216969
Si	2.757626693253947	-2.9695268843607248	4.434112396887088	14	1.115594370875227	-1.1476694239651384	0.1231019516233699
Si	-0.02123355461676999	0.7922951232949428	1.4848306334588972	14	1.9371879906021616	-1.3137175761930695	-0.18008458750221568
Si	-2.255339123513756	3.2255811855621164	4.6089640944293055	14	-1.349454911701	1.8967583878849605	-2.320971739530025
Si	-2.740281347995057	0.3206656567607738	-0.535811020030855	14	-1.809718245260924	1.2913831556085393	0.24886216903724087
Si	4.284256965559613	1.413606767611935	-0.6568164043747106	14	-0.4048614132319054	-1.2454596150432464	-0.8129637047198573
Si	-1.904892737266676	-3.691820912018081	-0.18312788609832212	14	0.5968756723090762	0.2544013583389679	-1.0094838258705878
Si	-5.122543130762347	-0.44883885121481465	-0.6961171940197568	14	0.4250589881848606	0.0543655077734671	-0.42927482957830737
Si	-3.8896631328157905	4.013212900946822	0.27687249155085303	14	0.966601131567434	-0.9895585309710363	0.421748947195702
Si	0.17906309139685356	-5.073491276232358	3.292154970694584	14	1.0208023457109434	-2.3359080616663612	0.08699746227572248
Si	-4.445562679229203	4.502393173674244	4.687915512607639	14	0.4184198800271743	-0.6065489418550692	-2.2738243528323414
Si	-4.557853188157096	4.75574094354026	-4.2300063940903945	14	-0.9008014042142044	1.0924922182421004	1.1798218673251861
Si	0.6160129734096952	-1.0177146438828617	-0.33422718902843307	14	-0.33560226367041646	2.11252708901498	0.16859251805274986
Si	-3.3312203132148457	-0.24799912197468346	3.227347038998	14	1.671714938533572	7.224208938960762	0.8464718919152193
Si	2.5785136248730587	-4.398704258998504	-3.1271787251975742	14	0.4986368233526023	-0.7024473136386125	1.2415970435207877
Si	4.614339396712122	3.4647532615566705	-1.825301613692701	14	-0.9416045885344223	0.6174234318066355	0.46221197428206445
H	-1.7924256429951946	-1.1573669962697932	3.6274050219962555	1	-0.018512215415598183	0.9971340356863205	0.007302710440816589
H	-3.9361950367507985	-1.4314374449157814	3.2296404272653585	1	-2.5428583857693363	-3.759047509405889	-0.17814391720656794
H	-5.214561864366222	-4.023890205935871	3.598211799722266	1	-7.119256419792319	17.13679105461103	13.243055678788119
H	-3.456890216068584	-4.826988131979771	5.168476421488587	1	-0.5376039813637025	0.754703743717962	-0.19576293063394667
H	-1.4697486902769454	4.005064431349916	-4.2180563419079355	1	-0.059570967604638904	-1.0739550631048969	1.0200158445935104
H	4.458435639716833	0.330239025702484	-2.42647253344381	1	0.051134142607105	0.587533304017786	0.34022459681497874
H	3.5165405230128126	-2.7684083946096454	-1.532239911113622	1	-1.440111313957825	1.7731013346229711	-0.19774396728312077
H	2.806144349354591	0.8711588041013049	3.1497272297942733	1	-1.787226730141333	-0.7151529447991882	0.5846364396535754
