232
config_type=amorph dft_energy=-23334.181117419066 dft_virial="-41.47921227871876 9.349205240331369 0.46400060835776075 9.349205240331369 -69.33959968405972 8.225835346412582 0.4640006083577607 8.225835346412582 -41.83738818692475" pbc="T T T" Lattice="16.476621755346525 0.044141840803071 0.09983404756469101 0.044075932866075 16.403628715123453 0.09853236580902 0.100427218997655 0.09915849121048201 16.402986112737743" Properties=species:S:1:pos:R:3:Z:I:1:dft_force:R:3
Si	8.001017589011289	4.450868438039073	14.781655805731416	14	0.49642515855621094	0.12050744924480845	0.19404131851157552
Si	7.310625358184488	15.4562515517587	14.248533094164472	14	-0.21478782445038241	0.08749291427091503	0.214121136840868
Si	12.144483170408893	3.6924921702009	12.913389878880603	14	-0.11667033166501946	-0.42675591769615834	0.7748318988272732
Si	10.63252708484743	4.1490710514391145	3.0645246418998617	14	-0.08067819961986254	-0.2391626742169822	0.049538771755953115
Si	1.6095229000934919	13.504668106354393	10.509035383298025	14	0.019753030843101645	0.1318583650121982	-0.06856932200409314
Si	0.9620927579975349	13.904897349159453	16.007891098224672	14	0.06921955453955861	0.007333049483594336	0.17904226140542767
Si	6.722523893273905	15.456439389379138	5.785383880223057	14	0.3224055513936925	-0.3538972206864622	0.022344447895278896
Si	1.452839961472901	5.978171186730056	6.24330069258229	14	0.2710430946341583	0.011201020327225107	0.14973448897159175
Si	15.525698744971386	16.266581398632397	10.981705687353813	14	-0.5110508911698732	-0.09044557162057308	0.2656581716516402
Si	5.32397229950461	13.115425716646566	3.1842200462782975	14	0.2533004110408805	-0.05834197926160812	-0.020375238330577482
Si	16.79166004648898	6.062782148547096	8.388154220132092	14	-0.09231373674619267	0.37550710379177477	-0.08002848130546111
Si	16.585267694087577	9.688875367621376	13.465248569237087	14	-0.043047759264707275	0.1557380198941375	0.16729976629777937
Si	10.025257944159986	3.53340853497523	11.879274575032264	14	0.40284592377144135	0.20404548931227168	-0.31148580998849157
Si	14.294545072679805	13.014667310265507	5.293086192529859	14	0.017745511809130025	0.08688819029961618	-0.1471034768974842
Si	13.366558024379275	6.602690082227778	2.952639328055452	14	0.25096173364167373	-0.3672178602396174	-0.16115276769836934
Si	4.402711156174521	12.368486123575623	16.273905418131076	14	0.21460116220413966	-0.09695535318065598	0.06968852414995362
Si	1.5258033431243232	10.69365999180807	4.257308360970796	14	0.09719420886489775	0.250705908662319	0.3761912749174662
Si	16.447737601958025	7.456945921410883	5.18399207981723	14	-0.09727365601929033	-0.1407379343458616	0.29178060170434467
Si	4.7227452689412734	1.932226284308582	3.5721080278808564	14	-0.5134037096483407	0.5033959393001964	-0.828218329694828
Si	11.244892556763089	6.590587737296888	5.953277758926666	14	-0.30466723867945883	0.22656425814825665	0.286732750629298
Si	13.280913955649822	9.382588002813565	5.898198495979109	14	0.2698290187019844	0.1781763131336018	-0.11633068865222788
Si	10.754720400038014	6.947037632952355	13.09450818514246	14	-0.11366136710885016	0.08420189946112548	-0.1436116587621911
Si	8.875564834297037	0.7883050620280572	13.76359073224003	14	0.08550596407950459	-0.4519496645072254	0.16628315125419282
Si	7.571269828924145	4.661121347850013	5.4671902465969175	14	-0.09073122142164153	0.12695321028241968	-0.21428363069710132
Si	14.309087658977973	14.472826042253985	1.7399827182817993	14	0.02682305625244483	0.10098093278041186	-0.14874512764439876
Si	12.4817522087001	0.22757845874876312	12.529832048738681	14	-0.5132584421977523	0.4322400853440342	0.17220723502234603
Si	10.289054461986476	16.086277055392436	12.315525800802487	14	-0.13536946643739242	0.16007624590082334	-0.032678748619082085
Si	13.50439788381271	3.4527635832669246	11.014368013230605	14	-2.232302030354078	0.8767271166595298	0.9611506453992519
Si	15.99396310343899	8.235981032100453	8.815563896154302	14	0.018595005006906952	-0.18466655429325163	-0.04969329518569401
Si	10.04322609548352	13.828182158194533	12.754645669530463	14	-0.1453373846530745	0.017533395620217808	0.15901335096147412
Si	12.126406270989316	8.023523501796996	4.330782529133938	14	-0.1532008531642154	-0.12308755343357705	0.090044736301162
Si	9.79995495693601	3.473504811039566	16.018087056077952	14	0.06130286414829065	-0.058490846259644694	-0.009372193113003777
Si	9.715507117263035	6.790412363776635	0.2338512466523574	14	-0.07290703378971497	0.059380448700415936	-0.1880979514535212
Si	16.2694072014311	9.465056956678236	15.766465381913047	14	0.34411725026968293	-0.19300182063063964	-0.02962427549874616
Si	9.226893683247914	11.71786603732906	9.453221538892178	14	-0.14928840219854603	0.32288480542536807	-0.2689797826147395
Si	2.624982962375113	6.141197764286511	13.665081434208956	14	-0.2044609799320076	-0.340020965273623	0.22339562795170617
Si	10.535439750557046	2.2971288728837855	9.88059496554904	14	-0.3333044668458002	-0.14642213398764498	0.3285666910723633
Si	12.49885861374741	15.82382670717909	2.4611605464794306	14	-0.11943067033673044	0.03614485570117371	0.10743620690770764
Si	1.8348571935875413	1.044986818055829	14.12465253578679	14	-0.0054926522954323416	-0.06608974803334233	0.17837248846952908
Si	6.209931504081215	12.932824481802298	1.0024020522642887	14	-0.01803193294179452	0.09199414835489828	0.006714184433034693
Si	9.867357356403392	0.6912127846423999	4.641624132388172	14	-0.008907337271121005	0.03557175632531271	-0.13676171996825257
Si	12.16051857148002	10.729706690249607	11.777927940313516	14	-0.22561140651660977	0.30777699056417795	0.08308886796803339
Si	9.092670521857134	11.324265485287373	15.612153481325889	14	0.03332178205965112	-0.05512886894301906	-0.3399841984675449
Si	1.1331650469627774	-0.09118857392924071	6.091822833285959	14	-0.00012546993962322627	-0.4280918640205073	-0.4801246079370041
Si	5.562033415632587	2.2006561301058905	13.598784640384682	14	-0.1256717713908579	-0.4801729447170228	0.26467549519827954
Si	13.250856640982796	1.5330301484159345	3.0231146850852753	14	-0.3337994046199287	-0.117235460614388	0.3808678583842835
Si	1.333020979712598	6.777105551297143	11.801826158268264	14	-0.1165008958244217	0.2074138943921977	-0.25070899398870317
Si	4.280766643446097	16.099779943984494	9.130137536340936	14	0.3597269448893659	-0.802104641400212	0.24124578374736616
Si	0.9318706734880191	9.783912965071183	9.720509529681031	14	0.06037932311729346	0.17150609460154165	0.07783815668322697
Si	6.783370100708613	4.687182993836657	9.264500752097831	14	0.32598273022561447	0.25392493252314446	-0.10026719394353874
Si	10.528776458126751	1.329051674207014	15.41817983195296	14	0.0469653524410169	0.3417896286233528	0.16276510784463422
Si	0.41664361451391363	5.766341429526487	0.6000835278564556	14	-0.05384485894613711	-0.028373946981558155	0.18937219125018662
Si	1.3916394988768404	3.8088476898720636	5.243581093353738	14	0.12099801613989271	0.05470669344945075	-0.21401854973859408
Si	14.553566560470934	2.5403983637328715	15.2552191623335	14	0.03712238994389401	-0.4176385211203813	0.07367605139097126
Si	10.633385535726804	7.7165473990475775	7.943237748345319	14	0.32902409070881766	-0.2874755429562887	0.01502708215413746
Si	3.6949422977587263	9.646615198419541	4.588375462390679	14	-0.4246085305327707	0.30386762492489283	0.5583101209489831
Si	7.2613937769469015	1.637744678715179	7.805290788514267	14	0.7124869656927266	0.10806021416890757	-0.0641233666844931
Si	6.016852554953009	8.251825300154291	1.0595821307035933	14	0.1271391011970664	-0.08865608231775	0.6981921343337673
Si	9.045910488256897	11.44971794796241	5.469235040342219	14	-0.31152874744733805	0.46201939849358525	0.5036556209375312
Si	16.130656164768695	3.866652246014405	1.8393224563190202	14	-0.19080969623468141	-0.07938930452287232	0.41661342142923824
Si	15.66573169100836	7.741134354943935	12.41656431591578	14	0.025950165996254566	-0.11913190789852923	0.00745363432310928
Si	1.300577797726317	5.080396336748493	10.214876726595902	14	-0.21753865003240883	-0.19768328919756528	0.3887989469653443
Si	7.866418752379632	6.339715765915313	10.488264496953734	14	-0.07475977228341368	-0.29004896227122495	0.37829366773775125
Si	13.504088116508829	14.563673542609271	13.139757279287066	14	-0.3218378513390038	0.03708716580100799	0.7843133639163833
Si	2.9118241903722546	10.768720893554388	1.0872057947970417	14	0.36935650564491657	0.18160205386216707	0.6007685828743123
Si	2.5544581743925434	2.708855755297798	15.736403124150746	14	0.052460575841769386	0.20395472929447048	-0.39059280714721156
Si	7.15431644710635	14.520357198717074	3.7268977610112373	14	-0.40946677708135465	0.21825984507471036	5.090788533893197e-05
Si	14.128760247960066	1.7721441438374224	6.79165143299216	14	-0.24247194387454482	-0.32940975650683985	0.335627460502554
Si	14.065656693683247	15.921993283937784	7.4568997858549855	14	0.029406502878129622	-0.034162276388807526	-0.18732919096279696
Si	10.788387821953995	9.304538176124476	13.105668046574309	14	-0.07417715981786811	0.08058641115993326	0.10954322771756898
Si	3.836110508010459	11.693247775162629	12.798476095331226	14	-0.3049171501165772	0.12191512940758953	-0.08499945633143542
Si	9.564399990112305	15.12408873088626	8.379287954907706	14	-0.3791902121628869	0.1373577021814629	-0.2574059520160929
Si	2.3048005567501204	0.8466418247616417	9.815932688562265	14	-0.12256279083773482	-0.530979014285277	0.4289570409607371
Si	1.2303611293492036	2.178894977008236	6.922981235948814	14	0.07308881093584944	-0.02272497148266081	0.0634307109112452
Si	15.30754512121305	7.319377932217558	16.144771997174814	14	0.10418015913027212	0.21707405130105806	-0.001169595810135361
Si	14.922158345819488	9.709881874840425	2.6907508450049966	14	-0.2856068636096051	-0.12729002507935908	-0.4361389094515068
Si	3.6600769990878423	9.331725200135327	6.929059595438271	14	-0.14189287485567212	0.21543959964903991	0.25525445108419303
Si	16.014551095258117	0.6674134285931442	14.883902083790161	14	0.036378054953711145	-0.2456369745236471	-0.07685805133518653
Si	4.117600011523525	14.211125396823968	7.7122057136979665	14	0.15804558691897042	-0.24049296410962684	-0.10935245170281399
Si	12.703708720423105	14.529216873147762	6.099741671916028	14	-0.24082540802752198	-0.03891136502565304	-0.2534942723820196
Si	5.838611130141025	9.882941288106098	7.565399079436226	14	-0.2038302877969753	-0.053386945088618735	0.17301893297191676
Si	7.800342750144292	6.756919597893694	1.6637124058916033	14	0.08390930767569264	-0.3219329822358492	-0.3033410625553265
Si	12.416478635597686	5.679916351743632	14.14344288862435	14	0.03768417645634636	0.10965789901484757	-0.1552117146351032
Si	6.310485595857587	13.561703187332306	7.132530578532322	14	-0.004742660873545146	0.07652972118580362	-0.1603408126382666
Si	12.590549735696246	1.3537589120883895	10.412564288218555	14	0.007441807238636601	-0.4174387462370058	0.049261092381377124
Si	10.396476160797832	11.450271574633176	7.433919335922906	14	0.07033078625892661	0.10195383903355588	0.2144792918119646
Si	15.60411765610765	15.488043892867145	13.242502809968554	14	0.34599749959030723	0.04590657127017993	0.4880675236025375
Si	16.06320268665014	15.647170368251862	0.565094651803704	14	0.18064123180402777	-0.19351038526296496	-0.2400178238464635
Si	4.958807726879846	0.9019929579493075	1.4337217166487863	14	0.1074634606241012	-0.11296279779336593	0.4010253240942444
Si	10.915418779720085	12.54525944909102	10.957352704633792	14	-0.25677243166520847	-0.30206810831132114	0.21725197178921232
Si	5.551138833647148	8.847377657342271	15.156667024143383	14	0.39784743791854144	0.33848190162898234	-0.7267393738139035
Si	5.344805798389046	16.32987114283123	13.254498054501825	14	-0.06335897707281307	0.06247760216906631	-0.12585226298433227
Si	1.545493339301878	2.4602526646473106	1.541931015307244	14	1.0130412071915444	0.888277550199763	1.671297905250644
Si	3.2527478237698886	15.686304853541662	1.6353802314754478	14	-0.1000062267535437	0.042371044344444296	0.19008490164493166
Si	4.747803466587153	5.248080957752141	13.089492591137066	14	0.2986763061729818	-0.1409029993074151	0.523167482101603
Si	11.396128204390962	5.2004690640662306	16.229962948837418	14	-0.20203694183617202	-0.19086908876757683	0.0921319596000582
Si	4.981928231178043	1.3856286950228052	7.50049788617784	14	0.6620395653166332	-0.5415809670729076	-0.3859064534801777
Si	0.802315441734982	15.486480227061914	9.564577941542193	14	-0.4558047798242554	0.04555330139919157	-0.02054415995011121
Si	15.477618904932802	2.2284066669780564	10.591084174064346	14	12.522641738282841	-12.904626999039262	4.129030336306794
Si	15.624021853080444	14.181560743985987	3.7484496564089294	14	0.07439081866997242	-0.04689464704471283	0.2603814922031003
Si	5.378194759271219	11.171513955108594	14.51285028469323	14	-0.23146992709909917	0.12336754680294117	-0.47842690709411023
Si	2.4742103180046384	13.658573025430602	12.716728833376663	14	-0.00938247753428437	-0.026591656773631508	0.1292072983165935
Si	16.940292330605505	10.979309933844009	6.481223402042575	14	0.1706128926133222	-0.22240395262972507	-0.09519003226784233
Si	12.652649841632302	13.50827162280965	9.626885657479788	14	0.4888437402986902	1.6038143610232494	-0.05487612929004851
Si	14.43836113430035	11.949908111110876	9.232682047814587	14	0.6336702463246513	0.08737258654193208	0.3200427056044764
Si	10.00348031407808	5.775540529832703	11.211605753183258	14	-0.07791657539549149	-0.18741892253847012	0.05120690488766518
Si	0.9736464193529337	12.10919441324281	1.179488440480416	14	0.013319611111027124	0.022703631308503582	-0.04327427364341232
Si	1.224337143907769	12.926075509053907	3.3438803759526827	14	-0.03357452171262167	-0.3631881668713493	-0.29501968018666724
Si	13.562269995590471	15.71173872642842	9.728492628549672	14	0.0877127437757877	0.9937710299275667	0.001317177255511861
Si	4.634191364793448	6.3840108426719	-0.434596936551624	14	0.04366148210462662	-0.24929668583634584	0.1260193848301419
Si	12.527180901973017	4.753232632897198	1.7649420540221845	14	-0.3368464215348362	-0.1032334781513936	0.055966277945791294
Si	15.541836303344855	12.681680640180614	7.223738924842662	14	0.11501196873352394	0.047669321077673445	-0.2271676965668954
Si	13.699386515415375	8.145670681431683	1.273721961098872	14	-0.15472808972438334	-0.26810920635333735	0.4096138443056671
Si	10.995635329837917	9.413215421135606	2.756784007081289	14	0.21592682410720798	0.0622207487475835	-0.19290283307581396
Si	9.44797032401202	0.2365304042912448	10.09873376002155	14	0.3724778275035763	0.01897732836801297	-0.13597676151401136
Si	3.2506717237545146	14.439928095502431	16.08782753961027	14	-0.11914013543555371	-0.06891539278018508	-0.27963264328770904
Si	4.115659022778993	6.968060617155654	1.8045790873315788	14	-0.20868710574673502	-0.12009967194103295	-0.5251294925714082
Si	16.881873182950677	13.555484773476735	13.854813907836192	14	0.19989135444650843	0.2261055729591422	0.06805252983474337
Si	13.595594696234075	11.026303940620581	4.230681554424413	14	-0.31965781113805025	0.5064133885039221	0.26924846312069495
Si	13.497085398203003	12.359352931206404	0.8704576577951464	14	0.20086863157869672	-0.2733030962105685	-0.021089491388514618
Si	8.4897760204878	9.676997109676272	12.591818463483419	14	-0.033708990520865414	0.13696226618322416	0.03566945832747834
Si	16.45724152647285	-0.0733851924481962	4.143269505285042	14	0.20062951878392296	0.12236481572808341	-0.023860885813102233
Si	14.795631583771417	5.85526771351834	4.629599229283252	14	-0.2625309362507441	-0.16279981776645622	-0.2855325586658528
Si	2.134087466041506	10.749057260551632	8.00418611308237	14	0.22830335378680477	-0.47140084758574163	-0.25569590986766244
Si	11.925784158471917	9.695723202275259	7.8311481198962225	14	0.11502816669704088	0.04731810809094121	0.0298106806344569
Si	7.027768264978755	16.13454473305146	1.9529114903347766	14	0.2550886147910435	-0.15087040330203316	-0.09380343516868647
Si	11.07484678391656	10.048709635841588	15.342105595675328	14	-0.08325444715065092	0.02309881019621034	0.2604709666682414
Si	6.078735164696978	4.530208412594859	16.157334049966252	14	-0.03840974237769215	-0.08110937398205138	-0.08433559693777319
Si	4.753155191071228	0.4354422058435977	5.400063012766492	14	-3.7393759826014357	-4.301821469347344	0.633978521852537
Si	8.982507052866746	9.584712816294473	3.9417444540307978	14	1.352152258292367	3.833473037997683	1.8370755771988956
Si	5.831390915643114	10.031069376504608	9.90992729290911	14	0.13700031854196235	-0.20603938148804654	-0.6375402740525382
Si	14.034561329008532	2.951393668046228	1.246683229946263	14	0.17429008744219798	0.3200979843688596	-0.3032315334686882
Si	7.0084951365027	9.816692277536143	2.62116194972777	14	-0.3910381225886613	0.9753058657393273	-0.1780130479457724
Si	7.839938590993064	13.570595815731492	8.927373415871168	14	0.03793691610931692	-0.16373570010299013	0.08512852581850684
Si	3.2390949946211673	14.207553186638783	3.5138091622110443	14	0.16181996952894775	-0.11227939799927059	0.02789443583935054
Si	2.5183010801565375	8.610682483208537	11.001161710355033	14	-0.11774685346256547	-0.1288792252777426	0.25309729372058876
Si	2.4765484020695716	9.747455989721846	13.016626423692713	14	-0.01677877620875435	-0.005045279969726576	-0.27239601025362026
Si	1.366291306308179	4.713007371250114	15.097343290053281	14	0.6181505403911736	-0.18079421257057657	0.2800694740816022
Si	7.168246089590454	8.024531893233036	13.635620586371743	14	0.3497304874046302	-0.12376195435905188	0.16023616865173657
Si	7.060415761569724	4.539302060201882	1.8125160506443223	14	0.33654740198610295	-0.40834680360389813	0.11073596347558569
Si	13.257541353492616	5.298172637567525	6.312354085871424	14	0.12258335968029602	-0.021332203730736597	-0.2617981712345019
Si	8.857921279563207	6.6195410940192305	14.473152286542115	14	0.030874346905402163	0.1857078519479116	0.08104998144915596
Si	15.45262661522392	11.033723526627906	0.874072708139377	14	0.031744151835208255	0.016582857983359064	0.1648569591331067
Si	4.691709221409857	7.999196882251773	10.344983937321281	14	0.13134877193774486	0.005327073112814805	0.15802758918172938
Si	16.878058761097034	3.557876856584995	11.908779910726947	14	0.2942221233163573	-0.2070297712573676	-0.4499408599205937
Si	6.041647120850904	6.875769732980155	11.933810097499604	14	0.3707919537451552	0.49706819199677993	0.2161165716798349
Si	7.588315269129735	11.478254436983251	13.825555726905243	14	0.07852695579849464	-0.13618219282909122	0.18007610285465922
Si	11.250611717995918	5.817802346732964	9.221822067496072	14	-0.12695758116146394	-0.15575936006829472	0.1191815302312081
Si	2.8191889372259515	3.3616590419573535	3.4107423303366997	14	0.40433433664127505	-0.03978939749248361	0.4914973780996151
Si	8.357615777524996	7.359328028227683	3.8618689774869206	14	-0.6538971318782562	-4.809506012321548	2.866157139151248
Si	7.925205336783214	2.8976885855850374	13.007718966007703	14	-0.004860417497207928	0.3284695032912617	0.773402878490335
Si	3.170359607128039	15.15791433185103	5.719040950842882	14	-0.22748831340031786	-0.11868170735697131	0.04173443866717563
Si	13.470114222685815	12.181554737270718	13.183459184610687	14	-0.14523865420878082	-0.4776378348713568	0.3513168593871616
Si	4.8804679052679765	6.203650477685496	8.72482843929191	14	0.20421183982648528	0.2732830415890713	-0.275012881248467
Si	6.665859544441595	6.864659302501055	5.39128572325705	14	0.2704856790007502	0.062229233395140006	0.35017297463022773
Si	8.142704824266863	3.7782153284547477	7.564044671330958	14	-0.05213507390823865	0.23750996771719105	0.198025760426209
Si	16.3752306327703	11.87678819810909	10.642545091270822	14	-0.14649669604192925	-0.10710839097938873	0.18356329300037605
Si	14.70144419870886	6.309908901408872	14.076096510903412	14	0.08297085423383858	0.047854954881788134	-0.012226120018368146
Si	0.5335329884747445	8.772529308692764	3.263093722179836	14	-0.19536672330411187	-0.16172432441103826	0.16695832351126375
Si	12.224093367506361	3.1823680332487103	6.4809894288662395	14	0.1399550327758765	-0.151631964697861	-0.29923346469585793
Si	5.706933662816717	15.835047533452661	10.949781530371377	14	0.03900418192771039	-0.06105089582691613	0.14972214766605502
Si	8.010747248210322	11.467501557062354	1.3065622384055537	14	-0.02646670105507231	-0.07244577749528042	0.029070459412786267
Si	8.948109700548533	0.8697507951708643	2.4313289664966162	14	-0.07918387320779247	0.33386471069506046	0.061268411337000665
Si	15.53057263691224	9.069994896133661	6.644834912539871	14	-0.05147147162510842	-0.2306530869388881	0.14390913564773222
Si	16.244856494900088	14.958381347992491	7.583586374650272	14	0.12193132737110644	0.34574810237425285	0.12351152870086947
Si	2.2683781830677057	2.0096219747229846	11.94813683530411	14	0.030461941612050413	0.3191726435641383	0.37468255031560327
Si	6.651616839256759	7.7055457166645205	7.5424416972820945	14	-0.21650917946222153	0.2671761522326556	-0.0884421663551137
Si	15.733837657703177	11.759416048509763	12.910859014099957	14	0.04257261900154391	0.14749351357455065	-0.26744611829127113
Si	4.901209133040617	2.504864099501478	15.896012375173962	14	0.17569056851008263	-0.02270980196127194	-0.1412202737039214
Si	14.973531935009445	1.688218624565141	4.5970522422962015	14	-0.15996003194035266	0.2289559003170584	-0.40160613678606594
Si	11.37943866704515	8.411231884271242	0.6524259637202539	14	-0.31010204110518785	0.3605237304280799	0.15868502081209124
Si	15.714419531765731	2.732513409282512	8.247669804726694	14	-0.020610237356839017	-0.06158491440191089	-0.5520186262305807
Si	6.590834892060623	3.0080843800533374	10.959802832191617	14	-0.4994374655492963	0.48222237276771285	-0.07211076247206512
Si	11.445480067613566	2.414968968835784	4.397270455975502	14	0.123468591242023	0.01803656093137079	-0.1871525560273028
Si	1.7856338508420788	7.397841331211295	1.7387156381930513	14	-0.05310103817701828	0.050643832822552755	0.3178953184410887
Si	12.501488340433552	11.922384956621348	15.272511757302826	14	-0.10799310832005171	0.22081166710495734	-0.0733433503625441
Si	11.939026710712836	11.572104043868706	2.5424629298592714	14	0.33828135541401083	-0.18507638848128322	0.07951888823100778
Si	3.269544461513319	15.513813896232582	13.993452901005703	14	0.22999668375065435	0.02632991825204043	0.15221252027915047
Si	6.056969068504048	3.8893179855473297	3.8052820704805796	14	0.019170161267024078	-0.10871121803596905	-0.02488598550424527
Si	10.534161136579325	13.169252728791198	14.9920174636384	14	-0.062318450749749135	-0.04686327955980703	0.10632677496206373
Si	7.4535895597193615	14.736215578569524	0.12647897879374892	14	-0.2452325396567878	0.02097996230187631	-0.008043702994083265
Si	9.836327899665676	12.684901890601294	2.213864080679889	14	0.08016449277689695	0.06888299685315122	-0.020058735265667253
Si	1.918743168097625	8.927473925475086	0.0011056056431079002	14	-0.44849152785162616	0.04845659352670279	-0.024654586025431947
Si	14.340510915639241	7.775370232816508	10.41338648973258	14	0.12517811916938945	0.2804199157367384	-0.07026548018379483
Si	8.925269304982569	3.1406944446861393	1.798251925379963	14	0.36581969316652085	0.12982384937236502	-0.020053335944494943
Si	15.8669650996414	3.833553280055014	4.145408217840562	14	0.07054573066369098	0.11478031214417861	0.11205494050482165
Si	3.1137183260736765	2.5336411524923568	8.290356727820578	14	-7.695186068389744	14.172506395363671	-2.8478642390194584
Si	9.749573282197842	14.275230751743127	0.4754532666954444	14	-0.05521680074496813	-0.044091628024687385	-0.19180188577772656
Si	12.517276586740945	1.8140253424015305	14.253749707377704	14	0.09312029248512313	0.0911474833729735	-0.23796016825874894
Si	3.495330224375791	4.423847831569139	9.67117249574425	14	-0.007369816289672454	-0.2569724636591159	0.24794377021688396
Si	6.4957956469123905	13.662426992046443	10.834478889993722	14	0.19565494421050045	0.06184691003403398	0.25433810914809224
Si	6.745982175749207	11.479445722944455	6.08363541981263	14	-0.16197860672720094	-0.16048633719938696	-0.04127241104114503
Si	11.307126126271562	13.620006996097393	7.707992548825497	14	0.18822496405633654	0.12887588284082643	-0.07601729989549812
Si	1.0460281634603659	0.1988854383775545	1.943809604235629	14	-0.07894784573940287	-0.09496223233647721	0.14779150468115584
Si	9.305103336684217	13.594319377653202	4.273146038230935	14	0.1934455934088972	-0.296161250948813	-0.17659482625117873
Si	3.2926715566052156	8.178242383895107	14.651107011828165	14	-0.6928457779310515	0.013320125332091154	-0.4805123306192824
Si	3.159336504665458	12.577066619485288	9.038111931611846	14	-0.11444709689468742	-0.019900098067414117	0.03387251281922684
Si	13.486465981854524	5.523600849871794	9.85275545296193	14	0.08787935140053328	0.118919791709617	-0.04653983451053239
Si	4.4125363818822	7.204223584698146	4.780200513017536	14	-0.7874110316060977	1.2216784334950685	2.2058803236421087
Si	4.802258251831673	11.979400265218162	10.659002303138724	14	0.12596590583948283	-0.03270934477239185	-0.0022700288871587387
Si	8.565934289385103	0.1169684634852261	6.562301698436629	14	-0.09059315306594959	-0.07545525627251373	-0.04969175252250192
Si	10.602840502326007	-0.0858648603183888	0.9936741937075932	14	-0.08312254944772732	0.20353383935356223	-0.16728896765543477
Si	14.818882256245182	4.91459009194923	8.041302167801668	14	-0.03352901314845506	0.3142399780074342	0.19435499336063358
Si	7.241751564023668	0.9597925709963745	10.049663653229604	14	-0.021853623889662627	-0.44632999960897773	-0.04126341217252451
Si	4.200457822216472	5.305315410239467	3.4054087305352985	14	-0.2964523000710537	-1.7411242406457574	-0.1796014768125599
Si	13.239433147802965	9.895231470657428	9.829048368024468	14	0.045261480945354766	-0.049970974560270005	-0.0007988424229700082
Si	8.49216683090233	7.968070211306988	8.91422313474204	14	-0.1121498142911351	-0.25708302118788234	-0.2242428071546949
Si	15.862311999289481	4.218556141715573	14.032877381218286	14	-0.25064960145580784	0.043125663755907755	0.008936647871770693
Si	7.727082782776388	13.57705808895395	12.8590751480022	14	0.11122910147599008	-0.04939299008430071	-0.2257512746460258
Si	3.4783968276630937	6.9457656097683325	6.917802519799354	14	-0.013094382284982152	0.3172792816063812	0.2264285037873528
Si	10.518023578205854	3.8238977672851	8.084700896615109	14	0.0263623141790743	-0.16339811397445467	-0.03926617755983348
Si	8.114530828899499	9.842608926061395	10.292750249553526	14	0.016937413407007485	0.5772933628592324	0.400131864995493
Si	9.618408249083677	5.530130678729673	4.656919716866518	14	0.27518128864693664	-0.09099501682748871	-0.4143811877902856
Si	4.325514837269531	3.36642253810374	11.740350530035245	14	-0.17075764584284656	-0.69327309563526	-0.12820096769428757
Si	11.205982158459076	15.162532830536025	4.40257604490368	14	-0.05466606998539242	0.040680028375382905	-0.005622493114099819
Si	5.572402381820482	10.971720634898919	4.099481919643325	14	0.09139636636796385	0.1744970614204699	0.07309241048329765
H	4.020898238664569	5.672701080340995	11.835109666451245	1	-0.5773327007706306	0.3981318021669498	-0.9475435847134323
H	13.738479808244554	14.437568591357973	11.730177639959912	1	0.3042946855185694	-0.2916037096583185	-1.6280979365509838
H	3.534690444349802	10.384357338882692	2.6245743331657376	1	-0.5950576437371995	0.2796593827830386	-1.613391471230269
H	8.610758277336084	8.49776900554699	3.184457314851483	1	0.15932702581053224	0.1392186682121861	-4.4202771765466755
H	3.754618639311755	9.587594640839622	15.333300295292663	1	0.7955208120069088	0.06980190989457215	0.43582780570776886
H	7.873619194496444	1.8408152710919796	11.800628281513362	1	-0.028693792483384578	-0.705183226809782	-0.6640694529668901
H	5.163796240223231	9.18699466588896	13.57902214547643	1	-0.16851615622474145	0.21680434235297452	-0.1004433146579689
H	4.356137312496298	5.515878087354288	5.113383259214991	1	-0.09540986177271499	-0.0380060788424289	-0.6919736590064571
H	14.761000258276871	3.007527457985721	10.319841707055732	1	-10.249250616696946	12.243970431274338	-4.85353053449738
H	3.625979527882962	1.5440845571485886	8.49940352238449	1	6.158660618921155	-11.929640464580698	3.125962703762635
H	5.002753491570355	7.367523680193135	3.42959694341283	1	0.7855536651228229	0.3384209664328949	-1.5409984013940516
H	0.9511882898215468	7.128849620251096	-0.1985690802799737	1	0.15451777330919522	0.27910633802867474	-0.21273531107330818
H	5.647647825790391	1.3597763067361242	5.278855021233998	1	4.590521115546556	4.401390865306995	-0.5157351879526509
H	0.8003579760062007	1.932913374551765	0.4486435656238965	1	-1.5366038681808543	-1.056525025918549	-2.280640867257118
H	8.750048111383428	6.687979895795877	7.972850184437622	1	0.11104321056134336	-0.35801458874614733	-0.21357477696033653
H	12.094412910673032	12.15599563930367	9.564528510589447	1	-0.8363162830111663	-2.20413737134558	-0.1994097864200447
