72
config_type=amorph dft_energy=-6940.966406496573 dft_virial="-33.63582530391913 -0.3785806908903136 10.626671951269966 -0.37858069089031365 -35.01305406313804 5.207056678690692 10.626671951269964 5.207056678690692 -12.996260063021962" pbc="T T T" Lattice="11.105996452100001 0.0 0.0 0.0 11.105996452100001 0.0 0.0 0.0 11.105996452100001" Properties=species:S:1:pos:R:3:Z:I:1:dft_force:R:3
Si	-0.4485689755010286	-3.0430430278754006	-4.549625865985381	14	-0.29176106130391155	0.45329486681072684	0.901629300127292
Si	-0.08235984848948319	4.585168386431036	1.3886937963705843	14	-0.4831937363576649	-0.3388716811955168	1.411997305724134
Si	-0.619597989064433	-5.302118208595642	-3.7040186279214224	14	-0.34968266484567545	0.5910534043116008	0.25915378941272954
Si	4.872481625246508	4.323415598450072	0.22991855975066464	14	-0.8812144667747843	-1.4718061005708865	0.6367712564512819
Si	1.20232962290612	2.7979903267594595	0.5657183578767151	14	0.8866996628647882	1.3040335080047318	-0.8796944293095126
Si	3.608700302771629	-3.3037218659994463	0.5829204357813728	14	1.1344027776237062	1.7158685301964751	-0.6707921220474813
Si	1.6403323533826206	0.29608475481334084	3.1434068072133825	14	-0.35797396528208897	-0.36749939627217354	0.2676399796324103
Si	4.898458550947971	2.7204749139223816	4.464481744185356	14	0.39966495226935406	-0.006461187669532123	1.2638844128779594
Si	-1.2149904588615141	2.686681587917932	-2.862817138650012	14	0.23423335109719431	-0.48723397125774554	0.7786155374164032
Si	2.484378088345414	-0.09520171218704641	-4.1882633958255315	14	-0.44470223283079197	-0.6741862381806087	0.9794844261056319
Si	4.224916515916398	-5.0713944641022	1.7012865043103265	14	-0.0732929566982692	-1.5343235548724152	2.755011341487631
Si	1.757661652900831	-2.382456137705202	-4.240287215006104	14	0.9006563938741481	-1.2234710081242761	-0.5408854830838075
Si	-1.3903508110412375	-1.4622232670810025	-1.1501592045723803	14	-0.6313595939734342	-0.5062640072848215	0.6778860587363019
Si	4.785234027718456	-0.47030452115743354	-4.419755675273459	14	-0.31487735501629893	-0.5008140353377036	0.21622738631913327
Si	5.494568468115857	-2.135011204953478	-2.860733653715598	14	-0.6448617535621919	1.7787780780593263	1.4529264742050392
Si	-1.964232076310246	-1.4033881402763577	-3.4041611661133033	14	0.3840166910698689	-0.9053861992210923	-1.1127558706017837
Si	0.9717780213576858	5.316527128392597	-1.916376337598147	14	-0.6347364837009166	0.36346121825634903	-0.3786523369299119
Si	1.3233027998602644	2.8510836533983683	-2.0254971951386107	14	0.6655321547835223	-0.8275159037213636	14.601946289903529
Si	-4.870440343098612	-5.168460873093554	-1.1489164435693904	14	1.0243386439682751	0.09058621108158518	-0.08814906034861682
Si	-1.4267984701977392	0.7441206424846686	-4.366897795759334	14	-4.808796130142656	0.6568446470172741	3.800442305060273
Si	-0.804486175600413	-3.291366444946485	4.28593619222317	14	3.0810853459521104	-0.4266319904197272	-0.7299275444108871
Si	-0.3110867348208375	4.299278936360723	5.512505762985644	14	-3.331401475047895	3.4860316056595804	-2.3107526243245644
Si	-2.6936328310973012	-2.4173645057534423	3.808428321766905	14	-1.8941230049318092	1.8746733645164853	-1.3759280405193726
Si	-5.1177975384783645	1.4389573151134984	-4.778092871999756	14	0.576489892446686	0.9958142873254885	-0.4351863149303919
Si	5.475895956280941	-0.6845069853287314	2.8130889289360885	14	-0.3702481649699439	-0.0803182448750418	0.8275871233387316
Si	2.8033156520582407	-5.186301545794208	3.983998577279573	14	-0.8723716642471989	-0.7468104503851074	-1.0083677090511114
Si	-3.8059150347697948	-3.019390587231363	-3.805447472319161	14	1.4543878904690113	-0.4305562684698693	-0.5935059816764902
Si	4.054069640694808	1.147269424295544	2.9291576978569864	14	-0.7086629607500704	-0.21263606640795046	0.25475848486793645
Si	2.0681464427139646	0.549894534131763	-1.9015587171317554	14	-0.18923463711555868	-0.12802433275879338	-0.567025910873753
Si	-2.9716381342862683	-4.997184195809268	-2.763578396752627	14	-0.44084686040322996	0.6788972744587161	-0.453192793929517
Si	-4.34130180573618	-3.464142431751805	4.942638204834425	14	-1.4051802770782935	1.5003829077622044	1.4281363909292353
Si	4.332327050003237	5.289459593839538	-3.7430017860679388	14	-1.7130012335434457	-0.5086798178436327	-0.1755255035485291
Si	-4.756460612110356	2.769435699281465	-2.821418426275164	14	0.5283713992695828	0.17720700642790596	-1.8370151562238723
Si	-3.0705814566780276	2.3158967903681216	-1.3366255532042037	14	0.6234634724247274	-0.5677828442800046	-0.06642167773017346
Si	0.927435109323386	0.8317813830807391	5.393828195498148	14	24.374013386039188	7.935508825327178	-15.414579350479213
Si	-2.3887165879052508	3.8325727580537703	2.0443929375022134	14	1.5518890893091346	8.660794239082538	2.466443850101875
Si	4.351892483952902	-3.7195570275575554	-1.591873559063173	14	0.10235801678988315	0.21469397910619697	0.30993851880682644
Si	-3.628766617161283	-3.123789175080393	1.7828955874396477	14	-0.9491538679754411	-1.1937150920331383	-0.21301221911628812
Si	1.4477854716932725	-2.645493889475674	0.7611172594549624	14	-1.2653471146945918	0.18060600766114174	0.3380916078413839
Si	3.5015418748042517	2.2192679576369803	0.9880249835674629	14	0.42733647327744784	1.0976495984037855	-1.2603427152994555
Si	4.780210785523171	-1.8427469129196599	4.866655419507737	14	1.1259289287095622	-0.6119495485800404	-1.559951047150991
Si	-2.10815468433301	1.0566367190488914	1.6374703380969144	14	-2.2831613218024596	-21.59978946004675	-0.2981949952570501
Si	-2.949403929389164	1.3409646660180392	5.099494856325304	14	-1.566392180199026	-1.7920614365853391	0.7131410548861724
Si	-4.953085615696915	-4.81769796594759	3.1841091736106844	14	0.27534583938742613	-0.0582321930644378	-1.5213759827012132
Si	-5.539777647873421	-1.921405132791658	0.8549473810801745	14	-0.3908622589847631	-0.566280033220378	0.9872525066093952
Si	1.1771623243460163	3.0183188585737355	-4.949482830447854	14	2.6351237857355096	-2.1198071737289794	0.31900680727098873
Si	1.097632283752528	-2.095604908342137	3.132164207004922	14	0.28903851788040674	-0.13419678530087284	0.14207388067021054
Si	0.10686522966104184	-4.693739497147121	0.08236429088806403	14	0.44322796104021905	0.812156891870395	-1.0341191286061187
Si	3.2169062917333804	4.0089059955226976	5.544786452273318	14	0.7264724930816722	0.9830970861909719	-0.3030104184111555
Si	2.7335311233514705	-2.9605710088217507	4.648181589100961	14	-0.19928405936988947	0.28210296127930734	0.5567376329351805
Si	0.10760488902475171	1.1356469990084213	1.4686114362402505	14	1.4281039950022016	-2.3393854816118616	0.30555761245182617
Si	-2.338519705141049	3.339576464945406	4.463793172405326	14	1.2529947534050043	1.7155124321096344	-0.8052863842338953
Si	-3.1075744202603275	0.03807246643744401	-0.469820299712122	14	2.232525202295867	1.7439390867502553	0.46827412640590954
Si	4.14903812695636	1.1659163923386198	-1.1071501227119778	14	-0.0765104378959025	0.3342478053877625	0.6914550670633833
Si	-1.961381167020992	-3.596163853976498	0.21970326421402306	14	-0.4454342265154381	0.392371240697158	-2.183528162430869
Si	-5.201642258693494	-0.48754880184860916	-0.8819971460389092	14	-1.544254706282019	-0.7667671127695648	-1.2650696924305478
Si	-3.90436525091908	4.008470640461775	0.23575698208553364	14	0.11218632398668121	-0.010296762586129026	0.7094240079248342
Si	0.2317710399588749	-5.344167732362584	3.469727637367566	14	1.0395477603790793	-0.7478016114860244	1.2987537432298077
Si	-4.36449667932639	4.3971283181019505	4.416220636602755	14	-1.1082209550381064	-0.1351871750701939	0.8639376674655173
Si	-4.517840504139471	4.932770526986733	-4.183799895851433	14	0.5018692169610924	-0.6123341859359345	-0.2819402103125419
Si	0.6383338050791257	-0.5115955053666962	-0.29700211012028427	14	0.05412356676284117	-0.8286736724470263	0.15240509606762956
Si	-3.4026962851812708	-0.1630871155005077	3.3259560708965505	14	1.0937093795006585	0.5962010142730693	0.3759603896597169
Si	2.570401805064445	-4.343513009629793	-2.805577943535534	14	0.1853209005972293	0.26206890862471344	-1.415397849620562
Si	4.362434295785235	3.5222512263884824	-2.0836881741490334	14	-1.06487340489307	0.26499791180542615	1.0770599298895078
H	0.1268182628868847	0.5626897526442274	-5.146384373346071	1	-14.123271271146026	-5.672310336561945	15.097212651291951
H	-1.5085563736795187	4.009030382682961	-3.707953482464401	1	-0.13588420172248605	-1.00612030589077	0.4494634056626422
H	-0.5432609224509237	0.2807507055119264	5.665591928681036	1	-4.893393722712552	-3.041626335493266	-3.010199458054564
H	1.1550858245985318	2.949149602070411	-3.1588918980665457	1	-1.3243915199296643	1.1868713238919681	-14.144561051638979
H	-2.0131428846852946	2.152838550458389	1.6395582654299092	1	5.357848729275913	12.669868371125162	-0.6451407184894279
H	-1.2135955457071304	-2.8765552562612595	1.1980449294748998	1	1.245017899149245	1.1116829483516857	1.50544335725332
H	-2.663475608331269	2.613868453978674	1.676821104725995	1	-6.151081257547891	-1.1302854095640211	-1.4944480253517065
H	-4.2472440111836995	-6.697370095871191	-1.242844297963381	1	0.015715367048341103	0.2007968977402646	-1.2677935214067126
