72
config_type=amorph dft_energy=-6948.715013143265 dft_virial="-29.031227598439266 4.893878632073788 4.013458420700966 4.893878632073789 -17.477598938909626 3.973210639609637 4.013458420700966 3.973210639609637 -2.297896751683066" pbc="T T T" Lattice="11.105996452100001 0.0 0.0 0.0 11.105996452100001 0.0 0.0 0.0 11.105996452100001" Properties=species:S:1:pos:R:3:Z:I:1:dft_force:R:3
Si	-0.29254971614263736	-2.9914145821685234	-4.716222476364752	14	0.27916110257199384	-1.2874089981151864	0.47266943095070274
Si	-0.3237919947620399	4.659597442854075	1.1187292346129374	14	-0.007504027987384184	-0.8001143487718854	1.5060038582131121
Si	-1.2142752326899988	-5.219325226244527	-3.7742196314951464	14	-0.3514942656542518	1.0053309765574847	-1.3819824793272575
Si	4.8022850640713655	4.089956447030478	0.3765688005020643	14	1.0227653846228768	-0.07144150375723056	-0.029657699867908092
Si	1.1784639471302023	2.8697550546336386	0.37855788446663546	14	-0.7492306318229628	0.6290756811175467	0.29358628897068473
Si	3.9095084378760476	-3.4813567262525598	0.5018422192824619	14	0.09742843655956324	0.1915404043666675	0.6721360387983227
Si	1.849771455675613	0.33042893824181485	3.368044465651074	14	-0.6218359627570736	0.37387316636082063	0.27842833755575164
Si	4.790319463493873	2.5747997796594766	5.012306120578447	14	-0.0941718745610637	0.20764992186058728	-1.739278444136423
Si	-1.3531923681118014	1.838738758800097	-2.4735708431978756	14	0.6644206659536224	-3.474822872016395	0.9785269464844089
Si	2.263468712916693	-0.24623215793915432	-4.099780811492006	14	-0.6442086928108742	-0.6465059754144266	-0.4962372107573081
Si	4.3453421672454535	-5.29406858236716	2.022746239817425	14	-0.13461073325741668	0.14432822581491636	0.26166318820519413
Si	2.068084249133833	-2.870143764509462	-4.294424505311511	14	-0.22617036481320996	1.4909940024646198	-1.646453314542053
Si	-1.358489928419453	-1.493364481132691	-1.3182884424621415	14	0.17383294491627568	0.304582906424958	-0.12292480246681167
Si	4.488647281865481	-0.6528115820540833	-4.585698142461802	14	-0.159115423842684	-1.3936928356184037	-0.00746211897066577
Si	5.5404329016640945	-1.932114645170418	-2.7887334787166336	14	-1.3078644549317526	0.10399478243668941	0.09668075913246418
Si	-1.7857975843125813	-1.543657986066026	-3.7071838369102705	14	-0.8566329001404445	-2.1783990644277056	1.0743643830718643
Si	0.4382837121867388	-5.5197168864819925	-2.1536281868061335	14	-0.3418770462042379	0.03281167476413374	1.2746786843435371
Si	0.6694661343336524	2.795955708209434	-1.9638600254291008	14	1.4998447754186974	-7.637569140828419	10.61822788430714
Si	-3.827911571342824	-4.600351394180702	-0.7545713851460947	14	-0.5565604837786223	-0.39821407753719457	1.1621457753597
Si	-1.3897588614303404	0.41497888923165216	-4.6009855465781175	14	0.42403106027786547	1.6335242543291566	0.3509448204473361
Si	-0.44544930109763375	-2.7251383218326186	4.090591710027538	14	1.413996340110549	1.9973729381572516	0.41242406242058893
Si	-0.7383144275395107	4.679839231987673	5.301806130095338	14	0.3119115850295081	0.1722604569024731	-0.1535055291446529
Si	-2.5155715005804273	-2.181358749347382	3.5064340662414017	14	-2.206569379867908	-0.07491223882889846	-0.15686056447691415
Si	-5.269034555764482	1.101195087414362	-4.715455052009911	14	0.8200226743763239	1.4463668132017453	0.7228613756595241
Si	-5.408237115295103	-0.28894693089357615	2.7616426215710264	14	-0.2651179824238771	-0.7299074897893899	-0.65545702147599
Si	2.6655557614667473	5.502826887077639	3.8047577899394858	14	0.41921332312897197	0.9274061736249686	0.4375267921033226
Si	-3.878300587845647	-3.02352534971048	-3.804923269286622	14	1.659925649309097	0.2483204371462856	0.029456896542404524
Si	4.046740793636067	1.263708022898296	2.967732155334065	14	-1.0053168354782236	1.1894781675760664	0.5937942025828787
Si	2.1742231466269075	0.5848484367654574	-1.9516756367215016	14	-0.7694531464975235	0.024522431211976333	0.30700077386802527
Si	-3.5155065547431223	-5.2435984920902365	-2.837920826403339	14	2.326790665090584	1.0334732669496973	-1.337081467347787
Si	-4.215180999426487	-2.950565616618054	5.026136417960248	14	0.11213310210655415	-0.3479543678494719	-1.2230182364773978
Si	4.012262227650522	5.094748153441676	-3.1191757441541914	14	0.5354838479167084	-1.3449171679214704	-1.4456661870020049
Si	-4.9082073946336235	2.8903511250540586	-3.2035646581954724	14	0.13729059633260704	0.08481150853253258	0.47674129044622116
Si	-3.0416003589362726	3.052651936005757	-1.6902960102213282	14	-1.267625114008243	0.6663618504703341	-0.8421020413130957
Si	0.6881586369621819	1.2076793813970965	-5.48011845613203	14	1.0391338124225353	-1.6302818334099178	-0.09965784198266364
Si	-2.3598387759305	3.415852448578429	1.9731479702619918	14	0.42232616034007525	-0.44518611485204385	-0.4908887974703361
Si	4.517344066098062	-3.850040269273633	-1.683228154079212	14	0.17341462608068756	-0.11083083726189914	-0.19698163455569687
Si	-3.591870275748117	-3.3851665803812767	1.5906407934569897	14	-0.8269762287146645	0.40029975817289865	2.2961587734168716
Si	1.7623172866135517	-2.549058301082799	0.6010165464004246	14	3.515403398615889	5.141696933453193	1.8961261530867368
Si	3.3552670167329333	2.3516325551520434	0.9358889938227246	14	1.823331990820576	-0.6856112017812188	0.23387056813652143
Si	4.9780940985077535	-1.7485014270271393	4.382860444459938	14	0.27336531695931604	0.005355355271336434	1.6651087405239833
Si	-1.8764380637567504	0.9385166725832914	1.78475917364431	14	-0.4775298484479106	0.7210245780188104	-0.9407928905848515
Si	-3.18176136596071	1.4153115380673325	5.487928192837146	14	0.500525300210251	-0.5928246387666509	-0.7323394983117181
Si	-4.786273548986372	-4.773350611514709	3.456654768943799	14	-0.11631063403073073	0.09328921410465686	-0.7339114721044565
Si	-5.478542515235477	-1.9617954206886552	1.0617976756001823	14	0.4346540961291213	0.12138085372206275	0.2780411290945374
Si	0.8526184536241692	3.391540311745137	-4.656681008185753	14	0.7507774087835638	-0.371916555212188	-1.9629694920894143
Si	1.601081540721609	-1.99685816208758	3.0136743308574667	14	0.09344579441865387	-0.7318147357158757	0.7137406366468309
Si	-0.06406494053393885	-4.464818255877855	-0.006403717554280861	14	-1.8001786731915788	-2.81848087608921	-1.536285051121156
Si	3.1235104145694454	3.925655446117756	-5.260820560788509	14	-0.7016093904147761	1.1536804110931125	-0.11596739147049098
Si	3.201615555818129	-3.2075061763363233	4.5291986067110335	14	-1.926939307685519	-0.5546339545622353	-0.05414593537912646
Si	0.5383576250173214	0.8711021635193992	1.4265619124733095	14	-0.8777514450190769	-0.36683733665223545	0.12517683361672938
Si	-2.5016268114351705	3.4093376710596273	4.451055705074412	14	-0.36925031899519445	0.224747258018508	-0.4807925810991785
Si	-2.8086865119424766	0.3387006843993389	-0.7033494189093643	14	1.6605121184326226	1.563874810980069	1.8139088898222335
Si	4.2243167921079845	0.8406617378438382	-0.8609812689526004	14	-0.7654149684816989	1.37779337742914	0.29585503230518334
Si	-1.9645741410009707	-3.3365234265207238	0.07118166306044453	14	-0.2567289799852979	0.7028568907161121	-1.4901419381615224
Si	-5.019127423599327	-0.699645569092589	-0.8302631933657371	14	-26.7180556536069	1.8827641187379272	2.067464097400341
Si	-3.7793506018560166	4.192554752854623	0.08958207798228382	14	-1.2161451577355782	0.507868377004594	2.0881581527906166
Si	0.26148291226717807	-5.349329799513519	3.2216407780209106	14	1.9879236118846435	-3.9159286427253637	0.21114971042237285
Si	-4.589694079985267	4.373697997386955	4.81457718094455	14	-0.4466004798886573	-0.21422218127994982	-1.57857947652706
Si	-5.028154377515595	5.10947248353787	-4.2406548234886685	14	-0.7880669205732675	-0.7673846922674644	0.5931146594467636
Si	0.7917886898567271	-0.7210179486650101	-0.388572161467494	14	-0.4831173745296564	0.8363234821060628	-0.8265864491481301
Si	-3.2730893065852644	0.030233854141551834	3.5830110223782765	14	1.3149473358676964	0.2568778469833345	-0.8783715956222966
Si	2.3801516434413914	-4.558690580289585	-2.8021450800321897	14	0.29227296837315303	1.1261073634187806	0.3912178428505396
Si	4.301089213782416	3.1194178548768465	-1.8429068392685701	14	0.35246820034952386	0.2622414297916954	0.5176347205631764
H	-4.0129208132401315	-0.8063020060203313	-0.9334279050089392	1	24.970083273940933	-2.3416123159296416	-2.4709651388073555
H	-3.927882198406402	1.5192325680689223	-0.293600343407006	1	0.5003288677637917	-0.7137856309899334	-0.8652787560005064
H	-2.494959881764975	4.400534527213809	-2.410669811092117	1	-0.13872347332752558	-0.44262477973211234	0.3557849262125149
H	1.0996924460943929	-3.685151761148595	0.4854053445333539	1	-1.1052914376363296	-3.7424152862003828	0.24325433122346588
H	-1.3506701963175294	2.8589244868935504	-3.396634632317715	1	-0.14205125494339324	2.450052539464867	-2.3891448542042832
H	0.22566385250986512	-4.015020957169224	-2.390037090883405	1	-0.0840684590950098	0.9763458778413272	-0.05705642660153408
H	0.6254497385950445	3.4574410734926078	-2.950680008381511	1	0.27294622679213193	6.296609932436784	-8.854487172823232
H	-0.4305095146702688	-4.183567780525584	3.6693357116011596	1	-1.4699428205453753	0.8229804739366224	0.18740375301708126
