72
config_type=amorph dft_energy=-6955.725254478164 dft_virial="9.453197583825904 6.053517824767706 3.783291422584928 6.053517824767706 0.9810396641011448 6.176776654359901 3.783291422584928 6.176776654359901 7.615634828374913" pbc="T T T" Lattice="11.105996452100001 0.0 0.0 0.0 11.105996452100001 0.0 0.0 0.0 11.105996452100001" Properties=species:S:1:pos:R:3:Z:I:1:dft_force:R:3
Si	-0.5584095016115881	-3.135996886380542	-4.363707042978646	14	0.9916344414065236	0.23574438969384534	-1.0054906421978658
Si	-0.26868959336494574	4.622929884967822	1.6198384581295606	14	0.5839630671702285	0.45356740397466255	-0.49195066396755716
Si	-0.8842139029307485	-5.345658157086455	-3.4424835174709196	14	0.2747148901418618	0.5863850483818079	-0.6973087025457645
Si	4.8485881844794605	4.210977379769367	0.1807589770550892	14	-0.05425546446576476	-0.8958887932789974	-0.5177630187186518
Si	1.2318149328868004	3.1031753350656506	0.24824900689485568	14	-0.21392881816292092	-0.7182071608089922	0.7625029345960993
Si	3.589932279367225	-3.232175926255373	0.6429727797971679	14	-0.48519637029152823	-0.6403178391298942	0.7690692804732254
Si	1.5429916262788999	0.3289218545232649	3.2425422633437626	14	0.020212487363812107	0.4491728707614655	1.0948180401147063
Si	4.845390768100901	2.670496819288287	4.707155540861258	14	-0.06871818900212971	0.36424514826846216	-1.1192152584975916
Si	-1.3934027388662744	2.7005352078922815	-3.27394113651314	14	1.446466057867103	0.2899654013483201	-1.1388093950319083
Si	2.3644100040701845	-0.26166171881005684	-3.953482630828138	14	0.046736524067523724	-0.17166576024192282	-0.014094028033455724
Si	3.920544466550499	-5.385490923961557	1.7160308252001344	14	0.8778681732006114	1.1154843275675246	0.4616825836966459
Si	1.8194054401762811	-2.472308091401272	-4.308422503239737	14	-0.9263047121058172	0.383444363025604	-2.3499781784203395
Si	-1.4182368575328155	-1.3758863612620225	-1.0395345951123025	14	-0.29748459885709316	1.9823165454024647	-1.5784892307303229
Si	4.619801325767265	-0.5757626210679944	-4.452721604542227	14	0.4530840361744747	-0.29478879492891796	0.30644927177685344
Si	5.519670241296894	-1.8941510174982048	-2.5943374486180106	14	0.2376215536880855	-1.0965399093476094	-1.7039583990219531
Si	-1.8343829869915833	-1.3544884378977613	-3.5241270291892417	14	0.20659345468453844	-0.947608890788564	1.1923079260914213
Si	0.9962400891430813	5.453124221155555	-2.075081026898656	14	0.1947458013692961	0.5279505093286745	0.10579738437664524
Si	1.5360270559037879	3.0315716441400262	-2.3115043687713155	14	-0.6807052757198442	0.7712588337638635	0.9796949996313521
Si	-4.600624601693424	-5.065006294942952	-0.7132937281325747	14	0.5031581120580826	0.6348118170867971	-0.24242129309973787
Si	-1.0947147384845615	0.599448379701388	-4.539936994680569	14	-0.7065343426555197	-0.30400235084366856	0.2556601715037124
Si	-0.6894991307339504	-3.2124050313713446	4.2016483427496025	14	0.12054755848780274	-0.3077196549155387	0.5330703513526854
Si	-0.49099055014911497	4.696188369364809	5.5151567643387605	14	-0.7050986374447491	0.14641004979264027	0.14606423612708036
Si	-2.863557908613367	-2.5242697170017117	3.37545549708356	14	-0.08389850903334801	0.1637719526880042	0.49898649367614234
Si	-5.173189806382858	1.3450894331003491	-4.90313306485466	14	-0.09610406020915498	-0.5699394874225449	1.197864341798793
Si	5.452048050099347	-0.519088721172928	2.7773353945578436	14	-0.039871672862728344	0.9315860195439333	0.8619923691802932
Si	2.931196758805591	-5.405617210732053	3.8420073020398293	14	0.06936765020599914	1.7543327800069544	-0.4186309677739584
Si	-3.665369760268114	-2.937037402339751	-3.828511295151237	14	-0.5330143012567061	0.6085685450840457	0.5692933686555915
Si	3.752843920123789	1.3896822300548208	2.8443001107654258	14	0.8460983103122018	-1.259115526730149	1.4436666383945258
Si	2.038667796331156	0.37057600481651115	-1.7315159160532974	14	0.23000105462969855	-0.6710716011957814	-0.19262309681698184
Si	-3.0936341735136517	-4.968510734169237	-2.69113842429416	14	-1.0787717718116625	0.2875184804151352	-0.5620528789635225
Si	-4.478998392147895	-3.348258022372013	5.037431216352034	14	0.5221660365794053	0.09407185856410993	-0.9951211173311765
Si	4.08034087530225	5.389627907639964	-3.545291726628009	14	1.474730475762023	-0.9333719092993081	-0.14858186245656935
Si	-4.914776591535041	2.7802385020304228	-3.0760578235285583	14	0.38679759858414103	0.2722083195652494	0.43093087851501477
Si	-2.8181987979037	2.4532735240820176	-1.482088562934874	14	-3.7321858865736415	4.171467715168498	3.2147547975518207
Si	0.9659018386348797	0.7450779793788397	-5.460857326485153	14	0.5677956998066054	1.003534288159765	-1.3895808668798908
Si	-2.409714695397236	3.3628357533150393	2.0075632320677594	14	1.0710296594716324	1.476883776467647	0.23671035396262502
Si	4.435740535966967	-3.750085190605088	-1.4408942008947445	14	-0.17357789126851697	0.15826155976586284	-1.0232978605346794
Si	-3.7922202305447104	-3.773995290366814	1.3949253709798575	14	-0.16921961064033395	0.5718138232009328	-0.3303273839956007
Si	1.264046755790085	-2.772536493490891	1.039531263313367	14	0.9752870966704902	-0.4501172377455558	-0.4462446389123488
Si	3.543609168165516	2.3287819674518477	0.7984034213435979	14	-0.7885762565371889	0.9202806123407102	-0.28618639074876645
Si	4.951840633494634	-1.8202017401218968	4.681457375670743	14	-0.20722414681957074	0.5220786189985204	0.11233904764269799
Si	-2.298220486414959	1.1117157978534362	1.6006284160663633	14	1.4007037256053834	-0.43659810886168526	0.26185782087792936
Si	-3.019646025149761	1.0397411666463117	5.400226360054203	14	0.5034735866808648	1.3646295753005138	-1.0366053874507017
Si	-5.060068568920349	-4.929945161489319	3.0592255753057556	14	-0.0755275043320099	-0.499276000135191	0.6472353979937526
Si	5.545225139133176	-2.0929428009925686	1.0862097664015433	14	0.24867679234365817	0.05880554955083082	0.28885828339746433
Si	1.6893764337150943	3.0202390853603034	-4.730909046073009	14	7.261328757799338	-3.637998585380657	2.2911716004273806
Si	1.0481328575655184	-1.9767918476979258	3.2515303462724474	14	1.2365749034989426	-0.5759255348289135	0.2769355538068737
Si	0.13037995594907317	-4.57789173755562	-0.06006567121153764	14	-0.06284064224027122	-1.1654704716491835	0.595257161510043
Si	3.5563921700818835	4.404090667277772	-5.544774235677221	14	-0.9636582444179925	-1.458237863575401	0.2935703481176998
Si	2.976769104647139	-2.956873822602847	4.4609522585128785	14	-1.6441146371428461	-0.5261419938464823	0.3274971112591817
Si	0.41849393710874183	0.9516950479733534	1.2933010610445617	14	-0.40109500104842044	1.1155005255310417	-0.057636725072291506
Si	-2.2014317273349078	3.4284433167561743	4.471675098087381	14	-1.7489715111933815	-0.754546134961837	-0.24283395550362166
Si	-3.0492057453066703	0.5086923978941172	-0.47246241626807656	14	-0.44700645741870865	-3.2776684591831846	0.13624261380411468
Si	4.1238952615884505	1.1386111894614868	-1.065280516087561	14	0.4369475220746933	-0.796321968424667	0.019362479944971155
Si	-1.8387587495937108	-3.33589593772118	-0.058244287793393246	14	-0.4790324023970051	-0.5374360881862968	0.923191103563118
Si	-5.302142641787837	-0.6927987222798694	-0.740044741786748	14	1.0154513613186513	2.1242585283697517	0.507279850996812
Si	-3.836367677041453	3.9728270554484055	0.0959324867535946	14	-0.05684765284953806	-0.08785621145265195	0.844589842820871
Si	0.6486890361710638	-5.383478517404437	3.713990702135763	14	-1.8854948896984562	0.02060278115141059	-0.5597080309115475
Si	-4.479256051265584	4.357364408404852	4.623803926888602	14	0.5071582377151691	0.0709506797516143	-0.4049159206646925
Si	-4.6600427933118045	4.891768298685226	-4.135031244230971	14	-0.14556415614231155	0.6288897902029	0.535457879752975
Si	0.8360605235137333	-0.8193437776540324	-0.10336350897969471	14	-1.6825133237676622	0.03985650334133948	-1.210395652018663
Si	-3.3261359880390744	0.01172015805590113	3.344236541056707	14	-0.343354403321195	-1.6993885164259217	-0.16017111968713682
Si	2.5806426443929267	-4.0775743715860315	-3.104083805575432	14	0.6683570281987691	-1.8564516840020637	2.3982841051752817
Si	3.95677222697725	3.370424480690759	-2.1053915124157276	14	0.6337856889535259	0.7303762022892529	0.29829295436974773
H	-2.337732289992595	1.6626687334470844	-2.447777166437873	1	2.003714569429397	-2.631429878722053	-3.5575296737338546
H	-1.7663465421263735	3.9276556360787795	-2.270666509217299	1	-0.3219566364047946	-0.5932365298389386	0.14534664063222705
H	1.9631703430494252	0.821086308497367	1.011761829784536	1	0.6743788139690878	-0.24850864205572049	-0.05490981076974245
H	2.8832410661254237	-0.978972485859356	-1.5917325129082311	1	0.1526578357206001	-0.12185856509054627	-0.019636816882630956
H	-3.739428987009298	1.4834357203045134	1.5444598390098676	1	-1.4672094784795258	0.4080580684764455	-0.06399044053944145
H	0.5945284232731077	3.490522505124478	5.948017418457939	1	-6.9415902139542345	3.0145307420768854	-2.574126111788721
H	2.9184970518626154	2.1592844707991876	-4.328344439675514	1	0.7405984028210977	-0.3409802446685702	0.47720691761970013
H	-1.2346325241866982	-2.65977953271201	1.1968954588421075	1	0.1230209618057852	0.0520926506704562	0.15329367006627273
