72
config_type=amorph dft_energy=-6954.665441897822 dft_virial="2.082822671476277 -7.097444646824052 -1.6400970794716578 -7.097444646824052 -3.1720282472603687 12.2906661507646 -1.6400970794716576 12.2906661507646 -18.154264758507594" pbc="T T T" Lattice="11.105996452100001 0.0 0.0 0.0 11.105996452100001 0.0 0.0 0.0 11.105996452100001" Properties=species:S:1:pos:R:3:Z:I:1:dft_force:R:3
Si	-0.2839847716787779	-2.9890390095274193	-4.79339915631004	14	0.7169156946066818	-0.7256970477171154	0.36804087105259675
Si	-0.36950538675852873	4.603795363680499	1.5346887833313099	14	0.15549067956233928	-0.23487972697467957	-1.2526455973025283
Si	-0.9736649301548975	-5.261339210822822	-4.113065804448008	14	-0.4117776865431037	0.9379289363687386	0.3894175549053719
Si	4.735712389538542	3.8386888302999416	0.6799257617922402	14	0.5136646768383358	2.3789882168581022	0.3122777104270972
Si	0.9811648095590005	2.644589861364473	0.5193519332888428	14	0.6225617857889515	1.6590350184261975	0.049547770624573634
Si	4.196994930236173	-3.2129414509999807	0.6137018155480131	14	-2.1885744708427235	-0.22910682419935108	2.4577290886192333
Si	1.700956656215699	0.2747223706377265	3.456669206739187	14	-0.7282709812531157	-0.5495866177082526	-0.2642322366410861
Si	4.603673197719525	2.595671278791908	4.9419807298444605	14	0.40763666431447315	0.5471996035290271	-0.8130657776010672
Si	-1.3840514898536063	2.407730053831246	-2.563081842802866	14	-1.0854304203697818	-0.6415805089526189	-0.0949308648515714
Si	2.4875410761349723	-0.4348530698826851	-3.7791318137259102	14	-0.8110081220133529	-1.2419006910590973	-1.6874930405517246
Si	4.344015000669427	-5.259603343577359	2.052398139744887	14	0.08462021829671358	0.4929996749381776	-1.401788217829422
Si	2.125252365871018	-2.924163331252477	-4.206647151752693	14	-0.7932343280457012	0.9551491713609624	-0.6714007026767604
Si	-1.2766831585532843	-1.4424101694104563	-0.8716807859345537	14	-0.23387905278407795	0.5047640244410471	-1.694133948483135
Si	4.6716130204156014	-0.4142136860761025	-4.394011975497491	14	-0.19001239647490348	-0.28698266206641637	-1.3243048736803755
Si	-5.4005739777431545	-1.570666658837888	-2.796244464117189	14	0.3540923675802614	-2.241732073336785	0.4080997203826319
Si	-1.481745387644504	-1.459792164457638	-3.408405877957296	14	0.1565864846497864	0.12050153570257212	-0.07977368476823445
Si	0.6409537096421761	5.302329222528233	-2.5041378772329903	14	0.5360726310350223	0.49264717639878525	1.9826639017312166
Si	0.7334722130863952	2.89326755972238	-1.9420511801961118	14	0.9291434694897927	1.1009982059727463	2.9867201242709718
Si	-4.0609264829043346	-4.5431966046392604	-0.7770854611537918	14	-1.2960484262119478	-1.4914565443117143	-1.0808489677998099
Si	-1.2287518990653112	0.7226494195438237	-4.3378189652488	14	0.07064728932383682	-0.45883559877564595	-0.4405169875906549
Si	-0.4307838327826357	-3.1060406821502924	3.87133934926947	14	-1.8890831242832549	-0.9515079720065686	1.1130155522391185
Si	-0.8523607945064805	4.3850649847556795	5.19633581358868	14	0.6841652121491675	-0.05413950761582608	-0.34170401081619195
Si	-2.7477634578048367	-2.5435141876539107	3.3726179149900486	14	0.3513947638783621	0.8424370563363109	0.26714864140572997
Si	-5.153797625977847	1.4396925320786274	-4.769239171628142	14	1.4468290979383078	-0.09599375979092062	0.43179502701311656
Si	-5.408003889369609	-0.5845541278594767	2.8045672978583926	14	-1.6474352196638178	0.6345210250750882	0.6698531543845632
Si	2.7981424789108527	5.511852730394261	3.763282446189119	14	-1.1897712735825632	0.17375735441986329	1.36303266178617
Si	-3.4521635039785696	-2.571563492293335	-3.800015529454439	14	-0.8439714919913753	-1.0378824554632193	0.411243925078641
Si	3.99223256304916	1.1824732118494106	3.1979550193875173	14	-0.3196297860900606	-0.841050459237155	-0.5357455864382994
Si	2.004102603573285	0.4946932893662452	-1.8410377000656815	14	1.071146387653167	-0.5136525926433311	1.4929375009761197
Si	-3.1674090867456615	-4.94666190734902	-3.096889341073762	14	-0.5283567439692579	0.8703674876501435	-0.0977490533929857
Si	-4.3665246342785435	-3.131898773689717	5.086517499471025	14	0.5387270401675432	0.011843282436198097	-0.6466021347534
Si	3.9083667414407715	5.150115988153976	-3.839557319222496	14	0.4586008568599165	3.2798024765989076	-2.700421633330247
Si	-4.974514635851242	3.085877745591505	-3.001508822343837	14	0.689504369456987	0.4246697228393902	-0.8500513847419294
Si	-3.344596375341755	3.098212065251207	-1.3131441449055288	14	-0.039156648473195166	0.29342610910923944	-0.6101806281197784
Si	0.9724021783582937	0.5875049911167997	-5.3235016941645155	14	-0.1058431500513439	0.9915976746004457	-0.30705656685347243
Si	-2.545241170102212	3.4555941462826234	1.9877468025982772	14	1.6082636587797654	-0.6849635403510734	-0.26913507737607645
Si	4.751394056528907	-3.5211406267432728	-1.4262576081705218	14	0.8559327881617682	-0.38977005344476423	-2.705706283205279
Si	-3.4397703225376715	-3.4214709721835463	1.2202435951833575	14	-0.45629071872976346	2.1349142172585736	1.1986652411060195
Si	1.6508286306295004	-3.0319325890247195	0.780549421447202	14	0.31580166737889215	0.8898274124867483	-0.01053973203888302
Si	3.345953528108202	2.2706265276300712	1.2324912880707333	14	-1.5620986914249109	-1.1646870558581346	0.5015987366814129
Si	4.873926515384927	-1.7734499374571364	4.723630175998303	14	-0.3149503744073911	-0.6410529181409245	-0.10180625758817938
Si	-2.1665655620731847	1.0163885879064811	1.425748953533016	14	0.6229245687496243	1.4604659834458413	0.7421012138807241
Si	-2.8233586438553457	1.0630037868148805	5.051274840929576	14	-0.945195137114009	0.007020145966132315	1.940410356899903
Si	-4.85453322438027	-4.774019192501126	3.247807616261704	14	-0.9563784168145253	-1.0693301588550146	2.7023605038521703
Si	-5.193450475710424	-1.6405311507191134	0.7604475678689009	14	0.017946058024101576	-0.936198839598811	1.301378841761679
Si	0.876405276825277	3.0479452147093573	-4.997839449599942	14	-1.4981702145236848	-1.5347241330812942	-0.7595021975769544
Si	1.3685452976071844	-2.118113431351608	3.1702699914317223	14	2.4389687615402407	0.2380876950826283	-0.8192161186373936
Si	0.0015526183040035803	-4.686875991339723	-0.2919910845210968	14	0.45631848666722097	-1.043745346924753	0.5446197564507906
Si	2.8692974875798125	3.865909627604039	-5.343221501464865	14	1.3242722206428097	0.9821200661693158	-1.9289080030291565
Si	2.9540317981107544	-3.405361724329775	4.7046100464744365	14	0.02388042621353536	1.5421548845670543	-0.5240313734891728
Si	0.2644626511152765	0.7133048341290269	1.403997859481578	14	-0.16450600325690648	-1.239915540641411	0.3911018860006009
Si	-2.6580792046551935	3.1790037470416537	4.295029782118149	14	-0.3102110559707621	1.3604011354909984	-0.09341262716002396
Si	-2.8491489888164123	0.8466278791379064	-0.8596907521648665	14	-2.2343059498406017	2.463634917539613	-1.8635741599599376
Si	4.004179283432683	1.360114735700395	-0.7827017635596188	14	-0.40564919990199877	-0.7322711069102021	-0.5781533975888219
Si	-2.0122277505776416	-3.527881966589697	-0.5227492576035402	14	1.0192339714656533	-0.38887967967239695	0.0066820456165328414
Si	-5.243552957504783	-0.22914113999901764	-1.0023883687789639	14	0.8995479903706322	1.61348480235339	0.14165093384504615
Si	-4.171340078431822	4.314515252893359	0.6139405944717332	14	1.0363513622450713	0.35451582862648984	-1.103735661807108
Si	0.3070452627119183	-5.429284089171477	3.5280552201343496	14	0.18156425861396092	-0.00884614496450148	0.04534452764719555
Si	-4.742417079596676	4.241922017683852	4.594535183838738	14	-0.21971791890176634	0.5697566818342823	0.1883440062326594
Si	-4.997688408048194	5.25628042943889	-4.330071422123816	14	1.3185993338644348	-0.931631013887036	-0.5906829080349675
Si	0.9131117056991126	-1.007583753919256	-0.4438822449982424	14	0.17362417116427964	0.32321390690634705	1.8165722978233747
Si	-3.2302212708798033	-0.14027539878789427	3.192185454230651	14	0.9025921790696875	-1.1713215360262443	-0.5993642451484475
Si	2.7940921220047716	-4.43145251073681	-2.5555108850214694	14	-0.4408612585930228	-0.24398889601343218	-0.11480782297110419
Si	4.34376844754819	3.6065568454563737	-1.5931718500484233	14	0.9586803274076537	-2.5998163390371083	4.548146214544132
H	-1.6363308628609292	0.04912737530586436	-1.987516908471719	1	-0.4093832161584498	0.6197597952110541	0.16755481994553809
H	-2.3079382333105465	-0.26587311266469316	-0.21806068733875747	1	1.4877009307705737	-4.078370819741788	2.0807001475884626
H	1.8405279348285302	2.1349034767878927	-2.733243478043361	1	0.08311329346857478	0.31738238292971915	0.38911647847238257
H	3.1285725277523126	4.323619948784791	-2.200529920422997	1	-2.4123958738354463	-0.5179620222704312	2.3990762627244195
H	2.9961879394436357	-0.7644135192019458	-1.5889315806030115	1	0.11944198320013909	-0.4940610272143347	0.2274284066463584
H	4.022635228336783	4.140315477342881	-2.8190939412177394	1	0.28581203781415293	0.12072316498116886	-3.788277891569588
H	-3.7025326455961314	-4.76975671106281	2.335307850967102	1	1.0434257585334585	-0.7636882141486874	-0.6806435691921607
H	0.6612088259715161	3.1817002829802234	-3.461350384243747	1	-0.3301990858401253	0.5211118833981446	-2.6102326580206245
