72
config_type=amorph dft_energy=-6935.237682999097 dft_virial="-40.65906310435604 -19.530235774567405 2.9569541670535795 -19.530235774567405 -40.49932972314983 7.8332243948999105 2.9569541670535795 7.8332243948999105 -21.457098294314786" pbc="T T T" Lattice="11.105996452100001 0.0 0.0 0.0 11.105996452100001 0.0 0.0 0.0 11.105996452100001" Properties=species:S:1:pos:R:3:Z:I:1:dft_force:R:3
Si	-0.39977589068837244	-3.0428142443484867	-4.813753116007804	14	-0.022241603682472973	0.25709330560916294	1.4833657900902721
Si	-0.3291406426533713	4.944159726348362	1.404163338828714	14	0.07460602018526882	-1.3661881793455875	1.1048548639529685
Si	-0.8667497235098213	-5.141243407588393	-3.99146735989361	14	0.20279156124763548	0.11837188916589346	1.9345310103643205
Si	5.222800292534389	4.232198717790039	0.3672164408897509	14	-2.2378836428935878	-0.5074909387435962	-0.04544814319159752
Si	1.0599118774026157	2.927342978036713	0.8314171063971103	14	0.1653177012064772	0.06679551644372299	0.3685504641270501
Si	4.004352536977336	-3.1824410529435787	0.587877041997945	14	-1.4317822182732054	-1.1492586241635219	0.004180874361092791
Si	1.4954624038624929	0.5314208196333399	3.465191948416528	14	-0.4236086276737651	-0.09815631647569716	-0.902790668400403
Si	4.96598967297461	2.5711770036168016	4.754564818515982	14	-0.6008685988712662	-0.13400575217558586	-0.5418007965777802
Si	-1.287803592800772	1.9305575844678335	-2.3428443801594967	14	2.141430683692488	1.3642829903033578	-1.5440945264205739
Si	2.2694326330114705	-0.6515599362539316	-4.0531800503789945	14	1.175806829257243	1.58392891825616	1.1960635396325616
Si	4.153667106277595	-5.295744477231782	1.96911871474917	14	0.19811986288092642	0.9404403920454593	-0.42946097760348617
Si	1.7774092251923104	-2.791104608959157	-4.1184977473127296	14	1.0488456485483306	-2.117334541742593	-0.7249084897154261
Si	-1.8151285209425774	-1.3842269645975496	-1.0534959432522377	14	0.11428074638047384	-0.4768564759645639	-0.6907919790013172
Si	4.602527058885669	-0.7493027004292184	-4.377616192935256	14	0.22303644453848145	0.25790808888511785	-0.5886208815682088
Si	-5.189632234130192	-1.8838602011856889	-2.816991576089357	14	7.421189030853269	10.664310062070687	-4.741162433364564
Si	-1.7010965917709955	-1.3954007076280073	-3.559843913779196	14	2.1297617221969967	0.5583761983557108	0.6580152712695374
Si	0.7110414320520888	5.4805027236092725	-1.9260607665043783	14	0.07365393988521798	0.02942295795217857	-1.5390803568252212
Si	0.9816734641965069	2.9516528936707145	-2.057258123792326	14	1.2384186431240207	-0.14176689069498485	-11.829119245431528
Si	-3.9041842231769106	-4.908156307049944	-1.308275276060928	14	0.6619212944719063	0.001449589179499487	0.22170281220892063
Si	-1.012691401687577	0.7338087247788938	-4.410601002397993	14	-1.834755668868526	-0.5548794951203095	0.058534040829023186
Si	-0.6401107645114618	-3.3644272426066246	4.050742284157758	14	0.8854686176375013	1.7051724749541266	-0.4787128140057107
Si	-0.3165142352869788	4.431237054405639	5.545186268145593	14	-0.964448087972342	-1.3104761837159589	0.04625881269904021
Si	-2.657262913915964	-2.3106980734288936	3.814872020908413	14	-1.133495691666758	0.5276522611115374	-0.6557293015293938
Si	-4.989564371643483	1.2093452808649117	-4.733998734285984	14	-2.955365494891766	-1.3921113487359804	-0.2501968298089297
Si	5.419210950389423	-0.42461000935491333	2.8918682041694153	14	-1.1987662855451011	0.8757320989006324	0.10367442271379897
Si	2.4403539184092895	-5.540866035525727	3.809824345520934	14	1.5101317678046098	0.4802770744824889	-0.12200049010421843
Si	-3.44759116523924	-2.4349586253328592	-4.295631727125854	14	-2.3989248246210626	-1.4190742731178414	-0.5003576641433773
Si	3.6960478542677504	1.4533473547164841	3.0106501680235604	14	0.9154099104222218	-0.772293189434159	-0.31162439256524754
Si	1.943798153438027	0.5384831227772303	-1.9791474295454166	14	-0.7573959480986892	-0.09630126398721033	0.6045969586960129
Si	-3.192498643330601	-4.67726153021114	-3.6804217172596454	14	0.1479869086854871	-1.0835792245392752	0.8758999920780383
Si	-4.510448352900953	-3.4332755358124833	4.7496104334987	14	0.45131742970900096	0.7135462610846277	0.8722629064921567
Si	4.274020568629712	4.941142227112326	-3.5071770574040473	14	-0.1471415292562224	1.6676757320756193	-4.920575191046626
Si	-4.708578219006771	2.6192604152561683	-3.0976078990442133	14	-2.2556234982710133	2.2413559206284472	-1.2926288561361512
Si	-3.239956787369714	2.7502756342023016	-1.6285733243391372	14	1.7763175302679444	-1.1762310616350673	3.0174008669457666
Si	1.1517629104600635	0.7928415383203861	-5.3597705467781385	14	-0.9644869116626762	1.5728914202272963	-0.1586654804116581
Si	-2.3464016308231046	3.4677052354136384	2.345044478056658	14	0.6586189667987081	-0.16554832935369448	-2.71398575655722
Si	4.856461225364355	-4.0673413064550665	-1.5884329213623123	14	-3.847208139728446	-12.048429644140052	12.513926205468605
Si	-3.620361599046334	-3.090755499233267	1.62570464545556	14	-1.314556784969566	-0.342503110349694	2.3523783052366976
Si	1.4392904950070615	-2.5773486058452337	0.9329758909533388	14	0.549976911495851	0.4641338755088751	-0.45286703488545427
Si	3.560335909422024	2.4890892520403947	0.8191472015168302	14	-0.21103812445147843	0.4865562278953545	1.3976225129897182
Si	4.873751040640983	-1.89595129952309	4.643692545335023	14	10.33681860724321	8.692780331928372	2.5181153537208916
Si	-2.2200920225737257	1.0657858389261314	1.678628050348752	14	-1.721483824215678	0.645904336769512	0.1368815334761715
Si	-3.095270086791046	1.351449837268467	5.357805896005762	14	3.280250106035145	-0.9427836974342423	-1.4573503180188858
Si	-4.877432678464855	-4.970865205417081	3.0754858647112746	14	-0.0872077786909106	0.5902319361618135	-1.319090414980583
Si	-5.444662562458701	-1.694626238238002	0.9949395769585402	14	0.23747191535845286	-0.22969997819670923	0.19621338828603663
Si	1.4279479408305318	3.1169056784793816	-4.635627370711507	14	0.20842716699886807	-0.39563037380097776	-0.05130306422663873
Si	1.1465941797112562	-1.7855998975757341	3.3499361384359245	14	-0.1996859231314286	-1.0466774354318498	-1.4379875809633829
Si	0.08900678736606504	-4.3480620257765725	-0.08882909142283144	14	-0.7625834101926198	0.11127229604536855	1.064909657478084
Si	3.4252914349630683	4.137370167083784	5.534625576119292	14	-1.1414206095950505	-0.3587609806205863	0.2526424651894546
Si	2.448747830527787	-3.2287208507591245	4.574386685075337	14	-9.691596127604601	-5.501966895786174	2.8882210794560987
Si	-0.021743319853921382	0.8125280276313785	1.3804709165974494	14	1.963745451675035	0.5092205212924598	0.4313661666457159
Si	-2.4214948258339786	3.490722413060616	4.608490978980447	14	1.1278284613200875	-0.3963150591477332	1.0822268231408771
Si	-3.1896632824363795	0.4263492083993122	-0.4631278262500865	14	0.40049181974031367	1.1861192755858248	0.08767366297492143
Si	3.9562557981422275	1.0919571195655051	-0.9163668732592232	14	-0.3109785309088264	-0.36423820628409775	-0.7724574830641165
Si	-2.243785555404636	-3.5877133012760956	0.04596105571737065	14	1.236525795387328	0.027153700396615882	-2.8858230095239965
Si	-5.300363461156211	-0.34660037967571766	-0.87784905636405	14	-0.08485958820201937	-0.4489121606820024	-0.46771568233037336
Si	-3.6216354568393894	4.0986535528521175	0.2053387684028769	14	0.4892420045127811	0.7547351112028677	0.5474096628336833
Si	0.10927300969185712	-5.434375077945121	3.712373669052337	14	0.8545994129427393	-1.0555683176289221	-1.8895878322576
Si	-4.520772487202825	4.1724606734738385	4.170079547834508	14	-0.6714045593347406	0.06189987480362903	0.45356149043242616
Si	-4.541782811290908	4.695032235134145	-4.596715290942285	14	-0.519883152165646	0.2347591421351646	0.9400310720784917
Si	0.33923710402797536	-0.6962004889931476	-0.4115726801197931	14	1.5021037485529793	-0.2086955903942915	0.2073899831127203
Si	-3.4349414352802983	-0.08310728205070952	3.3854420090932886	14	0.8770850145200945	0.7577967834181002	0.5663371117584853
Si	2.82576198148758	-4.506741171285242	-2.57865244982871	14	-1.483137733048375	-0.15987929923330002	-1.096704202977567
Si	4.477495750827927	3.2869529219564204	-1.914683783738847	14	0.39707919164888117	-4.404641513763258	1.5633677890109359
H	3.969561892491488	-2.7198440933239025	4.451316695991037	1	26.622771261773813	-12.927041380999249	9.72200433311546
H	-5.970946858732944	-3.2794097291661544	-2.387821444591211	1	0.7872038005172939	-7.3173287172248225	-11.552381923844838
H	5.183546148074441	-2.6985538981252266	-2.2826265567965653	1	-4.345796369190498	9.73206249712788	5.953676161945966
H	-1.4523900178223135	3.177074635457924	-3.378109830235612	1	0.2101552068845396	-0.17666733142120689	0.07682771229240877
H	0.7961311344694982	2.9175374937691543	-0.881176412901099	1	-1.539028163387222	-0.414508200393101	11.70266380113909
H	3.552416223352031	-2.6243103118429385	4.300776024682467	1	-26.767884960264034	9.783044944521096	-13.695471227579356
H	4.353533950228522	4.668344525659749	-2.1351589147062913	1	0.12705862560054573	2.803119807353985	2.8695720812374685
H	-2.0384190220106286	-1.809467794550942	5.221533098339204	1	-0.39672412200416873	0.23432719644137973	-0.014416444640602292
