220
config_type=vacancy dft_energy=-23099.15881728941 dft_virial="-58.00139069719413 66.08523574940524 18.945277138490862 66.08523574940526 -69.77551496678805 -46.79226635060423 18.945277138490862 -46.79226635060423 -19.71178053053825" pbc="T T T" Lattice="16.2516075530292 0.46687293617747205 0.2695186304382 -0.061692529947664006 16.090400451842818 -0.39610701885216004 -0.17382528865064 0.12019799192755201 16.44840900003937" Properties=species:S:1:pos:R:3:Z:I:1:dft_force:R:3
Si	11.814952025181483	15.078272220141612	14.807600716647721	14	-0.08919112933487283	0.7714982036691692	0.5917422034268685
Si	1.3055466197875554	1.1672392523716761	1.0153364383850954	14	1.9081915790225952	2.8912308153438637	2.3374008454152393
Si	2.6967489433192617	2.8175583319589994	-0.1947591218226544	14	-0.02944635501059192	-0.615018419890169	0.6671414096034031
Si	3.993623811335312	4.085865038176144	1.3805874359329098	14	1.2579996670212046	-1.1181042838887556	-0.763853021999709
Si	2.703984888450182	0.035013844158224804	2.5642319580632043	14	-0.9536296481167548	1.2156641039301783	1.9667053081195893
Si	4.147690904640827	1.3947341151776298	4.111423372011604	14	-1.7177755190124289	0.6275705560631321	-1.2024357670580166
Si	0.032007268304950404	2.6814136178069683	2.4989230816051657	14	-0.13245177612008838	-0.8357768651149993	-0.4022764239430286
Si	1.3691530165709704	3.9750705228086165	3.8913042950739327	14	0.9858350562463977	-0.8743843254918109	-0.4758822841587597
Si	-0.11970041907135841	-0.025842893475440804	5.344838188201943	14	0.10354509611619553	0.6878336652199548	0.4849757694550595
Si	1.167166079892824	1.4275983145126914	6.713571682560829	14	0.24174457817947492	-0.5158701709819589	-0.385755529597885
Si	2.6387329239201396	2.691646382460649	5.393423088104587	14	0.47685159086445555	0.22748677073712575	0.0964413892271584
Si	3.9088543076128133	4.111964848355109	6.907758432993353	14	-0.2624152365113374	0.4243326509319188	-0.7308711400633815
Si	2.53880045652442	0.10710987454355761	8.031409652740436	14	0.2626324949108899	0.28962807233031673	1.7568761173896448
Si	3.893849071282897	1.4374343217254857	9.64663521147034	14	0.12546402608098992	-0.012206579617935021	-0.8654564193781287
Si	-0.043773402904352006	2.7571357510331893	8.11490595533091	14	-0.8929327934924233	-0.1403368419159185	0.08650998070702241
Si	1.287694161002753	3.966497960397333	9.54504741999748	14	-0.15502659505205252	1.230065893270456	-0.16923657993544694
Si	-0.15489150323391362	0.0693642578415248	11.095393380811943	14	-0.46964195443622825	0.7164621516282076	-0.5703976583905952
Si	1.2697213741416162	1.4134630176535705	12.381063103233124	14	-0.017304053025660602	0.26604615144445054	0.4815022061675394
Si	2.6205406196224468	2.8367392777487375	11.038678205481302	14	0.13368590667375943	-0.222264855831905	0.4745121421336529
Si	4.048990986999993	4.2629603236039255	12.346340322935223	14	-1.4539744567335315	0.014359108991962992	-0.19617687859049052
Si	2.6670701858968906	0.17109676821700323	13.89557243601605	14	-0.714993536269339	0.8914510654964218	-0.17939270306056385
Si	4.086928478202126	1.5754929027132683	15.121530163583829	14	-0.8531827339113377	0.5011079126757966	-0.5258450311820053
Si	-0.1857150034365472	2.5764143627645195	13.865750585746145	14	-0.380112467641224	-0.4874124059669638	-0.3613269437300941
Si	1.0358084719127993	4.208303734011652	14.91750740593851	14	0.5838597087363586	0.14897627001268005	0.48073421700841124
Si	-0.20688624065105923	5.3676566192181685	-0.1281672879020776	14	1.0403283479542762	-0.23283749801888592	0.5943770721589563
Si	1.2500005780634593	6.634467354756561	1.3134443693383144	14	0.47180991044217724	-0.4567224073130163	-1.4585435679979666
Si	2.580809589660896	8.003589476280904	-0.10517649504677921	14	0.4694138973943312	-0.8740156289889016	0.4852673327983642
Si	3.895704400135566	9.427958445393596	1.1681352087238417	14	1.057047474519603	0.25063160371856674	-0.02209813600560871
Si	2.6839811587871307	5.369002992829045	2.6035320834270705	14	-0.510352578964921	0.8128279503589537	0.8298316982832209
Si	3.9806316312013683	6.735757578148756	3.9843861923940187	14	0.5773792377769252	0.24746683017999652	0.33143912993603275
Si	-0.012966163252574402	7.987019974958641	2.5336816351149514	14	-0.4409592177057204	0.6312256393862545	1.0543259595382266
Si	1.2515485825049506	9.449027241137715	3.879012944681882	14	0.5125629582086523	-0.02472760541652415	-0.07164873484603451
Si	0.174955396935132	5.202464057016979	5.263005339964038	14	-2.4767444693459844	1.2217121149747627	0.912985358105322
Si	1.280653342482105	6.768255915089558	6.596575393096823	14	0.9696077821288152	-0.8383497702088714	-0.6566057913330322
Si	2.647531507988321	8.152727996621966	5.284939197013697	14	0.046088605526846405	0.05975120208758127	-0.0498059095987165
Si	3.9932904700427647	9.530890984422246	6.6647005969631214	14	0.6559995246985413	0.28800441932064313	-0.2938449421658916
Si	2.4894773276129154	5.539912764711205	8.162635550258527	14	0.26033109853882536	-0.7656952189615951	0.05574259178293841
Si	3.9193049636479644	6.876956071506831	9.400390307472332	14	0.3604260284259142	0.16096353434680644	0.7841938075189965
Si	0.0028277097938584003	8.065534044766837	7.838266829672867	14	-0.42922392169296847	1.6795884343554615	1.1227407581125786
Si	1.323808844453929	9.596941341999317	9.271543328544475	14	-0.8721852591114883	-1.092154889224097	0.8606553944138161
Si	-0.21259532005660084	5.215547296235717	10.877619075307708	14	0.5495578213286669	0.4397142885097047	-0.23965401244366255
Si	1.0953513570373001	6.80148597681888	12.008611933766273	14	0.9835056348263436	-0.7478800301982891	-0.06888659640059942
Si	2.568570273031585	8.208947225151501	10.841616589657438	14	-0.04687922041279194	0.42095293298858416	-0.5637639495540812
Si	3.8451666080751177	9.581627155203137	12.321412898472975	14	0.10887216922901032	0.1857731580230433	-0.7981957899819908
Si	2.4194008576438977	5.583778852755436	13.553661833166938	14	0.12992977891155513	-0.8032860642948201	-0.488562718487198
Si	3.797064646532899	6.740821113685314	15.047772304901011	14	0.7176047508324813	0.7360233780144262	0.3472676256184604
Si	-0.16994064305114162	7.973931857574647	13.436260655986619	14	-1.1345447026373785	0.8326935956150777	0.5655439257672197
Si	1.0613586754728321	9.25002574159673	14.934180974786253	14	0.19996643072185677	1.3159459531740418	-0.9879629030093523
Si	-0.0891712348392184	10.555469919913893	-0.2661006626482688	14	-0.10966844054666018	1.220761320227372	-0.12519226024865027
Si	1.1798850827723875	12.110845269108117	1.1193372956049856	14	0.2626960012122976	-0.2518819322357548	-0.6683454582248284
Si	2.629383107177939	13.439462358450164	-0.24965636756759604	14	-0.7806971042835951	0.3526831447542883	-0.14280176058634445
Si	3.9744883950879717	14.807621855363834	1.0617407984179483	14	1.2259518676476868	-0.442411120880008	-1.3581084808770223
Si	2.6126949038344267	10.843628019798324	2.496440095489455	14	-0.2548836976970276	-0.3164452150405252	0.16169809913677277
Si	4.067771923238673	12.187528400889926	3.739020984197321	14	-0.9015007448612846	0.05910714020488418	0.33480444968957457
Si	-0.15859077855365364	13.602794713633427	2.30999987148473	14	-0.1517636052902526	-0.11205082673630941	-0.19443418340449414
Si	1.3164037895941065	14.824900316703419	3.758436081919385	14	0.30149706581971625	-0.3382607865714496	-1.0182528376754847
Si	-0.135320304223632	10.836744928620979	5.109852089616631	14	0.24679602880196985	0.04467552604289302	0.1615947407029028
Si	1.1782086199791337	12.105050008783037	6.571836591024506	14	0.7839194705813367	0.4234091099009216	0.02807364188016486
Si	2.625109834412983	13.38919286547884	5.131738791068807	14	-0.5491544149039358	0.1509825034939916	-0.057624640877286804
Si	3.887887953339087	14.838946180532831	6.432156833116379	14	1.1116058151920813	-0.21762915293967805	0.40621715706721945
Si	2.678328991309585	10.874488919267927	8.007931043359457	14	0.08364602649090946	1.0086944965373024	-0.4357619854115731
Si	3.9912774138467917	12.392751187188418	9.355433136465663	14	-0.6120030275706995	-1.1784818072323249	0.5951982831982117
Si	-0.1069732859163672	13.617913773819337	7.863363363864018	14	0.14240118237746538	-0.2947877664867899	-0.11505696307662654
Si	1.1887519611541641	14.992284801159997	9.296847997786582	14	0.23389190831067866	-0.4136448232265952	-0.7176129783695059
Si	-0.21222457949708404	10.946849996632213	10.578413557171707	14	0.3580446706783931	-1.5759245531734751	-0.1031488887863607
Si	1.067171822403852	12.159511471765038	11.990543209655085	14	1.068351081949102	0.6662914021845621	1.137544925435459
Si	2.504893955879489	13.63290925381874	10.704639335301579	14	-0.05104981035260415	-0.1783236374684463	0.008865685364934607
Si	3.8438527555659534	15.030864584120945	12.05873670783498	14	0.33718914987401194	-0.44723348601847773	-0.9121479491025498
Si	2.362749098461594	10.81601597838975	13.6082859016575	14	-0.326877217766494	0.2744564940571869	-0.3877051987621533
Si	3.7925507176152733	12.281925776774264	14.798481799727675	14	0.25172612325335375	-0.16061309269167026	-0.0576382677354836
Si	-0.24547903205268962	13.57045085192576	13.420026122011988	14	1.0445380186949547	-0.13169664248756088	0.35074376001130053
Si	1.0440509451417057	15.175134695535718	14.879802440613616	14	0.18512266837704586	-1.587954240745384	-0.29570925063353093
Si	5.473023362709963	0.077066880782012	0.030815369927205603	14	-0.49263766330910075	-0.061987292384514066	1.0173285253128916
Si	6.67752854553342	1.5339032917888769	1.4296666565815745	14	0.3642744588691118	-0.5448254448764024	0.0577061449159355
Si	8.061761596968244	2.892945497837587	0.1840987046814608	14	-0.21115176730662896	-0.07026239485741065	-0.20687421938549863
Si	9.462209669716673	4.189691907501875	1.437949781187621	14	0.42598021522106966	0.47431570968719355	0.3432692997350981
Si	7.9810507267394035	0.259485870560048	2.8945520402621594	14	0.22905874452986433	-0.10792240292374763	0.5034969837392782
Si	9.336380649027689	1.5471735273424585	4.326737456171329	14	0.4206935084617812	0.5134345629121825	-0.07524159742040942
Si	5.477735670348032	2.840986533632324	2.8587950889298153	14	-1.137369318942093	0.2754000897096813	-0.31141998969229573
Si	6.734967315377155	4.181148614082132	4.266804317826283	14	0.3540088066573566	0.6705656076687763	-0.24188727452474315
Si	5.348752102792983	0.2757968291237016	5.585019532785749	14	0.6447630231178981	-1.0125388132119877	1.6090558163289033
Si	6.670367398936438	1.5919989878871936	7.1556863040049565	14	0.9702521011220442	-0.48097281558212096	-1.7002315818603984
Si	8.124301301615507	3.011704431014383	5.705240289484499	14	-0.13029153343009994	-0.5623192454746899	0.7446982873646057
Si	9.47492704654115	4.489235645095679	7.081330057050638	14	-0.003658425760038701	-0.7811365061828084	-0.9096843159847839
Si	8.1201353484862	0.18901426920522962	8.40935526234153	14	-0.5499357738107288	0.3280830661616435	-0.3099439181279988
Si	9.458295755125635	1.619027275520037	9.609281474043936	14	0.7560168072049617	0.4917840563428116	0.5513604232686228
Si	5.27379584151208	2.8954284839532978	8.304970656121437	14	-0.5334771002143328	0.07891185026492081	1.192253675769166
Si	6.688728812963033	4.238636165578435	9.641043208030961	14	0.36167455716937813	0.40343290711603114	-0.6345824744922399
Si	5.335665611464075	0.16532589871820882	11.000896815567385	14	-0.46419943869453884	-0.2829866501778422	-0.2783594319331717
Si	6.659183392057681	1.5232575091434537	12.29305124566994	14	0.9733217437637689	0.537541760614955	0.04769400368874687
Si	8.149287264060836	2.9685473029874734	10.946823979750842	14	-0.7604097977549666	-0.2813365147833712	0.663146426156957
Si	9.375505160442309	4.435629487088703	12.333047322610442	14	0.4582660989472332	-0.17271734231786337	-0.32665198894044906
Si	7.914040996661828	0.24157975195742082	13.866498571085522	14	0.11762112641241021	0.3210755186115799	-0.5438119151592
Si	9.12821470302426	1.7136100216841323	15.256669975692958	14	1.2790696180092862	-0.6327901569735647	-0.4567666303245228
Si	5.337473784719261	2.8746979076669836	13.613380332240684	14	0.40378154899744323	-0.05076801720951592	0.9300880935844151
Si	6.656410968136733	4.208949277880636	15.104228937473044	14	-0.41862608267385015	0.12570570998108382	-0.5215733968031112
Si	5.473324182900799	5.3703786354314635	0.045810849926608804	14	-0.36832369263781306	0.7842593707046602	-0.11373772893685856
Si	6.863020779423239	6.84867084329282	1.4362798226147098	14	-0.2809745031542943	-0.34785923695262644	-1.002526414874267
Si	8.105899236211771	8.343483770823873	0.0399229044616512	14	-0.02674000955060405	-0.9274977049743658	-0.4141767849173339
Si	9.362252811494669	9.751166162648135	1.3645447764583802	14	1.1375621518411043	-0.7624839084167301	0.05431768521451235
Si	8.165089267382696	5.513738155998301	2.8497591008191363	14	-0.10364125545516906	0.4336279679958502	0.5518317068738059
Si	9.487925730895437	7.038325778201775	4.189756949705299	14	-0.5060359502429244	-0.3098837542635073	-0.06726345761198994
Si	5.36304024883015	8.105697605381158	2.597701049890109	14	-0.6371517800386638	0.7754065408663263	0.5607542136663157
Si	6.672399967793438	9.622621629966197	3.9669922811433556	14	-0.46780644234817464	-0.3430666966358704	-0.29877272262248733
Si	5.324657218534562	5.521878187756815	5.580762520571647	14	-0.1169004455911727	0.35877255059452695	-0.29480730688722295
Si	6.768342096009094	7.065194712436231	6.774778022037899	14	-0.22827610007041124	-0.521776514123403	-0.05230399552777237
Si	8.083581630161913	8.495380080590111	5.412192641957668	14	0.04690955945556968	-0.9351302882277575	0.07741726674231873
Si	9.390669750170616	9.766911254042	6.871731556516799	14	0.5533211481857678	-0.953094858210164	-0.5187593220302092
Si	8.044544925721912	5.759758664394496	8.27393089059242	14	-0.5051244934069319	0.3892216366799766	0.9016457552013409
Si	9.427893403190172	7.196323046649185	9.672374037420303	14	-1.0718950935223943	-0.8504488776244243	0.2965600293839679
Si	5.387268469605591	8.296445249307636	8.179762788475152	14	-0.6201709149517458	0.0010132726066703578	-0.20190350147005634
Si	6.623115864203987	9.65055237817155	9.654093926147988	14	-0.11761778397549402	-0.21354366658596272	-0.29929491411300946
Si	5.27705933406888	5.550555295246457	10.894541430583546	14	-0.05437784907900381	0.8163529357528767	-0.0763227472075317
Si	6.506893576960727	6.935201364673024	12.369137615235335	14	0.2438325728099672	0.6321520086331038	-0.09861474455427957
Si	7.968248795050474	8.40836824690457	11.092894134145377	14	0.2721784947435357	-0.1926850604551974	0.3653617793090025
Si	9.30513762661297	9.904924305487386	12.45712345591715	14	0.614706287704303	-0.9811787845116097	-0.9294679429811953
Si	7.929553562178451	5.609896549540343	13.706075228450398	14	-0.134198842185129	0.44839665406531276	0.23795913981662092
Si	9.237854719281012	6.977026753584827	15.130593794630963	14	0.516967004511534	0.751509145357678	0.06211096255041319
Si	5.13392908726911	8.31747176761953	13.783685211631	14	0.5100077937414892	-0.676638044213902	-0.05166816118209975
Si	6.62686229512121	9.737037370009357	15.023615630549338	14	-0.4871162146340828	-0.5142647728200583	-0.34511895290241257
Si	5.346065859791572	10.893038955684453	-0.1754968732786368	14	-0.5857103903458012	-0.05245594785219313	0.5664417557450154
Si	6.684671805524461	12.291847964906594	1.2287594204802665	14	-0.3733165220590086	-0.544088308981116	-0.32072996205655196
Si	7.942716478096383	13.606448459410771	-0.16705764738437281	14	1.2065989007924003	0.3360678908438953	0.4602671902179044
Si	9.340979132809766	14.951851315401468	1.3446841396428617	14	0.189952232610412	-0.08365733935431813	-1.1918986061244536
Si	8.002254485055627	11.015741072443827	2.6681466343635583	14	-0.5396204992662946	-0.09399009741492922	-0.28391867585639585
Si	9.324968994436947	12.267416487245455	4.014611304325151	14	0.9282489819489131	1.0465900178509648	-0.005530447543638518
Si	5.325470246077362	13.627665226167679	2.493914831941518	14	0.4435359794575728	0.42156562738637543	0.42794145435927866
Si	6.650279114408936	14.992868554935727	3.941472972629949	14	-0.029135508377386016	-0.23198363394206475	-0.4436213401542017
Si	5.33567048962933	11.029640591315538	5.242390213588801	14	-0.033425911825117116	-1.105282952988773	0.7176386894227074
Si	6.77437476037667	12.249503864422486	6.632103070662098	14	0.2285656065294599	-0.3968470208384718	-0.05914467834255834
Si	8.064016935371972	13.719854419245772	5.311889434002431	14	0.1711026881768104	0.11820502443061587	0.1933568902753521
Si	9.47641976510973	15.108399768767608	6.635912917727659	14	0.5018586754292799	-0.23236338619785063	-0.5541899246734457
Si	7.961666524063966	10.86116827600669	8.181003468505462	14	-0.1124984561725472	1.5283961286673458	0.5322450265449179
Si	9.407530315353203	12.334730289624039	9.46841957408858	14	0.8928515465643065	-0.7243613585032985	-0.8705610918807506
Si	5.381959399751106	13.4716972744671	7.925964858604532	14	-0.5859672437672838	1.838970224709313	-0.35294642593907144
Si	6.673840652599279	14.907009594305876	9.285637974026454	14	0.1360340971626507	-0.629601729266049	0.6000111352469968
Si	5.24336259452999	11.025273007355615	10.905829504987782	14	-0.8251682274535365	-0.35403400348949404	-0.09720783572309455
Si	6.5887296773088035	12.360891889896257	12.225252878875846	14	0.01573027945919796	0.31978585218299355	-1.2099799042883952
Si	8.056620010787578	13.522913131498242	10.775286550605642	14	-1.4857931706230239	1.2620375879264973	0.02403032165369999
Si	9.227810577017262	15.062532006913004	12.031404347901129	14	0.42652246133308896	0.45930688238082906	0.28636431123692074
Si	7.848862204610636	11.19907715729014	13.641753367429319	14	0.586489178147274	-0.8545333355360116	1.1803664274319934
Si	9.244601221831166	12.36056830493422	15.100425594627826	14	0.5732166182636056	0.6529846466001357	-0.7712027836678842
Si	5.154519822818063	13.674359024005769	13.364985783419513	14	-0.5777052539315201	-0.1610164991164015	0.9628905123693963
Si	6.518061323288628	14.93113699966601	14.761181722119098	14	0.11310240881224998	0.16735427373056652	-0.04044245824380122
Si	10.707148338298659	0.222054082489536	0.21066844478016483	14	0.06499137184057509	0.06930003013607923	-0.0579979653697723
Si	12.132727092395037	1.6907379308500825	1.4704725089547066	14	-0.8334456439212211	0.14045614120277336	0.10694641134421941
Si	13.458535984604252	3.1110986741767683	0.11607756834064162	14	0.08867587982871515	-0.3259415925404921	0.5120477087024946
Si	14.779027676683558	4.482305398320851	1.5777124679051122	14	0.09444826838297961	-0.5479652786933672	-0.8076032072378807
Si	13.484027650181204	0.42231252261168967	2.855625907567981	14	0.6280179283888377	0.07282398708787419	0.38962735709949603
Si	14.938330667364704	1.8623208895376804	4.21144202032686	14	-0.39457159263014074	-0.9154420492387235	-0.7873328700043652
Si	10.697385503564718	2.915001309018665	2.9479793322097185	14	0.38768103037214396	0.02382334767542807	-0.10567268576861806
Si	12.0411753129105	4.410145951787181	4.265714860918932	14	0.09034555562361932	-0.09549933623785614	-0.27366639339230536
Si	10.960871469635341	0.47757237864072005	5.651658522303808	14	-1.092151032566117	-0.9338118254195855	0.2280447005915979
Si	12.212174517822366	1.846463600342909	7.041844561407014	14	-0.32705102448613604	-0.12436256456183846	0.04881346294513934
Si	13.463643423628122	3.0262511198101603	5.507879479524885	14	0.16084012129143935	0.7538593927308255	0.44152537509721707
Si	14.785499375924246	4.404737692572475	6.891201940111773	14	1.0556089410929803	0.2940462597124591	-0.416869246408593
Si	13.484245541562673	0.44069182324422645	8.381313942390356	14	0.09403766286335195	0.28837208738142434	0.6947990466427679
Si	14.77816586748819	1.9421471857999553	9.774610624872317	14	0.555252819612795	-1.1565502788514619	0.30969837756992463
Si	10.845792299117258	3.1753928922613923	8.412384602966002	14	-0.02614839821643798	-0.5983743696001905	0.10501473991719217
Si	12.221308069238182	4.464864331472707	9.827499692586542	14	0.2710515792817148	0.25488061237064347	-1.156902520280322
Si	10.751965668567967	0.4061901864379657	11.193737192389031	14	0.0892096412931779	0.21640479258622353	0.13486475846304735
Si	12.113177032100866	1.8293949001093657	12.653944415588345	14	-0.6390207164958794	-0.4768729310386128	-0.5529627361041392
Si	13.457165220167093	3.150348391832981	11.249847475227831	14	0.1480740691558401	0.16085169126538001	0.45432999381261846
Si	14.76839815458899	4.483581851563049	12.74568969562807	14	0.394281057728964	-0.9233757089251045	-1.072637885849385
Si	13.349143128720513	0.40240310414360325	14.047989083409682	14	-0.5920268247858089	0.00920121460921393	-0.031094947741870868
Si	14.60499425298196	1.5066603648847345	15.6199079170448	14	-0.08025345302097409	2.477625844249731	-2.0324597840191845
Si	10.581756726427702	3.112396266135077	13.882337973674353	14	-0.5549147192631955	-0.6669611751204607	-0.44383885566428627
Si	11.931138539212862	4.499707439846943	15.056783902185408	14	1.106201094698598	0.06059581018524992	0.4297114032616687
Si	10.842707672619875	5.567952458607291	0.0858296916383104	14	-0.47441469724201923	0.7350476435454301	0.49223425688436956
Si	12.130792086843172	7.029699555972668	1.5007480285934929	14	-0.133608259293091	-0.05612774335989659	-0.6374921943830515
Si	13.45503346194987	8.497497204311562	0.171849631721636	14	-0.38649780770381176	-0.8434549569325576	-0.8392594272711399
Si	14.89433286885854	9.68545727663904	1.4109930399785442	14	0.3496957774828082	0.5546912902108746	0.033507930084829836
Si	13.483918704490469	5.778908715137607	2.9419060164650026	14	-0.27928168741150877	0.23279507478110348	0.4257148771520304
Si	14.951160241990088	7.1344402682565065	4.228788775980042	14	-0.3469418665743976	-0.33179085714382905	0.697664286411541
Si	10.744011007089211	8.384179051451184	2.7671083468731736	14	-0.15757224642953113	0.21332023753364185	-0.021834340599761515
Si	12.091654566987867	9.727466409775515	4.135976803804164	14	0.553934613915155	0.3641111936812824	-0.317048910569696
Si	10.81103862377273	5.807015077292204	5.697840112789934	14	-0.16687373414623083	-0.1915422041403916	-0.5717256342884518
Si	12.137650787194234	7.149894295790048	7.020102578857457	14	0.7222360828456641	0.05718858141498969	-0.5085962569207279
Si	13.533601191575892	8.51783427526716	5.620111427588083	14	-0.24652374874856617	-0.3312203288732882	-0.47529324392991384
Si	14.870662384977459	10.005808015108181	6.830967981575893	14	-0.2232521602748419	-0.8007805221603358	0.4826358065031927
Si	13.58089825585074	5.804699574850308	8.252940145492408	14	-0.36973137280059415	0.05708136632313952	1.0007364113503798
Si	15.019295202186898	7.201027224011826	9.558561563813901	14	-1.2257893737914536	-0.37694460877626956	0.5494074116674383
Si	10.712239516771673	8.420116494898028	8.273251199566639	14	0.43478110873193654	1.0712718575927902	-0.22668304321404745
Si	12.102188151832383	9.873390219212347	9.560231522386813	14	-0.5680021595638132	-0.4902179960923094	-0.20387013992943762
Si	10.818131476056116	5.840046760301081	10.957188454866456	14	-0.6248153596020612	0.15143424669874164	1.1022799019748402
Si	12.096578261787062	7.233427997647492	12.3860908655578	14	0.03997091752808606	0.20667521583371914	-0.6294425778467319
Si	13.458966889201937	8.579645507236075	10.827300800683815	14	0.444928490098965	-1.3842489086669678	0.8155862321464086
Si	14.81490333003715	9.84853596722895	12.227856193067892	14	0.48320504922107343	0.293695818057323	-0.22589782764927427
Si	13.404090782173109	5.90799797627322	13.815902241041993	14	-0.9637232933825922	0.37727293892565245	0.5704444525074219
Si	14.629572075600805	7.302985756044203	15.24442578089839	14	-0.07750545565479981	0.06799647973876416	-0.6865751091657423
Si	10.66099439074899	8.476191004524946	13.814664813121851	14	0.08451197476273535	0.02057449899288896	0.002762395555967096
Si	12.22237313531925	9.900498183544382	14.982669937438844	14	-1.1599117419470235	0.14041911728616321	0.2831964523719663
Si	10.857818602530356	10.95101920187169	0.021016761981380003	14	0.4642056093473073	0.6683778541518622	-0.7876095209368132
Si	12.211220023487119	12.53197727572766	1.2340522297838945	14	0.035399749379394795	-1.0891883479057103	-0.22086977408519265
Si	13.494281553550996	13.929116326376894	-0.17056504820401203	14	-0.06166127622991928	-0.6409120215693803	-0.46130283144086004
Si	14.87951300280838	15.53312047896107	0.8189886607438096	14	0.4847140309334684	-1.208917780680642	1.7557916251656063
Si	13.537451690018592	11.079158846837313	2.5815380623392454	14	-1.204077417804931	0.11237041512760382	0.8796054690654356
Si	14.780756173239551	12.505636809396027	3.8892001797931663	14	0.5537713487273256	0.5571348687071433	-0.0777605093025585
Si	10.80682551504594	13.633195439513806	2.6549739621151125	14	-0.9565943896614177	0.26374758328823816	0.3746843500893274
Si	12.130128656368246	15.062631196273225	3.9429510567027597	14	0.10360551709121901	0.5844145532644465	-0.18775085223530125
Si	10.680908687382333	11.08639641802332	5.470246060623758	14	0.539001634215735	-0.3426445211423021	-0.15415858989597053
Si	12.18004041722074	12.331790382029274	6.743321986406967	14	-0.06105166715851218	0.4937128995539867	0.6402677025761513
Si	13.44055831957786	13.706925655260166	5.313035802837779	14	-0.0024250665379636684	0.3672068044867407	0.38543414143286653
Si	14.750194467905699	15.202010133990516	6.607408172077091	14	0.005663373688690174	-0.2006945677485227	0.11308312552234887
Si	13.558359506309236	11.172881409861127	8.37445036387404	14	-0.5466550434222197	0.2683262076423579	-1.695901326280205
Si	14.774973921355157	12.738665137658277	9.478112488453842	14	0.4596429258461725	-0.05790694824143906	-0.19267143359700062
Si	10.816217609220365	13.767379131232603	8.065693398165225	14	-0.46491960529471243	-0.3676562336967026	0.0815212650543391
Si	12.083760069547278	15.192743246057681	9.444867792228749	14	-0.3922396001047665	0.4967349767472887	-0.6192080360093504
Si	10.814173657977765	11.114507658343172	10.99006403658712	14	-0.9488558768688359	0.3000261364660595	0.1313983942704237
Si	12.06892069083609	12.611758042447539	12.29524967214567	14	0.8101889678583536	-0.8968010214465859	-1.4724794730542334
Si	13.382371564394749	13.920103103037412	10.787205534383089	14	-0.06188521950330419	0.22311486325074595	1.5127414397045602
Si	14.662315946859533	15.24435586052971	12.318351036746789	14	-0.103223450840645	0.1385013298278648	-1.1394156616663988
Si	13.553710614819506	11.291513510741245	13.488487919281004	14	-0.9957510381346129	-0.5063611950659233	0.7397478811811927
Si	14.675582930302943	12.617706151950664	14.96742404495626	14	0.707491308055679	-0.17996734509961695	1.090732553760991
Si	10.55198203175528	13.745853414009432	13.421270054152473	14	-1.2528446008543077	0.049527716003076476	1.7199894978036083
H	1.9513961871268484	14.24004895379024	13.994199181178033	1	0.2018389667265206	-0.3744791758847796	-0.3993625902837047
H	14.011845130966963	14.627150879578346	1.6852060914488713	1	-0.9233628533985038	-1.0015272833468574	1.218840190332157
H	15.39090732722958	0.6662809494898568	16.584729328140646	1	-0.16759647185172447	0.3897890796241333	-0.723170679629538
H	0.509215410606496	0.3427415169978536	0.1858889913307064	1	-0.16988989779729655	-0.5505610666245887	-0.4900758139681051
H	17.483391435968684	4.483581851563049	12.74568969562807	1	0.0008782895773625837	-0.09926240598442487	0.07696423798490865
