229
config_type=divacancy dft_energy=-23110.84215914403 dft_virial="-13.911556331422265 6.633807647996991 -17.13936139580175 6.633807647996992 -31.573360454080923 6.787705505520732 -17.139361395801753 6.787705505520732 -6.909203814092105" pbc="T T T" Lattice="16.3999889955 0.0 0.0 0.0 16.3999889955 0.0 0.0 0.0 16.3999889955" Properties=species:S:1:pos:R:3:Z:I:1:dft_force:R:3
Si	1.371399879781701	1.1770764101740214	0.9972669308273595	14	1.1449623071735544	1.9060724740177293	2.4039613628327
Si	2.766612543584868	2.6947477918065865	-0.0404587728518985	14	1.005980694871886	0.49690184148256633	-0.6864146721937651
Si	3.92502576628201	4.3456198840606035	1.4224202455467014	14	0.07712390362528984	-0.9528434041098535	-1.0369632853112662
Si	2.688368196087337	-0.104763129703254	2.4525691543100385	14	0.5500303904865101	-0.5515509421728457	0.36123027017005654
Si	4.069788469145289	1.220454381067119	3.8655102062173405	14	-0.415117038132912	0.874579729496142	0.8683167740467935
Si	0.006969995323087499	2.8822324660031433	2.479891535976541	14	1.1440235966211683	-2.3319966391428197	0.8499670524874287
Si	1.2666859500454335	3.975668932300114	4.187589590099965	14	0.3916032515380298	0.04274899682650607	-0.37607120429901525
Si	-0.0991707334557885	0.0051987965115735	5.403878373962227	14	1.2766265537340815	-1.335097859593293	-0.4028022149809988
Si	1.362445485790158	1.130418441481824	6.859344597334861	14	0.5237284972824594	0.45728342249387255	-0.5653729472634298
Si	2.767580142935602	2.5975778570082495	5.521154695269048	14	-0.4987072716383744	-0.8693637281331575	-1.1845172198608407
Si	4.017915303952522	4.1784875962074635	6.626300753708806	14	0.09570322488974388	1.0600091307378816	1.2600673499196677
Si	2.541243894808707	-0.13006831272331051	8.450455129689274	14	0.7238193695018112	-0.17092785301504035	-0.7938436800065762
Si	4.1457532181724455	1.1458836311045806	9.608294352771575	14	-0.5683870540302394	0.5768912419871612	0.15422980951333862
Si	0.15929309311329148	2.526647904602712	8.207882892456835	14	-1.608810789991893	0.32480362132579454	0.12202697248901595
Si	1.5126693849889379	3.837138225255126	9.482063637473212	14	-0.2823485018373814	0.7562232669621695	-0.34469446341405613
Si	-0.2750442154435305	-0.027305981677507498	11.165538907850284	14	1.0498967164032071	0.2168228543112796	-1.4554371585501638
Si	1.2788875418580854	1.2355259709539834	12.318195734410006	14	-0.023271331363192278	1.2436382440344536	-0.5331305152171769
Si	2.7176585764333003	2.563449479908614	10.908026280642943	14	1.162147575133424	-0.01939230476668487	0.9340005445500844
Si	3.9963985183904267	4.391031453589142	12.121166266618067	14	0.8879008832703613	-2.491006390556846	-0.3561806193212857
Si	2.4601459492259594	0.015579989545724999	13.793325544588244	14	1.009872834105526	-0.46005713091324835	0.2450762164533228
Si	4.166482804262757	1.2995187280144245	14.842219640773436	14	-0.38434707810350793	0.5110025543898544	1.4349055970161213
Si	0.0785723472774405	2.536438698033025	13.860155499744906	14	-0.23174992046846327	0.49410859266275736	-0.7015502549924129
Si	1.5014845924940068	4.092502453904056	14.933879179269287	14	-1.0740717912864315	-0.6094103249658621	0.7801461164134874
Si	-0.0840827435799285	5.3285860244838865	-0.0851323428756405	14	1.7187633376764295	1.4357118956445198	-0.31729393690670604
Si	1.3305147072159196	6.882484981807512	1.4828378050061235	14	-0.7975874664632439	0.35307369565241875	-1.768738683115744
Si	2.7459977574175243	8.233286475410864	-0.055169562980861994	14	-1.3798003822420477	-0.6270298526143048	-0.3210549497690187
Si	4.096651651119918	9.671795110162153	1.189917601557498	14	0.40944158024921723	-0.7043836130552159	0.1282904421594287
Si	2.4667879447691368	5.50860870368749	2.838969295033014	14	1.3346276044302379	-0.6238943896763843	0.6464715226031366
Si	4.0643764727767735	6.842190208845568	4.045204885641034	14	-0.8847132268944417	0.11945355317407975	-0.9111318482800274
Si	0.1888786732611735	8.388905970989164	2.8346068979602106	14	-1.120092262522294	0.49471743040256855	-0.5819547768046608
Si	1.647280494664002	9.74338106212751	4.200020781758555	14	-0.8774606530073681	-0.73494171400624	-1.0022564488156516
Si	-0.041951171850488994	5.487190318059367	5.391086382545737	14	-0.9172479936155955	0.1454397146448164	0.4661930737597817
Si	1.319510314599939	6.9928569077472265	6.6539347351662235	14	-1.9003661628701929	-1.641607038124106	2.2869372470756284
Si	2.704587785203887	8.092902569609384	5.385789186100191	14	1.4677771785342146	1.5508223377118053	0.1690625161052729
Si	3.9881165239476988	9.44624606150704	6.899508170384841	14	0.47981196153007405	0.6201691151780216	-0.006138771062385554
Si	2.5397186958321254	5.476169525454392	8.155566927561189	14	1.5065731009309928	0.3914135039654029	-0.3795031156803489
Si	4.2583227426375565	6.722880288903306	9.65729751989013	14	-0.8336621309891775	-0.7063183698086274	-1.8422815512511312
Si	-0.1767426814045035	8.204028895042892	8.26723445263155	14	-0.006625738410021599	-0.5609012808906283	-0.8166473273120336
Si	1.1631364195278464	9.451412058040622	9.692180296483558	14	0.22038486362181275	-1.4570440993752563	0.3779686800252845
Si	0.08172114516457649	5.011541437222881	10.868781106976709	14	-0.3055624975519344	1.4213147342938186	0.9022101128191135
Si	1.075380078412926	6.901213769240373	12.208283008162162	14	0.27866590768733335	-1.0923893740292945	-0.8207652095927828
Si	2.7659401440360525	7.914454289349349	10.928411466964349	14	-1.2798903148274774	1.1080988275353993	-0.13656323063753714
Si	3.8506026162204314	9.46902564622179	12.25359617775673	14	0.4057145059771305	1.32716394279638	-0.533516181015199
Si	2.425919172192351	5.460113936227797	13.363432633049202	14	0.7794164367236294	1.1038680737310955	1.4839720567247634
Si	3.9106921758999436	6.725848686911491	14.881940414120537	14	0.5034391338695748	0.6869003539887409	0.300311272046064
Si	-0.1565706949400385	8.323224015062188	13.558116902414781	14	-0.17448600566759326	-0.01457508183885543	0.9335097205444681
Si	1.3122779194529235	9.75974825114502	15.040872707475929	14	0.14030444598888464	-0.6260842000775544	-0.8877504736091326
Si	0.063763157214504	11.210688077554895	-0.004198397182847999	14	-0.9364616065625301	-1.3220842100153634	0.10297765317203883
Si	1.5562441557499815	12.531805591076392	1.1576424232143538	14	0.6716490714506865	-0.4024782557106601	0.21152046380953818
Si	2.7940989251413257	14.019596192759156	-0.440142904661229	14	-0.3328941184367046	-1.3467871328208143	1.579709220204733
Si	4.257273143341845	14.84035004202795	1.1946571983771974	14	-1.179282706539551	1.1967734218114543	0.06419844295984142
Si	2.906701249584429	10.987943427018012	2.66762221000803	14	-1.4141629477352946	0.6239861781363136	-1.1502970936023298
Si	3.982474927733247	12.346124915669341	4.063556473326999	14	1.7308084518802596	0.6135174086042666	0.5495511364548347
Si	-0.0404259728739075	13.56989209451355	2.482220334413902	14	0.6840268866829435	0.5248060475221334	0.48696631919391803
Si	1.4038882579817864	14.85743883056126	3.8679866045556617	14	-0.2970325985418112	0.490541441141584	1.2380278351153584
Si	0.0366539754049425	10.870634305733201	5.3971215784960815	14	-0.6100757270227164	0.7448458688099824	0.49711524322413864
Si	1.200971194140465	12.141863052730388	6.976620918641681	14	1.4785696502260681	0.7789191849547127	0.0710602088382526
Si	2.7683017424514045	13.610186867475495	5.600350242128317	14	-1.0073657493078496	0.24559969349650496	-0.0801981742565909
Si	4.1156100383987155	15.124102651628089	6.961729728633768	14	-0.3747332010904102	-0.910606571463121	-0.2845131154064141
Si	2.5112155149579465	10.744813590159724	8.539359470033881	14	1.5617317946957257	1.2228045776252936	-2.166979243037736
Si	4.027706097382836	12.113130272010272	9.847980191940808	14	0.057332820423450004	0.0729160326583355	-1.0517880214767081
Si	0.0619427584360035	13.750718373177934	8.279206444598264	14	-0.8203258076935696	-1.2519097469599019	-0.8454012836599097
Si	1.120414448194569	14.960135561651082	9.822888208777693	14	1.0649381967471376	0.9289094989056592	0.20078635620845198
Si	-0.1980954670766445	10.816317542180105	10.965819841863084	14	-0.7198094736445084	1.0069266045191685	-0.5136960443232416
Si	1.1640876188895855	12.53188759102137	12.165347836971943	14	-1.6279477840002874	-2.2754269227783896	2.3693596845446794
Si	2.615043845288457	13.693236411748707	11.114305342228342	14	1.616029682399273	0.6813987028246882	-1.8596848489421498
Si	3.901836181842373	14.985047144935246	12.511682804578914	14	0.5480079590416816	-0.08129989288627434	0.2010151845819452
Si	2.685498198013125	11.130639731267859	13.510130534613948	14	-0.6915144595962788	-0.6316835532437728	0.4126063537877875
Si	3.997021717972255	12.099223081342089	15.236786976016171	14	0.20819448196739468	1.3618124152012274	-2.2876260461908964
Si	-0.11990031954610049	13.640969646820048	13.91378346376019	14	0.314861414163314	1.180118315768599	-2.642000206914246
Si	0.8141118537256155	15.336269309262875	15.224864184016443	14	1.0987654581127297	-0.4295201130258496	0.13979768113028343
Si	5.526878291428477	-0.04188557189450699	0.014448390305035499	14	0.18161645205195992	0.4033285202400332	-1.1942874200774034
Si	6.745938673430978	1.2322787731328744	1.6128241177844564	14	0.27941435644602847	1.0222545059957633	-1.277240019463469
Si	8.193172102327871	2.662767813265362	0.26918941937213703	14	-0.4004180290176255	-0.6189470688193555	-1.0939842306593823
Si	9.516454414396776	4.230524761290185	1.3902106671595393	14	1.895824048211619	-1.5166276653959638	-0.7411959276975002
Si	8.288931638072595	-0.08377114378901399	2.7640213453235787	14	0.29489009647853176	0.2064224761807486	0.5186004277214241
Si	9.665661514277835	1.447167828940911	4.115298438607802	14	-0.07403729168845206	-0.10144193196431439	-1.4378109460278885
Si	5.278270858245693	2.8645204778880027	2.589525462411459	14	0.36033963928715723	-0.8362162670142127	0.9914711762186944
Si	6.64476714131774	4.132387227141113	4.065934471731347	14	0.20409536875548256	-0.1522130345002145	-0.23493114908108254
Si	5.515070299351717	0.020696786112321	5.3871995851538035	14	-1.2457588917025115	0.8513549351392447	0.7617532002847441
Si	6.732720282300606	1.578761340640803	6.757959865364681	14	0.24938076098031475	-0.9450650391848098	0.5167708291756067
Si	8.167932519263797	2.8059889171630634	5.291571249321044	14	-0.830075953288635	-0.4335006982825028	0.06450671848772717
Si	9.448214060186501	4.092026854223187	6.650720337323106	14	0.8656397391874552	0.44334726032707394	1.1270581581661714
Si	8.102742563006684	0.0103483930561605	8.252458062546603	14	-0.809984564985402	-0.26828429862563946	-1.0076208029556082
Si	9.616117147522429	1.331974306236519	9.293119364256057	14	0.3767317212557613	0.5997555673781739	2.218341442686738
Si	5.1931221153810565	2.8360008970248285	8.235697273793203	14	1.1784383555524145	-0.9847112261109611	-0.31102043992554473
Si	6.887650978341094	3.678861931459555	9.746300260168708	14	-0.34229767903461417	0.933769145071271	-1.2980358906244225
Si	5.4105531694833955	-0.26008742547963454	11.080406564974641	14	-0.0890396912315161	1.6265200492160092	0.24107171991719215
Si	6.732211882641745	1.5071261887084588	12.329659326717858	14	0.8017958516512623	-1.5607843423852512	-2.010139247403383
Si	8.460491922954521	2.6522882202972373	11.057479380358933	14	-1.5213055344154414	-2.33818323276416	-1.7125975700081828
Si	9.450493658656875	3.980310129185841	12.436702054891487	14	1.3618926336872161	1.7908468464321012	0.9757380685436442
Si	8.202831695846221	0.03771997468965	13.311625067812416	14	-0.17021102885178305	0.02714264464373924	1.8351513619772968
Si	9.449657259218105	1.2489083619743113	15.046104303965492	14	-0.9803305768664927	-0.26700954460791004	0.621250522075676
Si	5.423689560668791	2.826308503528488	13.531286520418144	14	-0.8935750556013962	1.48335653411112	1.2267447965284204
Si	6.897490971738394	4.042761287280705	15.184208611296597	14	-1.368385445952186	-0.618386053638499	0.525910080146605
Si	5.450929942390317	5.595512245374644	0.043197571014147	14	-0.6659772131144399	-0.9384781244651222	-0.9386023088520855
Si	6.865166593428263	6.73827987857008	1.4507922265089164	14	-0.4263270573287577	1.6191096094622783	-0.4637829196326749
Si	8.168375318966676	8.145349734416994	-0.1262963152543455	14	1.355116742726498	-0.9208187446842172	1.483640384138464
Si	9.70303708919858	9.538840399375632	1.4497426272132046	14	-0.9661563303470483	0.21969529317494904	-2.2394918692713404
Si	8.193926501821664	5.349512410442144	2.783242132426305	14	-0.7027563604980942	1.125612425644652	0.8712745736070917
Si	9.469107646166767	6.820919423118405	4.138406023102461	14	0.7752450754522211	-0.042121904238921946	-0.1351473229377316
Si	5.241994082587646	8.286127239954366	2.667655009986021	14	0.9456635925033402	-1.2440362511380125	-0.9485560859885066
Si	6.823904221115586	9.461645651173816	3.7811650628134843	14	-0.33009392763253126	0.9345253071459266	1.6219421961934852
Si	5.4691011301973305	5.734961351803381	5.38003278996277	14	0.23549473536725898	-2.0336054685498426	0.4412173566798633
Si	6.946608938779917	6.8618537956511725	6.7214698898496925	14	-0.34948186152017185	-1.5151441376262385	1.3747039372764502
Si	8.045769001236318	8.34920159763106	5.462573934577121	14	1.5287982495394168	-0.26710698949954365	-1.1257150127469258
Si	9.56650718081104	9.503990422760197	6.855654599810874	14	-0.5877431062119102	1.2190754464689508	-1.0377099342962375
Si	8.104677761708153	5.182429322555991	8.312957621951004	14	-0.13518049019636152	1.0797130534693686	-1.219669371797905
Si	9.1435350646281	6.971815721866	9.56075078467362	14	1.5174023394289247	-1.0660319449503286	0.04056201464118811
Si	5.482778721019578	7.973461449755158	8.09754376649511	14	-0.2545116587572022	1.1377449574293668	0.6060216081539069
Si	6.943542140837758	9.268338980883856	9.548860792651883	14	-0.39033775349945293	0.2572660838866769	-0.441491436506991
Si	5.693338179732802	5.328225224725986	10.770955172618551	14	-0.38232490376921147	0.7075982660369972	1.198552626692997
Si	6.739788677557667	6.753613868280873	12.485902021877989	14	-1.308014350371917	-0.5824677123160303	-0.05909788422573165
Si	9.505843621516686	9.38837050034192	12.160805040020191	14	-0.3146847792278198	1.1568405566421065	-0.2724206928646936
Si	8.099413365240599	5.396416378969275	13.812185531933068	14	1.410262323854098	0.5260805444293308	-0.41730402031823
Si	9.783429835254521	6.7106950970796495	14.954149565667723	14	-0.9330055267911871	0.493423393094938	0.26110474412965795
Si	5.236155686505249	8.350989196431568	13.601002873638015	14	0.9111565308911008	-1.5047298755269787	1.0139578062381773
Si	6.90588776610409	9.472174444108925	14.89789760341316	14	0.1244080731260051	-0.16793945730143223	-1.5848172351442713
Si	5.595036645693775	10.745567989653518	-0.2384394400055745	14	-0.699332419543253	1.2162091782580498	1.8753562500895165
Si	6.689358711396503	12.227274195418952	1.2768375432336478	14	1.0110647985319468	0.1525879016558921	-0.5924554280426776
Si	8.04389940249083	13.697549608854523	-0.20034226556902798	14	0.22308015332892397	-1.289641745975203	-0.0118034303037358
Si	9.44540966206827	14.723893720170905	1.3856842701967815	14	0.3999362038806297	1.698784820896751	-0.5263762215411478
Si	8.212228889540643	10.925328269033194	2.6149290453654883	14	-0.3008535181580832	0.19946120852644766	-0.4757226185183785
Si	9.218925814040414	12.37966289316514	4.126204431289809	14	0.9555194105270637	0.23532349975293712	1.0737228922944875
Si	5.520400295775255	13.677492422313026	2.7148869782930607	14	-0.4371030739465623	-0.8584964372764877	0.5984962399923656
Si	6.8157534265848225	15.094189071700299	4.106540844484204	14	0.2170889637119149	-0.3519161840372881	-0.5615142323989516
Si	5.402615574809574	10.836702728501512	5.254195674400298	14	0.07836189083694113	0.08504547911666607	0.8710488305599827
Si	6.7584026650675595	12.319278133683706	6.717402692578809	14	-0.813095345312249	-1.9100489455058705	0.49057409417914993
Si	7.9623750571942	13.88455868337021	5.662325800542312	14	1.9288879484076595	-0.4010677473320269	-0.8073432684900137
Si	9.662119116654805	15.041315507178806	6.932964147935661	14	-1.757241471455638	-0.03112862922156481	0.15211533249804884
Si	8.073862182385609	10.827977934355907	8.120684150967762	14	0.5174963950969524	0.10263543905392714	0.032639410707683815
Si	9.632271136682997	12.153785844730116	9.335004936150565	14	-0.8021239246901132	0.04836609061943357	1.0808273705151206
Si	5.3335060211825365	13.396052211161251	8.183578108765504	14	-0.3999817124447964	1.2723713744292364	0.9668826675999902
Si	6.71254829583614	14.95073836795666	9.606752753806	14	0.34373158447166074	-0.8072720488726457	-0.9496912289873519
Si	5.596020645033505	10.588062495340736	10.931707864752445	14	-1.2183848475799592	0.7190437984801683	0.40149326526251145
Si	6.81452342741016	12.216466602670918	12.161083839833115	14	-0.6714721794046605	0.16280393153496844	-0.24898789608739608
Si	8.167620919472883	13.539732514750828	10.797654354703226	14	0.4739439278579001	-0.23352192625510934	-0.7191016483498717
Si	9.503892022826221	14.916527990912048	12.121248266563045	14	-0.6455058154448889	0.9420853852292901	-0.8426170337087213
Si	8.177706912705116	10.890166692626842	13.38140702098827	14	0.22699054741033717	-0.48795928006855926	1.584380147239846
Si	9.537167600498092	12.167315835651404	14.87839801649751	14	-1.0671442051118245	1.3453241738936499	-0.24422415215022572
Si	5.486304718653611	13.557329702942999	13.624881257615463	14	-1.144452971209633	-0.6212489794124839	0.36474445692163493
Si	6.787250245710643	15.113770658560924	14.721925721491443	14	0.5802825299044365	0.2373510734084059	1.1950045013511925
Si	10.767494774940502	-0.1694610862905015	-0.0670923549805905	14	0.3717332354028614	0.32343347930068767	0.8771649758955511
Si	12.362393704752876	1.4366882359727864	1.10306325983733	14	-0.6154202836517082	-2.178765446935827	-0.11103935390336314
Si	13.825305523129467	2.515725511931709	-0.2255490486551115	14	0.24524976606243282	0.4718150526528175	0.3228796632147277
Si	14.979405548720795	3.981015328712647	1.179421608600378	14	-0.8109811254074912	0.5906178590703678	-0.12111962942153572
Si	13.663716431556805	-0.068715953891145	2.4387603635758275	14	0.20295174110908074	-0.004710264946511281	0.24209579116620716
Si	15.263814157880756	1.1587412224770524	3.7242735009880947	14	-0.7636018250099306	0.9913202523364015	-0.10729145367818328
Si	11.196420087128809	2.758642148933055	2.486533531519719	14	-1.7026147393816435	0.8145086819067343	2.013230230219265
Si	12.489182019677088	3.9164813720153546	4.1670404038886035	14	0.6720046553164631	0.45407879682284	-0.8214316400917651
Si	10.832832331098574	0.0849027430297035	5.5880010504147055	14	-1.0937055228426784	-0.3742305500003213	-0.6883093197041822
Si	12.382057291558482	1.2188963821125465	6.709924297596861	14	-0.2438760244898777	2.6128531285629193	-0.25654000374426705
Si	14.105318935238635	2.3285196375480766	5.462295134764198	14	-1.6440794129999603	1.1709875494451574	-0.7544407196437108
Si	15.102175866341108	3.924025366953285	6.888520177757856	14	0.5219801456647586	0.5216500157416516	-0.2510861751391689
Si	13.65105564005228	0.12332791724615999	8.098347365955892	14	1.5701884172042246	-1.3998231220332327	0.6719691740630451
Si	14.96257916001141	1.3012079268809609	9.608950352331396	14	1.0277659273600326	0.04983290620457805	-0.9057366408762285
Si	10.919391473016823	2.850006487626985	8.06033219146432	14	0.6569721738411534	-0.614444034961648	-0.23389679341078695
Si	12.229422593977365	4.166204004449834	9.626809940347496	14	0.2278863205038768	-0.9785734834907035	-0.7306016882258299
Si	10.864435109892902	0.050807165908059	10.997111020866498	14	0.6604871319243277	0.5489960348162147	-0.6822623371017259
Si	12.353685310596266	1.3959670632969599	12.50564760862857	14	-1.0164468932986128	-0.14761435552459762	-0.5685071246486904
Si	13.647513242429252	2.6121738472142444	10.881261498602285	14	-1.5237465418063898	0.6802615029415866	0.6328462070695439
Si	15.003152732786276	3.824165833959685	12.27455536369298	14	0.4043266233253146	0.5823494414713035	1.1466502378162318
Si	13.770627959818471	0.0374411748767265	13.843558710881458	14	-1.0436322182906665	0.08974237431551259	0.7173463547478066
Si	15.382451678274201	1.0353477052749105	15.324707317021046	14	-2.208994960626936	0.8064878617500003	-2.4506868311473475
Si	10.804279950257408	2.681529400676214	13.948141440705761	14	0.8165619666154046	0.062133074056166464	-1.9170670345877467
Si	12.465254435732653	3.9146937732148452	14.922448386939422	14	-0.3425535040139689	0.5866699268512804	0.5173966362105307
Si	11.119832138519824	5.276876859181075	-0.05280796456551	14	-0.33248145603282075	0.9398261549844759	0.23471646178685016
Si	12.34719091495405	6.86929939065513	1.3064231233815298	14	0.04191595870277809	-1.0719436874129449	-1.5907433757966805
Si	13.611400466661163	8.186907306531591	-0.13459470968606851	14	0.4657377310075834	0.7463466229853527	-0.1852831053490231
Si	14.974928351725023	9.615362748028636	1.27165514671107	14	0.9260938814695652	0.09924209425239569	0.4899398024966694
Si	13.771710359092173	5.533831886762569	2.4467471582166356	14	0.021747180129408496	-0.42675643191722235	2.417494632795832
Si	15.00092233428289	7.08530364571486	4.005451312315943	14	0.6502482192079021	-1.6045939201563182	-0.16514158049204708
Si	10.948681853362785	8.015822621330534	2.5602514820544915	14	-0.6418656445326233	0.793318660300202	2.842803789528343
Si	12.22159979922651	9.44070286522656	4.2640463387969865	14	-0.7262202676497654	0.49916415705376455	-1.6838430994392424
Si	11.017266607341966	5.369749996862591	5.437547551369989	14	-0.033401743435107725	0.8794144359401485	-0.1340204074759107
Si	12.40509927609716	6.892964574775636	6.852391002000769	14	-0.9253212643208605	-1.611125041890558	0.4650443039027395
Si	13.685676016821782	8.237468472604716	5.554889472632791	14	0.14656045945386892	0.26860517256959393	-0.3045849633092141
Si	14.892157607264734	9.757599852586607	6.838418211376603	14	1.5939994235741162	-1.7622013907287353	-0.1256892549070349
Si	13.728266788243095	5.380393589720671	8.23431967471758	14	-1.1360523987971134	-0.5592706858965903	-0.9855576339823536
Si	15.047514703019106	6.467565260221361	9.679617904913005	14	1.5986826919147659	0.7956395970726997	-0.992331468058816
Si	10.81698994172892	8.136444540392437	8.147678532854354	14	0.06193561316757908	-0.5410106959128987	0.2924963974254739
Si	12.21208780560912	9.70092149061816	9.36340971709077	14	-5.062838819289463	7.935389268929791	-3.665404768319712
Si	10.644494857474253	5.376359192427778	10.791947158532793	14	-0.322796102291823	0.49672443521547616	1.1936343593260856
Si	11.995312751066601	6.530246018162162	12.380515692592905	14	0.5801454899908726	0.7654764178988505	-1.3805431745690382
Si	13.556116103757331	7.747715601232101	10.775366769658342	14	5.292027147527462	-15.704835029618183	10.633991588135503
Si	14.604682200162616	9.362376517784053	12.091695486393155	14	1.3648465765895343	0.613974808240721	0.7073046458094362
Si	13.662092832646252	5.42019636301275	13.615894063645928	14	0.4957078201718895	-0.3929502536152554	-0.5521942327239467
Si	15.026440717159888	6.796631039416069	14.996707537111046	14	0.05619947719832872	0.1309715907872791	-0.3979525961261355
Si	10.892659490954157	8.259050858122794	13.47611695743728	14	1.2077546126338066	-0.9975466980902041	1.744657967797769
Si	12.411610071728372	9.694902694656811	14.775980085220612	14	-1.266483029025033	-1.9744512771175997	1.3189903989836294
Si	10.892790690866121	10.849084720193114	-0.2478858336669825	14	0.3858486036104744	-0.3127147983315224	1.5243569222093931
Si	12.185651023348374	12.076197496792405	1.452547025331435	14	-0.44794079709205054	1.2435973634598632	-1.0902455864133551
Si	13.412583400068716	13.678214021828827	0.0811307455607385	14	0.277219146723686	-0.9967488841093622	-0.3160047846991838
Si	15.177140216039538	14.956297964226133	0.9784725434385164	14	-1.1196685443655336	0.305068588219934	0.8601596853080916
Si	13.537042916555565	10.833111130911497	2.7659401440360525	14	1.1009012753021767	-0.7842048632718731	0.5796855192490981
Si	15.171006620155222	12.221665399182491	3.902967781083063	14	-1.5582597740713975	0.14615936702392582	0.8752405035634202
Si	10.848051520886399	13.535206117788068	2.814762911275656	14	-1.2297311353577727	-1.4950488926650252	-1.0987274057539915
Si	12.281230159214147	15.342124105334268	4.247187150109612	14	9.10286391717603	12.031422810889401	7.30642671644633
Si	10.783320764321159	10.994847822385118	5.381115189236473	14	0.06803093255005414	-0.3891712430157017	0.3851616042689308
Si	12.448296847111306	12.24065658643928	6.617821959398133	14	-2.246207596367567	0.3006277751109742	0.6241746401562804
Si	13.606578869896484	13.783665951069894	5.450208342874515	14	1.5943565501030845	-0.5343595035602077	-0.9422491646381834
Si	15.07144228696354	14.997363536670866	6.849521003926557	14	-0.4692141225109557	0.5440232600165162	-0.1258980286590309
Si	13.573057292389683	10.983203830198313	8.157206926460741	14	0.6888991312646241	1.0131371094199861	0.27837871522307284
Si	14.753233300483855	12.581710757589699	9.471387244637143	14	0.36958070602883347	-0.11928488866507803	-0.613386282232939
Si	11.005639015144158	13.6167304630847	8.17291811591843	14	1.131412325025842	0.27056281216035466	-0.3134357362632919
Si	12.284772556837176	15.34364930431085	9.450050858953997	14	-0.6473277006747459	-2.0950348310798845	1.3192266835625508
Si	10.880490699119497	10.72300160479571	10.856858314976982	14	-0.19687416235331467	1.1894123472798706	-0.07253216663403739
Si	12.209152207578926	12.219795800437005	12.141403853038515	14	0.22422480941745387	0.5295924171861212	0.025459341990638297
Si	13.553606905441018	13.834948716658822	10.988074626929976	14	-1.0003322335940528	-0.08929217377395465	-0.34574553126893276
Si	14.850960834908038	15.075493084245428	12.419662466325162	14	0.37785478005960194	-1.588164557160572	1.1233333978888727
Si	13.69733640899758	10.968132240311448	13.520429727703123	14	0.3868109683318058	1.1440763042802313	-0.5547365416645093
Si	14.909853195390879	12.412774470947053	15.107145063006744	14	-1.1321296634101632	-1.3852305566782002	0.5017144364208195
Si	10.770823972706587	13.610088467541521	13.378733822782003	14	1.3487416870851907	-0.7782476122450901	2.2028343351693294
Si	12.182535025439229	14.980307548115546	14.990983940951617	14	-0.1613566563502571	-0.09792003189677556	-0.9478811708419678
H	16.227562791199112	0.1131992840425392	16.285348152424756	1	-7.57716102133154	-2.5191119141429805	-1.4265237936724384
H	0.45508329463612945	0.3631318363361601	0.0545004434298456	1	7.0939801405004745	2.776577515802501	2.5762714420678523
H	12.567050807426622	8.543119987510549	9.639195212036896	1	-0.7197577944275734	-7.092465245245845	-1.4637788526508522
H	10.480075127800967	10.42871036226706	13.1349315863749	1	-0.5574362022506647	-0.5617962826525718	-0.5425836981477653
H	5.714674565415947	5.819647614978344	13.317865263625205	1	0.30923120773325374	0.2571061611357637	-0.19569119679551455
H	13.921097858852184	13.490967147472707	8.549707863090042	1	-0.33189961489887126	0.2597811391108457	-0.4374555724859546
H	13.245426512232081	8.697376644003324	10.297312010436215	1	-1.2986658114278589	13.381680678781882	-4.278567107279266
H	10.10756741775608	6.035499350140417	8.646311998268034	1	0.12351435691672162	-0.3647596264430238	-0.23108837506958918
H	13.251871707907313	16.29669202481294	5.073143075887778	1	0.6130841773578216	0.3731529997606472	0.25253782120292456
H	7.974914488780159	8.32542981358208	10.377512876620909	1	-0.7118755568475954	0.8148892054941163	-0.28790208932890127
H	1.63227286473422	14.531356209364834	14.208589665943299	1	0.7251756275581894	-1.011309824868957	-1.2843534965527226
H	14.268557865704244	14.086211308059978	2.0543692215048006	1	0.20772011303582733	0.10090277117867935	-0.04119707765526468
H	11.760364868718169	14.502200308928636	3.7173215456529025	1	-7.5704401520246725	-11.930540094332219	-7.6934310318982115
H	0.5875082857780933	10.060937329045174	11.9063887307352	1	1.1961023633228958	-1.1097646466723232	1.5756921252525335
H	17.74143921537812	6.796631039416069	14.996707537111046	1	0.09750017039799538	0.06989421257556545	-0.05749891382713156
