225
config_type=interstitial dft_energy=-23351.482645998898 dft_virial="-74.20040856242989 4.3730803579600765 -9.057678613376279 4.3730803579600765 -75.01666431905544 -14.9370860197951 -9.057678613376279 -14.9370860197951 -79.744638484244" pbc="T T T" Lattice="16.254729908999998 0.0 0.0 0.0 16.254729908999998 0.0 0.0 0.0 16.254729908999998" Properties=species:S:1:pos:R:3:Z:I:1:dft_force:R:3
Si	-0.9623775389922539	-1.8550385414048067	-1.0660014421621289	14	-0.4378011290409825	-0.3457231626526474	-0.729701030032182
Si	-0.072268529175414	0.090831430731492	0.056582714813229	14	0.6973439266886505	1.4954175891679344	1.6034191821355426
Si	1.425572322479118	1.4237030285395829	1.4587319714934779	14	-0.6250966385240855	-0.26125129713290635	-0.09949380546323819
Si	2.6975049378583673	2.8374744171047666	0.08444332187725499	14	-0.2609828737374829	-1.4571160903242204	-0.4636389377347466
Si	4.006156988102049	4.11974504070614	1.4051401269835047	14	0.4168216809601702	0.8469267204463535	0.2329763377061739
Si	2.8754617209021	0.0011378310936299998	2.6175316667060877	14	-0.9287192371119681	-0.22524476689795664	1.2572216505513278
Si	4.112121572378819	1.4376170773416868	4.089933866053034	14	-1.0069451164774734	-0.7915479400662161	0.4458404611560215
Si	-0.155899114557219	2.670392048370156	2.7401410944096747	14	0.08002796708439709	0.3119079854820599	-0.45242249077560065
Si	1.3319125687434599	3.9872202277580633	4.12723847119419	14	-0.5094215817284954	0.6719586325312326	-1.0988839860679886
Si	-0.04591961199292499	0.075844569755394	5.306876730150138	14	0.6668719577658515	-1.00525127229256	1.3073265796987774
Si	1.2567994618339708	1.451319814654974	6.772874565912939	14	0.3803330684776927	0.03499942828104774	-1.110382997501819
Si	2.7892791429245816	2.8931306123131826	5.4433189330062834	14	0.030189147337582697	-1.2468379846053779	0.866919378305293
Si	4.099849251297524	4.168379192593868	6.965899483582313	14	0.27568522528968564	-0.21066300018526882	-1.5926791609922202
Si	2.6476029170377378	0.048455349858729	7.998855059839444	14	0.017436207839116213	0.7833060048519493	0.4220569656130557
Si	3.9767521816966678	1.331132341707828	9.438861582477754	14	1.5377495527115126	-0.5568564180009713	-0.4353994595614322
Si	-0.17072342823422698	2.654917545496788	8.146610554712254	14	0.6147420260682531	0.01378729516876206	0.4601064961353951
Si	1.356099606848052	3.8630340912533034	9.489251245195655	14	-0.11655951702572107	0.9826438003230299	0.1609866742946878
Si	0.09196926182512198	0.05412825059697	10.7100627350111	14	0.35040951631968137	-0.7315547969680088	0.05570813897164843
Si	1.3845291294588928	1.2772479120594928	12.223947005085815	14	-0.1862917499661172	0.9797441077429669	-0.17033984122832246
Si	2.8398963718612076	2.6515203069458066	10.861020411675982	14	-1.7279264999269053	-0.42839576866934875	0.039095199056043625
Si	4.094127586369557	3.9648212099434614	12.160130935463082	14	0.6221298400951666	1.0074567664361829	1.028349054046642
Si	2.717270689427712	-0.152940753713781	13.470359694507934	14	0.03936002290401888	0.9507893480695871	0.33552358784762
Si	3.9231603371866943	1.2752485802806859	15.008333474307786	14	0.3071768945824554	0.27509078573966744	-0.29009601349858366
Si	-0.07204096295668799	2.7712851569153187	13.513255926737786	14	0.9923306967272199	-0.5144048980600064	0.1112851515719693
Si	1.28298583171737	4.0456722365108275	15.023629175152157	14	0.4462788346131068	0.3188980495159464	-1.4875536064357293
Si	0.017668891411083	5.479892075301533	-0.010711867010030999	14	0.09894024648781033	0.5838249988145365	0.910275413097886
Si	1.3779459638457479	6.928529859521522	1.4006213120688027	14	-0.49541419994432856	0.09205662621417786	-0.6389631237367082
Si	2.9529642731082117	8.091653312889926	-0.016319748828635995	14	-1.3199100833566462	-0.37357363259102344	0.040377923500265506
Si	4.238924720398928	9.438812818288028	1.332221408611731	14	-0.3928718349029909	1.2656926712496197	0.30437798933094223
Si	2.5455232132092176	5.478737989477994	2.7153526312984497	14	0.5804180271548083	-0.6977984981092528	0.330731047530864
Si	4.107163879756574	6.7157066808229855	3.9290445494137525	14	-0.2480183322711682	0.5866861248147973	1.2603743398948932
Si	0.019847025218888998	8.293342001600797	2.8434399029813697	14	0.4883927684255362	0.11750054157289527	-0.6923806649786366
Si	1.4800256676742678	9.654789414588912	4.1175506521684255	14	0.09086697578254536	-0.013295699831549747	-0.6154717057581112
Si	0.12532396759838998	5.437125880910954	5.443188895167012	14	-0.8025648692525186	0.04976657168731823	0.305989815256143
Si	1.4566351113352167	6.844476651162084	6.768111930049602	14	-0.5143799583384009	-0.6681734512789104	0.2954860786917421
Si	2.7823383732534386	8.258621898515175	5.544732192908534	14	-0.019483064784486095	0.4106818814556566	-0.7106622522470175
Si	4.111926515619912	9.593135224044074	6.934381562288762	14	-0.46097835794945735	0.5203168976331548	-0.2864661270075986
Si	2.6688478490288006	5.391921477034026	8.168261854951043	14	-0.9656847896313332	0.12484053304085402	0.6524567986779093
Si	4.028946119434466	6.688284951466502	9.51468989750324	14	0.9163205959266181	-0.5834892124597252	0.458870822918532
Si	-0.018270316417716	8.080795153310714	8.10636384345757	14	0.6789898342502414	-0.011045982676420178	-0.1492511211714039
Si	1.4365930293574198	9.258629137246762	9.504530691310116	14	0.30276950584265755	0.32610074395980926	-1.1469754826392302
Si	0.11846447157679199	5.35770527057558	10.904095445934834	14	0.125968991165867	-0.0015583469345417506	0.03626852586707283
Si	1.5060494902585768	6.888055582048112	12.28204140978058	14	-0.2446021046322875	-2.0593417185834606	-0.25229690863442666
Si	2.8319478089357064	8.09778134606562	10.862645884666883	14	-0.5753454934686881	-0.9155240674984362	-0.29398352474264755
Si	4.04107214794658	9.368966243869055	12.209642842765895	14	0.49942126758577954	1.148375192375519	0.43479524981119744
Si	2.8136937472479	5.389190682409313	13.668098483850919	14	-0.6475097349314124	0.07391593551734107	-0.3370227993597983
Si	4.299050966332319	6.733489355343432	14.908025536039348	14	-0.9354802156618295	-0.05830624089765806	-0.08134617278203701
Si	0.06287329528801198	8.09874037513025	13.530550959360962	14	-1.0080041547588425	0.12539614890053802	0.3849893402124809
Si	1.4236380096199468	9.329711071138819	14.895038006842057	14	0.46710427348524225	-0.16754324997159742	0.33816488434300807
Si	0.09944643758326199	10.664582000725717	-0.040116673415411995	14	-0.27109940184066955	0.9341887494595192	0.2953341263673213
Si	1.1896024083901648	12.287876857817912	1.2809539904787448	14	0.8336276781778876	-0.8884436436034445	0.07761755584675827
Si	2.7286815098238297	13.443734446916991	0.001381652042265	14	-0.7818402177089329	0.8776611992223396	-0.47647492393505386
Si	4.115795141338253	14.853897285442377	1.2488671536383789	14	0.46955530818693936	-0.31241680722491716	0.6242967676589875
Si	2.7891978692750365	11.017309639751018	2.5373958482547176	14	-0.4646249566250234	-0.9896181806144637	0.5126406055893208
Si	4.012171238168379	12.31698907908493	4.0458022743501	14	0.7764604369370551	0.07466592693922827	-0.3744994876168087
Si	-0.025601199606674997	13.523756482259	2.7945944396048246	14	0.3262305847784768	-0.23657717070704132	0.606647415188831
Si	1.4211510359438697	14.842567738695806	4.1419002375721075	14	-0.16108771873376962	1.131273485338554	-0.9434311017538555
Si	-0.021423734020061997	10.920008826515744	5.399886294689435	14	0.5945169402883723	-0.5297510543843743	-0.13755464884898624
Si	1.375751575308033	12.102556682125403	6.816697317747602	14	0.22833420705064655	0.581229210883315	0.09730245239887599
Si	2.7711388643461374	13.578307355833603	5.541692558415551	14	-0.9823218979369472	-0.6754226827290679	-0.4769881165569555
Si	4.011569813161746	14.971256435385358	6.805904177088026	14	1.1125452970760634	0.1252274843915363	-0.3309195095508308
Si	2.6774140916908435	10.933646544909395	8.387164302635545	14	0.09210856254164486	-1.23586887797803	-1.3280080366729847
Si	4.246938302244065	12.169266093671938	9.504303125091388	14	-0.8576022068461403	0.6170426511087216	-0.0320035763620112
Si	-0.008631261581679	13.468539164758127	8.102413944089683	14	-0.3334109106060543	0.8172106564876781	-0.289598247508603
Si	1.4354389435338808	14.898906632560399	9.270950222517785	14	-0.7178505485010875	-0.8065274567719307	1.5004849806434142
Si	0.14726785297554	10.623002401618496	10.682966100252797	14	-0.8022848758831544	1.1859246429130896	1.2892218844764227
Si	1.527538243198275	11.940610808042036	12.115430428213331	14	0.014683839593897694	0.6035448623990083	-0.5526387768338004
Si	2.7740972251895757	13.464605520120148	10.751463532089323	14	-0.6308350884881241	0.3448602997072057	-0.1700433927849094
Si	4.060496550187835	14.836716035928566	12.069819656088677	14	0.484012119181068	0.07531050304298939	0.047848012897423735
Si	2.741945369429574	10.68566438541769	13.598446966190854	14	0.08750731246070785	0.10578555729217255	-0.13075381816666257
Si	4.03180695189845	12.001240950602606	14.989526751803075	14	-0.1637752951249204	1.1727407861629662	-1.14460826597097
Si	-0.020594742794702997	13.299164879106346	13.280634487010087	14	0.44852212400493596	-0.7855037856796119	-0.48123558254584003
Si	1.3007847609677248	14.890860541255444	14.82899503922179	14	0.9542852799733926	-0.5760589751950292	0.761283459342753
Si	5.471862238726487	0.030949005746735998	0.03901135178159999	14	0.0071854680382178356	0.12152097896201083	-0.7603905144650657
Si	6.802718250025863	1.527148129680459	1.285765390531809	14	-0.056925557340738536	-0.6530900619182618	0.8083701679548809
Si	8.260539956644436	2.8102802539670093	-0.023228009039960997	14	-0.6478727750026172	-0.4982002496692411	-0.6524084618978905
Si	9.368364818862423	4.222621226300202	1.3791325591291048	14	0.4819693760042103	-0.09314266110140842	-0.08027119364768309
Si	8.118229796291141	0.066936977765262	2.769545900815056	14	-0.8375200745220597	1.412935244944924	0.2687326993934733
Si	9.523841310442007	1.5764812349542738	3.9762320303395797	14	-0.08864888322285361	-1.2258755058196786	0.38179731295751707
Si	5.327699039163567	2.736223704501606	2.730729605792364	14	0.800628312725383	0.2557712432535428	-0.9708316282612055
Si	6.623249777100593	4.066462036064438	4.0721674462624975	14	0.6088372255900011	1.3092561942415488	0.16392750455987318
Si	5.410386850210649	0.11501846883608398	5.505265708689483	14	-0.645679879275063	-0.2746899504202564	-0.3265380889747665
Si	6.848052691742064	1.4365280104377838	6.660928241029655	14	-0.003035446940966822	0.5186963299498656	0.8127335907937041
Si	8.165157201538424	2.8606048977652736	5.324594385750947	14	0.06638722491888346	0.053446080510982145	0.49664473095055145
Si	9.50724523120492	4.158951449246649	6.819558150211586	14	-0.18317068521798943	0.007179040274917467	-0.6639956622442018
Si	8.018376990460153	0.045399460635837	8.128535295053446	14	-0.32193786733595753	0.5871396677932715	0.3250435054521644
Si	9.419567218075773	1.34394106887612	9.461504421240992	14	0.5176200652628515	-0.018635371360433278	0.6769239511255024
Si	5.441465893796657	2.7119391380175597	8.09761879876653	14	0.181722124480618	-0.5128306102724798	0.5223560412625643
Si	6.836186738908493	3.9678445897065355	9.531659835528236	14	-0.010304475902089471	-0.31201931434242225	-0.22473774492882342
Si	5.519358559520586	-0.05141371070216699	10.711932028950635	14	-1.4146792256835803	-0.13722349048375118	0.19200448887695423
Si	6.6628300444290085	1.212911691079671	12.249938318210306	14	0.04169895741375759	0.7366224455540207	0.2860233826714691
Si	8.032404822371621	2.564281171524204	10.972560368311541	14	0.29168984168654344	0.13791074693582678	-0.8472146842422101
Si	9.326378851507476	3.9483389138157357	12.286251384827011	14	0.263884108980738	0.7535266917023983	-0.9003748578415917
Si	8.202494316139397	0.005802938577513	13.480128787183244	14	-0.9778224636266882	-0.03805261584872358	0.6986186807063799
Si	9.53694262274866	1.326174649085583	14.853003275297384	14	0.04753793759581388	0.5989348705599827	0.39208147712757735
Si	5.347562319112365	2.6416536858910438	13.656362568856622	14	0.4986216538312133	0.21659171194299828	0.0865305495495836
Si	6.893094548319903	4.20932485723464	14.915226381389035	14	-0.758159309268241	-1.4611031033441741	-0.2857832414345673
Si	5.506939945870109	5.414222966469174	0.060223774312844994	14	-0.28701402955132216	-0.5454929038175129	0.32791902964221803
Si	6.727865218794917	6.88304912523614	1.303076677884894	14	1.0208002888266876	-0.331582083391833	0.52707324819344
Si	8.165401022487059	8.152137162881315	-0.00048764189727	14	-0.2414432446359536	-1.5652524092106044	-0.4876481763248214
Si	9.43146568036916	9.346778537543269	1.3510281311164438	14	1.6809773454494055	0.8510847119700968	1.1193242733631656
Si	8.075528620820197	5.559832836993996	2.7642631135946303	14	-0.8269062946499564	-0.7606859344663506	-0.026874735469379806
Si	9.478685670754805	6.559807566265766	4.2838365391374955	14	-1.2506157096522712	2.5052605984517466	-1.8175585738241837
Si	5.525909215673913	8.151031841247503	2.753242406716329	14	-0.5641043638984687	0.3563348856404946	0.36566851217369617
Si	6.745257779797547	9.603717053214833	4.126214423209922	14	-0.3769500080974419	0.09134905803007311	-0.061894732592988735
Si	5.401690569709335	5.547089128745339	5.544114513171992	14	-0.26956625173826526	-0.7954238813363392	-0.8030294679838693
Si	6.795452385756539	6.785569509971867	6.874417863654461	14	0.2927223975831149	0.8826632846226876	-0.39286566425022257
Si	8.120147854420402	8.172406811077838	5.306974258529592	14	-0.1296261313732456	-0.5961398219664498	1.4920859508940865
Si	9.554952863487832	9.463471243559981	6.668437926247614	14	-0.09213324515271827	-0.023022962589265974	-0.30514854959539056
Si	8.119010023326773	5.380543166097725	8.201892891132763	14	0.3199390900600744	0.5540055764219911	0.12084657803653596
Si	9.501377273707769	6.826758995561273	9.528213832787527	14	-0.618975350977877	-1.4624511338635278	0.503651250058487
Si	5.322562544512322	8.09337631426028	8.185313066625584	14	0.6616492715290347	-0.13034424108916298	-0.15615865272451374
Si	6.7093185719687485	9.41064337135573	9.50087337708059	14	0.22207356559608601	0.7431479108565564	-0.2569868618489088
Si	5.5576059389964625	5.303902114576791	10.867229718501221	14	-1.4485429967447185	0.49028638749382536	-0.1593185411629757
Si	6.7011099333647035	6.754945598823311	12.24351769989625	14	0.16508193084861966	0.3803760059365392	-0.48526373325091604
Si	8.006527292356493	8.038028958920135	10.798114606928152	14	0.545615802651816	0.547927226334629	0.6442575438119571
Si	9.469940626063764	9.475369705853367	12.066584964836785	14	-0.10643630404870204	-0.24373949879737777	0.684260857267077
Si	8.141116456003013	5.513132997965438	13.485899216300938	14	0.31059749310038043	-0.1052808493178275	0.8819310338275095
Si	9.538795661958288	6.730368447200903	14.954432789929543	14	-0.03064783252669712	-0.08863654191731689	-0.0003679251713131901
Si	5.451072439172877	8.208654858774908	13.570505085477283	14	0.3369850041115921	-0.9915153992302008	-0.30108903140540877
Si	6.968305183608845	9.367308261418337	14.790617621906643	14	-0.8633236875150658	1.7362669084749338	0.35660253770432193
Si	5.519196012221496	10.833143549882047	-0.083598075921987	14	0.8348119292883478	-1.4917568494131075	0.1894395542095745
Si	6.856033764127383	12.139471173748742	1.2281423730044039	14	0.46594753320170756	0.773888046064247	1.0500260430008106
Si	8.214246485863605	13.686206252969546	0.036816963243885	14	-1.0656635055579513	0.041409450954708917	-0.5921108999297777
Si	9.445574785930171	15.17114084907633	1.3707288637661519	14	-0.015049193659890733	-1.7882472018428994	0.338631539958615
Si	8.180973053739882	10.760452397729	2.675788618699944	14	-1.0096162377945754	0.33677494480693604	-0.5955145291525897
Si	9.306694373587675	12.238072365376736	3.9981271515270023	14	0.6653138679418419	0.27453465565891944	0.4005229301146876
Si	5.553981134226755	13.549601502814308	2.6762925153271224	14	-0.794377698581571	-0.022270400062058632	-0.16002585223654847
Si	6.64899726927645	15.036291609751267	4.130018030008628	14	0.44726948149295975	-0.27712787248482074	-1.1280650030095412
Si	5.34632695963928	11.052452365814275	5.499706591060605	14	0.3368572201771808	-1.2677361857580733	-0.28506641727131
Si	6.889453488820287	12.178970167427611	6.803319675032496	14	-0.21713601493927362	-0.022586131795372815	0.37987515462017435
Si	7.948904274829088	13.594480812093058	5.329958446620918	14	1.2034487825541549	0.4759679019659207	1.0271007824137102
Si	9.362480606635364	15.128472183065206	6.794428337772272	14	0.2469271551732974	-1.4257246941389363	-1.5611247567296387
Si	8.298088382734226	10.720904639860404	8.154429079798485	14	-1.4714268625361646	0.23997771460346917	-0.004466009941097213
Si	9.532651374052685	12.136268991956669	9.518477249572038	14	-0.19657437147298543	0.4340722549951717	-0.37736395605398576
Si	5.3819410728699	13.530144591113237	8.02300958848422	14	0.2860316102084936	-0.34121807191068393	-0.12820276746801165
Si	6.726451057292834	14.790747659745914	9.346485952404908	14	0.37645815564969753	0.532264052724287	0.3110960304219571
Si	5.330381069598551	10.773228615437473	10.897756101270323	14	1.4092660205425407	-0.3304245717767023	0.1381717141258218
Si	6.698704233338171	12.178189940391979	12.210553107640798	14	0.6021418102258035	-0.2796766091886836	-0.24243106329995445
Si	8.059826551728104	13.52292749103364	10.74240964753001	14	0.09578498603892459	-0.48639733358656934	0.7101729709045934
Si	9.391674101551928	14.888796190557	12.151158324553313	14	0.6672668795430263	-0.7911324494464801	-0.6349971937803798
Si	8.206785564835371	10.88120878622296	13.55332383596347	14	-0.22578495612571978	-0.043363490998021455	-0.7840166583624383
Si	9.471208494996665	12.20990291844444	14.992956499813872	14	-0.4818552189279957	-0.6205493816548716	0.20652737727781065
Si	5.272644268961783	13.439199377272383	13.51250820916197	14	0.24524719495711264	0.4659053670744571	0.5613275701527088
Si	6.6849202223753394	14.953116156806914	14.7444866984249	14	0.567946623688898	-0.6025868685567211	0.8555406946004457
Si	10.870090550965205	0.014938096786370997	0.034785122005259995	14	-0.6085950274688431	0.10014095267231947	-1.4035357981155268
Si	12.099403264523056	1.4153155879065387	1.228467467602584	14	0.8282471260744135	0.896714375197297	0.562286335326592
Si	13.408104078956464	2.814734049962076	-0.106257169415133	14	0.8071206107692889	-0.4072432852004906	1.1814054110918655
Si	14.74221103623764	4.177823190670997	1.3238014585188689	14	0.7574622826159488	-0.5401434620884128	0.16543442938801195
Si	13.408120333686373	0.037304605141154995	2.626991919513126	14	0.7237306663682662	0.8415592809800123	0.5767994535272319
Si	14.772022210890745	1.383651374043807	4.185706734676862	14	-0.32881531695682165	-0.23066568535495685	-1.727123543735423
Si	10.787484013567667	2.8425296381064658	2.534876365118823	14	0.6503132681725018	0.29437099031439384	1.166082394715379
Si	12.116486985657415	4.227757720951446	4.110219768979467	14	0.5260095819224948	-0.374348563734516	-1.4554896090986946
Si	10.821683965296202	0.14551234214536798	5.454177092585495	14	-0.44023570866863077	1.0820753850375207	0.1251809473852416
Si	12.14990671035032	1.6397608984900107	6.793534327627277	14	0.5640706824187749	-2.166039504043222	-0.4034215942526225
Si	13.492644929213174	2.835052462348326	5.378088701881467	14	0.037244517446601046	0.6810302634323109	0.49378309072922677
Si	14.8810264296605	4.102921395250326	6.8323668773798785	14	0.540980871091185	0.10459873507639221	-1.327094780063268
Si	13.45628309840674	0.09962523961226098	8.150950567597958	14	-0.39091779485967837	-0.6008122916647549	-0.6094640610670532
Si	14.794746323303528	1.3036943576214357	9.552465889811756	14	0.5362240691383791	0.17449988963632207	-0.34901083502552077
Si	10.80190195899695	2.7734145265333976	8.126942331522365	14	-1.180964723639992	0.07496160405104531	0.7669787147374131
Si	12.121233366790843	4.101295922259426	9.425321392463559	14	0.649273770291566	0.294616530872468	1.2357904592657656
Si	10.852714244692484	-0.064726334497638	10.820302313253938	14	-0.6217513733920409	-0.04442021528460231	-0.30246534408328407
Si	12.173362285609008	1.210879849841046	12.211544646165247	14	0.4814217305710188	0.696986800159682	0.19425806269006402
Si	13.506120100307735	2.6602003327172126	10.844278039869714	14	-1.3810625378437082	-0.05854432525030377	-0.3640204336634812
Si	14.780734746121968	4.007050998247044	12.127832787133897	14	1.7083128229921556	0.3160760043165519	-0.3659181665002825
Si	13.636678090936822	-0.15745956862848298	13.599162174306851	14	0.246294920375073	0.37601978219261234	-0.16687450547782687
Si	14.881156467499771	1.5224342580068488	14.977303194911507	14	-0.2794030435826198	-1.1872253650945526	-0.8052187641639754
Si	10.818758113912581	2.744334814726197	13.464784322149148	14	0.6157858948282333	-1.092778896485297	0.6519220087713185
Si	12.202344469036754	4.09066532889894	14.77405405212937	14	-0.7179958159516759	0.759858809884859	-0.4107489873045124
Si	10.906468636501547	5.342994740007935	0.062970823667466	14	-0.21022334117552352	0.63708236019502	-0.6625802687654603
Si	12.090479417803015	6.815218137325883	1.4464108862224558	14	-0.6049594845461538	0.8760136349331887	-0.27043322845221923
Si	13.56486469419886	8.088434876367945	0.131598293343264	14	-0.31683525171759164	-0.44624052514383655	-0.6342276619580595
Si	14.88131901479886	9.516981814420408	1.3307584829199208	14	0.5865123180951554	-0.25618570543115066	0.42509061278029847
Si	13.52146456534183	5.6242503316233625	2.6665234226518137	14	0.4046492970429932	-1.1672519905255143	1.343361649202781
Si	14.987917533542083	6.8298311395140745	4.0819690483976245	14	0.3126338085139377	-1.0079709875002125	-0.27514992116203085
Si	10.76453233493616	8.133086619427967	2.9927395971955346	14	-0.15030270324734443	-0.6269303508384151	-1.3649072546750898
Si	12.339973267176257	9.458253475259191	4.071045869898776	14	-0.8251160340155375	0.3628210130316321	0.4191395324062837
Si	10.924511386700535	5.586848198102754	5.525746668374822	14	0.5723164742910217	-2.021999242024162	1.3932709172353672
Si	12.22469472266163	6.818404064388047	6.921475306741016	14	0.7801263189025222	0.600101381043734	-0.7513263397694154
Si	13.683182873206471	8.077414169489643	5.430396422728629	14	-1.3281610174395335	0.3500282214007034	0.6941758107131641
Si	15.004481103319355	9.45763579552265	6.6968674488584545	14	-0.3592343211100256	0.7247459958591927	0.8043057646647909
Si	13.624113184717165	5.454128328395768	8.127316190310273	14	-0.8849307424045262	-0.29479882223966647	0.8542384297557906
Si	14.998450598523116	6.693746540715926	9.5122679427468	14	0.26461970221283243	-0.3241271635160636	0.14092151126572017
Si	10.745790631351081	8.081640399265982	8.130794702510798	14	1.0944318600956202	1.1220339612600698	-0.13511826944761393
Si	12.319069684513282	9.408335199708654	9.386245021762322	14	-0.03911808189339295	-0.2342032691649486	-0.2011128865841108
Si	10.73784206842558	5.349837981299625	10.978704656217143	14	0.3393928442439108	0.1893909603190237	-0.9870038807249372
Si	12.176320646452446	6.80356349598113	12.165608779442413	14	-0.32123981224153736	-0.7622954463967633	0.3577119696499659
Si	13.602055516230653	7.974911842683488	10.803072299550397	14	-0.07792737403783612	1.1885597687557092	-0.056317233821991504
Si	14.960203219047237	9.477320273442448	12.098184159779882	14	0.06295634197967788	-0.8911057660519258	0.07385937120029781
Si	13.606623095335081	5.396862914926361	13.400935743066595	14	-0.7489796919437164	1.3428212028644857	1.6025756024800017
Si	14.911341500940784	6.79870333173834	14.95123060813747	14	-0.3164891809414997	-0.3391028235637981	-1.007300443232718
Si	10.79635909609798	8.097716327145983	13.554282865028101	14	0.1638048628361021	0.3483084090520563	-0.4000943268578188
Si	12.325425283907702	9.318527816961428	14.855539013163186	14	-1.2367078296439944	0.3347208887666698	0.7160728862827371
Si	10.81407675169879	10.715475560070796	-0.05448585465496799	14	0.13502725231928067	-0.3375043673862621	0.5522551679200344
Si	11.9568005190314	12.191762639865996	1.4431599402406559	14	-0.5197738801895396	-0.10952522998032793	0.6338898187189919
Si	13.27699342751047	13.468457891108581	0.051283672862894994	14	1.248876356903191	0.01785041290619207	0.7419880852466377
Si	14.809017976163629	14.675631662530376	1.3580826838969497	14	0.8039008155768675	0.7038516513644772	-0.3139802963700992
Si	13.449699932793594	10.815767243609326	2.563240868810028	14	0.2490403466359271	0.45560011984077164	0.6181837076498033
Si	14.822850751316189	12.098736820596788	3.9969243015137366	14	-0.9071075542329315	1.1117603386218222	0.5833552578725455
Si	10.659331722965112	13.730110278453754	2.8389535975264857	14	0.3460676907655472	-0.42890253352795	-0.8765006022808248
Si	12.090284361044109	15.068280918212178	4.1016372715875145	14	-0.017148244043259625	-0.6622316268840482	-0.0557806441416766
Si	10.815913536178508	10.936556141563106	5.283161079212906	14	0.32289457562558466	-0.7171946595339178	0.19438764639819947
Si	12.051077952503599	12.242932529619527	6.737097905383229	14	0.7247346829957841	0.1420509978328612	0.5826991117948436
Si	13.393783661906635	13.6844995063291	5.450438504706425	14	0.8049547116475961	-0.9038839023825298	-0.5833938244523477
Si	14.843933136008161	14.953359977755548	6.782985007916337	14	0.3689289308301759	0.11180734306249139	0.04152283669932745
Si	13.674957979872518	10.907151335157725	8.12749499233927	14	-1.2298522344183516	-0.7787397218033664	-1.2750118995930284
Si	14.979497583449222	12.11040771667145	9.53419557339404	14	0.884665661446019	-0.005386979866774255	-0.33791163046897355
Si	10.621913334714593	13.628810801660865	8.029202640579548	14	0.9580018127136667	-0.416002526805171	0.6624365439780641
Si	12.1534827509303	14.820900183727108	9.453116980607948	14	0.07713521648869849	0.025102729682733756	-0.5247366276784894
Si	10.925356632655804	10.698814461914072	10.70504002346922	14	0.03184853871120628	0.39375346691726965	0.41142621644583943
Si	12.182221113409412	12.131880214881239	12.07285929058166	14	-0.062093993255300205	-0.3451914580724408	0.9202042505127017
Si	13.605794104109723	13.435769629261582	10.75895696257737	14	-0.742966905042018	0.6295518498228381	0.17529924628035612
Si	15.083527854866821	14.76563410203651	11.951371439241793	14	-1.0072531348948275	1.2324279677280758	0.6582127321581248
Si	13.513581021335964	10.645580221462097	13.456006767998288	14	0.2754972774907829	1.3871730267475721	-0.47953325371336997
Si	14.92634461664679	11.983685842300885	14.881774147236314	14	-0.662869261003445	-0.15153349136409933	0.09232762071492148
Si	10.658405203360298	13.373887872498019	13.480405117591696	14	1.0919247752979437	1.311659149273759	-0.7658757105550695
Si	12.027573613055186	14.851491585415847	14.8810264296605	14	0.22121121687170836	0.15889508011674733	-0.8415477110060716
H	-1.954172888173816	-0.8632431922232447	-0.0742060929805668	1	-0.32753953449696416	0.532179463359254	-0.9899814777962006
H	12.195993746061308	12.61667265799819	-0.8707967652119569	1	-0.7559399311558893	8.62909225337458	8.177140531983097
H	-0.8404946977155993	12.311537242673452	12.31989542479266	1	-0.4369220681320239	-0.1772954524509191	0.0665386630222402
H	14.504817207808658	14.849303698770095	2.8837532586286803	1	-0.12570930952853204	0.3793573340086965	1.0061380465174792
H	14.814404793655473	1.4153155879065387	1.228467467602584	1	0.45146115449639723	-0.4636415088400667	-0.12553858813527422
H	17.71948263245177	9.45763579552265	6.6968674488584545	1	0.2741363914448285	-0.24121930136256867	-0.31544968306056387
H	12.18621002412908	12.20990291844444	14.992956499813872	1	-0.15602212703201385	-10.246705479540532	-9.850393505719182
H	17.626343030073198	6.79870333173834	14.95123060813747	1	-0.03823876387390231	-0.08471894874100727	-0.023246134531054827
