227
config_type=divacancy dft_energy=-23084.065693362685 dft_virial="-29.29729214017719 14.571697141326727 30.641873421700396 14.571697141326725 -10.124859047614457 -7.229149359996723 30.641873421700392 -7.229149359996723 -15.284487218278786" pbc="T T T" Lattice="16.3999889955 0.0 0.0 0.0 16.3999889955 0.0 0.0 0.0 16.3999889955" Properties=species:S:1:pos:R:3:Z:I:1:dft_force:R:3
Si	0.865624219160481	1.023654513121119	0.6904559366995454	14	2.6264445055062864	2.1715925773136777	2.5191052292691483
Si	2.7241857720535094	2.5377342971636696	-0.1737906833853135	14	-0.5694509774117167	0.442149382358417	0.49486089807943273
Si	3.9419669549143617	4.1166760376834235	1.4406242333317065	14	-0.44947497563658284	-0.7331643088984215	-0.8090527964173803
Si	2.65450221881163	0.2024578641494475	2.3982851907349336	14	0.22903868990836712	0.43986572661306145	0.14003036616175685
Si	4.1589224093358315	1.2264075770724854	4.12802483006831	14	-0.1423549024817027	-0.6256180586830116	-1.052705391854937
Si	0.13743190778229	2.5375210973067284	2.574437472535599	14	-0.32688184575607027	0.125673828275114	-0.2377686209123979
Si	1.4727026118069044	3.934062160218531	4.204891578490218	14	-1.0902059913914248	-0.4554006020679281	-0.2990743132765407
Si	0.021090385848213	-0.1765458815365575	5.504213506636696	14	-12.554839690207059	4.387346973827283	15.202271357110117
Si	1.2015451937553074	1.276378343541774	6.946264539011011	14	0.7005066433429646	1.083592337176408	-0.9364924598263719
Si	2.933990831272941	2.5382754968005212	5.47366032713808	14	-2.101135549783532	0.4815685406847992	1.0282258981018073
Si	4.025836498637349	4.222554366638372	6.654180735001156	14	0.44524936404291954	0.2161145147955788	0.9618890668471987
Si	2.5893778625104993	-0.047248368296035494	8.191630503362294	14	0.6226520315856887	-1.0662916265876634	-0.08880880597376681
Si	3.9644841398051835	1.3289075082943604	9.448902859724312	14	1.2289508048931077	-0.8834909234252433	-0.1299071531847378
Si	0.0389827738423035	2.9646260107165348	8.257837258937128	14	-0.8621888016267525	-1.064011313279224	-1.071699432407531
Si	1.4714234126652554	4.075856465073624	9.636289133986894	14	0.7190078030056861	0.17245791779106046	-0.6376996825823874
Si	0.046739968637175	-0.0617459585680575	10.87847350047305	14	-0.09891659231886496	0.8884241032030116	0.7363666205746658
Si	1.5559817559260536	1.4257986432797745	12.398309680653021	14	-1.0539438932876521	-0.9709146749630464	-0.3464068195572748
Si	2.824094505014095	2.6258842380144825	10.896972688059975	14	-0.20757690246949506	0.8902128211742385	0.4737953179703955
Si	4.217552369994744	4.098964049568283	12.087349489309346	14	-1.5944941042377125	-0.4965012632736873	1.8639821943742452
Si	2.824012505069118	-0.0451819696826025	13.804674336973129	14	0.28477459681747314	1.3000711775958518	-0.3281481151262432
Si	4.4022982460290505	1.1806188077970494	15.187078609370811	14	-0.804586529365751	1.1679058226084278	-1.2818374128864254
Si	0.050544766084131	2.7030297862493144	13.761821165727888	14	-0.8556131997704738	-0.5828760038408699	-1.6394323972443245
Si	1.2882027356075294	4.078775663114823	14.997888336318724	14	1.1361305603988456	0.309078484077237	0.4955083023990461
Si	-0.2223346508119935	5.448420744074005	-0.24096503831088148	14	0.4767461755463295	-0.04431505707700826	1.711583268959384
Si	1.2190603820025014	6.896441372442682	1.237510369622439	14	-1.2485662816015812	-0.8783245443949378	1.4286755517148704
Si	2.5840970660539484	8.146251733811747	-0.07014275293375351	14	1.3142189417304986	0.2085318109853981	-0.054474008417977345
Si	4.069936069046248	9.602800356458083	1.2470387632288245	14	-0.4565493719249703	0.7589075009164041	-1.0281688195637
Si	2.4791699364607394	5.36246840174859	2.7481133559979436	14	0.7031122014744027	1.738892521227869	-0.6162880316972582
Si	4.050780881899504	6.896129772651768	3.968206937307162	14	-0.1106094650938344	-1.150631851515013	-0.823063006417399
Si	-0.006067995928335	8.443714734212126	2.9908823930983304	14	0.6153516351396603	-0.08102041373797425	-2.5524516939398727
Si	1.582467738153786	9.615461147962609	4.196560384080504	14	0.45944649339971316	0.056222102925146025	-0.5999712831145345
Si	-0.06874875386913601	5.447403944756284	5.427805957906662	14	0.9543873528546023	0.5792201491861513	0.26459424827016287
Si	1.383273471814443	7.075512852284547	6.781018249892353	14	-1.1248434080433958	-1.9357985652871537	0.6744461769284757
Si	2.963248411640913	8.106990160156519	5.556939471257229	14	-0.516275377180414	1.0692206297683762	-0.8076803403974853
Si	4.099603649139108	9.554535188844326	6.918630557553594	14	0.675249647341022	1.3509438387918977	0.6389893490109736
Si	2.6893029954600807	5.672542993686508	8.29737763240528	14	-0.8098099869341638	-1.365712267750828	-1.9607406008873782
Si	4.151509614309865	6.796827839284015	9.53137840438268	14	-0.2089766122057837	2.2004504063164876	0.09933979625456132
Si	-0.16606628856843297	8.326192413070372	8.030205411679589	14	0.27208053563083806	-1.1594106335201264	1.4880117774037798
Si	1.286907136476885	9.545744794742738	9.498414426501727	14	-1.2286314736123451	-0.560792266025054	1.0533584526062545
Si	-0.066387155453784	5.2716288627025145	10.77315277114395	14	1.020859938470115	1.3158981306150872	1.3338094787173669
Si	1.4926121984474414	6.746266673210889	12.179271427629125	14	-1.893670747505995	-0.3570098007870334	0.3273958097095679
Si	2.704194185467995	8.21595168704262	10.891724691581414	14	0.6351851415792825	0.37853920829582544	-0.21658811239555006
Si	4.000760915463229	9.68061830424173	12.379646493176143	14	0.19972526104282687	-1.2105422050219115	-1.3649903013769304
Si	2.6801846015785826	5.382574788257073	13.63039165391795	14	0.9253006954782992	-0.5610542616571771	-0.7116752677431559
Si	4.085516058591973	6.6441603417249055	15.035378711162437	14	-0.7478455773869991	1.5505418301213771	-0.4183538026204464
Si	-0.1331187106764735	7.882261110951182	13.623700458407786	14	-0.15195309575234753	0.777135352083594	-0.5706208303323841
Si	1.1920004001599265	9.457955653649828	14.934863178609016	14	-0.16385397094771692	-0.8706045435606611	-0.01941570182509822
Si	-0.150027099330834	10.943401056906236	-0.259283826018855	14	-0.05484244781035457	0.5631725953304471	1.0387041807235387
Si	1.3281859087785586	12.32247613153783	1.0886640694992809	14	-0.5351184938507154	0.5695666771511233	-0.22652980533696665
Si	2.7040793855450262	13.873521490776238	-0.11068352573062949	14	-0.1900887583029119	-0.4069131552773836	0.5797492826610378
Si	4.071116868253924	15.016059524125737	1.4026582588071241	14	0.44634568335143054	-0.08294231496478494	0.41608274529115974
Si	2.5990210560398537	11.125998534382132	2.5334539000358447	14	1.6688563836386312	-1.4343227274400436	1.0147831310459448
Si	4.0652456721935355	12.297794148099603	4.198774382594896	14	0.3147508566345476	-1.2425097859094403	-1.4459379528343448
Si	0.1154723225173155	13.699829207324898	2.58103026811179	14	-0.9400441847156246	0.045129326131899156	-0.3272081190211971
Si	1.717013247872868	15.036936710117008	3.756548679331239	14	-0.43078998194347073	-1.0279255930004139	-0.7287414935267028
Si	-0.010643592858079498	10.849215920105078	5.315285633408536	14	-0.9987502324905655	-0.5994025546177176	0.7649123173916099
Si	1.102669660101438	12.30505934322461	6.695147907511916	14	1.39081731142835	-0.2929391417616034	0.19005199149683377
Si	2.636363830982607	13.585045684345394	5.3121532355103955	14	-0.30019994318570153	0.798129198354199	1.708019974096191
Si	4.02834569695366	14.899439202378735	6.794302240978708	14	-0.19050244914892372	0.3810012987503992	0.10342502549774463
Si	2.4436967602634727	10.960965445120415	8.250178464076228	14	1.6321176026085036	0.34183410874539144	-1.7439840810933582
Si	4.049288482900914	12.043053119032502	9.601160357558532	14	-0.5342648868844261	0.12336548991868507	-0.2804443412372798
Si	-0.059400760141700995	13.604709271150996	8.135411341085721	14	-0.42899097955096316	0.18081683829739387	1.0359255872040545
Si	1.3163287167348119	14.891714807561854	9.548827992673893	14	0.6393559886296267	-0.24487695579101132	0.12510484266776523
Si	-0.11281552430004449	10.864057910146006	10.994241022792286	14	0.6644443201225677	0.9665080575548446	-0.30008141523044274
Si	1.1949031982121299	12.35614530894559	12.573133563345051	14	0.7013841615887312	-1.1328264329519235	-1.0492110026143238
Si	2.7030789862163007	13.426096991001007	10.952322650919788	14	-0.4690313169226932	1.1365851318194482	1.1317740795443867
Si	4.032462094191531	14.992295940071257	12.418432467150499	14	0.2492918007362376	-0.9181522513566915	-2.0042645288573766
Si	2.677396603449348	10.817268741541845	13.800475939790282	14	-0.6739820924181891	2.1423339129914565	0.1254411432436406
Si	4.073412866713294	12.38843688727773	15.103061465746865	14	0.13594333714484944	-1.0004721017234686	-1.008048120659817
Si	-0.0199587866075235	13.82719152186395	13.974611022944499	14	-0.2582631585298303	-0.33930054156291756	-0.6660214361259466
Si	1.2275719762911659	15.423910850454826	15.168120222092012	14	-0.23748939887462986	-0.3223135058232312	1.0839461212684602
Si	5.687237383826476	-0.0724715513711145	0.28165341100871694	14	-0.42886808071666	-0.35434227901737986	-1.3254762692642348
Si	6.7054307006120935	1.605624522615432	1.4823786053142494	14	2.036391518274755	-1.2683848756303466	-0.14220680681526218
Si	8.291145636586988	2.7848329313588684	0.10615712876787149	14	-0.6439382125311945	-0.6308430589146165	0.4339236451076672
Si	9.723832275244874	4.202152780327969	1.25984715463431	14	1.0006919312283413	-0.6343382194868257	-0.47826184213255674
Si	8.242913268951224	0.10714112810760149	2.844988090994362	14	-1.6941429473517555	0.005011598490032636	-0.8233447995604873
Si	9.561636384079378	1.6382113007494903	3.8890113904478927	14	0.2460010430369801	-0.3682041362404262	0.7559093350025794
Si	5.253146075104587	2.7220865734620854	2.7545749516621707	14	0.45309432059575533	0.9937774576908672	0.7131156009435029
Si	6.887962578132009	4.042039687764903	3.9906421222530057	14	-0.9200600115042415	0.48499376719230053	-1.1224833904700318
Si	5.574274259625472	-0.1395147063847185	5.444911146428968	14	-1.6359503493092482	0.37108583108324816	1.0535816245480434
Si	6.864969793560318	1.3343195046628755	6.727373885888073	14	-0.912723876694263	-0.551382534774376	0.9703127792075998
Si	8.02782741327524	2.6572738169518697	5.350578409726853	14	1.476031197943486	0.6338278550807763	0.1528090167134248
Si	9.4529536570062	3.985115325961522	6.733458281805404	14	0.4661784184594568	0.6449651119960618	-0.06739329843065742
Si	8.314925620630463	0.0269123819416155	8.074239382132506	14	-1.0454913845476657	0.8511569600295932	1.1767715079733625
Si	9.531017604624779	1.632979704259926	9.521735210853327	14	0.49216920791976976	-2.8224432064980904	-1.197321067244646
Si	5.311202036148656	2.696748590464038	8.036880207200756	14	0.6503083830723936	0.36097033142218954	0.2541378200436527
Si	6.631220750407456	3.9800969293288992	9.667399913111357	14	1.6497371302569461	-0.8072717917621136	-1.6302327252983029
Si	5.43236515484741	-0.141105505317282	10.835259529469909	14	-1.686716309634508	1.4954836665746623	1.2355426047129032
Si	6.698559105222979	1.292778332537274	12.234145790808068	14	1.14974713417435	-0.5376363772907363	-1.0226028907666433
Si	8.220461684016383	2.6316570341408982	10.940088259129144	14	-2.793714961203416	0.5848395569738669	0.5018841293719493
Si	9.46038285202116	3.8459614193347047	12.351684511938815	14	0.72653985604106	1.955185470732666	0.3094528370118505
Si	8.233138875509907	0.014694390139967999	13.45217297350385	14	-0.2824747431086007	-0.5521512952651003	0.7765491400706002
Si	9.381990904622672	1.3185427152492044	15.125447450725721	14	0.9342381146816661	-0.7331234283238313	-0.37442441134146043
Si	5.603597439949427	2.8106137140597944	13.480840154267987	14	-0.3911630783072204	-0.27400089419445667	1.8691747986788163
Si	7.034299679938855	3.999186516519661	15.073328285698022	14	-1.060505611175202	1.6820926909372858	-1.0341168146113304
Si	5.408339170969003	5.387412785010745	0.039556773457146	14	0.4914711528253496	-0.8776290604058378	-0.3159289370922395
Si	6.726685086350261	6.885256579947751	1.30379912514225	14	-0.35164776064186465	-0.15966975414970794	1.749500130447204
Si	8.196632500005922	8.029139412394882	-0.0406555727198445	14	0.12537172339999658	0.4938008313559357	-1.3012587711432282
Si	9.4485748599444	9.374266509805791	1.3169027163496543	14	0.053700105716612774	0.9955137251135632	1.2594610832851767
Si	8.33877120462992	5.363862400813207	2.5792426693112804	14	-1.6801957294320806	0.9741087591022665	0.8078070958897685
Si	9.671417910415256	6.596485573714987	4.041662488018006	14	0.07878560899370154	1.1673473785328918	-0.6832817803611647
Si	5.285158853623803	8.580900642159483	2.9087184482308754	14	-0.9866169293742548	-0.42875546630363753	0.49724328426908204
Si	6.851013402925147	9.423072877056399	4.335878290597276	14	0.08412039542247679	1.287854056446104	-0.7135665728166569
Si	5.474857526334751	5.4924547145269225	5.1673741326581215	14	-0.1022981100359237	-0.4001879150914722	0.7345596477556658
Si	6.934161347132332	6.624299955051355	6.611917963359753	14	-0.6726998821950312	0.5349835108214076	1.9123076615296206
Si	8.320075217175052	8.019020619184657	5.396301579046306	14	-0.4044806325339915	-0.9198131853935073	-0.4901619459963302
Si	9.68153670362548	9.238261401066108	6.670580723996657	14	-0.9565182849439412	2.4434288579391015	0.6805862335435213
Si	8.201470496759596	5.352644808340285	8.329521610836458	14	-0.8904966712015827	-0.11826904495308753	-0.9719572581703664
Si	9.148274661447802	7.004648499834992	9.814130614654097	14	0.523147684590638	-0.0626475522307281	-0.6034821274291967
Si	5.580309455575816	8.168129319131744	8.26162565639509	14	0.2917708315041281	-0.9910711122308793	-1.7569604496441455
Si	7.422093819726448	9.227175008505151	9.553583989482588	14	15.90008528185129	-7.768650003591804	-5.179412991615508
Si	5.3568596055121285	5.439171150280543	10.749438387056456	14	1.862674015987354	0.977346552031929	1.6369415104101652
Si	6.743577075015627	6.79090744325664	12.475340428964886	14	-0.5589428699682715	-0.8663385656134714	-0.9626701686434596
Si	9.515470415057045	9.35765332095335	12.136237856504932	14	0.9710774259298119	0.21872675780084924	-0.8307269571556966
Si	8.446847132110264	5.58700065108598	13.63265485239933	14	-0.7681904766747989	-1.210501324447321	0.5001128949168993
Si	9.857459385580206	6.898360171155156	14.960561961364965	14	-1.7143194392410859	-0.7321170977015252	1.3254891247908356
Si	5.295933646393847	8.242109669490445	13.623848058308745	14	0.14799642177517164	-0.7645011976509184	0.7262482926977551
Si	6.916170559204269	9.409887285904016	14.803417266810083	14	0.02943529925771528	0.19351295636828508	0.5239447272398838
Si	5.585983851768259	10.841015925607328	-0.2982009999051765	14	-1.1522395636717015	-0.04855146731301625	1.1170706995500561
Si	6.671203923578485	12.252644978394992	1.1911804007101514	14	0.4194948591615282	0.15062769095981118	1.2598740027995925
Si	8.04303020307407	13.728807987879945	-0.045919969187399996	14	0.28197363468170383	-0.40716383804609796	-0.931615587255115
Si	9.39233929767883	15.136205843506769	1.3670866826758845	14	-1.5873266339367358	-2.687822188819393	2.064566461704534
Si	7.935692275098521	10.908436280367829	2.8139921117928672	14	0.8943361027761599	-0.4695074856279846	-0.8878052381524518
Si	9.346042128744534	12.241886585613944	4.200004381769559	14	-0.15568814045092663	0.7773325558616494	-0.8993464157135325
Si	5.4069615718933814	13.56741569617523	2.822569306037514	14	0.303801290407633	0.5257231607898303	-0.9164710055878468
Si	6.827610618628569	14.994526338574646	4.149672815542369	14	1.0260291457162727	-0.3351191529807607	-1.4253634538414555
Si	5.580752255278695	11.062645376892517	5.547886677331713	14	-0.805628598352007	-1.6344616793288824	0.3220391688855713
Si	6.933177347792602	12.273226964584344	6.94327974101383	14	0.3591679865927658	1.1250773786275292	0.01939256187721689
Si	8.279026044719314	13.852857504641907	5.541310281744517	14	-0.3952899594565902	-1.176710058556211	0.9120772437062458
Si	9.765553847249425	15.116394656800205	6.908724964200312	14	-1.0092920214137047	0.9015845628947214	-2.2348520526106013
Si	8.448273931152874	10.91932587306084	8.274434047800574	14	3.997578720156243	3.711912978234806	-2.85598044718357
Si	9.61396874896402	12.282427358410818	9.535445601653565	14	0.4861463937073228	1.8639865652532897	0.6043300779637816
Si	5.288652051279844	13.452746973118694	8.255524860488762	14	1.067080184589353	1.1803587141160332	-0.45886568070789174
Si	6.707857898983428	15.147144636166766	9.430879271818256	14	1.3725892031506282	-1.795612133032464	-1.1420304757769895
Si	5.475874325652472	10.712899211574483	10.859892312941149	14	-0.817347182180178	1.0628854262595313	0.702945336739125
Si	6.730129084039317	12.297302148429736	11.999051948557575	14	0.8940113721742252	-0.6817612286748291	1.0173436948342804
Si	8.141561336959034	13.708980401184387	10.792619558081608	14	-0.38609645816333665	-0.16490529591312547	-0.693411935322548
Si	9.607343153409836	14.864195626027406	12.144355851057705	14	-0.5615970219902603	1.1251349713867005	0.4716085928956096
Si	8.212524089342562	10.781516765531656	13.390869814638673	14	-1.6264133483452228	0.203373402381585	-0.5342448322629291
Si	9.348042927401988	12.117131869325174	14.797365670870745	14	0.5799572850814378	1.4508860450229695	1.7295972041639376
Si	5.462787134434063	13.548178509083508	13.564168498354123	14	-0.45882891390181363	0.2505411008112975	0.29939621566262326
Si	6.711236296716501	15.129367048095645	14.820588055288372	14	1.0266734647095017	-0.4498210464126748	0.9541199579013073
Si	10.705716016394454	-0.16108069191380098	0.15776789413671	14	2.1128998992864014	3.2160804594548895	-1.470234126778148
Si	12.446148448552895	1.192443199862805	1.485379803300426	14	-1.4820833227565824	-0.12969786521167775	-1.157702134034888
Si	13.565824897242667	2.695534991278371	0.093348737362386	14	0.7465957630908752	-0.7918996672740123	-1.1438245930693887
Si	15.032229913275298	3.9637461403003855	1.3294323079422163	14	0.37802215901594366	1.119792214531433	0.8402981538204798
Si	13.844805110045117	-0.17275748407859698	2.660603014717956	14	-0.2923801834650032	-0.38131214538360514	1.066475460618054
Si	15.314621323788813	1.1558220244358535	4.111477241171849	14	-0.2931707983509487	-0.2594106428342124	-2.7208601208517
Si	11.131886130431516	2.7761737371692448	2.574125872744684	14	-0.48172666366198835	0.06818725575351915	-0.2881512294344237
Si	12.718601465735137	3.7871838587748328	3.9024101814572156	14	-0.8059361025482967	0.5541351601301265	1.4722359893804153
Si	10.824238736864933	0.147337501135572	5.1703753306442986	14	0.21759572857051607	-0.2586349403591237	1.7673857674962818
Si	12.126496263041606	1.372547879011386	6.763076661931276	14	1.1925467817756628	-0.3804333415851785	-1.6274392193679619
Si	13.97756302096369	2.352037221767623	5.368011598029069	14	-1.8097598971671105	2.0220527210148216	1.9602706028348549
Si	14.904277199132409	4.215764771194234	6.826872619123772	14	1.0361667568830843	-1.7033891563040722	-0.7990668804644571
Si	13.526694523499403	0.06035195950344	8.011296224367776	14	1.122123435725211	-0.10599510237576464	0.9601435434453501
Si	15.03918350860939	1.412399852270451	9.412478484165305	14	-0.4228290685406962	-0.3070077158523897	0.7096086132868209
Si	10.910961878673136	2.741454960465771	8.086522973890135	14	-0.3273667562194502	0.8382340704694649	0.1979967069360913
Si	12.05202391301304	4.080350062058391	9.626793540358499	14	1.8850814559629763	-0.12642150570221308	-1.2397892993701918
Si	10.775104369834414	0.043181171025151496	10.838834727070926	14	0.25352743964064955	0.8963279380676787	0.9614540358270294
Si	12.152473845610478	1.4054626569253543	12.410002872806814	14	0.24934759372168477	-0.6986652177126745	-0.3577034850024094
Si	13.58232328617214	2.661751013947641	10.95942384615484	14	0.02680248740988365	0.15875264088201113	-0.43514723412952566
Si	15.048400302424863	4.077742463808106	12.203674611254428	14	-0.7026046652842054	-1.0194946815451162	1.0851357717000927
Si	13.519363728418416	-0.1372187079253485	13.686102416535665	14	0.296213701497344	-0.2518701051512821	0.17594022283666902
Si	15.125873850439604	1.198740795637077	14.986539543933837	14	-1.351976908909533	0.4998912656383025	0.5036473934005068
Si	10.841999924947057	2.7308441675856825	13.865337896267484	14	-0.3972596832423556	-0.8225642119852904	-0.3070370264530393
Si	12.234703390433914	4.095421651945255	15.052303499805792	14	0.7463455945432247	-0.3031037495342768	0.0962449567806991
Si	11.156830513693672	5.617307830749665	0.000688799537811	14	-0.7961124233410749	-0.5985417485565321	0.042469774788737986
Si	12.41384047023176	6.680732317184871	1.5753993428967252	14	-0.2591841284555073	2.2707930196598873	-0.5359404762215666
Si	13.609153668168778	8.286192839910349	0.0776539478936925	14	0.12226299995740555	-0.47229867756353733	0.641651471459455
Si	15.03557551103038	9.795303427287262	1.4472498288858886	14	-0.16507344620106315	-0.971309082519157	-0.07105506662761232
Si	13.783452751212952	5.577734657303523	2.9794352007794713	14	0.7724250871370828	-1.448864642020269	-1.726345013044482
Si	15.070294287733855	7.034365279894837	4.12116963466819	14	0.05832655262968723	-1.0603588010614218	1.0194270614751966
Si	10.984040229637085	8.252917262238478	2.814467711473737	14	0.0645350006462488	-0.18787683639598848	0.006794145808491299
Si	12.308798540715584	9.831580202945307	4.349818281243452	14	-0.31138116600196153	-1.9439024321457286	-1.2031415354683972
Si	11.053805782823941	5.179313324646846	5.204208507942015	14	-0.1489122494902084	-0.7682514118708863	0.9223878902611036
Si	12.074377098013906	6.78270744875889	6.6162803604325555	14	-1.2462808260825016	-1.998036540440382	1.4218076151836911
Si	13.431049787677647	7.9754950483906	5.479662723110432	14	1.5723090648722828	2.943798349166952	-1.289762330814718
Si	14.800055269066005	9.480226838705716	6.6813555167667	14	0.6245618486174946	0.5853787177595021	-0.2597546567260482
Si	13.422193793620078	5.463344734059911	7.960423458503736	14	-0.048064757075912214	0.031137628090185325	2.310546421677888
Si	14.936142377750665	6.657477132789253	9.641028730806593	14	-0.30782224201781255	0.8143379605134767	-2.797165384543055
Si	10.780745966048867	8.01187022398262	8.10472696167514	14	0.8439761199809516	-0.02321913792519327	2.0574290733358027
Si	12.248134981421229	9.552878789955782	9.430961271763234	14	-0.16606332174932018	-0.7061011114090748	-1.515816224556925
Si	10.686774029104651	5.381754788807298	10.87519350267395	14	-0.8240971049771626	0.366309488730009	0.8977667286048335
Si	12.053680311901585	6.755581866960333	12.20556060998891	14	1.5276476799086507	-1.3802873495896835	-1.6814486290545887
Si	13.381997420592109	8.012739423399381	10.658697247944355	14	1.098442270173987	0.3026003271125918	1.9378755041647688
Si	14.969516355356507	9.392503297568785	12.114721070942837	14	-0.671621303513229	-1.3371321181225941	0.6204676205056909
Si	13.446908577036297	5.342854014909972	13.469934161585979	14	0.4575269061676906	-0.06867319465902713	0.0816637042890753
Si	14.592546208305944	6.678452718714496	14.995395537991406	14	1.212827403430459	1.0162334915570403	-0.4042839429770001
Si	10.994077022902331	8.085768574396342	13.52247972632756	14	-0.1670341711182081	2.8344713514068074	0.9103258067621609
Si	12.228602594527587	9.574116775704953	15.036559510370111	14	0.6819106098939297	-0.7352026811962349	-0.8957666657762904
Si	10.699598820499132	10.75747438166425	-0.13508670935593348	14	-0.5730734076972733	0.3824182348923328	0.19481470699187606
Si	11.970663567606364	12.037477122774032	1.365561483699303	14	0.0736801651594835	1.0491498103077042	0.7320569338370337
Si	13.223983526620465	13.460815767704482	-0.002984797997181	14	0.4631869374194646	-0.21540951771679417	-0.5161635340989877
Si	14.842678840465311	14.827361250743515	1.010370522034764	14	0.7597767916251462	0.23142698964025268	1.2894895365402503
Si	13.582946485753968	11.077946566625316	2.8477760891235975	14	0.23968846525495247	-0.1750683610226068	-0.7916348434260371
Si	15.135992643649828	12.356276508857555	4.089140456159979	14	-0.6891318162960975	0.7874580828334564	-0.44912761930783085
Si	10.743714790897029	13.64467604433303	2.8216345066647706	14	0.05065565990702544	-0.30582423607352544	-0.6264688374334485
Si	12.210792206478475	14.971664753914919	4.206121577664881	14	0.6639208430793856	0.19672118158676585	-1.5670609246927965
Si	10.69544962328327	10.980645431915017	5.542737080787126	14	0.4237952899200079	-0.5727070251891523	-0.17936442090204224
Si	12.217171802197724	12.209857407105732	6.704463101261359	14	-1.023690725427598	-0.5141552437334199	3.143842941490541
Si	13.466211364084	13.51388613209392	5.544114679862748	14	2.5291201987121887	1.5925719459003698	-1.5028133736213405
Si	14.932485180204669	14.905753198142003	6.887618178363103	14	-0.5239218444025345	0.11878917955935349	-0.9492322866877054
Si	13.699009207875122	10.899990286035147	8.154992927946347	14	-0.9376250317198971	0.0856260346979555	-0.6803237236903341
Si	14.9502299682978	12.291791752127251	9.539020799254585	14	1.2472902420311918	-0.9722125689286573	-0.5017458039057253
Si	10.942089057786596	13.802919538150611	8.224036881617403	14	1.6286520097474755	-1.493296427278812	0.5264171021157382
Si	12.305551342894473	15.250185767025494	9.640061131455859	14	0.24652040631165	-0.951702347568772	-1.0042858222448445
Si	11.048869386136294	10.956373448201676	10.72792160149436	14	-0.7418569588753102	-0.32803832892907286	1.7181511574997022
Si	12.305190543136574	12.281722158884014	12.263058971407133	14	0.3900323061874193	-0.12430831423958336	-0.5561195392162169
Si	13.63957564775543	13.638936048184606	10.724592403728275	14	-0.3140947105568458	1.0358232572123127	2.4021415344870998
Si	15.177353415896478	14.939537175472733	12.35360331065129	14	-1.6929936632736495	0.5645126554233083	-0.8986694436827376
Si	13.687348815699321	10.77890916728137	13.519708128187322	14	-0.4487738352157784	0.586924723388507	0.2519274407999214
Si	14.786508878155724	12.391388885296921	14.923383186312165	14	-0.033128692050107995	-0.6845187391306878	0.35345447635033267
Si	10.836948728336445	13.560363700907166	13.622552459178102	14	-0.13901246556551022	-0.521393162320169	-0.13177094743131315
Si	11.894370818799297	14.942259573645986	15.158427828595672	14	1.7512348552067079	-0.02023331331690531	-1.2265853879985713
H	7.492244772654699	10.045022779723942	8.192529222759248	1	-4.745891210269381	-3.8056809321500746	-0.3090242337549818
H	8.632575367485405	10.048986657064154	10.174572852794993	1	-0.3248043926573906	-0.17255304868790594	-0.016510095702798877
H	2.0087985720830046	14.484358760900431	14.267542706385424	1	0.8540803067786014	-0.9221950573620924	-1.0922847300427647
H	-1.0169321576318635	0.8065842587766809	6.299809772786392	1	-0.6570806744856635	0.6340386857170286	0.70518425525191
H	7.512188799272127	6.028411274896561	0.3894964586453259	1	1.1076555689782057	-1.0199543951763586	-1.2216974596744379
H	0.716974718905269	15.972296962484155	4.718919713573973	1	12.73430618399031	-5.094554174745085	-13.862777421640436
H	5.9463063699894905	5.847752276119933	13.378145063177065	1	-0.1970618530416855	-0.3034801593531465	0.07044160089822497
H	4.336034090492733	9.50054806507004	3.81678583891171	1	0.10360834530707116	-0.046198134613484716	-0.1148237638240891
H	10.102091461430483	6.001759652779974	8.894401191798561	1	0.027681291208310265	-0.28945940782131496	-0.23431176980945884
H	10.353327812849246	10.268667789656677	13.088472057549549	1	0.24993020618723036	0.24570150926718284	0.21963435797886152
H	6.445028395343746	9.562159543728335	9.898392118114074	1	-16.284896701575615	6.081872758761208	6.570655563863811
H	-0.00565307620674885	0.1463371018068465	-0.12969603297311263	1	-1.3898006963847636	-0.3112870635472441	-0.5337434667255002
H	14.070518158590184	13.977994340674272	2.0725010493382254	1	-0.13307552627075628	-0.25170915395824084	0.1536736794325906
