224
config_type=interstitial dft_energy=-23333.693912339953 dft_virial="-17.94549110680635 1.0743868184583591 14.03165341099376 1.0743868184583594 -19.217791286559674 4.963990225132795 14.03165341099376 4.963990225132795 -12.597791303652714" pbc="T T T" Lattice="16.3852778749 0.0 0.0 0.0 16.3852778749 0.0 0.0 0.0 16.3852778749" Properties=species:S:1:pos:R:3:Z:I:1:dft_force:R:3
Si	-0.5752215650762394	-0.6853142471176926	-2.233706621017868	14	-1.4158981867158626	2.555929370995905	-0.40322053381658685
Si	0.0224314454107381	-0.019891727340128604	0.1198910782106433	14	-0.48035909274220157	1.4626591362839279	2.5935572402457403
Si	1.4010887258048244	1.4274526379055383	1.4056110624982967	14	1.1117726799273588	-0.3588124027269893	-0.43056038223838144
Si	2.7305410167405855	2.93306305127435	0.05200687197493261	14	-0.2864098198010874	-0.47133168485262966	-0.12178374592572996
Si	4.353846881084803	4.15373348239865	1.3518509657907496	14	-0.6190152031103393	-0.3861355389642029	-0.29961655938856
Si	2.752644756593826	-0.06101877480612761	2.7294104325672177	14	0.7658152895800461	-0.16332072370431822	-0.9230216677225201
Si	4.036447663370116	1.3579462891602125	4.203364489081722	14	-0.030094273551269233	0.037558192295659105	-0.9218790685182463
Si	0.023938890975228902	2.723151256419006	2.678599685877153	14	-0.8440445113824676	0.3390722274104883	0.5352311082637379
Si	1.3541940605268603	4.234529287599782	4.0245191810771885	14	-0.27237389874786694	-1.567481043302109	-0.015045337001910514
Si	0.04574769582672081	-0.1108955606573232	5.321594162932147	14	-0.7114734359755244	0.1256861695806507	0.47767280190371086
Si	1.3476071788211506	1.3469517677061547	6.725468385975705	14	-0.5114923499533427	-0.10543228742118421	-0.0430066215795849
Si	2.6511215748809454	2.7924609818298327	5.39326336835696	14	0.3699676573795157	0.21718126639290822	0.9002815267184704
Si	4.046311600650806	4.108100483517054	6.909458671232956	14	0.23788200665701648	0.2571794376373878	-0.927880542556536
Si	2.7763378684009314	-0.11043677287682602	7.912221291898962	14	-0.008556895615984822	0.9777134487611139	0.3230192742336118
Si	3.907348058993779	1.3325654937319924	9.429891269783699	14	0.26425100570992316	-0.22240780928770526	0.9151006064522078
Si	-0.0556607889410353	2.6955912190334237	8.183299329061308	14	0.7287654048061801	-0.22921943861237354	-0.27070216606870673
Si	1.3691538192266441	4.072724668585145	9.481078877864887	14	-0.8269816280358369	-0.9754058817362811	0.8470653030231095
Si	0.32636196471225826	0.012108720349551102	10.862079252995084	14	0.09016969201972118	0.21858560411877312	0.2970210285678705
Si	1.426338439010045	1.574330268776142	12.2849767836514	14	-0.35970329072042057	-1.5459169258714947	0.8237394642271301
Si	2.711599635517201	2.8357508859753184	10.975203211443395	14	1.089096816556313	0.19372970054677358	-1.4880919958897685
Si	4.242508917924858	4.151914716554535	12.208178986251744	14	-1.0735495997959095	-0.30528224707203827	1.6125982852390033
Si	2.729557900068092	-0.0027854972387330004	13.551427681158172	14	-0.8534028205267425	1.0971502897506127	0.5563964472591969
Si	3.913033750416369	1.5082156725509206	14.881568153764679	14	0.18529750353881594	-0.09137759729912676	0.8907923483133999
Si	0.038620099951139304	2.838143136545054	13.646429522276842	14	-0.8914855183077118	0.3408573458342672	0.8501917670924095
Si	1.1605528466012922	4.2890922629232	15.157545389011618	14	1.094811869461938	0.10183865351521325	-0.050654374354365365
Si	-0.26260684850102234	5.767044327239178	0.12583893407923202	14	1.2834188997688485	-1.1482134698508817	-0.3109829017878706
Si	1.305431473571158	6.873296362963053	1.5170473373254916	14	0.08406717354234973	-0.07787878014728532	-0.5014169595352783
Si	2.5316073580614247	8.149889747474386	-0.07117764708856561	14	0.4383171498787362	0.5090590558783545	0.6999800809733984
Si	4.073855252758512	9.472837083093813	1.300352037429939	14	-0.6548620677049078	-1.0965491653267623	0.8513539066971165
Si	2.7333592845350685	5.3384054580317954	2.6367680714625332	14	1.2555710009357928	1.388296856883009	-0.29960061853557507
Si	4.14724491236019	6.858697080376516	3.9939114820068755	14	-0.2618773612783625	-0.418396740079293	0.17888388131770658
Si	0.08241794771074701	8.210072873108894	3.0132034453604857	14	0.18582072347146608	1.779990354217776	-1.434066902460689
Si	1.4456402963466775	9.762840116201668	4.256305321895524	14	-0.021545348361776875	-1.3624361653518955	-0.2770425117881919
Si	-0.028330145445702105	5.446040348392013	5.3558557789685635	14	0.161146597045601	0.20504102129223303	1.7016510891076522
Si	1.272841155877982	6.9397058941900225	6.831972692162555	14	-0.054119967215392965	-1.947088802968988	-0.1276602642454604
Si	2.6692764627663346	8.063047774737417	5.457247878458445	14	0.9391622955908138	1.242464534455806	-0.2734203386131672
Si	3.8623540859493035	9.524581790622745	6.971673571323952	14	1.7171648814988936	-0.5633181198915674	-0.8419238637144094
Si	2.5998684256882583	5.432145632754097	8.265176562602182	14	1.3520566131744578	1.408717346667221	-1.2595413017711654
Si	4.126648618071441	6.677197357356249	9.660137194481795	14	0.15817851306402206	0.8437076965855281	-0.3731902807877894
Si	-0.1279362496472192	8.222918930962816	8.104027354702541	14	-0.5068224513603578	0.7437009556109203	0.8492463716661911
Si	1.24859094462313	9.471985048644319	9.582470977354768	14	0.965211192031362	-0.472588184022586	0.2807631582969781
Si	0.0759949187837862	5.474288567448341	10.786231801712171	14	0.22010384181032056	0.29341402491423474	1.5687951352312366
Si	1.3774939256649683	6.883602702746365	12.449370276570273	14	-0.012925974886512452	-0.9165226848047818	-0.6805126999313651
Si	2.8694717878418627	8.110778089187	11.051689688563428	14	-1.200570687258781	0.28637048188968905	-0.6404139984688677
Si	4.135824373681384	9.575966022038433	12.33346082088323	14	0.0713134627122872	-0.45706050766261574	0.2907318478442563
Si	2.8658014855978853	5.4276396813385	13.821162125534775	14	-0.9694784555312116	0.21184236619562072	-0.7932762370624196
Si	4.10718290795606	6.945489897279862	15.116729661825243	14	0.22590785496002283	-0.4194130980123475	-0.7494908276813619
Si	-0.2627870865576462	8.142991545489053	13.654179758711669	14	-0.31560883447988103	-0.34485464327550136	-0.8742385438201585
Si	1.208791104664998	9.413735385799049	14.767805169479248	14	0.8502385612092361	0.5547949057552766	1.2523535197381594
Si	0.1257242371341077	10.826539585284426	-0.08785785996521381	14	0.15218680922594896	0.6842914534203868	0.9085895393394648
Si	1.6148346756828948	12.356285512962966	1.409346905853774	14	-0.9728579163640143	-1.0747209953797687	-0.8695385632949277
Si	2.854577570253579	13.68016680942126	-0.0885132710802098	14	-0.8087036403149042	0.0608210390112949	0.8882060734718629
Si	4.382013173751757	14.884501118504286	1.1434630017777716	14	-1.6697742682379242	1.5140704440445447	0.8168247335791239
Si	2.858591963332929	10.887902450925926	2.7735196006064484	14	0.09258550257853232	0.1650845019539398	-0.6234693859669638
Si	4.1946966770859	12.36346226467217	3.9787223294168435	14	-0.573242843537871	-0.7239939475530494	1.1689437778261715
Si	0.0001474675008741	13.381741743485707	2.736275863996801	14	-0.13858643341396168	0.7001081220183417	-0.22747751475797323
Si	1.310215974710629	14.898199210807702	3.8833927827406747	14	0.38552104479268756	0.17043728611995607	0.8993921813882312
Si	0.0237914234743548	10.994062666277404	5.592115100646747	14	-0.7056575957413492	-0.17548796541085498	0.1408094110737617
Si	1.3658931489295392	12.358268131585827	6.870953268226942	14	0.13835606237727643	-0.00026559517957129656	0.952259248981116
Si	2.625806320564225	13.562651596502478	5.334685999954193	14	1.0258949340185608	0.5594285517632475	-0.11177314736173341
Si	4.172330772786662	14.984385772429675	6.567301298649295	14	-0.16265506453693188	-0.3075545899539852	0.1951450940255151
Si	2.6718653366705687	10.909498247165045	8.322885511277581	14	-0.8714501801004578	0.4305431558327365	-0.15516620607093656
Si	4.213310352751786	12.134772941372193	9.559711826386533	14	-0.002517883440021014	0.3933300058710413	0.6747973899152079
Si	0.0279368987767045	13.778347394447662	8.28064426491609	14	0.04286778189229691	-0.9601587129667388	-0.6295294812065528
Si	1.5527180872591488	14.958103786718336	9.499135454083028	14	0.7001536305825083	0.05225797274254172	0.29281341471144817
Si	-0.1099288292627041	10.822754586095325	10.903304612128334	14	-0.44303564236227194	0.47162170553274235	-0.8764558650482542
Si	1.383605634312306	12.312487665203358	12.045063545007114	14	-0.32007355886831823	-0.02577430239235643	0.5280345844726434
Si	2.9663579359161467	13.638400736118141	10.959391418294116	14	-0.46236984014872146	0.0813718838352385	-0.6211474207523381
Si	4.154208655457023	15.166868612122437	12.313765716877601	14	0.2554249153669188	-2.340838413228277	0.7153630041038443
Si	2.5807140358525	10.883740590345703	13.534272295223152	14	0.24154968839620772	0.15964507153863453	0.34859097352674057
Si	3.9300580541283905	12.086895159421735	15.100704860063592	14	0.39089131247488085	0.06271208697426381	-1.3132187817609609
Si	-0.09940948086701831	13.441597163562717	13.553246447002286	14	5.503258619099015	-6.884097213669339	1.8928983874678227
Si	1.3799517173462033	15.030133468256397	14.969426013729892	14	3.794310733092783	-2.049274041481357	-0.5639734946376731
Si	5.355446147021691	0.0727178632088062	-0.23856964585854404	14	0.7889413534926498	0.3318391939238478	0.9721122958211714
Si	6.783832745766099	1.2331887834207238	1.4745603117958759	14	-0.2494985176039775	-0.19922466683699405	-1.5106899547696138
Si	8.113940447816857	2.5865471947759646	0.07691249434478062	14	-0.02085063570427286	-0.14477431258796208	-0.21455462519784493
Si	9.700264739997424	3.764746985648524	1.2312225500757359	14	-0.820074096482727	0.3524805416550606	1.9124529289802088
Si	8.302813545880827	-0.08312251465936771	2.5907909817455637	14	0.41619458837258616	-0.2785885174171969	0.8593654708746977
Si	9.492630498766692	1.3672858975489057	4.173576053905155	14	0.10670858410210572	-0.6176496890748085	-0.3745653079130046
Si	5.524148968021662	2.614860954943792	2.8057822127421264	14	-0.6518477038275663	0.8710984528926616	0.2633058673942367
Si	6.837428989694897	4.10701905517731	4.150341729878545	14	0.1968049996202027	-0.8058808237839133	-0.1308294086630749
Si	5.6023231287628095	0.1370464641456636	5.388118391104242	14	-0.5535574327646894	-0.22741272290390552	1.0791229847983945
Si	6.843917559733357	1.446688954130671	6.993547917286944	14	0.1536700798851424	-0.7692906526412902	-0.5912598640688087
Si	8.172255651773625	2.7403066423540263	5.56775019244677	14	0.23325581685447402	0.7315709949315257	-0.10118790675868378
Si	9.486092772894606	4.252667790207296	6.931922887199445	14	0.3808393191152299	-1.0908562239268902	-0.4926556610463418
Si	8.178514827921838	-0.029690123509318805	8.309449583420164	14	-0.3479109161695614	-0.058192855153039534	-0.6741510140377227
Si	9.617961489231801	1.2881450054131387	9.533167676229196	14	-0.28169929774404406	0.6527864143799523	0.5020057426535923
Si	5.392149169461467	2.69785238738016	8.284134329103443	14	-0.6941788960395482	0.15871690251806106	-0.5369979718397436
Si	6.751897839187919	3.9848831938978053	9.62558064344363	14	0.29555986941443035	0.6486780451888877	0.7607676956155314
Si	5.337881129139798	-0.0165327453757741	10.86594617857356	14	1.0443909514706422	1.3724351939419515	-0.5053484366803168
Si	6.792025384703549	1.3393817693279508	12.297740915115947	14	-0.1595219155937994	-0.017277056419799045	-0.08349021750850849
Si	8.24851273500341	2.701211369344515	10.9291114247813	14	-0.006582800951175127	-0.24107454813304433	0.2208908571488179
Si	9.671754356495098	4.088700314513172	12.283813428922283	14	-0.6301676295470136	-0.3681645412184959	0.43410902180124983
Si	8.113907677261107	-0.18318740664138203	13.659947376523634	14	-0.13888956673120714	0.04817120083616635	-0.2421143031245122
Si	9.379277146428134	1.2728903117116066	14.997199059727848	14	-0.16161376688227191	0.2719414388330181	-0.5337257260987912
Si	5.45144749009073	2.793886501004949	13.724783921074613	14	0.5302809591908568	-0.38299904758415426	-0.983358567602031
Si	6.963562858775877	4.0046274537370605	15.065607594855557	14	-0.7188977596979839	0.41529238751574615	-0.322379326119427
Si	5.596178649559722	5.538781021163947	-0.19355928753619372	14	-0.21224345862556387	-0.4320385106869346	1.2342753069006023
Si	6.941213339754513	6.699890967212986	1.3280923128721447	14	-0.5522795934205758	-0.23307506815046763	1.0660730826354508
Si	8.204092246684556	8.153707517219239	0.17660052493567222	14	0.7627528460332177	0.8547680774517412	-1.5317606770892913
Si	9.561956609455395	9.617437160339806	1.4073806725087858	14	-0.2307831848680876	-0.28567551212165304	0.8702343043945598
Si	8.260801693409586	5.235636995200422	2.686497389812854	14	0.6703624903484846	0.2656535436620639	-0.2589910384459642
Si	9.618960991182172	6.765202684822337	3.992944750612256	14	-0.7837587764988275	-0.21990226715322098	1.1736612418675794
Si	5.639648791761831	8.221608108732823	2.7069298313228547	14	-0.852524273838848	-0.5477287370039137	-0.37969080636871977
Si	6.834496024955289	9.538050489035916	4.243934437099974	14	0.46756732955340086	0.2210356103783422	-0.40111659833310975
Si	5.524951846637531	5.505895768469023	5.422478318807907	14	-0.8327046513679544	0.4348703260865458	1.1547057678947876
Si	6.8464736630818415	6.948177082851346	6.9709198485417065	14	-0.6413853620588196	-1.0658889914945284	-0.47299904665274567
Si	8.20828687782053	8.210040102553144	5.636683056466475	14	0.9813533625628476	-0.13823110665871724	-1.309991273252579
Si	9.651256373873599	9.659907800591546	6.847129074196838	14	-0.6264058453531048	-0.5584708150314923	0.07368222204373963
Si	8.03453739123509	5.413679424589086	8.304402917834693	14	0.7092070066358137	0.7495263089347799	0.35659353883570144
Si	9.719451900388933	6.661041473371598	9.622860687316397	14	-0.8613351946604634	0.6719192946198342	-0.4772516548522706
Si	5.519692172439688	8.261883121749328	8.357671456205994	14	-1.2377678963674914	-0.46447094741634654	-0.2589979804303286
Si	7.067773226060241	9.410343633278943	9.67807907375481	14	-0.41068445256097674	0.1980116193469482	0.3782332467627278
Si	5.600160272083322	5.5334230352988545	11.088179702390828	14	0.5253832606665068	-0.10659982634706346	-1.303811621615603
Si	7.065282663823256	6.823403191833982	12.373473669453736	14	-0.9058482268471229	0.3559235087892709	0.4580061601993662
Si	8.516133478534151	8.1600650050347	11.121818677868	14	-0.20225162913040437	-0.33954222546301144	-0.8877412176299802
Si	9.66483976923189	9.699068614712557	12.458447720512968	14	0.5177961859772817	-1.377466332832417	0.24491783636560166
Si	8.280595109082464	5.4174644237781875	13.77138365135083	14	0.906058029041247	0.008838174538009022	-0.3420248847601464
Si	9.644145163275894	6.897251639216156	15.09023466750153	14	-0.20427560323842497	-0.224209125675001	0.2090010377063251
Si	5.563047617696674	8.22085438595058	13.719671714377645	14	-0.5369681470180299	-0.5700407889721586	-0.778351742010556
Si	6.9218459413063815	9.490975585701328	15.015501415114112	14	0.05143059105051806	0.25633174421333504	1.1746495747526444
Si	5.332965545777329	10.712350583774247	-0.0587248359036416	14	1.2659173858546007	0.9673328681415482	-0.06852689876631071
Si	6.639888079635102	12.097512819484669	1.4526859658328843	14	0.759702229570862	0.44758161367882576	-0.8923522379111337
Si	8.191246188830634	13.51018593674705	-0.09521484973104391	14	-0.997021421273298	0.6267529445713249	1.2637270612323666
Si	9.627710729567367	14.785763434030137	1.2850809584505323	14	-0.2071310728069814	0.1938824242027904	0.6804157692607955
Si	8.178400130976712	10.993718575442031	2.824871061466385	14	-0.3738513119655994	-0.7650789250163555	0.1501432947174953
Si	9.347817412908327	12.529477900100659	4.165301488578329	14	1.119308075399649	-1.1274073142686474	-1.3190842443278148
Si	5.532734853628109	13.756587745429796	2.748368199068477	14	0.31314622980424317	-0.7867152905064657	-0.538913959524318
Si	6.854453293406918	15.134147212206262	4.004365289291061	14	0.8048827206986321	-0.1343348536565648	0.6021636646210248
Si	5.359706319269165	10.854394557671757	5.481661942492046	14	-0.38188961563851037	0.5926603451366934	0.5889047315955532
Si	6.684210256286707	12.324661926664408	6.879784933001513	14	0.1887921498899612	-0.7856544524513726	0.18223865953943577
Si	8.062228510843672	13.714264572678928	5.551201061793121	14	-1.2342938188589074	0.40160999344404613	-0.10074490531202225
Si	9.415504995809538	14.900345682209315	6.928645831624465	14	0.9328268349714368	1.0076948507888288	0.5227779596456006
Si	8.174074417617739	10.87176295221915	8.227768973213786	14	-0.11599747340273671	0.6540647679451299	-0.4855915491792349
Si	9.562300700290766	12.18827087363374	9.598233614670422	14	-0.845842742443379	0.6954060846088549	-0.462325874247747
Si	5.328410438528106	13.736351927254294	8.249626933898902	14	0.12343850930977725	-0.7579896163171114	-1.1169483149368171
Si	6.734201739083026	15.003425465320309	9.5364938876378	14	0.08054321659055477	0.2932348188734204	0.5366012502888448
Si	5.576581857221342	10.73827209337234	10.981904790094228	14	0.30565891400143996	0.7515497688217364	-0.6305581804451441
Si	6.832562562166051	12.21719088908294	12.309407232962878	14	-0.1875469635834135	0.4556386864205738	0.33065417148179155
Si	8.107025860553648	13.63204324830268	10.853575293778013	14	0.2560630637073796	-0.4580293001472475	0.19287737913314448
Si	9.495071905170052	15.047206927802042	12.121468095737773	14	-0.618611282464544	-0.1924940273299104	0.7742302601823586
Si	8.226622003762543	10.914889003585886	13.719294852986522	14	-0.009009667262862897	0.9545806999746776	0.28148949554992
Si	9.643964925219267	12.445699974326294	14.942078984956684	14	0.19791905955542285	-1.081837557795407	-0.533722897882939
Si	5.39259157196409	13.496029056663135	13.804957085716499	14	-0.6691129331628926	-0.07284507015149941	-1.3878320010411263
Si	6.711835834783788	14.85836660029382	15.053646342006878	14	0.64073075864431	0.8648447534224655	-0.01721997788169176
Si	10.661474295972683	0.022923003746985103	-0.00019662333449880001	14	1.8960670176643732	-1.118719549391867	-0.28009492802427166
Si	12.300608338744055	1.1560960510193192	1.409477988076773	14	0.0371257323808102	0.02140290912704067	-1.8295093284627637
Si	13.459309648945483	2.807207731917243	0.0710629501434413	14	-0.0055358468648108285	0.09897084264112009	0.33810369203638857
Si	15.03552422467724	4.1161456549536295	1.305447858849033	14	-0.6775659561239434	-0.14558163965848855	0.9411579875403127
Si	13.512578187316784	-0.10681562646647311	2.8257886370273795	14	1.7481107051321958	-0.45515223329400184	-1.2181367359165647
Si	14.961282530626068	1.2242424217010286	3.96774419324066	14	0.8896464066722098	0.9019666291452955	0.7332838652958084
Si	11.023720019230973	2.4051457834229466	2.701473533790513	14	-0.8916845218594912	2.214812857745367	1.336955740297632
Si	12.264642653808648	4.0265837260894255	4.123519029997334	14	0.4094096985432473	-0.2601346660923661	-0.2307016808294389
Si	10.799192556511217	-0.009863937280689801	5.6091885601923925	14	-0.10536595290392439	-0.34019708598805315	-0.2797231461949783
Si	12.280110356122556	1.3837694870910549	6.795712072225401	14	-0.36303981409437674	-0.35042622850426225	0.3832458736948885
Si	13.662618176817242	2.56352587936173	5.435570155829952	14	0.16012355423871408	0.9008438274519868	-0.8328159802283168
Si	15.010389208417141	3.9927808978335073	6.739903815783492	14	0.06966127043356005	0.4128660354251224	-0.1550314801521608
Si	13.730666235831702	0.1492862667182139	8.161474138931942	14	-0.1429226025363914	-0.9220114804422338	0.2662536396437865
Si	15.201113842880979	1.2535556838192248	9.653910788889332	14	-1.0674167422757603	0.5016259903978064	-0.5077007409377203
Si	10.86925600470429	2.683449728128123	8.130325725691756	14	0.13945263879631956	0.6583644273720135	0.2826292665383416
Si	12.384894208132541	3.9097075390077642	9.51910910781253	14	0.5233641716585944	0.4207883822480947	-0.6797855913468273
Si	10.927685905606184	0.041127047465999	11.001681820489232	14	0.6349704542850502	0.4374298614327531	-0.4860867440638954
Si	12.288204683392756	1.5940745286153963	12.252992721239597	14	-0.852181802610204	-1.3517097710667696	-0.13960407689967627
Si	13.775922373322176	2.63639121007141	10.977923167570628	14	0.810698818043339	1.1387515451622046	-1.0830279795586355
Si	15.049189546424905	4.191190227620671	12.237148157534568	14	-0.32812986027847013	0.03920961324279022	0.497399864583079
Si	13.531978356320664	0.24848273897285852	13.60682630565321	14	0.6831370271316403	-0.6093313920325335	0.6195438223641617
Si	14.978142981559339	1.57957355769611	15.211747888221788	14	-0.021849253010618373	0.1790949690644907	-0.8111549321271333
Si	10.89534136708113	2.6006057631926285	13.724996929686988	14	-1.0252572998991643	1.03351569018748	0.29730359304255477
Si	12.034871902168927	4.111459465481408	15.092544991681892	14	0.7150328741807374	0.25088511470313335	-0.24701482986471446
Si	10.804861862655935	5.43766747139794	0.21617097100355573	14	1.0893780954783372	1.1384725802349687	-1.0174889622848688
Si	12.371491050830873	6.851471172833686	1.488258404099292	14	0.9993932659311344	-1.1943051607041122	-1.3425599785639588
Si	13.734041603073932	8.337599490809241	0.0788787276897686	14	-0.6122462541339855	-0.19537006574102805	1.0357294118681275
Si	15.048353897253286	9.728644041276752	1.4803279296078407	14	1.3935789356527213	-1.507652965165455	-0.24699631790640936
Si	13.780477480571399	5.47933523303381	2.8702746664577328	14	-0.7860552877707837	-0.521689867874114	-0.5142202926980197
Si	15.058889630926847	6.922534122977127	4.196073040427391	14	-0.6248562401766518	-0.5959747570048963	-0.004531573126760989
Si	10.989163468192809	8.085167899868532	2.6609199710501357	14	-1.3189207220294534	1.6590949251801572	0.7609538436407101
Si	12.186681501679876	9.551535572726957	4.033563854464133	14	0.20332198027518206	0.1140855994866746	0.805441164774168
Si	10.970222086969425	5.442238963925036	5.537781519213579	14	-0.4161110274496813	0.1993833040352472	-0.7789122429703482
Si	12.312061647978611	6.915324600712172	6.775328786549026	14	-0.14729039625425897	-1.3768171287390798	0.7739317548546895
Si	13.646921080613089	8.173632015115118	5.50895981543163	14	-0.25225885627568845	1.5769419395486577	-0.9704215369626419
Si	14.838261864341318	9.692727512174972	6.824779555175473	14	0.8240060878488294	-0.30368764755248245	0.19356489269575208
Si	13.730944785555575	5.458083527630064	8.085102358757032	14	-0.9065138860145093	-0.6299855952903471	0.29334383373899464
Si	15.051417944215892	6.744082061641592	9.502904067994255	14	-0.47394289941577206	1.0150199298459306	0.004371136154783749
Si	10.948101961838308	8.15913104419583	8.153117647215742	14	-0.019721663358195838	0.48361488340910513	0.6703126109052736
Si	12.371294427496373	9.629578651245106	9.47345972365306	14	-0.8211390483063323	-0.4311741050783008	-0.07106123728038068
Si	11.098584353841392	5.2893315507964695	10.88239699755996	14	-0.23230450788601925	0.14904080475621578	0.10189033273214822
Si	12.282453450858666	6.8221415254376145	12.172491851040212	14	-0.19501448187525156	0.6629366239628328	0.39917901336384615
Si	13.63823688333939	8.242695961357821	10.860096634372223	14	0.7682095028541679	-0.39934819209391187	-0.5521317548646671
Si	14.834444094596467	9.65276381943809	12.292186305916356	14	0.11447692171640113	-0.6026066660676862	0.3741652439251895
Si	13.436681580200247	5.47940077414531	13.633567079145045	14	0.889353557776245	-0.8241793803474073	0.3453012442696111
Si	14.747749589360371	6.860597772610005	15.065066880685684	14	0.19211324663199647	0.05234924698140698	-0.8768728983311822
Si	11.130060472639073	8.252133881413764	13.738236234209907	14	-0.8993155624496907	-0.247457831311376	-0.08227331336048241
Si	12.289974293403246	9.632626312929839	15.251285563733921	14	-0.5318364779095464	1.1334787223716452	-1.0404527894517712
Si	10.808155303508789	11.11687032394978	0.18099177940614541	14	0.6212474367492918	-0.7636537613373975	-1.4802372691367163
Si	12.444929866266175	12.240244975052924	1.3386116612678307	14	-0.1679235164484473	0.7176091217115257	0.16411339547451986
Si	13.751377227065577	13.637745325003145	-0.09598495779116421	14	0.015054592981063045	0.6313786201528033	-0.038117664813323335
Si	15.192347719217906	14.995527761384608	1.5008586827850903	14	-1.8335135678883625	-0.9233296861398738	0.21072239271816423
Si	13.641464783080746	10.921705279181847	2.7954922582366897	14	0.21565685804859241	0.40634442678056676	0.8898250984919601
Si	14.990890727746013	12.323236407489292	4.295302283237786	14	-0.5556533978216741	-0.3733090658535802	-0.8502933257525555
Si	11.056162869423275	13.480282804625356	2.768030532518357	14	-0.5874929376642598	1.3672161072525828	0.2652437094740323
Si	12.215781755185699	15.101720747291836	4.198940464055499	14	-1.2395640705441469	-0.9544840264146401	-0.05106138032654481
Si	10.722804391058435	11.080003448731254	5.342206842498772	14	0.817262078594081	-0.8425393863280528	-0.011910388285053962
Si	12.078833602707284	12.427266536717033	6.687061294636939	14	0.19795042704032867	-0.4249916252254728	0.688287465308961
Si	13.521278769868355	13.748870279550717	5.500242847602182	14	1.0412937980019918	-0.10776942215719883	0.14330055501845318
Si	15.012617606208128	14.958136557274086	6.873919003522299	14	-0.04503419523505368	1.1872037678098633	-0.5795520788829824
Si	13.50038754057786	11.154458151394799	8.086069090151652	14	0.17425820573622816	-0.3988522258776553	-0.0066491354684349475
Si	15.015419488724737	12.331379890593116	9.45135598379982	14	0.144824963362769	-0.2958606887368877	0.5040196894508643
Si	10.902649201013338	13.645266167547723	8.309433198142289	14	-0.2926144111596687	0.27757473058946247	-0.28758892870090724
Si	12.292874487587103	15.17466800439089	9.536805207917421	14	0.021765434977181548	0.25198426222749665	-0.5829410528054696
Si	10.853722761278885	10.82019848274684	10.875547951408251	14	0.8630364950508053	0.21685525023831348	-0.36079961002893174
Si	12.058073455639786	12.544880061303065	11.872542954262292	14	1.2654183343119598	-1.3054363030674048	1.3256955845480434
Si	13.673268607435928	13.768122981053724	10.742925512288812	14	0.2095581962292012	-0.47250822264712944	-0.028683765172635996
Si	14.999706007242708	15.263902227697596	11.975082023203418	14	-1.4353761092897084	1.2061505000245665	-1.4815109947123175
Si	13.371845035649267	11.04795384520795	13.490834923576791	14	-0.002940830265185373	-0.04797451127917502	0.45998462574322013
Si	15.009389706466774	12.043064541106377	14.927528858203774	14	-0.704383870165748	0.7355207269243372	0.3091597310053536
Si	10.914512142194763	13.74847703288172	13.423425890399452	14	-0.2766005387836584	0.45294982447676296	0.8844468603832745
Si	12.227562769977752	15.134065285816886	14.860283677805183	14	-0.05831961064532284	-0.4811823606657129	0.9126117765023045
H	2.2972700294779673	14.127861756797154	13.931675909217612	1	-0.35856840483210717	-0.39256381648563715	0.0008268674709596221
H	-1.0335423651540048	-1.1284753881056004	-0.8648985311543841	1	-0.842665113378208	-0.7241376723404456	-0.04357226475001748
H	0.30280485071151453	0.1927121686700614	-1.3556802052301138	1	1.0438109101104167	1.675136822604157	-1.014697770349316
H	15.558032712302138	14.450189666096612	13.270036750101363	1	-4.392355229880399	2.890464111737396	-1.987319402134409
H	9.426835415460031	14.85836660029382	15.053646342006878	1	-0.1753444977339907	-0.08324004896085808	0.09621513195898536
H	15.086294008172617	9.629578651245106	9.47345972365306	1	0.1356540877963328	0.08767597696970957	0.12824930447430632
H	4.062606759497394	1.3469517677061547	6.725468385975705	1	-0.08620119095807265	-0.08493183626151553	0.0008458936503287181
