230
config_type=divacancy dft_energy=-23111.75722573746 dft_virial="-83.24753467563615 -59.086233801850184 -0.7942019943646191 -59.08623380185019 -89.72487053922296 17.09330222042042 -0.7942019943646191 17.09330222042042 -76.46688548756836" pbc="T T T" Lattice="16.3199774331 0.0 0.0 0.0 16.3199774331 0.0 0.0 0.0 16.3199774331" Properties=species:S:1:pos:R:3:Z:I:1:dft_force:R:3
Si	0.30927989233467806	0.065769509055393	0.16865064679365538	14	-3.122730310154145	-1.7093302093673384	-2.1454454646499
Si	2.335715170225272	2.4875888802177006	0.1100945677636926	14	1.1107979739004907	1.1477797243833727	-0.17829458397832862
Si	3.9082102758141892	4.020361160734453	1.4433714441382304	14	-0.023432539666765565	0.521985287875399	-0.5802668461619835
Si	2.6027263210082214	0.012468462758888401	2.7300711049187	14	2.707999966261383	0.21489015444212428	-0.7446034135782924
Si	4.136314600396628	1.2881847787268823	4.158346569931313	14	-0.816723174918978	-0.18187999034727512	-0.9869426884183174
Si	0.0313017167166858	2.7702019294266935	2.6656398340128216	14	-0.6497116295275871	0.46580329419324723	-0.4382513295825405
Si	1.315569700859624	4.176983984159913	3.953514533168475	14	0.35789194702237626	-0.3817998840628372	0.8989931458425442
Si	0.0874913990188491	0.3199041976436262	5.342524132477049	14	-1.2978032055929491	-0.7400307027664089	0.11323224963091744
Si	1.220897511770211	1.5520298538878101	6.934586891008253	14	0.7241494994249184	-1.1669516854241209	-1.031280628332675
Si	2.553766388708921	2.5231337910669924	5.351924439478514	14	0.7682570683025907	1.7482413172824594	-0.0048725016922126245
Si	3.990870961512841	3.8700052086433026	6.7488165878872755	14	-0.059127194826381346	-0.053702162600868894	0.3314154757670874
Si	2.5175523587848723	-0.0028233560959263003	8.075206433785045	14	1.3948032960061756	-0.32409271070477363	0.9289838038494115
Si	3.962784280350476	1.3697683459149492	9.518545237968409	14	-0.14627069588428826	-0.0074893726870593385	-0.48130628794214414
Si	-0.27557913893532665	2.752054114521086	8.029787936588729	14	1.5488649552315767	0.3324403183476984	2.027542287983869
Si	1.2649124909072818	3.9793980173773718	9.463089954650735	14	-0.13629532146317774	-0.11412648006126494	0.8413664480810011
Si	-0.0357733905333552	0.059600557585681196	10.743457464187163	14	0.7344508900006236	0.29820399412567067	1.1926863927945468
Si	1.4369413730295888	1.5292634853686355	12.196441375033489	14	-1.3557340651138654	-0.9072800753999135	0.1134016854715152
Si	2.852781015238179	2.7898348622787124	10.997836952436893	14	-1.333484233894368	0.03180868657874397	-2.2003419056719773
Si	3.882489991379624	4.310252919878607	12.216563907208503	14	1.4639596013548586	0.14505147774147403	1.1708646506108542
Si	2.6893527612231156	0.2197484961366915	13.603680389134835	14	0.27544534116331587	-2.2563881449932253	0.5965401430647967
Si	4.1441808295193825	1.3785484937739572	15.073343316917791	14	-1.004387638015522	-0.0651165846696663	-0.21817217038329328
Si	0.0291148397406504	2.871304189624748	13.569392116547892	14	-0.04442355772151851	-0.8539990598504849	-0.6967240331959628
Si	1.2226763893104189	4.210195138236272	14.921730726564292	14	0.5689449838847115	-0.034532772665440865	1.5126959311403936
Si	-0.0582786394136001	5.644884354380093	0.0584091992330649	14	-0.1752020584992545	-1.1353420023971563	-0.46271051160364113
Si	1.544995943614144	6.9388790450731594	1.1253277239219774	14	-1.7762859056725064	0.00706745430402304	1.217241991265153
Si	2.8307816856583603	8.301172841323748	-0.08548404179457779	14	2.269354229122732	-0.5801465184330007	1.1102773250731608
Si	4.217065848735607	9.431347598543356	1.4876312229367974	14	0.6121364679368151	-0.09065537381469717	-1.542744181906432
Si	2.587777221679502	5.656536818267327	2.692453556935405	14	0.9896955708846	-1.3210758225088013	-0.19814274571827573
Si	4.010308054635663	6.747592589579793	4.140476194642068	14	1.5473600872876938	-0.24696546464256758	-0.04887825479920707
Si	0.1201966337947815	8.453927830097564	2.396882445644531	14	0.26151303565449746	-2.146961902567723	1.4648106372158276
Si	1.4434204040705294	9.52097691460594	3.9830210523675196	14	0.5162090426631543	0.4763427691215983	1.081321279847121
Si	-0.0275481219070728	5.54200321664183	5.320802242513593	14	0.5251140659394873	-0.5730050162957574	1.1342454259781132
Si	1.5475745000485737	6.608774861533845	6.856740598652367	14	-0.7791996925451408	-0.19062483376216274	-0.12833826471838344
Si	2.6948362736406373	8.04326823794847	5.474879149459491	14	0.1810430955655669	0.9721410922007571	-0.045676200233494654
Si	4.071328450258024	9.306565051089873	7.013542941829591	14	-1.293652927385166	1.457681990605185	-0.971256631970626
Si	2.8386968747134143	5.17532596367494	8.27817799312051	14	-0.5919712889108937	0.4312406967060926	-0.6808423156334081
Si	4.0789009197869825	6.696951699604885	9.513273885257519	14	1.7325470332977435	-0.6012169836421463	-0.8858506838880752
Si	0.22626016713249839	8.018396592340425	8.191061953582622	14	-2.171150604309144	-0.7006567958936614	-1.641783930170132
Si	1.3893033589023698	9.214797817983554	9.556750305139298	14	1.0677147333823656	1.8538918915453244	1.8565972085631837
Si	-0.07782997237845389	5.5010727132396156	10.790948598517485	14	0.9872270526667258	-1.5906353893732343	0.4532987234687071
Si	1.2934398114603407	6.726295019029598	12.125628992951269	14	-0.35919909696713953	0.961412641031375	1.6489339169549322
Si	2.8741928256304066	7.813091276232027	10.929847926450599	14	-1.5043598934714093	2.3688909720448166	0.30740880828233275
Si	3.9616255619527254	9.443146942227486	12.216531267253634	14	0.36960641708203495	0.3794810041745956	-0.8625143035602831
Si	2.6008332036259816	5.570089897804196	13.657471034754334	14	0.11853643990638292	-0.021248642807831782	0.0013192341397679794
Si	4.111883594179278	6.846377412982348	14.980809044872112	14	-0.18832395161116225	-0.45654705793018213	-0.3896479259420572
Si	0.1316695779302508	8.309300190085432	13.708976883533197	14	-1.0067836510633683	-0.7249036046153178	-1.551804757054634
Si	1.5694106298540615	9.558627102544104	15.034061131236317	14	-2.25306704825119	1.5080383738529453	-0.8911661870269495
Si	-0.0041126343131412	10.94859958052123	-0.0756594153798516	14	0.6987487786355794	0.08101038642722568	-0.3613143453140254
Si	1.3191927358497724	12.21555206860765	1.4190709977403444	14	1.5737288292300686	-0.9188999287837907	-0.42008569916409827
Si	2.8075909977259252	13.31204239240534	-0.0934971507142299	14	0.8242380015487067	0.5960133235846985	0.8473180426760801
Si	4.236535581813295	14.74098697649271	1.4310335411988067	14	-1.6694857902210036	0.8281034012870173	-0.880985124180227
Si	3.0331657258062337	10.868713290986205	2.740874929979413	14	-1.7006223898690607	0.985322892066624	0.6155079583431253
Si	4.265340341982717	12.299077713110256	4.201006990941437	14	-1.8692740433441744	-1.6241119519731584	2.379934640726449
Si	0.0240230067815232	13.529016492378403	2.7214867967888896	14	-0.7845385927424283	1.3342964460650026	0.7964698069805756
Si	1.3033949976945316	15.137138108703777	4.082018035476705	14	-0.3750821000823543	-1.6843004990756967	0.44295722365000745
Si	0.18069479013928322	10.843580525739233	5.60290937242216	14	0.3573844108321791	1.042233279885974	-2.3359191174192375
Si	1.5065623967591932	12.291831643129958	6.882542482974098	14	-0.5333904539650439	0.23158382706478173	-0.12705631160575762
Si	2.7587453052686572	13.791980288757944	5.554585919242751	14	0.6758284031485873	-0.28502425114405955	-0.9937023814155188
Si	4.300819972922277	15.079659148184401	6.848188930477422	14	-0.8336269068462915	-0.3905735238573105	0.05013038309011919
Si	2.5632319756201194	10.772817103589311	8.281425668629698	14	1.2627996635433891	-0.5651736866011183	-0.28292288676590255
Si	4.101830488080488	12.007358116493593	9.530981060772433	14	-0.5964781794265813	2.082405561747317	-0.5429127996287443
Si	0.0272217223584108	13.660555510489191	8.142738500403214	14	-0.9885424301485137	-0.9563331653608905	-1.2306343646567406
Si	1.2730071997140993	14.800995533514218	9.527504905579182	14	0.6822435680328889	1.9052852015686998	0.3182678716019781
Si	0.0429868205587854	10.869545609835294	10.777794696706406	14	1.111290854790363	0.18664681961082966	0.15046931087209006
Si	1.4508786337574562	12.198644571986957	12.334312544388318	14	-2.347571109619617	-0.05725954392182578	0.43863313872258247
Si	2.5382950501023425	13.579412582691816	10.975853942834508	14	1.0039988868911156	-1.275213217139596	-1.898653549616442
Si	3.8954970133938045	14.940188621041127	11.999051247980145	14	1.6428964474421601	1.354076730624498	2.56574070889759
Si	2.784922549071349	10.875959360966503	13.645655371092769	14	-0.2843791608192344	-0.8624777938647371	-1.2248154390961814
Si	4.2638225840814385	12.002233643579599	14.804177929113672	14	1.2843966911221008	1.927241926781701	1.046438065526544
Si	-0.1434036417046497	13.684970196729108	13.718279270670065	14	1.5020404993621037	0.8859154757421429	-1.7754179005164246
Si	1.3791196929841154	14.821085425734363	15.190863474413543	14	0.7510257775574902	0.7318766993540913	-1.5836553526500963
Si	5.523643242029593	-0.0386620265390139	0.0508693696589727	14	0.1354702537659422	-0.3966683290187215	0.058322181750642986
Si	6.795573323233107	1.4307071416501445	1.4492303160367133	14	-1.0300277287101671	0.7012008417794047	-1.4473350914653131
Si	8.219279194564452	2.6188014987798245	-0.0821547663982254	14	-0.21944383907463852	0.38395549876324936	1.7360841028866711
Si	9.382159186559992	3.9795612171517027	1.6546172320322767	14	0.10492680811524312	0.5777523051588788	-0.8661220785455152
Si	8.168605664634676	0.1088868894336432	2.535602253825881	14	1.2330674016211967	-1.726219543104859	1.2752394424138616
Si	9.375973915112848	1.340376066557936	4.29073422686862	14	0.23710913239777998	-0.30439984372616347	-1.175982692861141
Si	5.396657497622642	2.781642233607297	2.8294597674862794	14	-0.44902271821076883	-0.5929056285842355	-0.51557937897025
Si	6.778013027515092	3.910756192293753	4.253818437914949	14	-0.9349068591754366	2.3465089860118638	-0.5352614473065156
Si	5.630539094216398	-0.0482744932471098	5.295555237424588	14	-0.3293233673680829	0.3899551730278149	1.0497743317899684
Si	7.039736505609716	1.3424323837145067	6.66302246652147	14	-1.5459655197620454	-0.36966555250439836	1.2894244875756506
Si	8.215019680454414	2.908203658600987	5.596185541719723	14	1.2477756667156357	-0.304061486266032	0.10323476370405366
Si	9.612270868366702	4.325920098214384	6.831722073247424	14	-0.39443815226402507	-0.6499237457164995	1.6529394419331904
Si	8.198210103698319	0.1701520847175006	8.290630135901965	14	0.4698468715302442	-1.7347730962839276	-0.8258536841318879
Si	9.659696722787292	1.4829473894134977	9.456757803406692	14	-0.7340389989283359	0.8226937956934258	0.27982881862363634
Si	5.385151913532306	2.5492131150050863	8.069347561886563	14	-0.4923738679032535	-1.1311320745459459	-1.2776128297348903
Si	6.828327517941339	4.295515980256519	9.642544426505104	14	7.357519978478845	9.06867233018657	8.640388147488117
Si	5.294853478394964	0.121910231425257	10.890304621130197	14	0.8211704157912382	-0.8835639428163357	-0.08777136497708707
Si	6.7232431832496085	1.522637574530797	12.18002347773579	14	-1.0831706759039035	-0.09604595322891962	0.24404391766728337
Si	8.10218335648196	2.770463049065623	10.823996552819512	14	1.0695142499959371	-0.411694896951795	-0.3659970994336111
Si	9.522347792710322	4.035555059724668	12.217673665673953	14	1.4486993199481837	-0.55652191719882	-1.1060375724002365
Si	8.224126227862083	0.1953338098967739	13.334123321872323	14	-0.8412006117878517	-0.49861831139429724	1.261064167452289
Si	9.508883811328014	1.2266421438266624	14.946194372736509	14	0.269405300545224	2.009399540402776	-1.6393560354163164
Si	5.2216583796075104	2.8376034362253963	13.55842509171285	14	0.7804577343782894	-0.4160428931586974	-0.025044108481434377
Si	6.797858120073742	3.858499624552967	14.963085549379768	14	-0.9450529549898049	0.7593404750523172	-0.144425927817082
Si	5.3822469575492145	5.333597104821143	-0.105590253992157	14	0.0018152003560245437	-0.7314576091869072	0.739094049098279
Si	6.938634245411662	6.533817205183617	1.1766377329716438	14	-1.0933522529716901	0.9676833097966844	0.5435740879170864
Si	8.156169841830655	8.261792735777677	0.1910253358544355	14	0.366516976929345	-0.6260893422881948	-1.0484648678504167
Si	9.453787567513869	9.62531053033575	1.465876693018475	14	0.7303036971192247	0.27985890055588203	0.16223777414347185
Si	7.961864190512166	5.555548797911303	2.971117171605587	14	1.2086848385386364	-0.8866621247271139	0.021260212781772453
Si	9.398560763880258	7.114269842546684	4.229338471765298	14	-0.43577921181721807	-0.11908871332915073	-1.3065215666230392
Si	5.53526306596196	7.974234733406456	2.6789242956433648	14	0.23209110614444695	-0.4194637487871544	0.6720653334020186
Si	6.736299165196089	9.532613058515743	4.131908206489691	14	-1.6905287446032238	-0.6532615546431156	0.6155002450271648
Si	5.371002493097809	5.320704322648994	5.645879873003512	14	-0.19300927683606808	0.014425700619754827	-1.7700322062023104
Si	6.718673589568341	6.764549046132784	6.809820663532204	14	0.1939991523843251	1.1451029466345666	-0.42087837093429986
Si	8.027601059612692	8.454760148946653	5.640967559796149	14	0.43243009002719324	-1.985500088009872	-0.19867367896688634
Si	9.686135086228914	9.531503300050291	6.790318290499649	14	-1.3814947406480251	0.8495047677508659	0.5334935552883818
Si	8.016307635228989	5.660828972332231	8.275305677092286	14	1.127593205183294	-0.7656476535131723	-1.1438461903540782
Si	9.233647391918781	7.068361746027374	9.684666288259933	14	-9.149950111567094	-9.163212901250546	7.560169871823341
Si	5.499865034909567	8.117752614953137	8.229022221092013	14	0.6660255498944588	-0.5629270547723729	1.42109413345735
Si	7.063857432255839	9.460984677561864	9.672050945704148	14	-1.3464140654388606	-1.1790405084183933	0.36577109927597
Si	5.464744443473535	5.560314231321769	11.042031451325727	14	-0.4592444045215495	-0.12284509820188706	-0.5172811935816561
Si	6.9406742425908	6.720191347469619	12.437144722194281	14	-0.9060716558994438	0.021802458893791683	0.04404431968679667
Si	8.461402379761923	8.265889050113385	11.580802866324658	14	-1.265973178840048	1.3162033208165886	1.5795737229543612
Si	8.176586133599464	5.0696704297730495	13.57880874352679	14	-0.5873713243826167	2.441362460593299	0.9106644213328244
Si	9.35971921758948	6.74525883280686	14.979128087196504	14	-12.290140797950365	-18.232697957828815	11.714116532677158
Si	5.301871068691197	8.300438442339258	13.625940838353584	14	1.963196520689183	0.11858837623384992	1.1527699826992481
Si	7.0034408757985025	9.595281771858845	15.009466925244638	14	-0.14753953635978131	-2.313595495477052	-1.503327851795902
Si	5.6863207770827335	10.73870835075413	-0.0726075795998619	14	-2.55233393731621	1.4237745107536042	1.9682888518862685
Si	6.867772903397142	12.122071237870852	1.5167623826548808	14	-0.7621231823403134	-0.3053850912848442	-0.28546442437486885
Si	7.988645273479883	13.125602970209606	-0.1975696468051086	14	0.5261921304002253	2.4823373947489027	-0.3606687407681362
Si	9.431820877888915	14.739028579200738	1.152353606551191	14	-0.1471011629026961	0.8519617159947994	0.20388865188774266
Si	8.094415047223803	10.79971242639906	2.9611946253262627	14	1.7973939090193263	1.5188105338127695	-0.8916711521118266
Si	9.650329055740691	12.352182919677562	4.033482422590665	14	-1.2826851063104783	-0.8493286470364358	1.1182459517918957
Si	5.5108810196769085	13.470868412784268	2.894331677782852	14	0.8733543407005595	0.7395005408493944	-2.1300106051919867
Si	6.86255051061855	14.967753062925635	3.8636567374218265	14	0.7073072169147563	0.5659126222701288	0.550114465630479
Si	5.489224409623184	10.739916029084181	5.809928286161034	14	-0.9048526948671616	0.3273999234780801	-1.9943518894060779
Si	6.9779327510705675	12.137232496906202	6.799098438358657	14	0.19548370859617858	0.35963669909262874	0.376396192011482
Si	8.077458590670814	13.674427491307323	5.368554496482844	14	1.5424348779364183	-0.4371794357745707	0.41406905560441976
Si	9.595804011136705	14.847425869311387	6.887193676542531	14	-0.8652378754259161	0.6915419704232043	-0.05372915920673046
Si	8.273298319868013	10.772327504266318	8.262771934423665	14	1.2185828226896103	1.343834218360624	-0.18227851167189807
Si	9.72644543048867	12.21072135528745	9.635624756073469	14	-1.2894579119448124	0.6142663715840259	-0.6707584405677873
Si	5.586001875801467	13.479061041455685	8.112334382445349	14	-0.582271022759039	0.7282272724626732	1.37498213087209
Si	6.820657128547782	15.076427792652646	9.656498007210402	14	-0.12922709582755865	-0.720429367137196	-0.7404361660753963
Si	5.417351229007813	10.684444425789072	10.773812622212729	14	1.0451815663565878	0.28617302100110176	1.4054088483412543
Si	7.067562067133152	12.12742419046891	12.119998600736848	14	-0.84693906175189	-0.23421098248090905	0.1329127753039909
Si	8.345106220573653	13.699739776306062	10.939933672504255	14	-1.0569310034486004	-0.911682579039603	-1.4179082768551543
Si	9.542829364388862	15.146456815818077	12.13158578471435	14	1.4372383608730914	-0.08365065448048574	0.2076756329137888
Si	8.887468030607865	10.368212223067895	13.005308416550225	14	3.177991848131684	0.1478727516092725	-3.7805923435466022
Si	9.51244156640843	12.053967972042527	14.70039919261659	14	-0.3209148245290706	-0.45712735640093954	0.5292167786988474
Si	5.553769920371096	13.612509496926142	13.394980517720352	14	-0.5523901509493421	-0.2984546768943851	0.109665355220276
Si	6.893281028125077	15.074045075947414	14.748608405953968	14	-0.29354386573290225	-0.929271253424204	0.6354427663323614
Si	10.7503281746865	0.1416900440741742	0.06501879009347039	14	1.5056904404745861	-2.662540253095845	0.6854127124505034
Si	12.268820474949287	1.2729908797366662	1.4822129904290082	14	-1.293982800197741	-1.3298090959497484	1.7220852057500609
Si	13.557152133473068	2.3056537717935015	0.0879157184321097	14	2.2963505778737545	2.404156766837032	-1.9911094684868387
Si	14.91903793028783	4.013229330596188	1.241933962681477	14	-0.14885234273624892	0.342365041994002	0.4015734837485
Si	13.68098812223543	-0.1192174351487955	2.9036993448294512	14	-0.447029083145526	-0.31189230173960697	-1.8744561061169325
Si	14.864414965819245	1.5095652726068838	3.9249545726605497	14	0.6746564933436638	0.03491406758441882	1.245381453441514
Si	10.830067584424624	2.527654424815961	2.8842948916614954	14	-0.3533282350791134	0.5068975276357061	-0.6869088386362975
Si	11.988639102377826	4.123650297908542	4.059659666393357	14	1.5441050679523864	-0.08728876850849528	0.4397639108423836
Si	10.828223426974684	-0.08979251583691619	5.365339460928523	14	-0.6536528768728421	0.14943778341764666	1.4324352790245232
Si	12.186094509340903	1.2746065575025431	6.713679676473812	14	0.9040098865432172	0.6071693495688211	0.23278581880195096
Si	13.533994085495499	2.798566050205421	5.40054165225172	14	-0.47208630426409315	-0.1443842759108956	0.0561989629772647
Si	14.966953384031411	4.131761326692794	6.7564706573033995	14	-2.1846139402075675	1.9834894836495163	-1.351004002656389
Si	13.691857227205876	0.0082089486488493	8.10797694847071	14	-0.07633406007094035	0.8793481014228889	-0.2535366956198021
Si	14.929776475438809	1.4865377844487797	9.532351938876813	14	-0.8363494502697963	-0.5566515009069556	-0.5217384617646648
Si	11.098074253830994	2.810120594228056	8.172408219376589	14	-1.2838166497618755	0.1799354633936471	-0.8165617095048727
Si	12.176204603016444	4.23903253836056	9.636440754945124	14	0.38770031366204505	0.19387599643949	-1.6757682860707857
Si	10.985156329971375	0.1336442951996559	10.73438355673436	14	0.1314624147928954	-0.26145595711639014	1.2071925690108223
Si	12.376826085601543	1.382122568831806	12.21266343260199	14	0.09088985861989467	0.572512392516417	0.8504990141781672
Si	13.60953926103332	2.9442381687732717	10.773404622776901	14	0.7402014241596668	-0.8696763745400877	2.1175140048939394
Si	15.02991585696831	4.227592234179957	12.294850838955082	14	-1.586311304445809	0.05923800946567973	-0.4316505308941243
Si	13.71266519843308	-0.037862347644792	13.912242202462457	14	-2.1227135511828745	-0.5823615256663083	-2.2814690202807384
Si	15.327526965438324	1.1536755247232722	14.749277525028724	14	0.1704270016986755	1.3297957262020836	2.555933998985481
Si	11.01688236610132	2.8445720665893304	13.649816965338209	14	0.011234444696387031	-0.6728163532660338	0.4022481417845069
Si	12.307841540991829	4.1036583255529955	15.405960776981802	14	-0.26098261662695094	-0.10181268535147975	-1.7007383467189994
Si	10.70869591225466	5.490317848111203	0.22162529354149801	14	0.7864630650745592	-0.17097336157920695	0.11332686630669887
Si	12.29251708218215	6.937655046765676	1.3768675360983476	14	-1.508573163759536	-0.1293685066201668	0.15161165296583184
Si	13.564904122753791	8.241490683850902	-0.0030028758476904	14	-0.3374197780212292	0.08683162598257294	-0.1188902239984353
Si	14.985541838327713	9.585897784834813	1.1689673435780867	14	-1.232657310322633	1.1156370512235416	0.32825224489170923
Si	13.440284775074637	5.431990248765303	2.7013153046815783	14	-19.808823314327796	-29.481859661068377	-17.924392090900284
Si	15.032624973222205	7.084436923798977	4.13079844802424	14	0.9226421725772662	0.99677922315214	-0.4041877836380266
Si	10.93012536606696	8.333649596415617	2.7491981184702934	14	-0.22253893565903282	-0.3957848972307187	0.5290465715266537
Si	12.331081188856563	9.713976967729781	4.0882196269012825	14	-0.7465034604098817	0.003401829449087924	-0.321945580651918
Si	10.674440279622583	5.5500979254486476	5.262442003212827	14	0.9592027760087081	1.1117839927907676	1.0157611795097294
Si	12.177477561256227	6.978536590235592	6.702337292157807	14	-0.3337850064301358	-0.6520377085107252	-0.8627194777648312
Si	13.633284828198478	8.439354090249806	5.4859277741816985	14	-0.13884765771448873	-1.0099890480659968	-0.3383698014370239
Si	15.147125934892836	9.55918198177683	6.78189718214417	14	-0.1694306983871181	-1.1987588293396727	1.904291469362463
Si	13.335543159909003	5.578886365640636	8.066671085587535	14	2.4076102755030546	-0.6839957763085698	0.8100187606861599
Si	15.00217189533204	6.815614255520955	9.539418489105346	14	-1.4680330035135691	0.23643061770379287	-2.192860760521943
Si	11.07142373068274	8.39362551348226	8.15608824194349	14	10.923103639628064	4.654879481257311	-7.75269578085922
Si	12.185849709679408	9.668509510601165	9.650329055740691	14	0.40919192592263076	0.3426447782528341	1.0166952620725391
Si	10.825954950111482	5.575965089680111	10.832825660610817	14	-1.5411912342930627	0.1926169261642135	0.7882155304607721
Si	11.99939396750624	6.998610162478305	12.190990502570834	14	1.8520095853404437	-0.2259417935502488	0.6360138088239663
Si	13.657993274032192	8.209046568713898	10.76666447209703	14	-1.3334199562613644	-0.5484956977209138	0.6110692021184216
Si	15.004929971518235	9.528957383570727	12.007733475974554	14	0.15994563375055984	0.2732439607882051	2.2847268678318975
Si	13.603957828751199	5.560869110554494	13.743085636368377	14	-1.0193710113792172	-0.43256224484064876	-0.3198179909994955
Si	14.90652050759664	6.981017226805423	15.03216801385408	14	1.0966422393393513	-0.20364696798764875	-1.0197335372293581
Si	10.755681127284555	8.540864349883687	13.478114482764564	14	-1.164086959876412	0.24969032206086053	-1.9184757431926556
Si	12.21791846533545	9.410898666819682	14.839347480482003	14	0.6400414453079782	1.9958112487857935	1.7421940775694709
Si	10.793722994681112	10.959713485153172	0.0115382240452017	14	0.4450740146600854	-0.9687348918726248	-0.8572720769230333
Si	12.236033640286191	12.298131154419135	1.2309342978915676	14	-0.6861506196773859	0.0406556028748415	0.9724154291384168
Si	13.654761918500439	13.495935898121509	-0.0370137088182708	14	-0.04049979389244053	0.749232945817751	-0.33569328079874977
Si	14.945949573075012	14.94041710072519	1.2522971483514953	14	0.8791490978711092	0.3596320711030525	1.2369687968339895
Si	13.556499334375744	10.951096537068494	2.5306409806862185	14	1.0358952481612769	-0.2398512162217179	1.0521528613216373
Si	14.978769047692976	12.13990897320523	4.118672704791447	14	0.16560257967594966	0.24041403117629828	0.23551170466237195
Si	10.924674493604305	13.675814689389137	2.6806052533189746	14	0.20370301808362798	0.052540280106693975	-0.8098791496672758
Si	12.225670454616171	14.952820283574347	4.149582742049739	14	1.105038955093891	-1.3495325590816682	0.5396323263507673
Si	10.937240876227792	10.967873473869721	5.547829448585447	14	0.535770526159905	0.931894037961287	-0.9504872431944699
Si	12.268167675851965	12.241076513313018	7.047929134281133	14	1.0271205799246756	-0.995613483999985	-1.1457935455235582
Si	13.766455844052576	13.478848881749053	5.755631721241109	14	-0.6598093885619367	0.673305120387394	-1.9136896306392004
Si	15.131116037030964	15.138362107011261	6.719440628507696	14	0.035366582120764885	-0.39135462565357154	0.06282033050824204
Si	13.672224294353855	10.784959166799537	8.244722039382655	14	-0.09052758988028581	0.550911765390257	-0.28033404081904545
Si	14.993865026818593	12.262472003727812	9.475297297770695	14	-0.28733696037953277	0.41630257479603233	0.5522831929680239
Si	11.057257990270811	13.593774162832945	8.295787248770825	14	-1.3199977580480633	0.3462654087646666	0.2993059698658861
Si	12.324226798334662	15.097709043225409	9.447945015592818	14	0.4310226669749441	-0.8466534119508218	0.8703235217491689
Si	10.727725005941654	10.904454041564696	11.190804365605867	14	-0.4632794972109899	-1.7140114208237318	-0.48855757627655777
Si	12.088827443839628	12.247065945030966	12.26919583443025	14	0.9349323131181061	1.7370094436913925	0.6931792502910746
Si	13.54274159339964	13.62080004546216	10.965458117209621	14	-0.11654846127284442	-0.21276667855821396	-0.986725430018765
Si	14.853578500803666	15.162760473273746	12.200521369391764	14	0.7339747212953321	-1.0055724033470466	0.5957991505115301
Si	13.525752496891783	10.847529960278042	13.405702742893899	14	0.6318290778048933	-0.18045739777363717	0.6966021628037877
Si	14.928862556702557	12.242528991304564	14.83796028240019	14	-0.7242927099912506	-1.4174431639027394	0.1849807433633737
Si	10.648344635707057	13.662105908345334	13.636059224362105	14	1.6894709918745143	0.9287269504279286	-0.5514838363239899
Si	12.187367467580685	14.846348750800802	15.094004408348095	14	-0.5092004666709626	1.0607989742922312	-0.2762246431858527
H	7.975310219919297	10.463276091615702	14.0595871187172	1	-2.96196346536433	-0.25885142742708017	3.3750251619043157
H	13.91387583220351	6.115862583121926	3.1096672520216333	1	20.39305274800919	28.58025221533631	17.6617781079477
H	9.886160889637704	7.488945516453538	14.508014402641976	1	12.797335031140017	17.626713630702053	-11.48254478980738
H	7.764901646867569	5.111105220477947	10.535913047174944	1	1.1970349032225134	1.116376501113616	0.9829505331877235
H	12.482347795688483	4.6161268329229985	1.7370445420536347	1	-0.5081956787118488	-0.5315413150187933	-0.6475377599794019
H	1.087168352687903	0.9039749740036122	1.0259651733182913	1	-0.8028788012121086	0.6910999974186708	-0.15923009513996264
H	-0.9212121341684524	3.750167614352049	3.5607041003379614	1	0.22492826383304643	-0.20798287999954643	-0.35837300082777596
H	10.158389537206014	7.473609633659654	8.9981745975253	1	7.524531780980768	-8.188917737012568	-0.64409839239264
H	8.468340002168736	5.933982962620999	15.856114714518998	1	-1.2965983856399277	-1.0751318580099287	1.2153527430759083
H	3.283114340182877	3.4204485822801565	-0.7229456243269504	1	0.30915484590524533	0.429041373215238	-0.42888582134336906
H	1.8004656063564046	0.9640373869506501	1.7002234089690744	1	2.012364539057971	-0.4316415320255038	2.278781958110651
H	6.2513967317083345	3.5627604174945318	8.99306154859551	1	-7.7312131674672555	-9.487186569778997	-8.55811920500668
H	10.084593863249022	8.067110092980485	8.782971215103727	1	-8.128133721917884	8.606242583283892	-0.04305907212811592
H	8.96264111066021	8.45187967292971	10.137114814624226	1	0.5637868323914306	1.9464933349768414	-1.182646226519369
H	4.284406971617808	9.558627102544104	15.034061131236317	1	0.3349664293247439	-0.22883814369339558	-0.24637411041893356
H	12.441441772252416	12.21072135528745	9.635624756073469	1	0.027806504037401474	-0.07375626987695988	0.10801264872048483
