227
config_type=divacancy dft_energy=-23073.62844541412 dft_virial="-54.021699475977314 14.120033447547852 -8.971688860963138 14.120033447547852 -53.945871144857065 -10.731704335911864 -8.971688860963136 -10.731704335911864 -67.22780198528649" pbc="T T T" Lattice="16.3199774331 0.0 0.0 0.0 16.3199774331 0.0 0.0 0.0 16.3199774331" Properties=species:S:1:pos:R:3:Z:I:1:dft_force:R:3
Si	1.6033561829149094	0.9948005444120437	1.4108294091366287	14	-0.8413728758443015	2.173269452203478	1.2053020352689174
Si	2.668397910199016	2.6987204282697155	0.2206950548278113	14	1.214091358805844	-0.4568702458689247	-0.8411579314395371
Si	4.093670499363938	4.148652503336052	1.3712697838387944	14	1.7790177050751639	-0.44982773128650716	-0.7403384640732307
Si	2.826310011841691	-0.18435046508429762	2.8978404729309686	14	0.33236447074075404	0.7399299154378591	0.8078842290493728
Si	4.0543719937050335	1.5784355773745657	4.071132610528827	14	-0.15806307043514742	-1.143339682606009	-0.47814871349847027
Si	0.0600901569086742	2.6321512403201006	2.6225877335443037	14	-0.397527078195651	-1.3069450276692676	-0.028919278419961558
Si	1.404823657441248	4.017570444593392	3.888495743075005	14	-0.0021766977640373638	1.4603595396855873	0.35883837089072274
Si	0.009139187362536	0.243330863527521	5.519661167535916	14	-0.4790480861394581	-1.5162553693456067	-0.1669264418052939
Si	1.2754878362839306	1.7098766756207533	6.779857184965032	14	1.4819246855583292	-1.3823475762827182	0.1784419083131731
Si	2.7731558453420844	2.970594932327728	5.448685585679365	14	-0.5709902981668894	-0.6784326757273653	-0.08989046998195312
Si	4.150072341372732	4.06183022339196	6.911918442353677	14	0.6777153373430439	0.6666112476863885	-1.1386222185646013
Si	2.882777133760217	0.30315990079726557	8.281131909035901	14	-1.8294329666347555	0.8528996552155894	-0.526726663196284
Si	4.171990071065385	1.633972460579405	9.719411520215004	14	0.9429364210902591	-1.7947258730286084	0.1537083893544126
Si	-0.2162560209660081	2.6494830563540526	8.195011388121433	14	-0.0008615773927816213	0.2984999283480197	1.0314842598740308
Si	1.2438923599734488	4.002637665242106	9.507708772952832	14	0.8009874961386076	0.35301121779313915	-0.7414666650877118
Si	0.17747975458496248	0.025393884885903602	10.94691862284562	14	-0.6671686633197966	-0.8527379326909522	-1.271668434234708
Si	1.224667426557257	1.5147713454080427	12.272019190526176	14	1.6066631457179734	0.26305518462552224	-0.16695755217966768
Si	2.71306568843341	2.900043669884437	10.962014601971237	14	-1.0868455567379913	-0.5349254038411723	0.13489304062156895
Si	4.062303502737519	4.212039295686212	12.270240312985967	14	0.9190194851811776	0.8349816222394775	-0.42685053437193987
Si	2.463533233481311	0.2266355266134597	13.783314380740967	14	0.14685125146557768	-0.8116493556801978	0.2536842770651786
Si	4.118950144407809	1.4124450869025056	14.986635276815731	14	-0.9526652265111674	1.0453006085329106	-0.5869365504729797
Si	0.0244962861270831	2.6314005213581777	13.824962963150238	14	0.23299922054352323	0.7967279459547183	0.30551493210351166
Si	1.532625400719854	4.0646046195555865	15.045566715326654	14	-0.901405871074971	-0.042695003614782956	-0.00450329096823936
Si	0.2561583657899376	5.578511006159675	0.0341413927900452	14	-1.2218648386307795	-0.6160987983456954	-0.6522012308090867
Si	1.6409084509884726	6.8501799677242605	1.3041946765887533	14	-0.682454912890205	0.5230435548251718	0.4625886412114661
Si	2.729010306385549	8.276203275851106	-0.1215185519668626	14	-0.021379512068627322	-0.8605864887912362	0.06287020995145291
Si	3.7923710759940454	9.492824953533844	1.4007110231281068	14	2.2220854862539374	-0.2883147517327851	0.5877418206592502
Si	2.9136708510410756	5.541170897792742	2.6298174835471673	14	-0.8393902965319354	-0.3169560936676386	1.7534290364869223
Si	4.278559523703527	6.782403101444595	4.091124582884374	14	-1.072932277408542	1.1203414026278165	-0.9452846115791502
Si	0.3264648285717324	8.118421734027894	2.7911894204056598	14	-1.708043885375668	0.1792770033211572	-0.817451569056176
Si	1.3357085530120696	9.4842243254266	4.317972269204464	14	0.8996040404666114	1.3511202166168597	-1.6093162692978342
Si	-0.065116709958069	5.417024829459151	5.323756158428984	14	1.2913044797857427	-0.8426430018724549	0.8655857459757321
Si	1.3797724920814394	6.76205208958552	6.764695925929682	14	0.2185298111333259	0.11557452657757235	-1.0259072753240976
Si	2.9579469498170754	8.362030037171778	5.353230037673163	14	-0.07566531557716984	-1.6924581020354628	1.3800317817208607
Si	4.023641476198505	9.68912164209917	6.979222029287782	14	0.6806595100451456	0.986570649478492	-2.5872634315325493
Si	2.821479298521494	5.450382863332407	8.070473640329446	14	-2.041694937218624	0.15730845102368396	1.2178446583521958
Si	3.8328119800732674	6.999622001079157	9.492367994165717	14	1.7044551365698055	-1.1800761496413488	-0.7505244120200614
Si	-0.14772843572442118	7.9037813908277625	8.142412100854552	14	0.6716968940096414	0.09573767770103388	1.5462169738623561
Si	1.3658352313535722	9.170309559500922	9.743956766274385	14	-0.6931478828061688	0.4740233750122927	-1.0364837741690587
Si	-0.0067075107250041	5.252682656707833	10.971643388656767	14	0.15774656737023718	-0.007684776691390594	1.2496068079246454
Si	1.4223349932269642	6.792701007204881	12.193928098508792	14	-0.6820365940546169	-2.12825762558471	0.9852593857652167
Si	2.87952945825103	8.070832679832975	11.161150966609926	14	-0.2857981538454241	1.8970288681646403	-0.1790934264012986
Si	4.04477584697437	9.805238281535678	12.272394550007137	14	-0.7124537984340967	-1.8447179306525037	0.8477438177170966
Si	2.7947145355312095	5.506246146085909	13.74073555961801	14	-0.2630402722146654	0.12845345023672608	-0.8134236754616319
Si	4.1452579480299665	6.944509437287579	14.964195307845218	14	0.6574856235735869	0.19855489390109549	-0.22846687608516622
Si	0.1181729565930771	8.111959022964387	13.49399382080697	14	-0.8367909090532657	0.5456206877519243	1.1545466164754705
Si	1.3529914091137225	9.509830370019134	14.947157251405061	14	-0.29864622424073606	0.7519027815821928	-1.1673782317967336
Si	0.019420773145389002	10.808541534190367	0.0177071755149135	14	0.3618676471789212	0.7735589445832679	0.9852349602646752
Si	1.4991694469819992	12.421118504354977	1.4311477810408382	14	-1.3368086730733195	-0.23159822525457457	-0.4179025736367605
Si	2.834127281032146	13.676793888035125	-0.0611183154869595	14	-0.526917696321571	0.18590582705756298	0.5981421987897811
Si	4.1603702471330175	15.019568991275726	1.3760025772943933	14	0.9905669184775983	-0.621267234260257	0.05919507200683325
Si	2.8031682838415555	11.034964901097196	2.7663340947750483	14	-0.7681349407998836	0.2877437092411802	1.485043179201137
Si	4.167028797925722	12.585101637602767	4.165527360001877	14	-1.2693058455560238	-1.2149030567554147	-0.11883365968139205
Si	0.0290332398534849	14.042769381972391	2.719577359429217	14	-0.5938723641846112	-2.3674285273387166	-1.3917987023290506
Si	1.329572241497224	14.907124346761668	4.311427958253791	14	0.2621334433682492	1.9293450909335819	0.10269303181309845
Si	-0.080783888293845	10.846126442218795	5.442565594141952	14	-0.951634213277788	0.9068776974173104	0.7448188722041207
Si	1.1349238706526403	12.190517223225275	7.0125963831384714	14	0.5330718940158775	1.0400200724263904	-1.316137500520393
Si	2.7278189480329322	13.715912873942264	5.6719918368964715	14	-1.5167675335253799	-1.9580211427902572	-0.05391736411616529
Si	4.21192505584418	15.173776458041088	6.394852597340771	14	8.349746802551131	-18.598344615607292	-22.6118155948579
Si	2.417951536510663	10.745921780779561	8.183979083376656	14	0.903121826765638	0.4955959770904631	2.367846331953241
Si	3.885623427046779	12.392509583914752	9.864577719482428	14	-4.890029431401138	-3.4115644251616004	6.709381865407189
Si	-0.07130198140521389	13.607042304486054	8.373307141578051	14	-1.600560113019538	0.29967878013730753	-1.3429011642399422
Si	1.4772027573570465	15.020972509334973	9.269828781887965	14	-0.39416510087902534	0.9219019513555956	0.967385832911143
Si	-0.08076756831641191	10.67747579542514	10.797835628994253	14	1.0604019956308004	0.8949395411947987	0.5369799741025025
Si	1.2496369920299002	12.17675948224917	12.394631180981056	14	-1.143232981735223	1.0528807412377712	-1.6694978744160083
Si	2.48411272502445	13.80807178650698	10.919811140329243	14	-0.18772025608199147	0.1744569521774756	1.2216285540518579
Si	3.8631344981439675	15.154453604760299	12.380563360433724	14	-0.6044743169722419	-0.3761295683897826	0.09134314448783676
Si	2.698328748811321	11.073169968268083	13.682962839504835	14	1.0075734946177177	-0.622900657470147	1.3370747824739548
Si	4.317809069430133	12.230827567485031	15.20432745579585	14	-1.3659133281868636	-0.5565286020726525	-0.5356571404152864
Si	-0.24001790810860169	13.477559603531839	13.750152186596909	14	0.7082127602085125	0.5624526858408055	0.21488166979456777
Si	1.0389297633911458	15.08081786658215	15.41758060091417	14	1.5507955982164758	-1.6201779037228	-2.5672175517934837
Si	5.445927509493171	-0.0598779972020439	-0.2401321479506334	14	-0.3498176478749832	-0.3313637965501524	0.8622003716006931
Si	6.7470540303245015	1.5046366394220876	0.7762270866505353	14	0.675614487185951	0.2664603565115264	2.9087940357857955
Si	8.585058848772523	2.720523918120337	-0.0330642742794606	14	-0.6388152851807996	0.08661719579887259	-0.6959935821745087
Si	9.843818708187527	4.1192928639339055	1.5076558352472111	14	-1.0810263740669002	0.8503460334116184	-1.1673800315704574
Si	8.143554499274869	0.23544831442733372	2.432508956380988	14	0.8131619369400408	0.09974654511620876	-0.3486285116644148
Si	9.45685572327129	1.4660725327476722	4.103364565959199	14	-0.26152614829163023	-0.5885141806974227	0.12074836181330634
Si	5.5175232504921805	2.6990631477958105	2.689891320478408	14	0.26405688725825194	0.6138459958641816	-1.50055080093961
Si	6.837727824942805	4.184948133147267	3.9847672899528614	14	0.5327877868780011	-0.750413597380763	0.5713271129638287
Si	5.668891041184183	0.2421068652200385	5.069556189931019	14	-0.36289377531219236	0.18106083619227592	1.4357813154881636
Si	6.911069803527156	1.4354072951508774	6.752031623441597	14	-0.706711234701546	0.2645852494015424	-0.3694601211893185
Si	8.32860672338879	2.9590403883050933	5.596658821065282	14	-2.018110188116906	-1.5012555409078625	-1.8516177488896532
Si	9.685514927086455	4.236992541181422	6.7136307165415126	14	-0.10955942568108591	1.4040145379261382	1.4730929387836207
Si	8.100567678716082	-0.0102163058731206	8.07723011098675	14	1.0086659572682486	-0.699889063845065	-0.06168441617780063
Si	9.382583505973255	1.480058753407839	9.4096746685122	14	0.8259873816085355	-0.24295402612207256	0.2087251581054732
Si	5.511990778142359	2.75970818393721	8.177940691726409	14	0.8074216872022784	-0.4813430547482222	0.2844310971467014
Si	6.817360493106296	4.252414919855702	9.455648044941242	14	0.500718390219794	0.44793436932875014	-0.39918929778512674
Si	5.481913059733156	-0.1248315073857819	11.064242940612177	14	0.08793642993864056	1.5058434212411347	-0.7738605352373213
Si	6.921808348678136	1.4926088160538928	12.154629592849888	14	0.39210204597013854	-0.3968873871919982	-0.02991609595258297
Si	8.34908829506733	3.0713055130673883	10.827032068622067	14	-1.2526363413233756	-1.6631971237184533	-0.06070276816656808
Si	9.642903466008631	3.9746325839669066	12.470698595796733	14	0.4408219206816245	0.669501684287299	-0.4187633796979461
Si	8.384861685600685	0.1166062387594995	13.581942179193947	14	-2.7403223596830926	0.20454582640757252	0.06726654293837411
Si	9.840766872407535	1.0853927391431817	14.963575148702759	14	0.41266677476281094	1.471990448822341	1.0538251082218615
Si	5.466670200810641	2.784041270289962	13.475438006465536	14	-0.02284992720122001	-0.685927704846129	0.5873299295869624
Si	6.956015021377914	3.934567039368646	14.872787114242424	14	-0.0736817078226756	1.0183672518622315	0.5580391264482395
Si	5.599433217228909	5.57648732895797	-0.13044557962276832	14	-0.9270058525266215	-2.274254755862934	-0.3308655163391077
Si	7.073845258444896	6.6827206792832206	1.1184570134226421	14	-0.6021063289723854	1.1528016072946858	0.6312942878983024
Si	8.043153998106437	8.154390964290448	-0.3483662382869526	14	0.945801917969564	1.5518461518502884	0.6149106905772549
Si	9.618749899407645	9.65927240337403	1.1938063492312652	14	0.35531904192850405	-2.5268028614871394	-0.7805983738393014
Si	8.256227623472991	5.485062815377744	2.6509192143681655	14	0.8050614125183824	0.13682934003817246	0.8499655098242365
Si	9.339368205730405	7.067725266907483	4.242541333508677	14	0.29310754916007314	-0.6605051296615688	-1.34480352506632
Si	5.492553685019538	7.927151598511963	2.386111260538685	14	-0.41313111638362965	1.0213800730763811	0.930054669215253
Si	6.686343714273369	9.45347748794264	3.8636077774895274	14	-0.3092749165236962	0.6858857958294106	-1.1692060305688268
Si	5.446694548432526	5.424009779800517	5.40375668780604	14	0.7895586758800175	-0.5554837048705443	1.2947757290784747
Si	6.7535330613654425	6.835981587357463	6.8504410873631905	14	-2.170904292419474	0.6615561975164453	-0.4907640988623088
Si	7.72445747879286	8.384437366187425	5.530056993160801	14	2.272232581528638	-0.4683237487385884	0.042029344447396616
Si	9.444060860963742	9.545832240236553	6.7384860421721235	14	-1.0405643754226659	0.5347045458941715	-0.042583160533356514
Si	8.21668431815259	5.71525609707162	8.04468807598515	14	0.5580722937068693	-1.9451046809934296	1.1753345172099317
Si	9.224655084353145	6.918462753304351	9.75187195532944	14	1.1745914677724087	0.14102666947331421	-0.32051090388327536
Si	5.268382474998476	8.31919009640989	8.174154456961931	14	0.39395581290596526	-2.3404591751935553	-0.36137528051011286
Si	6.612773256004955	9.421914651587024	9.52528538864828	14	1.0287370338394526	1.1271293777835394	0.017454976907953293
Si	5.37717144456752	5.641244999412511	10.688883459650876	14	0.05331932501869884	-0.2246557266691107	1.1565855029943477
Si	6.7935333260539705	6.841465099774985	12.306503302842316	14	-1.4474065681932133	1.3941052409117556	-1.4790658735528566
Si	7.994814224949595	8.501451604382751	10.99824495187272	14	0.8487223804019449	-1.6495373553735708	1.0305576335166493
Si	8.08865409518992	5.447396307462149	13.452932757585291	14	0.8822351955868829	-1.1232061281755255	0.8866826935696752
Si	9.445823418526516	6.7611055308944	14.781036201113537	14	0.7681539669792528	0.14556184214752343	0.7208255744670308
Si	5.4695425168388665	8.411463248816638	13.629368033614536	14	-0.2545034312201777	-0.917602291928712	-0.6474986791785357
Si	6.94947071042724	9.855291652322995	14.618097546421467	14	-2.5146204502592138	-3.8105886579851727	3.9882216965646275
Si	5.431827048990972	10.698234806720043	0.2484226964866482	14	0.6671851183938455	0.3274749997534284	-1.1191052151898893
Si	6.716160313043643	12.121483718683262	1.5761507805339317	14	0.7604460503399808	0.5778199252287987	-1.1845997523416172
Si	7.970448498641977	13.689637710274974	-0.0109180649027439	14	0.0066025984621402665	-2.1918585436681486	0.5645823323774843
Si	9.474367059057007	14.855226818524407	1.238343567646195	14	0.9261231920702147	0.7903804011403368	0.9233492265403069
Si	8.307521312545225	10.761605279092771	2.6005394440321856	14	-1.4281381907029596	0.7428229231440898	1.3727347277117488
Si	9.297572743524237	12.222439099084417	4.164009602100599	14	-0.7377665874214866	-0.38022559627531055	-0.2636249415644671
Si	5.631028693539391	13.686047315239692	2.859570125850349	14	0.14607863431687318	1.4052198721002234	-0.7176109214852497
Si	7.166656970106936	15.217726157268425	4.003780063662423	14	-0.8960636284407675	-1.2880990827831142	-0.3752343095173071
Si	5.45687821435078	11.001753747020835	5.196509294383103	14	-0.4759835857083735	-0.7444288355270543	1.2695812109358116
Si	6.67882020467671	12.26141120519466	6.733606368919626	14	1.5889497727253452	-0.7895365643742641	0.21226557013131714
Si	8.239646526400962	13.748895548334561	5.552431682221581	14	-1.4900699472125585	-0.8023203571365725	-0.4768621323962681
Si	9.810395394404537	14.820367346727307	6.6795056437289	14	0.11338728728172238	1.4523590312608825	1.5826672768755634
Si	8.059930934907664	10.829659584988798	8.282959746508407	14	0.42129514710669586	0.8841046462651627	-0.9514750618584709
Si	9.60482895865721	12.25840832934697	9.540462967661062	14	0.8386505895313289	-2.080402156481858	-1.0266055875290498
Si	5.492113045628844	13.69446842359517	8.023455785344686	14	-0.08577952968556835	1.4177871777945754	-1.6930116610108903
Si	6.7393999609083775	14.888095253074672	9.501654061325151	14	0.04851084384895791	1.1222429921225978	-0.023294214200541594
Si	5.438273440077047	10.8456858028281	10.917085704097914	14	1.622515038458814	0.07658088618167457	1.3047099658144627
Si	6.705764487418758	12.156457430322394	12.351056841234678	14	-1.5524223365525334	2.4823165687958095	-2.8170958216532465
Si	8.142102021283323	13.4826677564684	10.59076775532308	14	-1.4350801750673594	0.3630842942164153	3.034477377150594
Si	9.173377715258345	14.865590004194427	12.259697607564185	14	1.6332859128659785	-0.8952282763222513	-1.6721767090490705
Si	8.957203294179502	9.93602658068454	12.616158554657956	14	3.4589779212599185	-2.442255405470986	-2.0991475711499934
Si	9.688158763430618	12.25419777516923	15.198354344055337	14	0.15374284216570258	1.8398361729811388	0.8211454760696326
Si	5.150568557908927	13.676467488486463	13.668111660040715	14	1.6752661492017604	-0.25595044929435706	-0.9771323789587606
Si	6.808270265676059	14.923052644736373	14.815928312865504	14	0.006526236634131868	0.6852592174628905	-1.0595211349481175
Si	11.19618995815879	-0.24241694479126738	0.014231020321663202	14	-1.3912204607425493	-0.1698243346116328	-0.07983487707485397
Si	12.1211573191346	1.3529914091137225	1.407092134304449	14	1.6430599697405217	-0.03595613657067484	-0.013815834437815703
Si	13.73025813410596	2.568846047857105	0.0179030152441107	14	0.5194733179776143	-0.8507370985308129	0.18265157905385154
Si	15.1588926386221	4.040663212661229	1.1560908813833708	14	-0.17164544850989366	-0.004680697235329578	0.9511050798029016
Si	13.703379131273644	-0.0382866670580526	2.55549630631683	14	-0.5718243647327453	-0.20585451901552787	-0.3627716478094853
Si	14.77073829535325	1.2982868447579712	4.135922920938234	14	0.863467669412994	1.233508603294134	-0.29484818746181335
Si	10.927106170241837	2.6990631477958105	2.8877873668321787	14	0.542801984989446	-0.1895578250543013	-0.2735020997623479
Si	12.28383485418774	4.003127264565099	4.216837369051543	14	1.001312596052625	-0.20318751146693828	-0.9663378503826507
Si	11.010697094654176	-0.0149327793512865	5.236460599139332	14	-0.9897773320337808	-0.05323576409579404	0.3910926300214484
Si	12.209219917363606	1.0744583542630048	6.921302429377709	14	-1.6585750476844234	2.3830917009490586	-0.728711668704989
Si	13.426265914459606	2.633603718311646	5.756757799683993	14	1.0904217071277853	0.1513136618592267	-1.017320297775867
Si	14.879951584335554	4.144001309767618	6.8679034632166065	14	0.3237458685970857	-0.6491575563310953	-0.5620577640636308
Si	13.27672596124011	-0.018816933980364298	8.451691993189229	14	2.2681280689955536	-1.5305273178672165	-0.24226368434361284
Si	14.848094988386144	1.1388080252817179	9.667970951345872	14	0.19520834321639075	1.7050608889832326	-0.05646481526736801
Si	10.91248347046178	2.9706438922600276	8.150865849164898	14	-0.22260861261320883	-2.4742324994482	-0.025716452522653106
Si	12.16527021813627	4.12079430185775	9.673764543334622	14	-0.4983833123680356	0.10899609650544147	0.13180925690058334
Si	10.641506565162588	-0.1622042557075809	10.804086180351131	14	0.17378923612583314	0.38808572234953526	0.02119053582759644
Si	12.087962485035675	1.3314816788568966	12.080292095642116	14	1.2741765474745121	-1.3841046696585075	-0.0018920764050969715
Si	13.49498933943039	2.7776111991813206	10.935233519003521	14	1.1823837166661815	-0.9785565141955904	0.5409003954946644
Si	14.895994122152292	3.927549449072413	12.562775908474284	14	-0.2444676358240437	0.8446183820899246	-0.9827227332563585
Si	13.772771675319186	0.014524779915458998	13.53999983719088	14	-0.858465841123178	0.31038306291668005	0.5779204554468164
Si	15.42580586954045	0.9477010895401169	15.104449193905278	14	-3.110974959519896	1.604801408355654	-0.6704421946134091
Si	11.183623575535304	2.5699721262999895	13.694223623933674	14	-1.1956359648178208	1.128515460661631	0.8210099788192609
Si	12.431628569821893	4.073286847549996	15.14373137958675	14	-1.4086569256921977	-1.0261872686934617	0.19438353262968722
Si	10.985352169700572	5.615067755609819	-0.037046348773137	14	-1.0005860016891512	-1.4652628946416417	-0.3811959314231344
Si	12.263908161741924	6.850555327205221	1.3397722273929114	14	0.6599631406600817	-1.024978077861396	1.341666776575739
Si	13.556874693856704	8.259361059140145	0.1344602940713109	14	0.6621256973448582	0.016919158559234433	-1.082846973744097
Si	14.98152712387917	9.493232952969672	1.4412824870267935	14	1.7253741636755944	-0.45074407322260795	0.05449869102905078
Si	13.738907722145502	5.235807800042008	2.6811601325516996	14	-0.3166881844932792	0.7889706640932995	-0.23033221299493362
Si	15.0819765849799	6.771109677060891	3.974681543899206	14	-0.8790452252161753	0.0412094189608014	-0.576643644544831
Si	10.905988119443405	8.15925431756551	2.675464460427548	14	-0.899631294183005	0.8328807720823845	0.4100550459786045
Si	12.332060387502551	9.557370464281755	4.003094624610233	14	-0.29237478414383083	-0.924722453891798	0.2864368164069489
Si	10.818415120537392	5.426686256099545	5.16127446310504	14	-0.2510108417532886	1.4697373892302954	0.7957812649758399
Si	12.066632274530612	6.640500897663791	6.767682481799939	14	0.3497927081533778	-0.03602427086165877	0.9301114906428284
Si	13.512794434809903	7.861985928621594	5.368407616685945	14	0.2606342318560709	1.66341618189173	0.38078224057712257
Si	14.850853064572338	9.34782195404075	6.873680735227924	14	-0.21080621075160105	0.3355431282480531	-0.8862939424452687
Si	13.585630494093827	5.264857359872926	8.374955459298793	14	-0.6328328373218791	1.7145186999033972	-1.2248992571296184
Si	14.859421052724716	6.5611858073389255	9.814703868446875	14	-0.14746343164230494	1.336382126700707	-1.0086991245268786
Si	10.579588570781405	8.122730208070234	8.141498182118298	14	0.5402972141865576	-1.3908232249705865	-0.4360841449081876
Si	12.063449878931157	9.325333025137938	9.35908273846959	14	1.5221043768384113	0.14852786924484626	1.1801239722003036
Si	10.78535084625793	5.497482318204334	10.998179671962987	14	-0.34673309282240156	0.173282985488296	0.24969829248735304
Si	12.097623911676068	6.847291331718602	12.417968748710388	14	0.1545450270255888	-0.7778830295106931	0.9437936276039964
Si	13.479207921252582	8.036364887494267	11.112664313656184	14	0.8457342417988688	1.0178797702935312	-1.6266475760398886
Si	15.031221455162958	9.530230341810508	12.310371137493961	14	-0.16697760680116483	-1.827234671586029	-1.145407365504472
Si	13.656377596266315	5.4251848181757	13.93451897165864	14	0.6265354290612404	1.635132480706909	-1.9282950515208332
Si	15.058296297724473	6.986272259538881	15.097627443338242	14	0.11908434245010649	-0.7274747099354658	-0.19035923858259146
Si	10.776146378985663	8.347113577797924	13.685606675848998	14	-1.4545598974149292	-0.46982758824034304	-1.2547875851447436
Si	12.258669448985898	9.525301708625713	14.893154446078935	14	0.40390804737919445	-1.0855337788036516	1.1943283006519934
Si	11.172117991444969	10.877281279138582	0.0028396760733594	14	-1.3178215745050899	-0.2427668496547658	-0.24455968139450507
Si	12.065261396426232	12.183466992974175	1.5597165632588001	14	2.6301659233466683	-0.25690972868930434	-0.5705205572248984
Si	13.396367715802166	13.55521005615853	0.0431663403105495	14	0.6027905000980768	-1.3430703429700082	0.06289514967305837
Si	15.072886357549663	15.079430668500336	0.8068923242473302	14	0.22785443879790693	0.7791580406389544	1.0388214231261372
Si	13.760074732876232	10.879647675866382	2.7177495219567103	14	-0.8684710403660024	1.3831677588798457	0.6643353052569934
Si	14.974068894192243	12.467548840152146	4.024539074957326	14	0.7769386625266027	-0.9065156857882335	-0.14917244534860735
Si	10.651641271148543	13.326877251892027	2.78887198361016	14	-3.26530375658806e-05	2.825313845588036	-0.1139123069880966
Si	12.248208343451282	14.88471701774602	3.886635265647631	14	0.16457105222150623	-0.5719660326358855	-0.17348327459273552
Si	10.736847873326758	10.853992671341551	5.19580753535348	14	0.7379097979878189	-1.094567614456524	1.1624995594517524
Si	12.14380944781174	11.994155254750215	6.647534807937458	14	0.7250409016394136	0.8628644881048875	-0.6695412793092292
Si	13.558996290923007	13.608511102455035	5.451998541098284	14	-0.8336757578473742	-0.2913370860366191	-0.3022352301571308
Si	14.782472359127649	15.041029761600253	6.774895911825371	14	0.9907286410022356	0.45627863453475864	1.5831915252503417
Si	13.446323166724886	10.840545009936676	8.100779838422714	14	0.8346196106104007	-1.0075446982381322	0.6683002067711938
Si	14.838939481046175	12.114857807845423	9.63330731927797	14	-0.31564791528074726	0.7632817223975721	-0.10155686037212501
Si	11.111750394919932	13.376881662747046	8.104827192826122	14	-1.614431226221737	0.43454559548461097	-0.2297776255773777
Si	12.199819610362141	14.680407220261042	9.597011689466756	14	-0.2301872026548773	0.5399984517483564	1.2611716396546715
Si	10.863964177553173	10.619898915041164	10.83999013070395	14	-1.1559478688749512	1.2964811432373289	1.1600510958553756
Si	12.107317978271329	12.075738821938282	12.369204656140285	14	0.4985023545443585	-0.3252324816931953	-1.081232833824108
Si	13.587882650979596	13.559387970381403	11.167858477334928	14	-0.2869615790027912	-0.9579020538272449	-1.0851087750942312
Si	15.04532191566516	14.995676544313667	12.227628851908143	14	0.5707344731875347	-0.7335034376901491	0.2165523740316
Si	13.612313657196946	10.641751364824085	13.543949271729689	14	-0.5209411620048868	2.278773730573627	0.6517957675000992
Si	14.782292839375884	11.99381253522412	15.093759608686598	14	-0.07911702446946862	0.8515796497442255	-0.14701708775872724
Si	10.692033215295465	13.520171064609665	13.512843394742202	14	0.156024441026802	0.2132983831384206	0.05814683236780888
Si	12.309555138622306	14.77326789185538	14.747825047037178	14	0.22857460539808042	0.8324948491738302	-0.5476366914334524
H	4.06461604353979	12.228299602980643	11.451295685404292	1	0.5209596739631919	-0.35094739155265625	-0.11110414575743088
H	4.997975136911698	11.274201082286751	9.566689171396055	1	-0.3962045016189668	0.23357746213002453	-1.3707997138478052
H	7.758084792293763	10.867727564349247	13.840728061350614	1	-10.504616910862566	-16.469201758460855	15.656960020114896
H	4.011396597130451	-0.5599204737544846	7.146756389625013	1	-6.746465174550217	19.1494543561072	24.20755462829163
H	16.271174172584058	0.023663967277995	15.96089386563273	1	-0.7519665449941324	0.6377001968034514	-0.47820913447349367
H	1.6638396512797216	9.886864280665069	7.297828788725477	1	-1.1224931606702484	-1.3327653528468546	-1.2068184731867408
H	8.073868195635532	11.206128824415549	13.603324613626794	1	30.69206942217239	10.901881736315561	2.2066264584060153
H	0.8018184432633794	0.12013788187602234	0.5161666142563435	1	0.41556749578500196	0.01905754685400159	0.5394793455842185
H	10.709699590866796	13.421668576816701	16.121875755030572	1	-0.9128010098538674	-0.8409900382621316	-0.6554624207971623
H	7.648489615839524	11.309839017007413	13.320811116280144	1	-17.50826409415549	10.072811599428169	-16.206618885882644
H	4.402087064892404	12.865449473944043	8.833992360552827	1	2.918406884356765	3.0159595053032917	-6.749986046175628
H	14.307794391501732	14.248309705755826	1.8023521957476711	1	-0.8519666010949076	-1.077081012953133	0.9889201255200433
H	2.0310391435244712	14.219258513927164	14.270282923371752	1	-0.1933478914067316	-0.14539677718596994	0.3677757900940895
