223
config_type=interstitial dft_energy=-23323.06684776111 dft_virial="-49.559800834270554 -6.098194207985619 -2.8016572866530787 -6.098194207985618 -45.36130586908675 -4.174549176409004 -2.8016572866530787 -4.174549176409004 -48.3186107827761" pbc="T T T" Lattice="16.3199774331 0.0 0.0 0.0 16.3199774331 0.0 0.0 0.0 16.3199774331" Properties=species:S:1:pos:R:3:Z:I:1:dft_force:R:3
Si	-1.7479511829721757	-1.2977972454349782	-1.1513091279954726	14	4.860239576719774	4.064697938759772	1.8273776250418292
Si	0.0378297076899258	0.016254697523367598	-0.0924689921359446	14	0.5772321705526128	0.4999082349334155	0.7714195278463727
Si	1.4661214926799715	1.3809801704114888	1.4605237404204183	14	0.35615747937340436	-0.647084731221992	-0.022719057940424472
Si	2.7045140202584657	2.799039329550981	0.012337902939423601	14	0.4738020028442279	-0.7227629023257626	0.09201625986065154
Si	4.092919780402015	4.148685143290918	1.350625012385923	14	-0.967122808836892	0.8384865530119033	-0.21256150435366616
Si	2.8446699864539284	-0.048796732524969	2.8969102342172817	14	-0.5229255410909772	0.549594845245277	-0.5150543592638758
Si	4.182092137096474	1.491286897881812	4.10968039722581	14	-0.7793195060530597	-0.6131176017269836	0.7181932768402632
Si	-0.0042595141100391	2.6066594355695982	2.832789042882632	14	-0.5335238943311595	-0.11751853931013631	-0.8702857265009629
Si	1.3105431478102294	3.9863666477413053	4.126065654568642	14	-0.015391921999066475	0.6246402673297592	0.0033249534000154954
Si	-0.07719349325856299	-0.07778101244615461	5.532145950272238	14	0.2111916194390913	0.3197079476917931	-0.41910379404233367
Si	1.2178783159450874	1.409393251122516	6.766458483492457	14	1.3300579789447389	-0.9954813291865293	0.06557526985878072
Si	2.684717887632116	2.732323261804468	5.493467603755791	14	0.3511474235465638	-0.21412190817246404	-0.06542151776063586
Si	3.9344201595717476	4.165315200295247	6.893721667515771	14	1.0323694914357577	-0.6082201603131655	-0.9144706856487715
Si	2.7026372228536593	0.0896945959723176	8.227488143213302	14	-0.6815046323638783	0.518843397174178	-0.17888388131770658
Si	4.014257489174473	1.5238289328834131	9.576171078284686	14	0.48616516277616	-0.6859259050724049	-0.15317771321633405
Si	-0.0431500203331164	2.587793541656935	8.209666727856357	14	-0.7227053095665912	0.19819725315106287	0.4542060665361874
Si	1.232957975093272	4.035391859950337	9.444289340647805	14	-0.08423969470933167	0.47504153271907124	1.1946972542654348
Si	-0.1345092540036102	-0.1157902398878445	10.956025170253291	14	0.6545501926295739	0.6902047385461954	-0.07903552043081993
Si	1.360433318823216	1.3856803239122217	12.25462209458249	14	-1.0312713723535225	-0.6206627673994901	-0.18738472683771212
Si	2.6101845506951475	2.795236774809069	10.90063516684535	14	0.10388808156590329	0.05361808745690006	-0.02647210037624462
Si	4.0222216381618265	4.124188857163834	12.24982402121716	14	-0.3433526035474709	-0.20830375394350092	0.38262392331794465
Si	2.640915068201675	-0.0386457065615808	13.6108122192731	14	0.8324915067369143	0.5107765542322135	0.4280993202259357
Si	4.102662806929575	1.3321671179090868	15.035317769498667	14	-0.3113793662282374	-0.13860083160375453	-0.2945661372081931
Si	-0.0074419097094936	2.860222924947673	13.516988669010209	14	-0.11923269522707902	0.4786721905416525	-0.454721830263409
Si	1.3190132160980084	4.110757515736394	14.999805498604243	14	0.8552920687159873	0.25587100213996455	-0.860792691437912
Si	0.0884053177551027	5.501268552968813	-0.0032476755091869003	14	-1.1839950283703184	-0.8789711773829552	0.24633451539700327
Si	1.3352352736665096	6.848580609935817	1.3384992691531297	14	0.8121962297817933	0.26925309111027124	0.012175983464625256
Si	2.811262992648373	8.150082490248108	-0.0476869740595182	14	-0.7508686830224292	-0.13686250729680238	0.620539354344123
Si	4.091875301846297	9.421376092331732	1.3664227505411637	14	-0.07884371597393688	0.6791451290115784	0.24815125841621993
Si	2.5415100856566633	5.400133652815892	2.7153668052514774	14	1.023138709115362	-0.041127657811620685	0.09941975763001794
Si	3.9965992735918587	6.740428119486663	4.118297345310485	14	-0.4891592149214724	-0.2206743700808614	-0.13603358294158663
Si	0.0079315090324866	8.156316721627553	2.7499814773870823	14	-0.30854652238649827	0.26842005298654326	0.4225855848668782
Si	1.3955375902818141	9.54354744339592	4.068733573846161	14	0.7238196266123433	-0.8833885934335014	-0.08837788872211
Si	-0.0415996224769719	5.370300734068185	5.475727788286012	14	1.002145119955289	-0.20615533833798522	0.5614239866022144
Si	1.3120282657566413	6.830595994804541	6.834104789952656	14	-0.28934293675031225	-0.47973431414940565	0.0026562089062449803
Si	2.7073536963318254	8.125357724436961	5.503488069899714	14	0.1762582685647713	0.7361552757173497	-0.06790520549989891
Si	4.125837174884578	9.533053697906436	6.87376233511509	14	-0.6715642249751217	0.1867121256859614	-0.5248091328485176
Si	2.6014044028361396	5.40538868554935	8.213714082259765	14	0.043396915367183375	1.1306381652139454	-0.020481167869767582
Si	4.1921942031275625	6.735058846911173	9.382926225499348	14	-0.9322005137154487	-0.512280393733968	1.607625510439305
Si	-0.0100531060987896	8.287513020212243	8.145594496454006	14	-0.007886865569554233	-0.3885595770600385	-0.7289844629794567
Si	1.3963209491986028	9.509732450154535	9.434481034210512	14	0.8389737774700714	0.24168544275711154	0.5408906252944478
Si	-0.0322482754078056	5.597915459327631	10.808965853603626	14	0.3901220377630925	-0.9861569586324802	-0.19740149605447704
Si	1.510267031636507	6.752798662380952	12.093086957949666	14	-0.5604269119590609	0.4123816391828065	0.14898963976034485
Si	2.767737612834295	8.15457048404221	10.793967794342608	14	1.1266424104359032	0.02130983511445131	-0.5669320655295677
Si	4.270676974603341	9.436912710848043	12.158089428065704	14	-0.623629308717877	0.2276487503722951	0.17024342477881693
Si	2.7163133639425974	5.567674541144097	13.584275935966879	14	0.7692675126934089	-0.9280144971437156	0.9913467347211992
Si	4.213426493768026	6.966965726235524	14.913325938186244	14	-1.0671372631274603	-0.7978245223737616	-0.7119750586234852
Si	0.2305360012199706	8.036462807358866	13.549661263831275	14	-0.973892786255374	0.13430220061899895	0.15205619707568546
Si	1.4624658177349572	9.463546914018863	14.947973250276718	14	0.07344516613322197	-0.027864353907104806	-0.24122958578384923
Si	0.1016571394307799	10.75207441227184	0.0121420632102264	14	0.515838289275989	0.13277830649574715	0.5569091256600344
Si	1.4026204604877794	12.1677998146384	1.4400258487644446	14	-0.11423240960045505	-0.37907605508667236	-0.10399941042626569
Si	2.7930009379007337	13.444152609726283	0.1513351507371363	14	0.3425684164248257	-0.051614167970376636	-1.0368463000191996
Si	4.073972286602186	14.816483192098229	1.4965256106378368	14	-0.4857707552200493	0.7508393724217794	0.03041643304788379
Si	2.82614681206736	10.863931537598308	2.7757507217539477	14	-0.3141602737425096	-0.20751108217329933	-0.4017354633836694
Si	4.018794442900875	12.359624829387055	4.101667288306157	14	-0.13867487943697476	-0.24251976643349954	-0.3593042551747336
Si	0.26391035507066013	13.698450498088848	2.7810057544874054	14	-1.5419147433301523	-0.8905725188085272	-0.9760969948463368
Si	1.3771612956921435	14.962808109763404	4.227951273683485	14	1.1532320103252787	0.8484531856749254	0.5502083109746644
Si	0.0977240248694028	10.932736562456258	5.303127706953545	14	0.22256644648595836	0.3413211732340219	0.14097858980382746
Si	1.32797288370878	12.285858531389444	6.7241244620309955	14	1.1960298581528677	-0.35643721563223646	0.358200222550262
Si	2.82498809366961	13.649196806195752	5.559367672630649	14	-0.35137008126728864	0.8376648277515841	0.2784489063983128
Si	4.2020351495197215	15.163772311874599	6.8666631449316915	14	-0.5975631858716838	-0.5277257947236935	-0.26941995584554884
Si	2.712543449155551	10.979672817553853	8.184974602000075	14	0.3395321981522629	-0.30274867988956433	-0.514276085683467
Si	4.155768013496884	12.31146457598198	9.501507181528252	14	-0.04731065188551279	-0.29518217404290054	0.055561843078932006
Si	0.1158391998201438	13.522243701743667	8.190931393763158	14	-1.9224987516870917	0.3863294003053421	-0.3022421721414952
Si	1.3188989762559764	14.964195307845218	9.509993569793465	14	0.36659899518905775	0.32413127728457586	0.4199921109304448
Si	0.1194295948554258	10.737614912266112	10.894041895962378	14	-0.03627855317782141	0.6292451169581444	0.3573952094745237
Si	1.502090722942524	12.149766239574824	12.267873916258168	14	0.3477322243498111	-0.24790520363708174	-0.351445414653169
Si	2.770642568817387	13.629547553366299	10.808215134641705	14	-0.2213073762106819	-0.04399469735411781	1.0359461560466159
Si	4.07604492373619	14.967345063489805	12.314010492461541	14	0.6665413136216805	0.2721553547956544	-1.0128650864771145
Si	2.942769370804293	10.760364960807854	13.684203157789751	14	-0.6222784499826712	0.14119404842965586	-1.164523019338709
Si	4.2292405519007	12.090508401515237	15.045713595123551	14	-1.3534619793424507	1.061663894121929	-0.11934813785595369
Si	0.007180790070564	13.371479750216688	13.642489295470748	14	0.036131228842976926	0.3060309529412654	0.18750248346137494
Si	1.5433476258934007	14.671512832560001	14.898850118203084	14	-0.6276546312071009	0.5937142412074221	0.34540743091933324
Si	5.387665190057004	-0.1386055683393183	0.17880167275704362	14	-0.2339775261178396	0.6231623959917382	-1.1839461773692355
Si	6.563797003728221	1.4648322144627568	1.3386298289725944	14	1.230521750243718	-0.07751445452342033	0.6362966304091825
Si	8.03749096593715	2.8564693301380597	0.0612325553289912	14	-0.24401563550876174	0.0494292426693148	0.06248248726917459
Si	9.580120512823497	4.183038695787594	1.321608092509871	14	0.0045493137534700105	-0.7623692371194516	0.5313654514148952
Si	8.012243960848146	0.043019460513651596	2.6943629942950773	14	-0.5401411480936247	0.8687466628563223	0.00031470329118612485
Si	9.465407391446236	1.3777977748120345	3.9891736838597986	14	0.8570450483232642	-0.40233607358645596	-0.5885720305671258
Si	5.366824578874935	2.884849770894221	2.7531475530091036	14	1.0335141475242877	0.09292488848079188	0.07696860886395289
Si	6.9069898091688815	4.158003850405218	4.094176418664364	14	-0.8929266228396548	0.27509669928190383	0.03999560013915949
Si	5.5829989999537775	0.14387692105020958	5.478453224517339	14	-1.6511538092883475	0.5119770033061904	0.2433170661932775
Si	6.870726819312534	1.4895733002513365	6.747429389805462	14	0.2772690261668969	0.34847681645052603	1.2969094893836657
Si	8.253469547286796	2.7151056856125475	5.321830401091879	14	-0.3779056879449409	1.1476028323373464	1.0806363373898338
Si	9.589259700186032	4.128464691251307	6.768514800649028	14	0.062436978705007966	-0.04724971668942527	-0.19191321463808897
Si	8.291217655089557	0.0813714074814366	8.102264956369124	14	-0.4764147600705624	0.4914711528253496	-0.5399693982582389
Si	9.509944609861165	1.385712963867088	9.540348727819032	14	0.2544049578864161	0.9282363835328444	-0.177207777759502
Si	5.387599910147271	2.839986152930629	8.213289762846504	14	0.05177563338448194	-0.6299603984582096	-1.1298781464813097
Si	6.8100491432162675	4.072829888181869	9.498683825432327	14	0.5060778592596429	0.8315252853576025	-1.2398337794922303
Si	5.615133035519552	0.2285612839505655	10.782674369958901	14	-1.7979970903274332	-0.7099032619565099	0.9576814529907761
Si	6.861359152265933	1.4650117342145208	12.254295695033829	14	-0.6775829254190564	0.1903669518985519	0.6719933424530544
Si	8.03912296368046	2.824400574482018	10.856000028565822	14	1.8680049457581491	-0.846188556108939	0.1504353722818641
Si	9.434562634097677	4.192112603240397	12.162267342288578	14	0.3504203149620259	-1.074545131775871	0.881697063243376
Si	8.154652083929376	0.035757070555922095	13.550819982229024	14	-0.5708396313951287	-0.12312406312912315	1.4689647720815908
Si	9.34366035979531	1.4961502511568756	15.024301784731325	14	0.32595984738826517	-0.7988984730659874	-0.46680859637342514
Si	5.417139069301182	2.8401167127500937	13.614582134060147	14	-0.2712858069763803	-1.2654499589073978	0.1107778724923041
Si	6.643030494165922	4.215890810360423	15.002726774564767	14	0.8582280138810645	-0.38820373608373004	-0.0988147765481871
Si	5.3820184778651505	5.616063274233238	-0.0157324582455084	14	-0.0019198443425545706	-0.8599971914518583	0.7762719749170883
Si	6.759277693421893	6.8110283418622535	1.4006783831732406	14	0.5823196166495899	-0.25401414987775356	0.7335754286391133
Si	8.17763061215518	8.06055109405012	0.07670389393557	14	-0.3454421408411552	0.3930163310219832	-0.8375709824073987
Si	9.426272085561662	9.513632924761046	1.3301597606848155	14	0.8711300774880995	-0.1362706388521043	0.5572184296300482
Si	8.326909445735748	5.504728388184629	2.771703367350539	14	-0.7321726335764404	0.3647871372699494	-0.13196506588298434
Si	9.724617593016163	6.8310692741501	4.153793296227478	14	-0.7163374530201805	0.7378532336707755	-0.2683480620375791
Si	5.316656968245586	8.06454948852123	2.7609974621544247	14	0.831169701491826	0.33693203934199706	0.2807037657640827
Si	6.635866024072792	9.521531793838665	4.132234606038353	14	0.6737874597454538	-0.146718068209994	-0.10377083916330454
Si	5.3889871082290846	5.5100323808503875	5.53405538763191	14	0.6295775608760396	-0.7675217321810284	-0.1732816999356359
Si	6.865455466601642	6.767976241393735	6.92040483061889	14	0.11337597441831374	0.6653205528156741	-1.52305362892261
Si	8.221172311946692	8.244444599766293	5.504108229042172	14	-0.9244869406444726	-1.1409971485488222	-0.8091836656781758
Si	9.546272879627248	9.548508716535581	6.788963732372702	14	0.2723715847530789	0.56669500961905	0.2229194592464147
Si	8.298888044483116	5.546931849826627	8.184599242519115	14	-0.7882628387986629	-1.9213540955985617	-0.18440121622421232
Si	9.628590845799803	6.750628105382351	9.512262046656668	14	0.48449754386551197	1.1464946859443625	0.05446089578084459
Si	5.497661837956098	8.11313406133957	8.145447616657108	14	0.454183955030434	1.322770438025311	0.3050588180197174
Si	6.91219588197004	9.605285918025336	9.498765425319492	14	-0.640091324751189	-1.7944335383537078	-0.052844441866067494
Si	5.4770660264355255	5.239120755460927	10.876351040424897	14	-0.34529687339056686	2.1079680050612937	-0.06826233202886747
Si	6.9163411562380475	6.740526039351261	12.124715074215015	14	-0.7186887288354559	-0.45606703256691056	0.0768104858867638
Si	8.22605198519919	8.095932805125083	10.794359473801002	14	-0.37110151482570103	0.13965009968490694	-0.6223851508534574
Si	9.567113490809316	9.457100522932787	12.014424666722125	14	0.5648988354423944	0.9257845774995512	0.1676856892063336
Si	8.095296326005192	5.432659367840061	13.628682594562344	14	0.19447814930546867	-0.17826501626714691	-0.19117685007439852
Si	9.469797465375741	6.771713516225915	14.908185145294818	14	0.4073237607970112	-0.0854853952369434	0.8612511195164945
Si	5.633541970064089	8.079237468211021	13.516825469235878	14	0.029439413026227514	0.8613285097866309	-0.11212307479580558
Si	6.9152313977725965	9.49011583727995	14.9468798117887	14	0.007918747275524069	-0.30345624807366917	-0.25171712438473326
Si	5.444964630824618	10.750687214190027	0.0007670389393556999	14	0.8777301048449195	-0.7149251448678231	0.5180095877188541
Si	6.6496237650488945	12.223940537008264	1.3280544835959456	14	0.7253661464624125	-1.0489916873305152	0.8649707375831528
Si	8.035304088961116	13.426070074730408	0.0020073572242713003	14	0.9536095934952579	0.645749813339771	-0.0650193968885647
Si	9.240599702305284	15.027027220962653	1.3221792917200297	14	1.0591244133972186	-1.3102707524008792	-0.013927163298178113
Si	8.079416987962786	10.85010851671247	2.7431107668877477	14	-0.7357647248192193	-0.06419201519654104	-0.318594916198701
Si	9.28632827907283	12.268869434881587	4.134470442946688	14	0.5857764677525289	-0.4106317449019137	0.026905331622689575
Si	5.458183812545429	13.553986057851047	2.774706243198229	14	0.05525511021423833	0.3147680830401926	0.275169718672996
Si	6.624735799463417	15.104808233408805	4.091010343042342	14	1.4732608319610263	-1.481069278818316	-0.5561637622277233
Si	5.283902773537354	11.019395642626018	5.392381663535169	14	0.8532968909875523	-1.3157898870811089	0.9762746582239591
Si	6.700460494753001	12.219697342875657	6.834267989726988	14	0.1296618697371957	0.8028384348585823	-0.22890139288427125
Si	8.01253772044194	13.670624936565412	5.445927509493171	14	-0.559456062590173	0.10534486984029919	0.15654740384892013
Si	9.468393947316494	14.970511139111828	6.728873575464028	14	0.6642304041599313	0.5196507242447045	-0.5856813368556834
Si	8.13177147556817	10.87421312338116	8.109462066417123	14	0.5524377163977648	0.47699685831504396	-0.45193655187009263
Si	9.461441636929992	12.255846092889973	9.454097647085097	14	-1.1845295611663773	0.8155967736782211	0.1471592698829314
Si	5.474389550136497	13.739332041558763	8.19763890448816	14	0.716833419236437	0.07741443852646658	0.26642873191608857
Si	6.973934356599457	15.210986006588556	9.520503635260383	14	-1.132435882053793	-1.2463340479626288	-0.4492402337208533
Si	5.567021742046773	10.88868894336432	10.81420456635965	14	-0.9546107819069235	0.364502258800477	0.21607620532630858
Si	6.816267054618278	12.228379570870066	12.227481972111244	14	-0.6678425500242073	0.8466608681562502	0.28872201481549653
Si	8.061758772380172	13.712420398771583	10.897061091787501	14	0.9821007828794146	-0.7754975579946597	-0.08345319359189836
Si	9.474301779147275	14.918940010423231	12.34669940726004	14	0.5884031089475922	0.8462494913050265	-1.344714821932775
Si	8.173338458090276	10.746036020621593	13.345726825827256	14	0.23896341355467077	0.4912783199263384	1.2777053895264157
Si	9.415158180929721	12.14095345176095	14.90229363344147	14	0.410723019140779	-0.24287097942023178	-0.230564383805343
Si	5.394209501007676	13.569522676367358	13.737079884672996	14	0.6200991811133137	0.1153115025033212	-1.00063433846917
Si	6.78310486047422	14.887866773390607	15.097431603609047	14	-0.07379535067782614	0.9617777379868362	-1.17843269912071
Si	10.704338478280023	0.0298981986574392	0.018572134318867797	14	-0.33474582848827517	0.4563758223158603	0.18131383295577852
Si	12.154760152669352	1.3927958340730533	1.3135297036804867	14	0.72990877534205	-0.7803816296608129	0.4096498397801491
Si	13.52247218142773	2.738329013499849	-0.0785480513855103	14	-0.22533064181564957	0.4935252088656159	0.7062738896865888
Si	15.021315228861068	3.9850773695240904	1.3028890783941054	14	0.38428974245486863	0.10712124650598949	0.20584114926786312
Si	13.548828944982187	-0.12927054124758508	2.7434861263687087	14	-0.16601241386398125	1.0114718045041262	-1.3012235470003422
Si	14.910845301616414	1.184977241439958	4.0959716161820054	14	-0.04518640467000644	0.7917122336961735	0.18198309167061305
Si	10.97208402804746	2.7754406421827182	2.7750979226566233	14	-1.2492067439368302	-0.0998671299557237	-0.7627986117079162
Si	12.239020196156446	4.029516668074422	4.204319946360356	14	1.3025204125238248	0.8519303485098936	-0.7548423262947179
Si	10.902136604769193	0.1436321213887131	5.3822795975040805	14	-1.6501310235919928	-2.4538780870707155	-1.3911356142669844
Si	12.211080394790981	1.2889354976888048	6.641512736264644	14	1.1698063836610815	0.3609060537891859	3.000633146489889
Si	13.59307240380332	2.6524043323145774	5.509200062001299	14	0.8909409582009044	0.20134351473132805	-0.7891799520663596
Si	14.97104969836712	4.0316056251858585	6.844467975622675	14	-0.1816784156901755	-0.2755574413552743	-0.04610094683238312
Si	13.543981911684556	-0.18981765752438612	8.258740899997688	14	-0.8226482871292592	0.7655864612065527	-0.8501742835762325
Si	14.83422300756801	1.2572584214911577	9.53029562172024	14	0.09266443551186086	0.22202728570032332	0.7658291735487748
Si	10.922765056244632	2.6726574243090546	8.061465012786375	14	-0.029316257081392422	0.44487449688724195	0.769374213564195
Si	12.266013438830795	4.083796913016912	9.552294951300059	14	0.30979068025091794	-0.36170823864907203	-1.0289054412379224
Si	10.903621722715608	0.0183273346573713	10.78902284118038	14	-1.0990179406551683	-1.335866105862953	0.5085520339092213
Si	12.043506866507908	1.346381818253317	12.202300246931973	14	0.27875821036832665	0.977315698768087	0.2983286927336978
Si	13.50646228356586	2.6548686489069753	11.008069578287445	14	0.736400559164892	0.9035725415282599	-0.972019993140178
Si	14.845500111974282	4.329037213904106	12.14473968652543	14	0.4722349141515977	-1.660880043603936	0.19920589776815698
Si	13.406486101810689	0.0750882161696931	13.538188319695806	14	0.13566205822282523	-0.20383800111293576	-0.18854326689497086
Si	14.894068364815187	1.5974646710615603	14.843427474840277	14	0.3837084155419831	-1.071038401229721	-0.13754590709089773
Si	10.791372917930744	2.666145753313248	13.610420539814706	14	-0.5562817759619182	1.4263096205992702	-0.07643459028895813
Si	12.159019666779391	4.15433185548277	14.945786373300681	14	0.6642527727762166	-1.0040459381184743	-1.1833851621883795
Si	10.984568810783783	5.4686938780123455	-0.0076377494386908	14	-1.1786183329248248	0.7119112952115455	-0.010497051690568563
Si	12.400098373421145	6.686963873415827	1.3656067516695087	14	-0.7619352345414105	0.7878925996325615	0.2717339506336821
Si	13.576589226595889	8.093566408397283	-0.0231417280001358	14	1.439030164170703	-0.15114139780277677	-0.36860908532834946
Si	15.027712660014842	9.493412472721436	1.334484554704587	14	-0.880357517371579	-0.5892957967147476	-0.06036132538005242
Si	13.785778697333365	5.418575227315295	2.692747316529201	14	-1.0609064464946134	-1.3655150639727727	0.47422623522205243
Si	15.041682560697575	6.6674778203607055	4.116730627476908	14	-0.0899701742468777	1.2299381093360444	-0.49761249499305527
Si	10.973471226129274	8.187814278073434	2.6318574807263047	14	-0.14562046334882278	-0.23084334873257908	0.023141747655056815
Si	12.339175897663383	9.560601819813508	3.9642367583420217	14	-0.894457458947271	-0.21116462283322973	0.9058721381266004
Si	11.096997135320409	5.540958738086112	5.5251773199083045	14	-0.9198180704936155	-0.4363425409928625	0.0963961377735238
Si	12.344251410645075	6.987675777598128	6.818192811955384	14	0.43603015169646453	-0.2274145226776296	0.16244937611132004
Si	13.740360200137049	8.20532561385915	5.3240662380002135	14	0.0916285371783732	0.6362225825759623	0.28359137414914104
Si	15.147338094599467	9.685286447402392	6.658305993043303	14	-1.1158959615292805	-1.4393214704034756	0.3693058548701096
Si	13.703982970438668	5.5175232504921805	8.087609616634202	14	-0.5646923756851866	0.08556921327038024	1.2219867090229546
Si	14.99969125876221	6.986353859426047	9.538716730075722	14	-0.4554193711367652	-0.7438786189885426	-1.2033649645207178
Si	10.90016188749979	8.24969963249975	8.167071586755966	14	0.40913844693197177	-0.0616008552548958	0.4088916208212375
Si	12.317551927564525	9.657575125720987	9.53244985874141	14	-0.14158305666459428	-0.7540419412085558	-0.9143333886246756
Si	10.907424277457519	5.419015866705989	10.8783257576943	14	0.3343830455276023	0.057307109370248514	0.09869033505069191
Si	12.251080659479507	6.832619672006245	12.188460906068704	14	-0.9820732720524892	0.42422106496102435	0.41111948358114575
Si	13.562309246341927	8.19362419003962	10.854368030822512	14	-0.016740723850016157	0.9481899605909175	0.9356748483345649
Si	15.121895249781263	9.39673292640775	12.251864018396295	14	-0.5905417543528914	-0.19719477918673714	0.10420869839932574
Si	13.53768240039538	5.542982415287817	13.583345697253193	14	-0.46930539674982097	-0.8152969827978919	0.061188707072076076
Si	15.049956789256157	6.651337362679369	14.835887645266185	14	0.07380280688325457	1.7448875675028583	0.92920183358056
Si	10.716154141941587	8.177353172538817	13.547360147013208	14	1.3717638783428605	-0.33470006281357656	-0.3519889463178483
Si	12.211912713640068	9.372138720416068	14.935847507043922	14	-0.19655688795680842	-0.12099364526084845	-0.2864959518293123
Si	10.835632696729313	10.723269652102418	-0.1157902398878445	14	-0.28713512861190116	0.8446854879387804	0.5189259296549548
Si	12.044730864815392	12.092760558401006	1.437300412533117	14	0.025136154051895683	0.3832523014581889	0.138522927112554
Si	13.578531303910427	13.360757525043143	0.0983605039892937	14	-0.7550364447463892	-0.9544405747347297	1.1558877050104597
Si	14.955529399828242	14.880669663342612	1.39909534536223	14	0.3874264909454493	-0.2605820384180718	0.3277310818433152
Si	13.716892072588251	10.88114911379023	2.729956865076669	14	0.45846664516220476	0.36339796906547334	-0.48003359080867086
Si	15.133825153284858	12.280228139175025	4.012299091882501	14	-1.4292288535797664	1.081218178523783	-0.14453108602467604
Si	10.607740531853505	13.578368104136098	2.7783945580981095	14	0.6108133771390669	0.4010227529889243	-1.1049175989227802
Si	12.149651999732793	14.915365935365383	3.9774722600402654	14	-1.1968484980868028	0.17473900243109583	0.4486753618820168
Si	10.814612565795478	10.928052728932958	5.371834811946896	14	0.8490627947463325	-0.13137448299094634	0.034577252787479425
Si	12.26141120519466	12.261525445036693	6.7958834028043364	14	-0.06883106052568422	-0.40494291727055415	-0.574248402828581
Si	13.502235409410686	13.676010529118335	5.332063026942432	14	0.6684914970070128	-1.4768423816719927	0.01054513136005533
Si	14.78516515540411	14.947238851292227	6.718983669139569	14	1.172354349033348	-0.7597317972820435	1.3980963677002212
Si	13.726063899905652	10.836611895375297	8.073329636380238	14	-0.6719126097460018	0.5690637689505024	-0.054279632855774154
Si	15.043347198395752	12.066844434237243	9.548329196783817	14	0.4633296337647328	0.8370662744330536	-0.07160528316612401
Si	10.72144181462991	13.515601470928395	8.019816430377103	14	1.1461272749941136	0.7085793998271656	0.7367206617772504
Si	12.17039469105026	14.779665323009157	9.585571385286151	14	0.23118119197164652	-0.4967424329527172	-0.21888333811484628
Si	10.90190812508513	11.03019946768673	10.700764403222173	14	-0.33659496743452566	-1.185029898261678	0.9914624344606058
Si	12.229832048861612	12.111349012697307	12.21460550991653	14	-0.07160836849250816	0.4967280347629244	1.4776365961053863
Si	13.70546808838508	13.378889019971316	11.005719501537081	14	-0.8391139027100195	0.5155341275166154	-1.2493170443550645
Si	14.858294974281833	14.781705320188292	12.399886213714513	14	0.7619308636623663	0.6571752911614451	-0.11525339552308586
Si	13.600905992971208	10.663293735035776	13.585663134048692	14	-0.19984815987712998	0.06507776097933206	-0.5932301020756382
Si	15.01658243540547	11.928940624927547	15.0073779681332	14	-0.8327864125171351	1.0146522617851492	-0.3292318360186856
Si	10.830997823138311	13.63576546476831	13.675471969863043	14	-0.2218635062914299	-2.135533853640729	-1.1025938339344301
Si	12.01481634618052	14.930935193836559	15.004929971518235	14	0.6330596088111161	0.9969792551460476	1.564572866074489
H	12.42862895796969	-0.9256397440460524	12.68019325011221	1	0.1886831350243869	-0.28958024977136193	0.12270343029874695
H	-0.8950789543048294	1.0478143591057256	0.7308461254023141	1	-0.17783641301027825	-0.13159894048539522	-0.2985888885920968
H	-2.6747529094114646	-1.979776462409361	-1.700837040120559	1	-3.98702638970129	-4.453056455383775	-3.9826436835725665
H	15.054172239427128	9.560601819813508	3.9642367583420217	1	-0.09217541127996871	-0.013509358683654053	-0.07799396566562794
H	17.549219349331754	1.2572584214911577	9.53029562172024	1	-0.05556904217382842	-0.0315973417214278	-0.048048559112395285
H	12.282109832573061	9.457100522932787	12.014424666722125	1	0.2207854418306918	-0.036605854885076256	-0.023293699979477566
