225
config_type=divacancy dft_energy=-23062.08119496192 dft_virial="-31.819962316930194 7.267546893155637 -10.380499433881278 7.267546893155637 -29.09812432619316 -2.893449476956527 -10.38049943388128 -2.893449476956527 -26.00512660944653" pbc="T T T" Lattice="16.3199774331 0.0 0.0 0.0 16.3199774331 0.0 0.0 0.0 16.3199774331" Properties=species:S:1:pos:R:3:Z:I:1:dft_force:R:3
Si	1.389515518609	1.2990049237650276	1.0487707097833052	14	0.17028893334298353	1.225568515844453	1.8814759949725328
Si	2.7751142426340563	2.8698680316106353	-0.0417465022738698	14	-0.6613798196914832	-0.36567905370550874	-1.1948695183218847
Si	4.300950532741742	4.0950576974457515	1.2061279321932554	14	-0.39742860486188936	0.6977195651759242	0.4754709073075361
Si	2.552526070424005	0.0107222251735467	2.6080139936965456	14	-0.4278419525833889	0.5746227557631947	1.2321808845068096
Si	4.140296674890305	1.319486495443568	3.8206209569307417	14	-0.4730867213441628	0.48239643659788684	0.4080927783982675
Si	-0.0844558832162925	2.5743132402971938	2.663779356585448	14	1.6689785111413387	-1.0607727490179657	-0.9319020083877795
Si	1.3754803380165341	3.890666300073607	3.7872792430349183	14	-0.03441964403135434	0.9901853664480883	1.7291048374951294
Si	0.0917835530837544	0.0305346777773301	5.5161523723878005	14	-1.086715715919324	-0.09451100335279121	-0.08499714233664728
Si	1.3759862573169603	1.390282557548356	6.8497066883787	14	1.0802452722706393	0.1443305398097045	-0.05594339510844198
Si	2.725762630876362	2.6783204564783403	5.254216734586545	14	0.17281915808854126	-0.11152554991940315	0.9171700891243951
Si	3.9412255901613507	4.176918704250181	6.819188330578804	14	-0.8993885818407829	-1.4735359402302823	0.5180347845509915
Si	2.8222952973931488	-0.0903310750922085	8.218887515106058	14	-0.26123304228513333	0.9423579223932258	-0.7865155156230902
Si	4.231623268605932	1.1334877126385274	9.645286182713864	14	0.27167378676919063	1.5657638020587819	0.2454135454713262
Si	-0.048633532750638	2.755252830097974	8.15736120018327	14	2.2325725106337573	-1.2444854232374423	1.6172859244586975
Si	1.4827025897520012	4.020491720553918	9.566689171396055	14	-0.8280350098855014	-0.49446674763385406	0.3973404159494083
Si	0.0998293019582727	0.11414192216710141	10.708336872751131	14	0.20872104433696098	-1.541129784875911	1.7933048231181627
Si	1.523290373628121	1.3219508120359662	12.146681763839968	14	0.031812543236724194	-0.09758681664728437	-0.10849781629439677
Si	2.953589515842438	2.8112303526935065	11.026706992516045	14	-0.07759647278313306	-1.0774165421974122	-1.255961551833923
Si	4.355083897887333	4.149599062027172	12.325728236258508	14	0.45648766539728675	-0.1448925834326889	-2.188422004297239
Si	2.576418517386064	-0.1113348860486082	13.701126974387877	14	0.7719327204682743	1.337477931788154	-0.8953858850783764
Si	4.01145045305598	1.3851580846343625	14.847344269424223	14	-0.1614384174994378	0.6507416143188385	0.31725922698488407
Si	0.125500626460539	2.536140813081173	13.479061041455685	14	-0.7214866056448409	0.849575987368234	0.3803222698353481
Si	1.2483477138126853	4.125233335719553	14.78226019942102	14	0.9185829114978165	0.05627918146325332	1.4318652649750463
Si	0.0166626969591951	5.504956867868693	0.17744711463009633	14	2.030107736872313	-0.27527873353857024	-0.26988326902423954
Si	1.493767534451643	6.7953611635264775	1.6937362179394173	14	-1.7484637178926523	-0.41229447871245345	0.20848450264750734
Si	2.3821944659547407	7.827730295989517	-0.0758062951767495	14	1.095784004383486	2.0877547463658854	0.08506913328561143
Si	3.938614393772055	9.419499294926926	1.163630710957463	14	-0.5318331354726301	-1.5997337597696424	0.9054864723285782
Si	2.9157271681976464	5.286497649949217	2.8311570451393218	14	-0.3783139794697804	-0.38832972024441725	-1.6086261846299064
Si	4.188293728521051	6.636486183215249	4.0787050800577855	14	0.5412996881508834	0.6294909146267506	1.0757352964285674
Si	-0.08411316369019739	8.38014521212252	3.0573029724297887	14	-0.3405400714377609	-2.418245909770379	-1.2793686375580196
Si	1.49327793512865	9.507431333336468	4.143185310895963	14	0.3983313199397933	1.2561034768475954	0.4507067921954658
Si	0.0982625841246951	5.514438774757324	5.229328769001068	14	-0.37045565316927986	-0.5130162440765945	0.6211708178107513
Si	1.31865417659448	7.081205568267224	6.683226598583647	14	0.4086558504633799	-1.2843043884411076	0.0486442842150736
Si	2.979701479735398	8.20232273801146	5.400900691755248	14	-0.2622774252661775	0.26350281406176007	0.8194768287168566
Si	4.18238589669027	9.768028732988208	6.966933086280657	14	0.25082546505970593	-0.8622595070230566	-2.0431560963720647
Si	2.5848559457189766	5.527886436162198	8.215998879100399	14	-0.9947583343705036	-0.23627558005298796	-1.8903018282050053
Si	3.7960920308487927	6.955019502754494	9.364713130684008	14	2.424977577719591	1.0325402128290155	1.292492073333119
Si	-0.0415506625446726	8.305040675975393	8.182820364978907	14	-0.31285903733998266	-1.8110745033173021	-0.05821085289028057
Si	1.2623828944051512	9.632197560812518	9.44162918432621	14	1.373611988846983	0.10771825716132787	1.4377726365586183
Si	-0.0023337567729333	5.185640189412658	11.013422530885503	14	-0.34447231991439536	0.5716744692925808	0.036133542837765056
Si	1.3964025490857683	6.54873366455747	12.366772979502754	14	0.30634977000096375	0.6748585822218276	-1.0671439480012928
Si	2.5945989722465375	8.209878887562986	10.95871796652975	14	0.04435670898319466	0.3933711435561636	0.23616836496113774
Si	4.221553842529709	9.668052551233039	12.340595735700061	14	-0.8499768226876452	-0.659779306629691	-0.983340055643726
Si	2.965307259639404	5.274094467100061	13.558882051080976	14	-2.425808558959063	0.4465891670252486	0.8072648497777493
Si	3.910152353128728	6.760550651661675	14.926447200042457	14	2.1775973937888833	0.27451048726891003	0.5300711569967327
Si	-0.046560895616634304	7.90797562502807	13.57969002230818	14	-0.7273759794911722	1.2463222208781561	0.13471743412820283
Si	1.1451075365708947	9.41736137788319	14.990992710790367	14	0.7888405661641001	0.2410007574103561	-0.5630939195076505
Si	0.1358638121305575	10.851544674726584	0.2395283087856087	14	-0.4989361000118675	0.8634938946872598	-2.010906465230915
Si	1.5418461879695557	12.44603910989532	1.185140441214289	14	0.9153476896734741	-0.519625784523099	-0.15462395995891734
Si	2.818133703147708	13.930014657887103	-0.3668894126735211	14	0.258032530382613	-1.8265805823925834	1.9888744066320343
Si	3.9086019552725837	15.061935652692053	1.3907231969390497	14	-0.01738272884845713	0.007333049483594336	-1.720903782855453
Si	2.876918261861734	10.943262947900607	2.615162143812243	14	-1.2697051382122426	-0.054345967373033974	0.22988381222709983
Si	4.1035277657335305	12.327245994159785	4.050814238624617	14	-0.8400125040194112	-0.21824416133225746	0.4545289973643979
Si	0.0480623335404795	13.631261150996776	2.4317582374190656	14	-0.07221746334285126	1.0996818000488304	1.5275165535373232
Si	1.3061041139484262	14.963509868793027	4.160451847020183	14	0.3981865667102689	-0.8082115307566278	-1.0572454496292545
Si	-0.3215198754095031	10.463782010916129	5.481358180500431	14	2.7211668537163938	3.294345676731793	-1.8537574227370803
Si	1.2123132036404005	12.033551680273717	6.830873434420903	14	0.17789811953796178	-0.4351228086289842	-0.6508447156421764
Si	2.6360680349040444	13.475421686488103	5.567805100963562	14	-1.6390097075296925	-1.350554059225363	-2.0918877981680235
Si	3.9165334643050707	14.795609940961295	6.708343043853188	14	1.2273914295164376	1.5264554583716978	1.5443724629056816
Si	2.81451066815756	10.97724114091632	8.266215449662047	14	-1.2471640007599727	0.43871181454537894	0.2802345390431557
Si	4.251974280465007	12.261509125059257	9.609496472203075	14	-0.9046277231516487	1.6421066038878105	-1.7595665219966474
Si	0.1106168070415518	13.62897635415614	8.055377661203828	14	0.05765292303580843	0.005582898092169539	1.5901155118775003
Si	1.5303895638115192	14.988120394762142	9.596717929872957	14	-0.8260773702947408	-1.1955050955570252	-0.4868817298288852
Si	0.0076214294612577	11.05314535595767	10.805832417936472	14	-0.2027974747898718	-0.4827777315168648	0.8644333765712418
Si	1.4016086218869273	12.301427789860622	12.350501962001953	14	-0.642016311304384	1.3144408281196274	-1.1693659533197398
Si	2.937612257935433	13.64260353531278	10.942479588983817	14	-1.3960741933659249	-0.6892925103786068	0.20362408515029942
Si	4.0965264954147305	14.994240386299554	12.343109012224758	14	-2.1653198516641123	-0.6728472065298756	1.0723396376322478
Si	2.6550155287038733	10.958358927026223	13.595226640824489	14	-0.2740656860485244	-2.2706397817828066	0.5101602602869739
Si	3.990038642663753	12.179566518367665	14.89935603750351	14	1.2202005621570478	1.4501717919650325	-0.03628806626750596
Si	0.1718330423931099	13.749124028018624	13.917693074925113	14	-0.7798769216864678	-0.3196567826959222	-1.7611716630480159
Si	1.2102895264386961	15.376144178211527	15.328653043881207	14	-0.9071589763393345	-0.5240154326361879	-0.5129596797595511
Si	5.22754989146086	0.11215088492026319	0.0622117539749772	14	0.9787814859111036	0.3756989082486578	0.04169510075577736
Si	6.9631794914710445	1.242260362230139	1.3259165665522095	14	-1.3630997676350256	1.6638550695698795	-1.4798577739914622
Si	8.373959940675373	2.8110181929868765	0.2418947055134082	14	-1.4022692716348215	-1.1245497878158346	-2.0679191830420067
Si	9.537623291587703	4.388800971264118	1.286813900622502	14	0.6672943903699518	-0.8604376217931997	1.099640148142644
Si	8.19790002412709	0.1817229487175685	2.7509933159879343	14	0.20098381709703936	-2.428104556009955	1.119672401023514
Si	9.543270003779556	1.3481770157709578	4.124678456486828	14	0.5278407231315042	0.3989838664700469	0.6560188079884425
Si	5.63202421216281	2.746978601539392	2.52190979275951	14	-1.1236892388651811	-1.5083870157343575	-0.04626009825170028
Si	6.710399361009759	4.005917980706159	3.984147130810404	14	1.1090336814298052	1.5031607299500922	1.2791110128049406
Si	5.166562135793365	-0.0894171563559549	5.407396042773622	14	1.5360567369687268	0.5068034251809886	-0.7401052648206933
Si	6.644140252631373	1.4041382183890578	6.655580556811976	14	-0.9210375457469618	-0.12769780238313458	0.5787362671648995
Si	8.074243555116492	2.688128762915633	5.376045366124637	14	-0.39889799155235395	-0.375962446543973	-0.5145157126993047
Si	9.343203400427184	3.8678183316672667	6.841057100339157	14	-0.5236788749497805	2.0165184168132027	0.3297869376573056
Si	8.0340637706762	0.2108214684807858	8.12344828707729	14	-1.2394226597515388	-1.7908712719326427	-0.9965257121675735
Si	9.243145618784848	1.3066589931811514	9.529936582216713	14	2.2346365939847725	1.813068652603609	-0.10178311764029804
Si	5.360394507766294	2.813710989263338	8.190278594665832	14	0.6923223008878694	-0.309270545644652	0.4667862277571399
Si	6.9299520174172535	4.3516730226038165	9.606379356513354	14	-1.5969155712282281	-0.6358896244370031	-0.7127939556679523
Si	5.523072042819434	-0.20661091430304598	11.230445590790866	14	1.616182920276354	2.5035531274086367	-2.1683293304413453
Si	6.999328241485362	1.2055893729379632	12.454949817573793	14	-0.016869022005491546	0.2672663980293928	-0.9206557366069197
Si	8.103684794405805	2.747223401200889	10.804216740170594	14	-0.49253481909629476	-0.04815371731998934	1.8413783219521636
Si	9.506452134690482	3.999047270206824	12.302602828235804	14	-0.4683245200701845	-1.4249739313854533	-1.5907487751178528
Si	8.265105691196597	-0.2729026626362982	13.906562850315739	14	0.26850104280412795	1.404494820399942	-1.2440257096062
Si	9.57845587512532	1.378058894450964	15.0588022170249	14	-1.2127268732124412	0.9708889639098449	-0.8879829015300741
Si	5.529077794514815	2.6691812691158043	13.516972349032775	14	0.5891818967490651	-1.1178623428781296	1.201785791633083
Si	6.919768351498998	3.8907152600059063	14.929401115957848	14	0.2043355099923844	1.0549335117253773	0.19038212141994076
Si	5.649698747722858	5.521227885369494	-0.11969071449435541	14	-1.5834499213350164	-1.2886117611839518	-1.5588413580948153
Si	6.888303435007982	6.761921529766055	1.1959769062298673	14	0.5318490763256151	0.7395946433041118	1.7990797827777474
Si	8.206729131918397	8.195925306857687	0.0141820603893639	14	1.5552125000459582	-1.6539486007713489	-0.5035594615985578
Si	9.571617804580852	9.56197269791789	1.2476133148281958	14	0.6379909888151601	-0.4391833552610941	0.5698782951159252
Si	8.19336307040069	5.497302798452569	2.721552076698622	14	-0.7356297417899115	0.42719403404271156	0.6487598063380684
Si	9.659664082832425	6.8025256336196085	4.092560740898487	14	-0.01551199261751739	-0.1390309775238153	-1.0637470036523131
Si	5.38769783001187	7.942427097389344	2.5535215890474245	14	-0.22434745114122495	1.1647117384692078	0.22451405876597058
Si	6.584947694481519	9.377638552811025	4.12916645028093	14	0.9346764881387513	0.08905923163194923	-1.147783838151885
Si	5.430244011179961	5.31215265447405	5.6378830840612935	14	1.1209826362946613	0.6463838479117195	-1.9182353448452218
Si	6.874464094144713	6.783153820406518	6.702320972180374	14	-0.18083432181357087	0.3232856407447791	0.882232881592095
Si	8.214285281469923	8.069151722157365	5.288031727827928	14	-1.0510079481225751	0.6182551843777035	0.39869384578993416
Si	9.480421770684687	9.363276972669896	6.7633087278478685	14	-0.18823190604070095	0.31531110048380784	-1.1315280247652486
Si	8.282290627433651	5.729323917618952	8.296586927665047	14	-0.2806999091061025	-0.8051555149730998	-0.4283440894524139
Si	9.438871108140015	7.079965249982308	9.985949391652394	14	-1.1488750152497558	-0.1478305854820221	-0.6337430086052115
Si	5.528033315959096	8.28007111050275	8.084410901057314	14	0.5295530792747228	-1.1510445139188967	0.9735166335470362
Si	7.218064899021201	9.221586928595721	9.677877177647764	14	-2.1158903518842656	1.779593632666877	-1.2899230248972273
Si	5.382100077752317	5.728605838611895	10.830589823702484	14	0.24966641078138319	-0.31123924098828937	-0.373253787089197
Si	7.064885590834124	7.0755914960302375	11.95849610405889	14	-1.2336248172546047	-0.42290620170030063	1.232809005536522
Si	9.398185404399296	9.26591198730402	12.195250016680873	14	-0.16669864187392874	1.1071408336931121	0.43235475664131284
Si	8.132424274665494	5.339113257193532	13.295640815085074	14	-1.745245465363423	1.0032118715526186	1.9826420473359951
Si	9.472979860975194	6.590121127327812	14.738228900306515	14	0.018270017294440236	1.689577692745301	0.4082462733858803
Si	5.464352764015141	8.193297790490956	13.70998872213405	14	0.6405662079038205	0.14140924994495224	-0.11258407397970811
Si	6.981572106038148	9.543139443960092	15.123984206892699	14	-2.7390620038551563	0.9340295980402021	-1.1261109629662287
Si	5.233620923065972	10.87821151785227	0.0618363944940159	14	2.1751407026554817	0.7226924540399904	-0.6524138612190628
Si	6.657294154442451	12.337935579378465	1.4887899413345476	14	0.048233678695445946	-0.3761935889122543	-0.6599433431491164
Si	8.146067775799565	13.713856556785695	0.1219591913575563	14	-0.7350725832670354	0.07879409364125803	-0.27502419411187556
Si	9.674352062522216	15.124849165696654	1.5320705214871286	14	-1.0090418528660543	-0.6130767211523933	-0.8129068832922822
Si	8.030391775753753	10.665252132327748	2.6037871195413724	14	-0.39022308220217433	1.1771643728662808	1.40856153768482
Si	9.530132421945911	12.115641166762211	4.0881217070366835	14	-2.0639041449740634	0.2634447070815247	-0.5993799288909004
Si	5.143028728334834	13.802343474427962	2.690250359981936	14	2.6806477765340517	-0.9772079694551729	0.7073511828157308
Si	6.767356082251278	15.011686442175538	3.9973173525989156	14	-0.17046325428368958	-0.02166593320129182	0.909528249891851
Si	5.451019342452298	11.033740902789713	5.387763109921602	14	-0.37558243717765516	-1.129313017531941	-0.7391161606040324
Si	6.566571399891848	12.1443806470219	6.971829079510588	14	3.3197870209851903	0.392769247800717	-0.9285104633599721
Si	8.32602816695436	13.730405013902857	5.5641004660862485	14	-0.2721450703743738	-0.043036960622362654	-1.4284760339420268
Si	9.619990217692559	15.20463753536708	6.934162571594992	14	-0.369729315916338	-0.488074979807966	0.2909910152605272
Si	8.286403261746793	10.74970801554404	8.068580522947206	14	-1.374179946012204	0.28402717650090614	0.3899993960393214
Si	9.617819660693955	12.101034786959586	9.299514820838775	14	0.582444572368149	1.4468838624816274	1.142785609409517
Si	5.499081675992777	13.758426415155489	8.07538595353681	14	-0.7278302938012424	0.44336217273793077	1.5413221035538582
Si	6.81290513926706	15.028185939360403	9.611405909562748	14	0.18219469363846125	-0.04329201427012134	-0.7728891716473695
Si	5.530350752754597	10.885441267855132	10.715158623318167	14	1.830446496351958	-1.8210151678165907	1.7945692927146115
Si	6.811599541072412	12.295373078232942	12.170345731117962	14	0.20619596180204353	-0.20243546316079497	-0.9040679935234525
Si	8.273249359935713	13.593415123329416	10.752090732249274	14	-0.572616779392415	-1.408540711731727	-0.5477084252718845
Si	9.501458221595954	14.743810332588636	12.264691520658713	14	-0.27678334437192087	0.9770650159993727	0.6394128100572021
Si	8.047707271810273	10.878293117739435	13.551179021732555	14	0.35537226380863113	0.3548698698290742	0.4162431822631369
Si	9.402444918509335	12.276441904410545	14.951775805018627	14	-0.35939578652413084	-0.20599104470802773	0.4992307486815564
Si	5.4604522894086305	13.63829506127044	13.466462018877332	14	0.38209761805891035	-1.2088244495575204	2.1164495672913977
Si	6.545110629567322	15.116313817499142	15.018034913397015	14	0.5168842149202252	-1.7935927869140194	0.6336928720514686
Si	10.856342748091915	0.2067904340548101	0.0676952663924988	14	2.081816521518471	-1.6179860364373733	-0.04248263031533873
Si	12.183271153244977	1.7128958714458766	1.2385557273528252	14	0.6339440690412471	-0.41837591412619973	0.25639293651995454
Si	13.815578976126206	2.886024809269404	-0.1248315073857819	14	-0.6803959717498304	-1.7287381978764762	-0.1260111572931174
Si	15.175555335581297	3.9537430128525384	1.3313674390148649	14	-1.1550145576437374	0.9426217177990729	-0.4494657196574303
Si	13.506788683114522	0.2081776321366236	2.4999267831571244	14	-0.603886819406588	-0.41081892136922055	1.3129195051016957
Si	15.0260153823618	1.280285909649262	4.012201172017903	14	-0.7024863944394786	-0.999174979089454	0.6654023139648548
Si	10.657924462460286	2.7983049305664918	2.6878023633669716	14	1.4169973342402258	0.9178612022344509	0.10943626973625081
Si	12.261003205758833	4.132561005587014	4.0242779553183965	14	-0.151492867900041	-0.8855534641130661	0.5578162116169826
Si	11.019003963167624	-0.0486824926829373	5.400982291642413	14	-0.012013746718923914	0.3185393803237858	-0.10544540005831698
Si	12.30258650825837	1.3733913809050975	6.850587967160088	14	-0.09684736675720979	0.31439964364781536	-0.006614425546612948
Si	13.813767458631132	2.6615271996996803	5.397163416923068	14	-1.2211675548679553	1.0047190534912893	0.6432517274107152
Si	15.182589245854961	4.064163980164893	6.868082982968371	14	-2.0621087421290043	2.1355099423612516	-2.420104561806314
Si	13.53309648673668	-0.038808906335911796	8.375330818779753	14	-0.5284513606450394	-0.3510993438770771	-0.15995874638769259
Si	15.025933782474635	1.3270752849499596	9.485154564140288	14	-1.7288230443520411	1.4150690052501147	0.31626729455237096
Si	10.735003715876818	2.8499902990971195	8.242845241977848	14	1.1814941142254103	-2.1681627228166005	0.3036423960988478
Si	12.20556424241859	4.116306308063647	9.56386581530013	14	-0.8137944288487973	0.2992406637907543	0.006978751170477931
Si	10.500355080343706	0.0654757494615972	10.97329170637751	14	1.6932371469474674	-0.5164738665111295	0.8088869601242308
Si	12.00776611592942	1.2710161624672611	12.448846146013814	14	1.1936603274898192	-0.5267531455810815	-2.084069066889453
Si	13.348419622103718	2.697088430526405	10.9530712543379	14	1.2580454326959032	-0.8264625218716989	0.7908933366517064
Si	14.796279060036051	4.00028758849174	12.515399013985995	14	0.5252084255047366	-0.5652004260964478	-1.3459926612768884
Si	13.663411506539981	-0.1503722720685834	13.492639262680024	14	0.6869749160430253	1.8029878628643723	-0.8632614667663183
Si	15.077570191072963	1.2702164835730392	14.846006031274708	14	-1.169352069351011	-0.043385345393242715	0.021203134243665166
Si	10.853192992447328	2.78908414331679	13.587327771746871	14	0.17301661897712864	-0.6144887721942186	1.8627107827934322
Si	12.233145004280532	4.033808822139327	14.99779814137997	14	-0.08439421813907257	0.32794705469020763	-0.23250556832205482
Si	10.92922776730814	5.512398777578187	-0.1240481484689931	14	0.07519326064039064	0.2597592847156245	0.02569459812743184
Si	12.197991772889633	6.784084059120206	1.3836403267330841	14	1.5931941533878458	-0.3737865201115317	-1.4809260682519838
Si	13.72883829606928	8.298904364460547	0.2566642850903637	14	-1.4696427725545138	-1.002716419557426	-1.051925832721868
Si	15.022343387439353	9.655747288248481	1.522490694733899	14	0.28774730878862836	-0.009633674524062838	0.6316550139747192
Si	13.648527687120996	5.300826590135478	2.435071192837985	14	-0.8825234164932716	0.12847221930556318	1.1609049599321966
Si	14.67939538166019	6.658991432095493	4.012037972243571	14	1.47373982888217	0.7793673286120144	0.5234593025554398
Si	11.062888382485228	8.185741640939431	2.6234037324159587	14	-2.1290294714018185	0.5817904831747034	1.0510866239453718
Si	12.201794327631546	9.596342570391997	4.018631243126544	14	1.1741633787366041	-0.4668307078791784	0.47743651732478926
Si	10.649535994059672	5.274535106490755	5.551680963259659	14	1.6524527316960864	0.3029841931368899	-0.3750124231281783
Si	12.000862765475219	6.63638826335065	7.01901013426968	14	-0.28510395540898414	0.8212246661134932	-1.0969890814470395
Si	13.398130273364941	7.990228311290894	5.502916870689556	14	-0.7197464815641648	0.22090396978595064	-0.032096907485132574
Si	14.755136396927206	9.385357902136882	6.878103449112294	14	-1.0818141607369935	-1.573040544335865	0.19680525673073468
Si	13.572998831560607	5.4454052702153115	8.194962428189134	14	1.0440073425568759	-0.418848740394575	0.2516492472042814
Si	15.015635876714349	6.7306034930719365	9.64584106194659	14	0.602897200968863	-0.0827731362347192	-0.9015717073681206
Si	10.577156894143874	8.150327289909605	8.315713941216641	14	2.121330810741699	-0.27405308763245567	-0.1473310197183173
Si	12.070859148685784	9.646967140389474	9.375582235654454	14	0.9158624249585677	-1.0647695322381356	0.5126370060418726
Si	10.580094490081832	5.367820097498354	10.929358327127604	14	3.356224982692861	0.5848107605942813	-0.39617261991299696
Si	12.43182440955109	6.665274623407237	12.065375636268262	14	-0.9087528045272943	0.7137660905895004	0.9081341965872667
Si	13.705631288159411	8.27948359131516	10.714717983927475	14	-2.2396515349117214	-1.1940295382137924	-0.8079801312778143
Si	14.844798352944657	9.55076087342135	12.076832260426299	14	2.829047090512891	-0.3537426972567213	0.5407276172171505
Si	13.633709147611741	5.478387944607606	13.900589738575224	14	-0.40941561208548366	0.4525973259373707	-1.3446562007314755
Si	14.971930977148507	6.809657463757873	15.270717123993702	14	-0.2878362690327055	0.8284780113321629	-0.9081478234454635
Si	10.901989724972298	8.146834814738922	13.521819382330406	14	0.43199223079117194	-2.0174686973395293	-0.21366065187802946
Si	12.146077924674943	9.321742630102657	15.042939198959925	14	1.410228385263872	0.7490614530928971	0.18466758273537967
Si	10.9042092419032	10.922275456921641	-0.1238849486946621	14	-0.46314554262381014	-0.12890287944668796	-0.03401546627502707
Si	12.22193317978399	12.255274893679815	1.2340187736264234	14	0.6873608389515796	-0.28420946786810464	-0.4922926209751368
Si	13.473757048789926	13.73983796085919	-0.1248967872955143	14	1.0207779202104021	-1.7006216185374645	-0.3823948378339195
Si	14.793194584301196	15.058785897047466	1.2447899587322693	14	0.25909233999557807	-0.9343288746994673	0.5895986729214611
Si	13.626495717586309	11.023736756623224	2.7157421647324385	14	-0.8025689830210309	0.2679379707390155	0.3486246550064345
Si	14.988446794310804	12.445957510008155	3.969948750443607	14	0.999818526751087	-1.781975504635462	-0.03950400480194717
Si	10.79292331578689	13.369194953376056	2.5895071392874103	14	0.1855469007548703	0.8977145351668344	0.8199913068914182
Si	12.183744432590538	14.764226624357443	3.9070678773938723	14	1.0693777243034372	1.3417919894048307	0.5357353020170189
Si	10.755158888006696	10.769422548283226	5.368782976166907	14	1.4459968311461762	0.15747788686428169	1.006067855342239
Si	12.345883408388385	12.284128613781535	6.537815599654726	14	-0.5622973910794687	0.07530767482713724	1.2822279637845562
Si	13.872144017909331	13.720074468187706	5.43987279786549	14	-1.6639656270986458	0.386970633972187	-0.38166772924938164
Si	15.010609323664953	15.047312952911996	6.968614043956268	14	-0.2544244982868492	0.5702125388075445	-0.588435247764094
Si	13.601313992407038	10.873935683764797	8.10466399305179	14	-1.4359494657761014	0.8715193428335698	-0.43072236187355084
Si	14.946798211901532	12.236523239609182	9.359360178085952	14	0.41428759955663225	0.7077119088921476	0.35673186430192544
Si	11.039436574913864	13.822531286512707	8.224795346936839	14	-0.21955696770872507	-1.7115755556434236	-0.668199676553176
Si	12.123132036404003	14.907369146423163	9.961355185660711	14	0.9637070954190753	0.49303926996010794	-0.7748352412641895
Si	10.719924056728633	10.689258819131839	10.912777230055577	14	0.7349571406381609	1.5216870864449512	-0.0019118739160621117
Si	12.223646777414466	12.104886301633798	12.399853573759648	14	-0.7518634436707945	-0.5930028163653371	-0.5509428757646306
Si	13.671098215910972	13.285000189798692	11.020929720504729	14	-0.5335115530256228	1.237727530013965	-0.44785286529010143
Si	15.039169284172878	14.810020481034721	12.19223082085575	14	1.0855831440257986	0.49222294402096084	-0.033958130626387764
Si	13.59491656125326	10.600543421805506	13.556972613721305	14	-0.7545967857366439	1.2818451262023858	1.6170995193229865
Si	15.040654402119292	12.158138387998005	14.819763507562282	14	-0.6184066224810603	-0.17940273037131244	1.6644165989717996
Si	10.839712691087586	13.557853892502692	13.705892407798341	14	0.9265070580945128	-0.11813714725016392	-0.6370818459739557
Si	12.320081524066655	15.037945285865398	14.765956541965352	14	-2.3808039314351905	-0.28377777928485176	1.8850763137523363
H	5.728679278510345	11.366327354896601	7.775596128079479	1	-1.562347831530433	-1.8299746985257108	1.9489196870674652
H	2.07917002097017	14.434567976202054	14.282666522247988	1	0.2043576214981377	-0.5899028346808346	-0.45846355983582054
H	8.058904408327122	8.288361659038765	10.601359420677161	1	-0.22243274900931065	0.472465799409347	-0.22179820021629815
H	10.38575783080622	10.287927726083502	13.122255742838075	1	-0.3930497553911451	-0.5195946741487253	-0.1942418647265471
H	15.947441308234625	0.37424645850036253	15.803693315006138	1	-1.7141055232784494	0.17164519139936163	-0.9990901326138891
H	6.109907423356588	6.051690799857234	12.862208326425831	1	0.02479753948123218	0.05866182476343454	0.04720960744643097
H	0.5529028834582517	0.4596717483761812	0.07283442728618199	1	0.8243112780503309	0.5055186438525107	1.0390546223786747
H	10.386942661167863	6.1887932982749625	9.036134865034692	1	0.41204148194895096	-0.4625145933782458	-0.09009204463905272
H	13.893497076382799	14.147101365704456	2.224582651896834	1	0.34852926699905706	0.13048616610283517	-0.19807692542207994
H	9.2331431046161	14.566428497868271	4.6280697924085406	1	0.18320359536608735	0.18930894205931098	-0.390600520463172
H	6.705034984427499	12.179566518367665	14.89935603750351	1	0.09512138375579438	-0.1175270239576928	-0.18889422277117107
