225
config_type=divacancy dft_energy=-23057.470562147373 dft_virial="-51.59519288012964 10.739686265503469 -3.9390822534566796 10.739686265503469 -38.94383447743695 -17.32078721378114 -3.9390822534566796 -17.32078721378114 -54.60837130096022" pbc="T T T" Lattice="16.3199774331 0.0 0.0 0.0 16.3199774331 0.0 0.0 0.0 16.3199774331" Properties=species:S:1:pos:R:3:Z:I:1:dft_force:R:3
Si	0.8575821741545387	1.3961087894919726	0.9282639964172948	14	3.1608412900936362	0.7919431189539228	2.7781160652260777
Si	2.580172112195677	2.8224911371223453	-0.0153081388322478	14	-1.0716739784648615	0.10654634735640439	0.9681674489284682
Si	3.9640245986353912	4.044580007245173	1.4471087189704102	14	-0.9041394702513526	0.6868854415778842	0.05374021495960709
Si	2.3731205585019373	-0.0993233826578466	2.5407920066496064	14	1.2248252092963978	0.14226722779028567	-1.2788945257369841
Si	3.7659327125524236	1.1049114321531692	4.087778987510589	14	0.4115421732957781	1.6248575725160013	-0.5078007569346741
Si	-0.11530064056485151	2.671661905685635	2.6145583046472183	14	-0.04905514684523326	1.2157152689260493	0.14696335165753613
Si	1.275259356599867	4.197579795680486	4.053947674291773	14	0.4423630412105212	-1.7340110206670358	-0.2778228422528568
Si	0.0765243741838059	0.083558284457472	5.369729534858027	14	0.11085012055180025	-1.4470802949280865	-0.617655602617045
Si	1.294500609993492	1.2728766398946345	6.841040780361724	14	1.5070430989835162	0.6321013578582969	0.7235566025380922
Si	2.6763620591863684	2.8201573803494124	5.515842292816571	14	-0.5538271417127728	-1.1296374910233438	-0.42274705028098347
Si	4.190594845339119	4.010862933868388	6.855500280367451	14	-0.7424084609664819	0.49477810848812404	-1.053122682248397
Si	2.93222666538251	-0.1830122269347834	8.267096728443436	14	-1.92657189673527	1.0276114039302917	0.6240957072229519
Si	3.983886011171474	1.466349972364035	9.748983319323782	14	0.8380108985276761	-1.411561503372369	-1.313290001378329
Si	-0.071971100479971	2.7156932048001394	8.09908256076967	14	-0.057026344669288354	-0.3621851786859595	0.4194951162720602
Si	1.357316203133494	4.107509840227207	9.285675479975506	14	0.15356903544606057	-0.4504954473381496	0.6300953814875174
Si	0.2034121987261584	-0.1504212320008827	10.876677439973557	14	-0.1566373925351253	0.5282258747084623	1.3808974728821548
Si	1.455562467280756	1.4965908905475693	12.292533402159583	14	-0.7830650922834514	-0.8130678344853234	-1.3324876734722786
Si	2.679936134244217	2.966939257382714	10.926714490783443	14	-0.6856528536874051	-0.6302859003917404	-0.40811823234093697
Si	4.071475330054922	4.0168523655863355	12.36212178593432	14	0.7796696905976639	0.737095528932928	-0.24257016009777446
Si	2.757553946916041	0.244473261947838	13.646389770077258	14	1.4826088566840208	-0.2651719756356002	0.04149352609867776
Si	4.021013959831777	1.511523669898856	15.27138624306846	14	1.3240287369689914	-1.2598572906150116	-2.2336652303948203
Si	0.0392658657040386	2.779455356631261	13.555977095097884	14	0.5197237436357967	0.5902591898782071	-1.3467447095830316
Si	1.2467320360468084	4.10168360828359	14.921420646993063	14	0.43954536689017093	0.9558081456545164	0.38766946039820327
Si	-0.0417465022738698	5.490317848111203	-0.008910707678472601	14	-0.9027636717945413	0.48502384912454627	0.13329535577562895
Si	1.4102582099264704	6.7783231070863215	1.4194953171536049	14	-0.06054593074203905	-1.004695656432876	-0.3046191590099721
Si	2.7054279389947196	8.022052267285439	-0.0601717567958397	14	0.5764484976510317	0.5233279190735803	0.3572597122241518
Si	4.098060573293442	9.487161921364558	1.3066100332488522	14	-0.9164465800873054	0.11886425583470181	-0.23307198282408342
Si	2.7827519920727473	5.479579302960222	2.9087911777885784	14	-0.22615673795501315	0.1297665137237257	-1.1819430292143083
Si	4.141504353220355	6.925056024187323	4.080614517417458	14	1.350292320703772	-0.45770971175595315	0.2181289758139148
Si	-0.0501676106293494	7.985870877316256	2.7168519231978894	14	-0.20295148399854868	0.9824357979026298	-0.35030718632793945
Si	1.3256228069584135	9.537639611565137	3.825223190566876	14	-0.9528971402110447	-1.1348558063811163	1.5715017378017564
Si	0.026193563780125502	5.651151225714403	5.248194662913731	14	-0.5700754988939807	0.31847793090663423	1.7753001438927618
Si	1.3676467488486461	6.983644743172152	6.816152814776247	14	0.15643350388323757	-0.5616319890226145	-0.6399221460211233
Si	2.7478762002982124	8.321328013453625	5.328815351433245	14	-1.543088710019332	-1.7109466632821153	-0.834867979384327
Si	4.025714113332509	9.542192885268973	6.58279345746035	14	2.183406292038694	-0.0020712824459112925	3.37436593050023
Si	2.820271620191444	5.395580379112057	8.076104032543867	14	-0.28209884751079506	1.6288548699572356	0.29814254470851903
Si	4.158591369592809	6.764222646584122	9.637011954155282	14	-2.24202492223275	1.0142216016440246	-0.9623050716879984
Si	-0.0898088358143493	8.356954524190083	8.166581987432972	14	0.43874703868826503	0.21189790207053594	-0.6535988836611191
Si	1.4907320186490862	9.48053601052672	9.528239304563671	14	-1.188900954431693	0.7173239861315212	-0.808389451244782
Si	-0.0169074966206916	5.401063891529579	10.620682273957952	14	-0.20342353893532786	1.3571630854508039	0.024263263795705405
Si	1.2963284474659993	6.744981393190497	12.035542717520556	14	0.8283358292079588	-0.1464486163724425	-0.20143658874391746
Si	2.7395693317847645	8.307619232409822	10.946608543274392	14	1.1166498096091477	-1.4371347453286896	0.4768112245109293
Si	4.2645080231336285	9.57819475548639	12.303990026317617	14	-0.6545872165461839	-0.1904471703845405	-0.41950000137216853
Si	2.6293605241790403	5.419603385893581	13.463377543142474	14	-0.08427980395232597	0.06449232029793434	0.5604860473814244
Si	4.080059638184732	6.63686154269621	14.925141601847809	14	-1.0507706351015256	0.707561756341451	-0.05403512073982807
Si	0.048470332976307	8.087054737401477	13.359810966352024	14	-0.7946692619248759	0.2865412032829469	2.138901230278527
Si	1.4124450869025056	9.412204265014331	14.91298321866015	14	0.5422245147345407	-0.42671709400582414	-1.2085292866667674
Si	0.22402433022416368	10.70469751778355	0.0040473544034088	14	-1.9283685851329895	1.1562543446291127	0.8106293981996949
Si	1.4291241038391338	12.381297759418212	1.2288453407801307	14	-0.6182402719668466	-1.2865273661009076	0.6632757527545603
Si	2.6557009677560637	13.534124645314963	-0.2942981530510923	14	-0.7051189491767783	2.1430941888346244	0.7547070861548782
Si	4.055628631967382	14.756344075257257	1.1656054282268682	14	-1.363295942970953	0.8075088476726313	0.9248759488794108
Si	2.643330424861774	10.905661719894743	2.7107319316604768	14	0.9904545611751077	0.26104946536527474	-2.026842433115725
Si	4.158819849276873	11.89416275301761	4.069337413011186	14	1.1111545862083951	1.6322939804334655	-1.101268686252426
Si	-0.0671077472049072	13.591522005947176	2.591955135902375	14	0.8688975867386148	0.20155460247811222	1.2284311845079057
Si	1.5802960548019391	14.82991453352567	4.14338115062516	14	-1.9411528921163619	-0.3994096415110634	-0.2525563331612296
Si	0.09765874495967039	10.890369901039929	5.3254044761497275	14	-1.043364309116307	-0.24044591288226813	-0.3313848796137776
Si	1.3793808126230451	12.21139047436221	6.664295424761251	14	0.9564030994255986	0.21797265261044985	1.6109995719509351
Si	3.0107583967905875	13.34210379083711	5.337856618931182	14	-1.0041480109996843	1.7074517598204382	1.4281561884402005
Si	4.2238549593477765	14.932273431986074	6.823774244237504	14	0.06074236318849836	-1.960894095874991	0.0736662811907547
Si	2.841797670425703	10.88705694562101	8.304159397194006	14	-0.5803853741172424	-0.47106094746241806	-1.8761514929650382
Si	4.329037213904106	11.982633350682445	9.614947344665731	14	0.39932608058815855	0.41658513927071655	1.324887743256453
Si	0.0556348030694379	13.437004459610586	8.280479109938577	14	-0.45458504746037715	0.7365843931952823	-0.6593504462622903
Si	1.5526173730754016	14.596228776661112	9.716294404525282	14	0.16401595058288626	0.7877226495708998	-1.1307145270419536
Si	0.0178050953795121	10.818823119973219	10.766174872774037	14	-1.0473950309267033	0.35053190093292036	0.3425357633872598
Si	1.2153976793752563	11.958463464104025	12.379257762239076	14	1.7922218735573163	0.35566357004140386	-0.5436280811288094
Si	2.8955719960677677	13.226460430746164	11.071064691179211	14	-1.0389474072868246	-0.18293594330225993	-0.13196712276724043
Si	3.919879059678856	14.849531146400258	12.314483771807103	14	1.5952273834750188	1.3194259442248626	-0.191045723703071
Si	2.9287341902118267	10.902365084453258	13.723420063561491	14	-1.5859302666373634	-1.4306475894954238	-1.0361595577881881
Si	4.102450647222946	12.184364591732995	15.084359301685133	14	1.5491578041275416	1.0895300478027579	-1.0318768676564174
Si	0.0816978070300986	13.56395756406267	13.521770422398106	14	-0.9194190349479286	1.156970654571306	0.9676509138696503
Si	1.2809876686788852	15.241585964275618	14.791676826399918	14	0.5028104986187987	-2.2097084423532767	0.5375402179517629
Si	5.353050517921399	-0.164178972976986	-0.0733093386294852	14	0.5037019008332939	1.2915644185336097	0.8320315359951396
Si	6.608268942233418	1.2039573751946533	1.5072804757662497	14	-0.3574664290918918	0.527575899283529	-1.3494194304475817
Si	8.006270849107631	2.6904461997111335	0.2194220965880295	14	0.7014283846002376	-0.35825370154092107	-0.12644747386594657
Si	9.46175171650122	4.308931001706527	1.3616409971532653	14	-0.1423682722293675	-1.2290927299067798	0.7407837795146804
Si	8.101351037632872	-0.10180401922767779	2.581657230142089	14	-0.49487478204816154	-0.07995700457756101	1.7515212763393722
Si	9.197825041453129	1.2258587849098734	4.188473248272816	14	0.3892229222326367	1.0592681381846152	-0.5784842988435249
Si	5.189002104763878	2.628299725645889	2.6706174271299172	14	1.2271942257383825	-1.0012331488982327	2.2568260042292465
Si	6.934080971707828	3.869434009433144	4.204466826157254	14	-1.7501061399711628	0.6943953831075046	-0.9794911109794644
Si	5.410872197966872	-0.09625522690042379	5.360329227856561	14	-0.10984918925066658	-0.2630081333981636	-1.0249986467039574
Si	6.629794992467677	1.1544262436851946	6.8013832351992916	14	0.332034083707115	1.015927787134475	0.4354827633738049
Si	8.091591691127878	2.660303201392198	5.776390732536012	14	0.6722355405742124	-0.45948274598472727	-0.8371302949555252
Si	9.718840321004846	4.02076916017028	6.859955634206687	14	-0.705340835565907	-0.09067542843619433	0.07388225403764713
Si	8.151208568690992	0.0054835124175216	8.111534703551126	14	-0.16895504390289073	-0.4157713844368897	-1.0982018718265534
Si	9.312897202333916	1.4606869401947493	9.329347739586481	14	1.7254998907257497	0.5550363325448385	1.688156385724323
Si	5.366122819845312	2.5990543260857737	8.133272913492016	14	-0.8912479481761301	-1.794055328761114	0.15273805420658873
Si	6.537456560151198	3.872094165754739	9.455876524625305	14	2.31792626527831	2.3091163728988224	1.546161180876909
Si	5.600624575581525	-0.0677115863699319	10.734889476034786	14	-2.479423818200111	0.9504016253873089	1.8499663279425222
Si	6.684728036507493	1.3440807014352498	12.2772579032822	14	0.6928149246672096	0.2932556448265136	-0.428312207746444
Si	8.115990057390363	2.783731190718733	10.884086709728185	14	-0.8497338532348911	-0.6788450810207171	-0.10858471965421779
Si	9.532090819237883	3.949597738584531	12.32326391966611	14	-0.09689416087403649	1.146156585594763	0.472935540351338
Si	8.164166630772874	0.03756858805099619	13.483875434798449	14	0.48239977903480313	-0.6503438643258116	0.6757672108419678
Si	9.49200895466219	1.2451653182132307	14.997145342282646	14	-0.8188299386183074	0.6784334470589615	0.9309267881398473
Si	5.480183142125247	2.7517766749047237	13.755978418540526	14	-0.39560029186873197	0.007691204454690963	0.6619156380402021
Si	6.651516882431134	4.194054680554936	15.378282095255264	14	1.52760165712342	-1.956003853556069	-2.389928269995332
Si	5.251507618332651	5.444964630824618	0.147858995543886	14	-0.25563677444529903	0.6812485502739914	0.8120404207993922
Si	6.83527982832784	6.679097644293073	1.3826611280870984	14	-0.5029943326491892	0.7734275611014084	-1.4133468789066796
Si	8.088050256024895	8.249161073244458	0.0366546693147426	14	-0.6083631137689657	-0.5214319860105031	-1.3674909584113066
Si	9.483783686035908	9.490572796648076	1.2862427014123434	14	0.28441104252520427	1.1852594979667674	1.708580217945451
Si	8.023259945615488	5.5371561833442	2.8768203419971354	14	0.9954982984816422	-1.6446162597908072	0.2782997822897443
Si	9.125315381717865	6.9228528272338545	4.354577978586907	14	2.9207555890667205	-1.7837120291686903	-1.0562527458651452
Si	5.620306468365844	8.213289762846504	2.47105674307797	14	-1.224460883672533	-0.13067642789652612	1.9576190219181862
Si	6.956161901174812	9.409739948421933	3.983216892096717	14	-0.15604655253255528	1.282416168693991	0.6046671498712529
Si	5.557409275338677	5.331067508319013	5.527005157380811	14	-0.30454999627686014	0.7759747551420791	-0.9573860329894914
Si	6.768710640378226	6.713663356496379	6.996096885953607	14	1.8556317585154685	-1.6942812728179797	-1.4122994105992512
Si	8.070669480058644	8.194423868933841	5.713852579012373	14	-0.896437210043785	1.5175764032590984	1.0038019402235925
Si	9.680455734082194	9.53271097838034	6.875541212655298	14	-0.04140610851779272	-0.3586486233180959	-0.9368372450498038
Si	8.260356577763565	5.221054540442485	8.23990764603989	14	-0.5932031054697767	0.7699226303289827	0.43615022231491546
Si	9.668884870082127	6.747037710347068	9.610083991390667	14	-0.827612320170869	-0.6815005185953661	-0.10371221796200515
Si	5.528669795078987	7.974903852481213	8.215737759461469	14	-0.8860491732187907	1.5913828096898013	1.7982799119126494
Si	6.963489571042273	9.273043817442286	9.655910488022812	14	0.8635466023463227	0.432965137044316	-1.6711845195060255
Si	5.360655627405223	5.4361844829656105	10.900390367183853	14	1.2310115458072062	-1.2692320548333356	1.3495366728501805
Si	6.736870364406247	6.752439622877424	12.446740868924945	14	1.4126670786600324	-0.9562881710177882	-1.2756222799960315
Si	8.339002549013674	8.034373850247428	11.020113721633074	14	-0.5824296599572921	0.3258418336540704	0.8000935228187922
Si	8.110751344634338	5.290300204691129	13.845003895438085	14	-0.46170546653399525	0.36048722073253375	-1.101913262356187
Si	9.407993710836589	6.975811154004264	14.770607735533785	14	0.33719300653199213	-0.07139290986667977	1.0267187161631364
Si	5.387240870643743	8.083268502636997	13.65729151500257	14	0.49787089107773014	1.3440602185182653	0.7394974555230103
Si	6.828441757783371	9.830501606602116	14.887311894157882	14	-1.0745055367539407	-2.7495215174080507	1.2194009484024817
Si	5.447396307462149	10.959795085040335	0.10116754010778689	14	-0.31009175668390726	-1.2801011454637297	-0.6460616884151049
Si	6.765397684959305	12.162104142514247	1.409882850445509	14	-0.4731990786466532	1.9400735421029636	-0.573554204392141
Si	8.09449664711097	13.377305982160307	-0.09945394247731139	14	-0.20188267551696315	1.496921428669689	1.4401899897806216
Si	9.477402574859564	14.91340753807341	1.369066586885326	14	0.5289432130927837	-1.5225581769274175	-0.42468360680811895
Si	8.13593306981361	11.19392148129559	2.774543043423898	14	1.160062922939848	-3.1724673141302815	0.32148278169429134
Si	9.403081397629226	12.470600675932136	4.158264970044148	14	1.903669776096051	-1.2010340004374718	-1.0703053791029467
Si	5.445617429921941	13.617323890268908	2.629964363344065	14	-0.3502369951526994	-0.9303783713750597	1.2583099994333464
Si	6.903513653975631	14.810330560605951	4.13316484475204	14	-1.1600721789190007	0.983772001337511	-1.1253915676976514
Si	5.594716743750744	10.831177342890076	5.4523739005792455	14	1.0189730042756584	-1.064042423653598	-0.41922232199759246
Si	6.946174074985755	12.127146750852548	6.8333377510133015	14	0.25980993549043135	0.3079029747248652	0.5572783363840076
Si	8.249210033176757	13.66329726669795	5.545838411338608	14	-0.9046560053101703	0.5185320363199081	1.8587597652479604
Si	9.6473751398253	15.12466964594489	6.777229668598303	14	-0.4796479250106486	-0.06510732869051376	-0.29938207458336247
Si	8.441932646684235	10.85794210588036	8.225448146034164	14	-1.1170192774436531	0.3023982382344282	0.8331975322578268
Si	9.768077692920508	12.463925805161999	9.456333483993433	14	-1.2502824944027802	-1.3476618228507287	1.4980205761940522
Si	5.5345939468872025	13.407334740637209	8.286321661859628	14	0.4470820479151211	1.2875684066450357	-1.0885183178592797
Si	6.9173529948389	14.994240386299554	9.47616225657465	14	-0.34779495931962273	-1.4083710187805971	-0.5947290564772846
Si	5.8817688268215385	10.701041842838537	10.984389291032018	14	-0.7954166822414429	1.1879108217729042	1.2580873417126217
Si	7.229358323404905	12.133658421848352	12.760737234737787	14	-2.97564843054135	2.3332672793920373	-4.009999472847347
Si	8.16114743494775	13.704733689400593	10.881655033090652	14	1.4313582430059129	-1.5159270391962234	1.2788497885044134
Si	9.672393665230242	14.875741030157815	12.329041191677428	14	-1.4423003530273992	-0.3676197240011565	0.2778318411214773
Si	9.531829699598953	9.825507693507587	12.180317237329586	14	1.8625809419747645	-2.364181478429902	-1.5689357746922485
Si	9.07317305381911	11.905521457311048	14.846479310620266	14	3.280178629307245	0.7762043548471683	1.7043512639148715
Si	5.469281397199937	13.636385623910767	13.62391716115188	14	0.5389103599768698	-0.5673701818761209	0.934394180774599
Si	6.9229833870533195	15.010462443868056	15.026227542068431	14	-0.4540978230022091	-0.3539357872662644	-1.281113903849336
Si	10.853698911747752	-0.1327303764634023	0.042350341438894504	14	-0.7924190305486822	0.5703992010537873	-0.21438364669405513
Si	12.02155649686039	1.336916231342119	1.3692134666822238	14	-0.1393698492050108	0.9479585611121041	0.006322862203308156
Si	13.435600941551339	2.6745831816461605	-0.0062179114020111	14	0.5934707575336041	0.04986993012118818	0.8259891813822596
Si	14.801387212972612	4.147248985276805	1.3698662657795477	14	0.22799764936423916	0.020935225069305733	-0.17187144866753468
Si	13.472908409963406	0.0716283809538759	2.5802700320602754	14	1.6441902276392588	0.49083968935872124	0.33914190436466435
Si	14.942081738423367	1.3841788859883766	4.048333602054786	14	0.012437721986216331	-0.8389501233011262	-0.5371987751652472
Si	10.633917775656196	2.6431345851325765	2.8631442009081978	14	0.01179263166139118	0.5352447351219347	-1.1133971042686286
Si	12.29041180509328	3.931825283159885	3.894126135289424	14	-0.5119785459693826	0.5545287963546413	2.025855128672788
Si	10.846501801699755	0.0240230067815232	5.177382280831511	14	1.3136959789083804	0.22237644180279945	1.3716018987076914
Si	12.334818463688745	1.4696629277829543	6.692431065855915	14	0.5382295312880946	-1.6533641885320791	-0.377021484825342
Si	13.840532221621416	2.774053444100905	5.4702279558910565	14	-1.3369819655718975	1.221160612883591	-0.04868670745285604
Si	15.052829105284383	4.354349498902844	6.814308657326307	14	0.6353072690819895	-1.011155044328684	-0.7267370598191153
Si	13.825991121728524	-0.0035087951481165	8.142314180989953	14	-1.5114700281237468	1.2834664652172714	0.2762264429595768
Si	15.074844754841635	1.2755694361710959	9.727016629698829	14	0.31379466256598454	0.2525475914031411	-1.7182578583704888
Si	11.080073318722283	2.6727879841285196	8.135084430987089	14	-0.40167015730853756	0.68330543453011	1.225498581779745
Si	12.410510519023463	4.298306696397578	9.483995845742536	14	-0.3062009030029272	-0.7045605051012421	-0.3187805500028157
Si	10.638242569675969	-0.009873586347025499	10.895298534224725	14	-0.30522054054435477	2.634116169560544	0.35961433047634345
Si	12.130802425797562	1.5494512974533803	12.121695878389891	14	-0.6168523893150307	0.6468931838756409	0.6991658119185075
Si	13.707149046060689	2.789198383158822	10.794898033056294	14	-0.5327826446673608	0.2157059661602073	0.6824844806013867
Si	15.109883746390501	4.142891551302168	12.157240789239182	14	-0.5642532308965053	-0.7564284411667174	-0.2267228953465098
Si	13.31204239240534	0.2982149476350363	13.688740111516152	14	-12.464102812353712	-5.026827918175469	-10.880600697580697
Si	15.19352363073514	1.057175498161352	15.342019105398917	14	-3.2705652665152116	-4.26572880708417	8.488107492917985
Si	10.796073071431477	2.8347311201971706	13.968219725057992	14	0.22526045064040956	-0.9243493865098446	-2.217505062126094
Si	12.14163889081314	4.230513510140481	15.138280507124096	14	1.6989285456841472	-0.34474974217843934	-1.408614245343883
Si	10.790263159465294	5.63576148699499	-0.0962062669681245	14	-0.690997924537461	0.9700137596588664	1.1815247103787203
Si	12.00433892066847	6.943644478483623	1.4880065824177586	14	0.1504297158501598	0.21195318083491912	-0.47933682126691063
Si	13.391585962414268	8.365685712116791	-0.0658021490102592	14	-0.46659339485812873	-0.6009490744677868	0.6627134520210439
Si	14.90893586425674	9.361840814655784	1.3770144158952458	14	0.8566789229256752	1.263373277140314	-0.49717335020437387
Si	13.470019773957748	5.5740393323430055	2.785542708213807	14	-0.20450725982777032	-0.3818186531316743	-1.2374542215184334
Si	14.754826317355977	6.951347507832048	4.108603278715225	14	1.0971140371655985	-0.7320654184845903	0.013223194661521569
Si	10.566140909376532	8.197247225029768	2.9739078877466474	14	1.096996794763	0.5283559726376619	-0.7735342619721944
Si	12.293300441098937	9.695551713207813	3.96785979333217	14	-2.0444766160644927	-0.8496379510064496	0.6058452303289447
Si	10.879353916272587	5.480656421470807	5.506393025882806	14	0.38431802461339026	-0.13441532925308544	-1.3596542293954952
Si	12.378425443389988	6.798151879667537	6.841693579459048	14	-2.332108225113714	1.8287171709136265	-2.0779053561054615
Si	13.560399808982254	8.377876735259319	5.389264547845447	14	-0.6693497319628782	0.12580829708335775	1.2865227381113313
Si	14.810967039725842	9.853675974557119	6.767078642634916	14	1.6293855460953142	-1.1329092225432322	-0.2640941682853941
Si	13.788357253767796	5.786362238747637	8.07765443040001	14	0.02519503236372707	-2.4664803597974214	1.4497215914234745
Si	14.82811933600803	7.110646807556535	9.533298497567932	14	1.6197325882813502	-0.5613725644958114	0.7635807419463053
Si	10.941271910653768	8.095998085034815	8.228173582265493	14	0.9080724900595831	0.5421802917230341	-0.2778590948378709
Si	12.396328458634098	9.625718529771577	9.434383114345913	14	-0.8745928421332749	-0.5229162851118245	-1.426738738077203
Si	10.973112186625746	5.461937407355041	11.02615211328332	14	-0.34647084007974643	-1.2154586726150984	-0.6280654938372605
Si	12.385867353099481	6.725952299503503	12.23782883780383	14	-0.11049942178613206	1.276395154255268	0.2091020821454069
Si	13.515666750838127	8.40857461281098	10.900863646529412	14	0.15294322841113656	-1.7794643060692736	0.930642938112503
Si	14.97625577116828	9.510091489658064	12.23345508385176	14	0.6559182777704247	0.8042985655698943	-0.20451908691224296
Si	13.754525940548978	5.337399659563055	13.55184814080731	14	-1.331849268021286	0.7059774412431757	1.107312583528498
Si	14.709930059437518	6.969935962128348	14.935096788082001	14	2.06047994690869	-0.8076116918854371	-0.1850851302393717
Si	10.868386891437543	8.185219401661573	13.397689633974247	14	0.5848709244587728	1.0584312434029066	0.5037862330877949
Si	12.301656269544685	9.809791555239514	14.751725521643689	14	-1.2374858461138711	-1.5670596391401366	0.28471777538989795
Si	10.801442344006968	10.847350440526277	-0.1061124932700162	14	0.3502637346480289	0.6771445519619712	0.37532635508776835
Si	12.243410270085953	12.363868023519663	1.269514724543416	14	-1.3182918296681452	-1.528262174080166	0.7613634207182096
Si	13.601836231684896	13.643403214207002	0.0516037686434622	14	0.12927903215502565	1.5587333716713692	-1.1001083464214432
Si	14.942130698355665	15.022310747484488	1.3741910597993192	14	-0.31490486584322447	0.8056566233999966	-0.8102853843078591
Si	13.591358806172845	10.9321653632461	2.6297032437051353	14	0.5311109119882006	0.11891207839365656	-1.120800087816931
Si	14.871693675754406	12.24845314311278	4.044628967177473	14	1.705748145435308	-0.7450824104994359	-0.8889311251721447
Si	10.963842439443745	13.638882580458034	2.8387947945780123	14	-1.2984601230022468	-0.581298116505895	-1.6667455061707899
Si	12.317731447316289	15.017741153803218	3.8924614975912477	14	0.5197689950894313	-0.4185484352931817	2.3749911765274
Si	10.794653233394797	10.979836017328182	5.304547544990225	14	0.5555004170551253	-0.1500481638206498	0.967486620239693
Si	12.039198392465572	12.454851897709196	6.800436676508172	14	1.1433980466967764	-0.527177635069438	-0.0956669723047298
Si	13.717969191098835	13.51857170682122	5.423618100342123	14	-1.586654289895517	2.1035894127010812	0.9489155265122633
Si	15.10139735812529	15.021054109222138	6.766621683266788	14	0.3629323418919946	-1.5216917144345277	0.09353192644687883
Si	13.642326095696417	11.170045354310965	8.214481121199121	14	-1.7075643742334607	-0.00041369084601182595	-1.014470741749547
Si	14.696368158190614	12.416826350290071	9.739550372367448	14	1.8156603267663183	0.7507871789837804	0.5009891276100057
Si	10.933226161779249	13.943723438930908	8.253959146609791	14	0.6718521887709783	-0.14636351278634557	-0.7876018076208527
Si	12.132189623879375	15.41922891863491	9.590761138109878	14	2.198661431234729	-1.6070277284523704	-1.1027704688699245
Si	11.218287207603208	10.912826189987875	10.805652898184707	14	-2.3433686379738345	1.4912667967390874	0.551660728370016
Si	12.343712851389784	12.331358628472927	12.257168011062054	14	0.039489606612154345	0.3198634995636621	0.8008304016035467
Si	13.457779790882922	14.094617950277351	11.113447672572974	14	-0.25257124557208643	-1.4293831198989753	-1.0773180688636506
Si	14.944023815737905	15.134428992449884	12.472379553472345	14	0.5603086411143342	0.47870355802655823	-0.36944803699431383
Si	13.846880692842893	11.008216458084345	13.615659252570731	14	0.15134914311264472	1.1235701966888583	-0.2924071800708648
Si	15.105917991874259	12.429229533139228	15.129973638610647	14	0.5659810136716449	-1.6841529176303203	-0.49912070537385406
Si	10.753380010466488	13.378986939835915	13.82349416518126	14	0.3157407321828047	-0.002659294232629158	-1.326294394977106
Si	12.101818145876376	15.02069506971861	14.870257517740294	14	0.8500930366481159	-1.2750617790362393	0.8797355669946351
H	14.185311328868572	0.5293923239681277	14.325121311542455	1	11.63478019292388	3.312595382294204	8.470517532980724
H	16.286338695614894	0.12817383876408078	14.820638258352696	1	0.07099181743673667	-0.7351301760262068	-0.6578468638710677
H	3.263615231145809	10.443703542680186	5.829450243166507	1	-1.7757976527722104	2.014263300336901	-1.5738789817807652
H	2.2741594793431057	14.398690137813126	13.760658988068338	1	-0.053382317099042474	-0.13110014605328651	0.04002002563970089
H	8.215853631301245	11.417557396056845	13.711255152382858	1	0.20903909006506327	2.488593408213887	-1.4109140990527553
H	6.423882573198768	6.967231741867684	9.119804125338709	1	0.048008964090465005	-0.02459056550296026	-0.0022463747182133766
H	9.930815611890152	12.820657663881157	15.79845297025237	1	0.6495419365764574	0.39060000624210806	0.9786228487128503
H	0.00996171422516424	0.6591753125071121	0.017233896169353603	1	0.2852602786124492	-0.932310557023151	0.4097956214518016
H	8.702122046900149	10.717006044763595	13.006441022984083	1	0.9803292913138327	-0.8702942111485193	-1.1471803997332461
H	7.7034879397890705	10.705074509262255	13.958040955132967	1	-2.3854851428915844	-2.9049150091892884	1.2168606963461752
H	-0.9373346398746119	1.8393740645546584	14.409972138212629	1	1.311691030979729	5.84689867222128	-6.609418576112492
