229
config_type=divacancy dft_energy=-23112.82671237725 dft_virial="-54.07358201832274 19.052865935159257 2.957304913689361 19.052865935159254 -64.11484944456085 -25.49428311558386 2.957304913689361 -25.49428311558386 -57.681414193727846" pbc="T T T" Lattice="16.3199774331 0.0 0.0 0.0 16.3199774331 0.0 0.0 0.0 16.3199774331" Properties=species:S:1:pos:R:3:Z:I:1:dft_force:R:3
Si	0.8900099693141085	0.9642005867249811	1.2757979158551593	14	2.4645659147760393	-1.5219719649144239	-0.5292085511618231
Si	2.545687999879537	2.808358036665281	0.0004406393906937	14	0.3415392029651705	-1.5988102187386453	-0.5483118636905233
Si	4.109990476797038	3.923175695120342	1.20836376910159	14	-0.7720985567614238	0.8226297751709541	0.9757609513809935
Si	2.5780015551970745	-0.001795197517641	2.680180933905714	14	0.5385696885219501	-0.26107389086581617	0.9489288962599282
Si	4.278135204290267	1.2614200157365982	3.994069677089729	14	-0.33414316140123246	-0.1101893464845222	-0.18349027360928385
Si	-0.0604165564573362	2.5520691110558786	2.6542484897645178	14	-19.266598799593254	21.02056159754464	5.483463422128664
Si	1.3122730654181378	4.109549837406345	3.9211030579863384	14	1.049299962858401	-1.257448936261629	0.5843872995480529
Si	0.0003100795712289	-0.0014198380366797	5.246481065283255	14	0.8714257545999164	-0.04697203731484929	0.8490314272614268
Si	1.2451000383034982	1.5110177505984297	6.671427254899516	14	0.7012810602653933	-0.649012288880507	-0.6321972600867384
Si	2.9515658386407333	2.6514251336685914	5.35574331419786	14	-2.0895990002120275	0.030566585598580436	-0.995563861667306
Si	4.089264105457001	3.984130810832971	6.753696261139773	14	0.5679263119568689	0.5146005591748697	0.0269960916404908
Si	2.6544769694485812	0.2237632105852341	8.133697232905277	14	-0.453297180805515	-0.4904121145439806	0.14108426223248555
Si	4.052136156796698	1.4997569661695909	9.476717135807375	14	0.2889716691420829	0.030134639904795556	-0.4223888953098869
Si	-0.1828816671153186	2.8043596421941714	7.988269913998923	14	-0.16950140378342218	0.09960282032881247	-0.0022916261718479826
Si	1.3255575270486815	3.8745095224148383	9.428834322018659	14	0.17588134452483764	1.025288410273538	1.3626593372936844
Si	-0.35819086470167877	0.19410981158929141	10.817044242433012	14	1.6833057384273316	-1.0560964226616802	-0.36623261268093665
Si	1.3190295360754414	1.1752831748446964	12.251096979456943	14	-0.4170582226496239	1.6896789942949144	-0.5896794056285138
Si	2.947844883785987	2.735848376930018	11.016507006620358	14	-2.9880835814222464	-0.719767821738322	-0.7948772643452757
Si	4.1604681669976165	4.098060573293442	12.28721308951639	14	1.282767381680723	0.26434742215942864	0.317345359013109
Si	2.700662505584254	0.010656945263814301	13.654011199538518	14	-1.20579748726411	-0.8643744982594105	-0.3438562830796879
Si	3.9366723164575155	1.293684611121837	14.957830516646307	14	-0.38984872926756076	0.9026587706974794	1.3653674825273965
Si	-0.0973160254335753	2.524667868945704	13.691416587815182	14	0.9868701832482893	-0.9646581472769981	0.9786691286086131
Si	1.2163768780212423	4.02218899820696	14.922204005909853	14	0.04574973384565088	0.6533253180550552	-0.4269595492375141
Si	0.0951291484575399	5.503439109967415	0.0057446320564512	14	-0.6037590354721766	0.3734545904147006	0.9008499981047551
Si	1.4579778239408547	6.912065322150576	1.5585904848159162	14	-0.4095202560720137	0.30403834631815063	-2.362078057167489
Si	2.7389165326874405	8.377958335146484	-0.1647338522097114	14	-0.9460919386496767	-1.7743668326615478	0.14414156356867364
Si	4.0543719937050335	9.412791784201922	1.348536055274486	14	1.0968618117336921	1.5385807910615161	-0.4165260038483532
Si	2.800149088016432	5.3827039169173405	2.5836809073437936	14	-0.3398972951077239	-0.7655237262367413	0.36676251748741917
Si	3.96901851172992	6.6409578570319185	4.078966199696715	14	0.5279026867697197	1.4213769550425661	-0.7937570337572872
Si	-0.0370789887280032	8.291984694028912	2.7748041630628277	14	0.5225488741615754	-0.9066000180427343	-0.9581254828795659
Si	1.3864473628515774	9.57923923404211	3.970601549540931	14	0.07944381195565946	-0.10221814866046709	0.8395299075508195
Si	-0.0233049277744668	5.345412768482708	5.336355181007337	14	-0.6901754279455456	1.4556559596129084	0.022163699191272486
Si	1.310787947471726	6.701309133579522	7.000976559206104	14	-0.11068891224822697	-0.5154971036000053	-1.4432516619958538
Si	2.7911078205184947	8.28217638759162	5.340679975027109	14	-1.3341221251242967	-1.6227402672848594	-0.9438062260200651
Si	3.9086345952274497	9.451617010515266	6.837336145484411	14	1.9923032326869836	0.14276370822760628	1.6702972310600424
Si	2.788953583497325	5.280132858750307	8.089976013362001	14	-0.048085840139537435	0.6699739963346102	1.8014261734929145
Si	4.194674839697393	6.754300100304797	9.717567362765063	14	-1.4124066256911014	0.2544468669031345	-1.8320642358193948
Si	0.0706165423530237	8.024320744148639	8.40831349317205	14	1.1168840373038131	1.8705516255777555	-0.5320953882152852
Si	1.5403121100908441	9.406965552258306	9.769122171476226	14	-0.8854133388731181	1.149817068239058	-1.956507018867222
Si	-0.2089120311211131	5.2943312391171045	10.996939353678073	14	1.566477798006187	0.27751405250390704	-0.19156740097252903
Si	1.3768512161209145	6.736348125128387	12.38097135986955	14	-0.45417187083542937	0.4733870264455561	-0.8840668510169565
Si	2.9260740338902314	8.214823840725217	11.059983426502138	14	-0.6358870533316829	-1.901893656540893	0.2947995935712625
Si	4.158917769141472	9.628917245348465	12.29556891796214	14	1.071770652024899	0.048143432898708746	1.129499936888716
Si	2.781854393313927	5.298525473317412	13.644839372221114	14	-1.1499415097365533	0.5861227956391528	0.15314300329451205
Si	4.075800124074693	6.743039315875959	14.901069635133988	14	0.2781995091822585	0.8485226055185693	0.5471911188814705
Si	-0.17436263889524042	8.28437958454509	13.5362136024264	14	1.6666421477369198	-2.627691234476026	1.4019733374124728
Si	1.0613860523390914	9.611373269607883	14.977724569137257	14	1.4769817355803447	-1.2693259001775208	-0.26290503207482563
Si	-0.0469199351201625	10.8760572808311	0.0720853403220027	14	-0.7270031692197507	0.6200508443332949	1.2997641876206258
Si	1.3949174311393562	12.139811053340633	1.4675413307166514	14	0.2323389606973092	-0.550444081332522	-0.27145138615899783
Si	2.766350414752482	13.320300300986489	0.0669282274531431	14	1.1389934861728306	1.1770653853114552	-0.7470081683842268
Si	3.9751711432221986	15.009662764973834	1.367450909119449	14	-0.26154208914461513	-1.1270010796280638	0.024419844109702427
Si	2.9106679751933853	10.846975081045317	2.774086084055771	14	-1.0880778875179382	-0.0774460631219044	-0.5794818877077424
Si	4.2478290061970005	12.14121457139988	4.08741994800706	14	0.16962198862293712	1.0775988335646107	0.1331313192562035
Si	0.12045775343371111	13.594508561817435	2.7212419971273936	14	-0.170348840096943	0.3619941455606725	-0.999642148926125
Si	1.4183855586881542	14.755593356295334	4.154282895550471	14	0.3317260652897613	1.7641878266990818	-0.28461775939294415
Si	-0.172665361242198	10.694726011571927	5.21633806696432	14	1.02595098411454	0.6430678933803246	1.9997872060528707
Si	1.4192994774244077	12.122136517780584	6.6834713982451435	14	-0.9364400092778409	1.067477420361316	-1.433720574574065
Si	2.9824269159667254	13.683109719301735	5.418852666931658	14	-0.11222026257690716	-1.1236540147222953	1.2232174971397096
Si	4.213279613971127	15.157081121127026	6.989193535499406	14	-1.9436440360610534	-0.5675807554018409	-0.7022719642557783
Si	2.66926286900297	10.896473572599907	8.065904046648178	14	0.29970192008518887	-0.408674362421685	2.102373794105715
Si	4.186678050755175	12.329628710865018	9.359572337792583	14	-0.3290960816577818	-1.8450367477122023	0.607567870893444
Si	0.15455018629145698	13.720156068074871	7.917588091736166	14	0.5687038142056816	-0.6687609488445643	1.625829193216485
Si	1.3366714316806225	15.11118934458515	9.544412402199873	14	-0.18939173165061976	-0.27068442544199767	-0.3411715349043893
Si	0.064137511312083	10.893030057361525	10.84256868713838	14	0.04233941974900648	-0.3334597616071371	-0.483787661686619
Si	1.4276553058701549	12.15743662896838	12.149048160567766	14	0.5374630847921584	0.2848183056079157	0.4755997196840755
Si	2.809990034408591	13.53110544948984	10.761474719273306	14	-1.1668766091487726	0.8096521210675067	0.5855432684999915
Si	3.885019587881754	14.975439772296625	12.284781412878859	14	1.4835467959048108	0.410601148748604	-1.3238505593703052
Si	2.5386704095833035	10.792939635764322	13.719650148774445	14	2.249335603100059	1.2115642193866702	-0.8009430160165691
Si	4.444288894536658	12.242643231146596	14.878368546524545	14	-2.5705263072299815	-0.6989477821873589	0.5275201062980818
Si	0.10723857171290009	13.573455790928735	13.439827815706513	14	1.846126382146881	1.4626069428459287	-0.25273733897576806
Si	1.4737918820735285	14.86350104708299	15.014232358655102	14	-0.15068091283993823	-1.2009627808201035	-0.29533001259880914
Si	5.273294788205838	0.0137414209986702	-0.0041289542905743005	14	0.25579052654344386	0.028870170308346734	0.2648109924486514
Si	6.809282104276911	1.3380096698301367	1.1865439592735356	14	-0.8354642187080693	-2.572029889621204	0.7488966452418756
Si	8.094398727246372	2.604684718300193	0.07603477486081289	14	1.4680543436877262	2.0926349613740585	-2.2731090713322764
Si	9.315589998610378	4.129019570484033	1.3404250264902353	14	1.085034727261011	0.3793668470983811	0.4318168814083378
Si	8.106540790456599	0.025149085224407102	2.6060229564497073	14	-0.33266297606842327	-1.326467687475684	0.20402389202758242
Si	9.42852424244743	1.1042912730107115	4.094062178822332	14	0.8603296353697534	1.979934416323347	-0.08972077703082335
Si	5.531150431648819	2.6243502911070786	2.3978616442905167	14	-0.49550753106745005	1.1785016047432901	3.114674780075589
Si	6.74625435143028	4.212708414760969	4.0159058068952165	14	-0.24873772753974568	-2.182360109283926	0.1593792192485312
Si	5.583619159096235	-0.122726230296912	5.569469738661738	14	-0.27924389216330264	0.7954462499526246	-1.6251501643014343
Si	6.778796386431881	1.232990615048138	6.9310291359278375	14	1.3485280282330863	1.350834309705259	-0.11263575319664308
Si	8.180405008318807	2.6158312628870006	5.397342936674832	14	-1.0767161731082038	0.3991659007267134	0.15041043256025868
Si	9.447814455773353	4.2100156184845074	6.597856796631101	14	1.4744404550819101	-0.7315100597354383	0.6000283616526417
Si	8.236154051230278	0.059567917630815	8.405718616760186	14	0.15949646165113	0.2775104529564588	-0.9865670499310438
Si	9.705425299554838	1.5320705214871286	9.45137221085377	14	-0.3857866399722588	-0.9292285730758896	1.5096206320669645
Si	5.463634685008085	2.763755538340619	8.110800304566636	14	0.24313554615767505	-0.23746523048462045	0.5485481482694449
Si	6.779220705845141	4.138942116763357	9.495631989652338	14	1.4251919611166017	-0.48490223584290326	-0.5675740705280086
Si	5.332177266784464	0.2878354419875847	10.93143096426161	14	-0.4767590310729302	-2.2525374005552394	0.008271502925448385
Si	6.6907990681126055	1.4141913244878472	12.312819134108926	14	0.36734384440030465	0.5797611097455105	-0.0408795461482264
Si	8.135198670829121	2.625117330046434	10.90747323738982	14	0.0096503867086438	0.7218509312687059	-0.707319558220293
Si	9.463138914583034	3.9569906883617256	12.28936732653756	14	-0.874352958006905	0.10140567937930031	0.962783040167014
Si	8.133452433243779	0.1353578928301314	13.527433454567392	14	-0.4552543061752117	-1.8658097360358066	-0.2505362157111892
Si	9.381522707440103	1.5405569097523406	14.710370698828212	14	0.8190993904558589	0.16504362137934944	1.6246477703218773
Si	5.329990389808429	2.6110005495668025	13.794314045530877	14	-0.10018954656287027	0.551225183128783	-1.7706001633675312
Si	6.592438564123312	3.9272230495237506	15.062833251450874	14	1.0765181979985525	0.7549153456858102	0.8134540145044098
Si	5.36721625833333	5.41217779616152	0.0612651952838574	14	0.9635345742520933	1.0515090565494722	-0.2609846735112071
Si	6.952228786613435	6.824737122906058	1.383770886552549	14	-1.0813757872799081	-0.9212278075406527	-0.2553894341135008
Si	8.427734266317438	7.967380342884554	0.10670001245760781	14	-0.7333373442864675	1.9848064037944957	0.3422570555705558
Si	9.57781939600543	9.620626696812451	1.3762473769558898	14	0.326581797765209	0.1728646666527079	0.18401272221033793
Si	8.158160879077492	5.55900863312712	2.87584114335115	14	0.2069387541290343	-0.691380505009099	-1.2202617544636671
Si	9.626567168598099	6.806067068722591	4.05598767147091	14	0.5659720148030243	0.07809809543109394	0.34425326174111875
Si	5.535981144969016	8.151779767901152	2.579878352601881	14	-1.3299471643054406	-1.0238251942358416	0.9973109277323466
Si	6.613703494718641	9.392163332726485	4.160615046794514	14	1.5988922369983578	0.8896299515981608	-0.07308469716733722
Si	5.296681315867471	5.413826113882263	5.395939418615585	14	1.0806386513846216	-0.23422229534431768	0.5040302309826769
Si	6.742255956959171	6.820901928209278	6.643046814143355	14	0.022933745234656838	-0.04037895194239356	0.7879260240017234
Si	8.269202005532305	8.097532162913526	5.370953533165509	14	-0.9241634955951977	0.5361605628369713	0.21659299749565836
Si	9.501523501505686	9.407765231152526	6.890163912435355	14	0.15411513821606004	0.4764224733865229	-0.4724174626293282
Si	8.186149640375259	5.563904626357051	8.043284557925901	14	-0.21700103190996584	0.002079252872403752	1.0511534726836957
Si	9.475786897093686	6.967243165851887	9.675412861055365	14	0.3629855637721216	-0.48622506953011946	-0.9809203884269345
Si	5.483887777002561	8.090498252639861	8.272074321560531	14	0.12504030792422952	0.6126424614638202	-0.2821865222022121
Si	7.076701254495688	9.445284859271224	9.833667682224139	14	-1.7516722002216651	-1.8143868583012488	-1.5092905021438574
Si	5.592693066549039	5.502166151727634	10.875877761079336	14	-0.06456868212594273	-0.7788734192800141	1.2892105716130142
Si	7.05413072570571	6.913501480164689	12.103091104116158	14	0.8980107264997156	-0.4963819639868324	0.06903906294608421
Si	8.825696916023583	9.110464202253743	12.013086428572612	14	2.5706093539318227	-0.10652346451905507	0.4932087058007056
Si	7.973124974941005	5.244147308510322	13.69614938127078	14	0.11759721513293284	-0.14323782004864158	-1.0392443699513016
Si	9.306026491834581	6.636486183215249	14.902489473170666	14	2.0399949223809424	-0.3911792762707374	-0.4916547297452081
Si	5.707373547971433	8.048735430388557	13.63576546476831	14	-1.8514794234234293	0.7841405856388695	-0.2059105691115071
Si	6.871591778116487	9.321709990147792	15.213629842932717	14	0.9280926587454481	-0.1388368590721441	-0.7548117301414082
Si	5.653550262397069	10.89621245296098	-0.0066911907475709995	14	-0.8642251170403098	-0.3624762278082003	0.8726043492786723
Si	6.999099761801298	12.36990641516991	1.2350632521821416	14	-0.31272842518971916	-0.19483887538188546	0.4275681298667932
Si	8.215280800093343	13.9465304750494	-0.0910981140315642	14	-3.4065134887601687	3.793285633401641	5.6123002241686235
Si	9.579973633026597	14.992412548827048	1.2948106895647211	14	1.10440080675343	1.03271684776451	0.5243738447178166
Si	8.01989803026427	10.942038949593124	2.827240250555378	14	0.6864103013147208	-0.7082119888769164	-0.13442638500596207
Si	9.540968886961489	12.20949735697997	4.2173432883519695	14	-0.4875980397710786	-0.4674516298139942	-1.3293061877491275
Si	5.465723642119521	13.606291585524133	2.596492089628777	14	0.25264143674732653	-0.004494292099618841	0.4859291353077704
Si	6.825683681597177	14.877797347314386	4.131598126918462	14	0.35038611926126795	-0.21394167368952166	-0.8146148685564566
Si	5.386669671433585	10.765146714195755	5.592252427158345	14	0.06309132500898565	0.40830618013983977	0.11218915220253338
Si	6.677269806820566	12.220937661160573	6.959866536052125	14	0.5046817490708023	0.0610120721365819	-0.02366779580355911
Si	8.188777156741988	13.496327577579905	5.491427606576653	14	-0.3656579706418835	0.9549918197153694	1.3744421987548587
Si	9.50118078197959	15.051246067473373	6.960127655691055	14	0.6037029853761974	-1.261601014243136	-0.5921471525147919
Si	8.044100556797556	10.60008646243738	8.254465065910217	14	0.8663156827761223	2.2471884730472036	-1.2553771395946536
Si	9.34645107593637	12.194809377290179	9.454783086137288	14	0.8163989585381073	0.4818811870917293	0.48752553460105025
Si	5.451541581730157	13.884269761142123	8.375820418102748	14	1.5908361926987378	-0.7537318659069462	-0.6681536537679453
Si	6.853525563098046	15.170267662892972	9.768567292243501	14	-0.7101575442726725	-0.11797902427297483	0.24896449902898274
Si	5.660388332941538	10.837248374495188	10.777615176954642	14	-2.2427054938109934	1.7336716347647763	1.1603061495031342
Si	6.854994361067025	12.318204726661849	12.207179920184469	14	-0.5094964008933116	-0.42490395053405566	0.2483554041786397
Si	8.199548341847834	13.714346156108688	10.962830600842892	14	0.8197897322343185	-0.45655862790412277	-0.370510931933663
Si	9.692956836795949	15.033946891394287	12.26709055734138	14	-0.9618199041140866	0.9870514461733597	-0.6514561244873077
Si	7.984728478895939	10.650955832096352	13.518767546550416	14	-0.17891447747101633	0.6793613589690028	0.5612830900306702
Si	9.497606706921742	12.245205467603592	14.494816436891828	14	1.5765529313137192	-1.3013955539462598	-0.1731775701701699
Si	5.4691181974256065	13.765248165722525	13.498840854104602	14	0.28803578680554903	-0.2800234512963716	-0.07109774697592677
Si	6.674528050611805	15.089826494125221	15.019764831004922	14	0.6763457095390012	0.33979239401066186	-1.6597734398741442
Si	10.770548626726109	0.1760762365257159	-0.23564415415653092	14	-1.676087617351548	2.3416269712299664	2.9216446772864275
Si	12.125988032454796	1.6766981614992609	1.324839448041625	14	-0.43372644132961186	-1.510878673900113	0.17867613600783858
Si	13.78522381810064	2.7773174395875246	0.0951617884124061	14	-1.243004466573037	-0.6531473975669011	-0.49308323586108244
Si	15.013726439354675	4.010063254974166	1.4704626066771762	14	0.620050330112231	1.9782220601801286	-0.8863767320365775
Si	13.314392469155704	-0.061852714471449	2.6697035083936638	14	1.3584609794164146	1.2876905341477425	-0.8277146501626109
Si	14.857462655432743	1.2569157019650627	4.034216821575154	14	-0.7413586786642655	0.3340277187723579	-0.5029547376272588
Si	10.708238952886534	2.899129751148183	2.861169483638793	14	-1.6003467112779657	-2.199327090402115	-1.6910113410718155
Si	12.188477226046135	4.150790420379788	3.8112696098615753	14	0.8151046641199448	-0.2494928611722732	3.041973434711486
Si	10.922259136944206	-0.1391278076171775	5.342719972206247	14	-0.5105703515855375	-0.7676430883521392	0.04905308996097714
Si	12.262357763885781	1.2745086376379444	6.5451922294544875	14	0.010871147514650108	1.1051873078708636	0.8957561242444778
Si	13.637250582714724	2.842124069974365	5.312266894316082	14	-1.2901449112863559	-1.0963956703391493	-0.6788661640843423
Si	14.665686600616386	4.2595141100391	6.714658875119798	14	1.8523224888579057	0.16856063634678	0.6521827188507815
Si	13.460554187046549	-0.12904206156352171	8.041065040995	14	0.4421360126107522	0.14601075713642125	-0.21054190112468985
Si	14.653724057157921	1.4480063177292306	9.245169295986551	14	1.1179662155330636	-0.3639697828886743	0.17655960210829272
Si	11.009864775805088	2.7676396929696963	8.08607553875549	14	-0.18499282755837837	0.9661750994158854	-1.4109500945272375
Si	12.10684469892577	4.30942060102952	9.539124729511547	14	0.6989624374876837	-0.5076107522515151	0.018167173081634312
Si	11.118441585667503	0.138393408632688	10.96286324079776	14	-0.8708467416818192	-0.45651800444006446	-0.36261378194282823
Si	12.446659269037779	1.3939708724482365	12.407572923085503	14	-0.32814091603134676	0.27667741483273084	0.6536927290053044
Si	13.554508297128907	2.649907375767313	10.811919769519017	14	-0.44946006322572596	2.019813545391504	0.7423079307484641
Si	14.881420382304535	3.9255584118255746	12.554811759486931	14	-0.31070367975010255	0.009359080475871022	-2.494306147124724
Si	13.905599971647186	0.1198212743138202	13.908407007765678	14	-1.1081386796678614	-1.158779941385094	-1.2264498907481995
Si	15.204719135254246	1.1546547233692581	15.526842849828775	14	-2.0173157165729805	1.6412720231008908	-3.8138930425426283
Si	10.958440526913389	2.913442371357012	13.71088632089287	14	-0.10060015208249791	-1.798900062515869	-1.4318153855318352
Si	12.277927022356957	4.0315729852309925	15.092437690514517	14	1.1305510047435925	-0.07610343192372307	0.056711898488634234
Si	10.923058815838427	5.389835747055606	-0.1174548775860207	14	-2.4096553326747006	-0.14301413388578868	0.638108231217759
Si	12.215796868269146	6.66507878367804	1.1821212453891654	14	0.2755720966555992	1.354665513742812	0.9092366865485462
Si	13.538498399267034	8.15724696034124	-0.0715794210215766	14	-0.7741919507130884	-0.0028930077062306186	0.22916518829011842
Si	14.865638964126726	9.393109891417604	1.3604822787555153	14	0.20527164943945028	1.3301171143671022	-0.5508639428313021
Si	13.525980976575847	5.414691072686217	2.642612345854718	14	1.206334591165489	0.5455517821293442	-1.495567998829163
Si	14.873244073610552	6.848107330590257	3.793578754324095	14	0.3626541482963545	-0.46367827564614483	2.6870320881545116
Si	10.978726258862732	8.074031395409863	2.6941834745433137	14	0.03391725005179742	0.9510940240500249	-0.7627872988445076
Si	12.318596406120243	9.48711296143226	4.072111809174813	14	-1.2190988435273642	0.6367090357025343	0.38290340246624477
Si	11.115569269639275	5.527266277019741	5.364833541628097	14	-2.0642345320077027	-1.377288412344263	-0.48917721265871345
Si	12.228020531366537	6.907789488063103	6.661178309071529	14	0.5514051605011934	-0.07975491569939736	1.51861024470833
Si	13.590885526827284	8.153526005486492	5.4222145822828764	14	1.789347892030455	0.43493537505114543	-0.3038786806777694
Si	15.022131227732723	9.397924284760368	7.005105513496678	14	-0.25252110901834357	0.3358560317655151	-1.0692203726578442
Si	13.613505015549562	5.75979331548655	8.173273178180542	14	-0.9375967495613755	-0.7916839515376518	0.4481261737856332
Si	14.936728785825311	6.966443486957665	9.695160033749417	14	-0.7749362857032712	-1.3814199214832088	0.9924980756835613
Si	11.073953327184872	8.22890798124998	8.132195794981431	14	-1.3653363721530225	-0.46870735765235455	1.0897388215547539
Si	12.28531997213415	9.551707432112469	9.600014565314446	14	-0.5806082889484993	1.0159900078832222	0.636374020679319
Si	10.637475530736612	5.423144820996563	11.11248479390442	14	1.35529054944614	1.3914516031108306	-1.8003342250634475
Si	12.294377559609522	6.7611871307815665	12.251113299434374	14	-1.5399951560981298	-0.030032567023585678	0.03499325762827939
Si	13.580359141382935	8.296048368409755	11.097095055185006	14	-0.03664390724381445	-0.32855152155097445	-1.0670567875309398
Si	15.052763825374651	9.629765884174986	12.25899584853456	14	-1.2940319083093559	1.2787505438390558	-1.1446568598615208
Si	13.456115153184745	5.330757428747784	13.604969667352051	14	0.7651059216222171	1.0138996992579419	1.172545125048103
Si	14.874386472030867	6.832946071554907	14.990307271738178	14	0.5494485493525607	-0.8851783398468566	-0.9267857659112169
Si	10.672351322511146	8.021774827669075	13.511554116524986	14	0.15170369853629315	0.45187664511613324	0.13888956673120714
Si	12.154662232804753	9.496154228930196	14.856189697192962	14	-0.3226390077567619	0.26350050006697195	-0.19013838063559074
Si	10.865955214800012	11.10590784299888	-0.2265702467037273	14	0.03958345195633975	-0.5483239478855279	0.9774259991863214
Si	12.322186801155524	12.426993696230893	1.304292596453352	14	0.5997203432352881	-1.0397040835825442	-1.4935270554260296
Si	13.904229093542805	13.950463589610779	-0.131049418787793	14	-1.1279408186225781	0.8014711210493276	1.2832453501597387
Si	15.363659395475205	15.286629101990975	1.2757163159679938	14	-0.6937533781090637	-0.06898147018691289	0.5063012883119636
Si	13.523320820254252	10.843972205197627	2.6383528317446783	14	0.6901422606869158	1.000997121429843	0.1181052655441941
Si	15.083722822565242	12.299453072591216	3.9722335472842407	14	-1.9477356930675367	-1.046977226312179	0.3015600579000599
Si	10.799271787008365	13.436319020558395	2.6376347527376223	14	-0.6849401432926601	0.4881228023669207	0.11353666850082297
Si	12.18991338406025	14.69618863843885	3.9033142825842595	14	0.4542119800784237	0.4358571163084185	1.8446819351780217
Si	10.815885524035261	10.876073600808533	5.537890582328689	14	0.44896152590414934	-1.417572490500343	-0.5637382385008797
Si	12.183156913402946	12.209481037002536	6.768204721077799	14	1.3949570481043205	0.28840448330845825	1.1359690949847405
Si	13.71103320068977	13.522227381766234	5.490138328359438	14	-0.3605728385396947	0.477623950902628	-0.7476494020510718
Si	15.096958324263486	15.073294356985492	6.75462649985346	14	-1.3939674296665956	-0.3301294088859493	-0.48096613070828853
Si	13.706267767279302	10.943948386952798	8.272335441199461	14	-0.3328468100988138	0.16092599620913228	-0.2694014438872438
Si	15.16868462508196	12.415847151644085	9.521221714267437	14	-0.4215190903800808	-0.5570554215527508	-0.7755142701792407
Si	11.015642047816405	13.592550164525463	8.30770083229699	14	-1.3388976961459398	-0.09539417803026208	-0.4713162582207088
Si	12.402383170261778	14.89018421018611	9.690704679910182	14	-0.7010810282714858	0.416348340470731	-0.44156342745595517
Si	10.48158710629564	10.812115609248215	11.067098936662969	14	0.6012275251739588	-0.6167194631699789	-1.2748159813676332
Si	12.073046025661819	12.186747308438228	12.248518423022512	14	0.4713504539214668	-0.5824206610886716	0.19448483417930104
Si	13.609849340604548	13.410500816259232	10.979493297802088	14	0.5591218188985538	0.5552070539380963	-0.11893213301515373
Si	15.004799411698771	14.884015258716397	12.232133165679679	14	-1.2700725491624918	0.8227889265902714	0.5597723085445513
Si	13.630820511606082	10.906526678698699	13.566226040925873	14	-1.1449111421776834	-0.25489063968139203	-0.18456653829629782
Si	14.779322603483061	12.166167816895088	15.130006278565514	14	-5.702720856067591	-4.356353070524493	5.972096846012166
Si	11.048918481802495	13.792420928148637	13.588682329873816	14	-0.08818325604937477	-0.36503807714919584	0.5809687579143841
Si	12.147922082124882	15.246057638092289	15.128504840641668	14	3.1627521355675703	-2.2917030478970553	-2.063721082275269
H	0.6190608079765524	1.8344421673743756	2.5364133567043057	1	19.27772140120822	-19.264721892709545	-2.9684285096918424
H	-0.23789141504906877	1.675919698575702	0.47505822310010787	1	0.10069502586881139	2.287798053136814	1.3505764278416486
H	-0.7662164124930718	12.6683155705364	14.308765430159001	1	5.544536943682397	3.4010324064386777	-5.885372178010911
H	3.4964572451770763	3.7429460243379022	-1.019698301983981	1	-0.07183591131334129	-0.04440324598948934	0.17358663302660546
H	6.011336391658407	6.088381373122329	12.907767175428072	1	-0.5773830944349055	-0.46240069341256324	0.4819236103295117
H	7.374491882717464	14.751836497490233	0.8804970544683546	1	-0.9791118729447426	1.014194347927631	1.157789037394709
H	7.9415719305718495	8.569279062592459	10.733081222535198	1	-0.4711918167232136	-0.6214986337390703	-1.0635770535906512
H	8.581332997924546	13.119558050568385	15.365697760656602	1	2.140550851451934	-5.182818163501512	-5.487439379395741
H	13.781434319340674	11.458440571524504	16.055428966911705	1	-0.7870423351031886	-0.5146290984439233	0.7236735878301588
H	14.419207613442019	14.191818103871151	1.9788772316527972	1	-0.45813728657069375	-0.28985972891966205	0.44411576370726624
H	0.4683882483232	5.76960488591933	7.839227720091135	1	-0.7001546590246364	-0.637502478804332	0.5061593632982916
H	16.073487021941432	0.3941160310251618	16.374841933234595	1	0.8260650289892039	-3.0462059882895134	-0.7650005063040911
H	2.4582896247320565	14.012161264296612	14.052801272100519	1	-0.19072022176954026	0.016587228862403318	0.30950065957080525
H	3.7416991780620137	9.088167849084643	4.5402193538861635	1	0.9384773531335262	0.7411110812219353	-0.861326710012907
H	9.732026862770791	10.03424183687468	12.996846508251163	1	0.5710070103514703	0.5121680364314776	0.9428330626563891
