67
config_type=vacancy dft_energy=-6803.991109229778 dft_virial="-18.742247035028427 2.7858517143508448 -8.459262696199207 2.7858517143508443 -14.28581953393509 -0.28758687441473263 -8.45926269619921 -0.28758687441473263 -19.882073061672184" pbc="T T T" Lattice="10.840815016574142 0.014255686002481 -0.0067104712057306 0.0142340043507662 10.828911789782719 0.0012033316701714001 -0.0067104712057306 0.001192490844314 10.845964408856409" Properties=species:S:1:pos:R:3:Z:I:1:dft_force:R:3
Si	6.996583365841687	9.535932994266133	9.67143681298812	14	-0.7713729908400782	-0.35107260438174753	0.0745674536054666
Si	1.2728051026785479	1.193123948544072	1.2754047327191524	14	1.6302065000240373	0.5993807002224963	2.3460888674025515
Si	2.791456285986042	2.656140013551389	0.16559578313695647	14	-0.5130393840244758	-0.13496965956010937	-0.19432825386530406
Si	4.185249341563517	4.007009903229075	1.4872995149278927	14	6.762006991989448e-05	0.20233236183745704	0.26879209192636866
Si	2.7589717513043426	-0.00944994789989558	2.762871196365249	14	0.12009478684092469	-0.07752062517618868	-0.23445395193366303
Si	4.141041537799625	1.3203497126413473	4.152475356831425	14	0.44644107135880806	0.06244957712107669	0.09120199080576064
Si	0.21159774358024766	2.772622519223981	2.88256800690456	14	-0.8950994639457119	-1.267450793067537	-0.7654111118237187
Si	1.5252586666675791	4.053526802900592	4.2787167739408485	14	0.08343930962316956	0.28043148571067905	-0.04434308212499787
Si	0.07124915978259001	-0.023969065970711398	5.548409475515736	14	0.5131165171840801	0.3047153183489456	0.26398772452514
Si	1.473552263658124	1.3251673756523756	6.955703695616017	14	-0.11118359291182346	-0.7189931477053614	0.3569360100643452
Si	2.8133265680707606	2.622237498847542	5.586378383998694	14	0.24562154789172622	0.25564088821381126	-0.11255990558969871
Si	4.162763300570098	4.0290330409583825	6.897735631591328	14	-0.27976454099063264	0.4295543087266076	0.08191618683151383
Si	2.878350925646031	-0.13881785918659276	8.320100767798566	14	-0.18477608337988993	0.9422039131845488	-0.8831068002904132
Si	4.1264226841309215	1.3154117164633015	9.685755375780573	14	0.27094307863720457	0.3774752849143481	-1.0750385268868072
Si	0.08602845767398344	2.6410062206544587	8.349059865911439	14	0.5020126846379567	-0.23566134299200459	0.0880917246999775
Si	1.4259718789699953	4.03164459590743	9.672514391078344	14	0.21280010292737592	0.6105999753974946	0.07044237222982101
Si	0.10998993506659466	5.510376606160221	0.21386672843220147	14	0.34359171634224467	-0.5703799177638861	-0.6985245782516625
Si	1.528243146026121	6.81391219789674	1.5353753253577047	14	-0.08691672956866985	-0.16879974914155377	0.11269206040315433
Si	2.864840004379954	8.086315105935979	0.11645106727760507	14	-0.2582965828989922	0.20766174894505998	0.035941224159817986
Si	4.239974914574257	9.444587111509096	1.4217884042716247	14	-0.9237410629910975	0.11906557338126943	0.6870394507865609
Si	2.847102245112076	5.386411762480851	2.863333129585775	14	0.28754342013674067	0.10210604846850864	0.18065331599903248
Si	4.237666902749217	6.745916369953955	4.253184460881499	14	-0.3147020056334648	-0.10608303417771368	-0.9168533289489529
Si	0.16914073319232628	8.182636927761562	2.85492390096819	14	0.26119884658437537	0.27567005576829684	-0.15526159407831408
Si	1.526051131037755	9.48359023477885	4.266015662366319	14	0.13282175817565767	-0.1334020566464151	-0.2485366671037101
Si	0.09937459838702858	5.408529215395118	5.589455010377025	14	-0.24611520011319465	-0.3053763495267557	-0.3585936016642447
Si	1.3980133890837607	6.720361291160306	6.975616124550889	14	0.7535071513019651	0.2054940500496431	0.1522845112281146
Si	2.8455628478403248	8.007045903184084	5.591613418805233	14	-0.5776211787875511	0.3528201846678522	0.053827375429960106
Si	4.253272271570944	9.338774146645358	6.878533276750115	14	-0.24215724058335872	0.6648711236057122	0.5509197358167494
Si	2.840138098581282	5.4246538597754155	8.347351351756313	14	-0.41982653174782725	-0.7771795750951005	-0.5705910055106703
Si	4.234269387925508	6.63315009938528	9.714482480220099	14	0.33614939488254403	0.8988645905765367	-0.13065611616449693
Si	0.09613969595118044	8.130149985290375	8.311685034685466	14	-0.4908954823441684	-0.14102898346810236	-0.28529550275533516
Si	1.3809737790010996	9.556043810314197	9.667975337291852	14	-1.1865519926112056	1.042113466378055	2.2653975551455563
Si	5.486314309087135	0.00108733483349722	0.1326320839523603	14	1.2363974972318525	0.2272893098485384	0.08116311008324247
Si	6.885408528508878	1.3309000043657688	1.532713902609713	14	0.11875344119540344	-0.13745488996256452	-0.4963796499920443
Si	8.337299738021331	2.649160689864395	0.1887875618936923	14	-0.3200966988161995	-0.1475580483180864	0.26803233030426493
Si	9.643689719206105	4.098661497275291	1.4839616246463994	14	-0.019929408668063805	0.001609769040944712	0.677557985697451
Si	8.237024267005554	-0.0653539186813359	2.811044574227778	14	0.11176363427204886	-0.0036921072397326413	0.1232827003273763
Si	9.580046482845066	1.3120803306773223	4.1592356958361	14	0.4195817625213492	0.5883347175460762	-0.32764083604657795
Si	5.58238137150507	2.7121599811695036	2.832012899601161	14	-0.34749208311290924	0.057875323646001245	0.644081937318591
Si	6.937066147801975	4.14524669414971	4.162805579790941	14	0.025285792381528296	-0.3384906433870709	0.3041072519407306
Si	5.53552406990163	0.005442094580414799	5.601427618453937	14	0.1974146086916098	0.10902463577449512	-0.10218600984396527
Si	6.990474560471042	1.3763751006723903	6.957769957024438	14	-0.4913888774551048	-0.5291491586289275	0.38479779286612986
Si	8.264123079401296	2.6922919996206467	5.536969151988422	14	-0.4991029647471451	-0.208564978244028	-0.7940025743153614
Si	9.590924167510382	3.9460161647075847	6.8750913145403905	14	0.7694510896132674	0.33010704026966403	0.1727021727964745
Si	8.40549070082955	-0.015370122900621721	8.397883693325412	14	-0.24396961272353104	0.6637434368122953	-0.6237311244885549
Si	9.814704831189175	1.222615331206543	9.892785879427098	14	-3.4421826899771153	2.065960515009118	-3.8150433550628615
Si	5.497975785461939	2.708392794184057	8.233590977456513	14	0.1909575347905899	-0.7474951357318629	0.6534903830166088
Si	6.86752333400934	3.9526984497660864	9.672129541760407	14	0.8187960000280813	0.28267297532878416	-0.6663651929072503
Si	5.660864614382303	5.361046398139706	0.2316164126085225	14	-0.3157245342192877	-0.1327371688106248	-0.042433007982659865
Si	7.037402327442555	6.76745167051968	1.509105836140053	14	-1.2749527641706648	0.5333035506052228	0.08784361303658322
Si	8.312387520201026	8.07011674393985	0.0893988704330491	14	-0.16513103896023448	0.4390167476363485	-0.012452634397073191
Si	9.722957837875413	9.551292276340899	1.3279610564758277	14	-0.5033123783772916	-0.7396116125992248	1.0358777646450996
Si	8.3546808341185	5.531181235063157	2.8726172128500522	14	-0.406797969759041	-1.5242656479705279	-0.4274205484214167
Si	9.640873272648353	6.838911142323903	4.130151928225867	14	0.6558959091541394	0.1383676323512171	1.427677962850653
Si	5.5186134656466725	8.147651414554563	2.8371395261491252	14	0.7763511649609488	-0.5186634198017677	0.16624227067960248
Si	6.898271168388684	9.447932590368689	4.2596586020835385	14	-0.09810720836408235	0.17236535799953515	-0.362262826066628
Si	5.549776503656354	5.415261368252564	5.587382244473089	14	0.0918038865612073	-0.4360579196339221	0.007866553837525062
Si	6.844382507134133	6.749081891104317	6.968786404260727	14	0.4990296882455209	-0.14654194749556387	0.39224474231540674
Si	8.225070088332599	8.050027609543504	5.590531504384664	14	0.07565323138216515	0.2190625441556606	-0.14098784578298
Si	9.592757351162868	9.464488699618112	6.874698876644352	14	0.03924869404365647	-0.20761495482823325	0.4541998958834189
Si	8.310808011873602	5.298601073035911	8.193092904301025	14	-1.3678503989350632	0.14504736397296178	0.6222455398345733
Si	9.547550023254924	6.694599152592781	9.560690188276679	14	0.7164960902184335	0.24314531635789158	0.06763755343607147
Si	5.559745727114819	8.144489145651958	8.395819600082161	14	0.2333653459411123	-0.5108557442760739	-0.09835840535386081
H	0.19822558488514475	0.2513597246600194	0.29542984993552185	1	10.566100780825394	-3.9620499012897765	12.07368355481561
H	10.671328461036966	0.43102147934695234	10.717377037031444	1	-8.785382289580953	2.968392771327892	-10.447274834459963
H	2.145841742874442	8.723558363320494	8.857612763625344	1	1.9281107032693785	-2.1087282809044607	-2.0723551110508587
H	8.802183621016459	8.574875352603666	2.273161822156676	1	0.17346836218187864	0.26868076306600625	-0.2230665264707272
