222
config_type=interstitial dft_energy=-23321.331931466622 dft_virial="-5.161903586427755 -1.6923611914814003 -1.5792678421699942 -1.6923611914814003 -5.48098839341351 -1.2036363605285376 -1.5792678421699942 -1.2036363605285376 -6.054533236349926" pbc="T T T" Lattice="16.3852778749 0.0 0.0 0.0 16.3852778749 0.0 0.0 0.0 16.3852778749" Properties=species:S:1:pos:R:3:Z:I:1:dft_force:R:3
Si	-1.3599944488945752	-1.3599944488945752	-1.3599944488945752	14	-0.41754981798683616	-0.19978568201785035	-0.3050847861834509
Si	0.0	0.0	0.0	14	0.5840366007823846	0.6557483277087629	0.6578602336187325
Si	1.3654343611490418	1.3654343611490418	1.3654343611490418	14	0.3388215446417739	0.3026769460511322	0.3318286523920352
Si	2.7308851075759586	2.7308851075759586	0.0	14	-0.000851292971501029	0.014576624502047521	-0.09874432826241504
Si	4.096319468725	4.096319468725	1.3654343611490418	14	-0.011913730721970155	-0.0190056105265346	0.02004356574427838
Si	2.7308851075759586	0.0	2.7308851075759586	14	0.0062711829863731795	-0.10875029883683532	0.007184439596089777
Si	4.096319468725	1.3654343611490418	4.096319468725	14	-0.013629686412636982	0.016907845695825784	-0.012745226182506042
Si	0.0	2.7308851075759586	2.7308851075759586	14	-0.11178703133046221	-0.019225440031407262	-0.022728313919577005
Si	1.3654343611490418	4.096319468725	4.096319468725	14	0.017167527333160737	-0.011540149118952637	-0.010297276807193055
Si	0.0	0.0	5.461753829874042	14	-0.008583378000782347	-0.0128920362962865	0.010017540548360947
Si	1.3654343611490418	1.3654343611490418	6.827204576300959	14	-0.09127449597578882	-0.08809301025263758	0.08116670963069067
Si	2.7308851075759586	2.7308851075759586	5.461753829874042	14	0.2358878573707096	0.23615165277655678	-0.22845736299548167
Si	4.096319468725	4.096319468725	6.827204576300959	14	0.002229405423100399	0.006971037854517487	0.03290706277151123
Si	2.7308851075759586	0.0	8.19263893745	14	0.0010307561228473647	0.053664110242130705	0.012191924317610176
Si	4.096319468725	1.3654343611490418	9.558073298599043	14	0.08693112775846266	-0.07733319159834988	-0.08434459580639371
Si	0.0	2.7308851075759586	8.19263893745	14	0.04647144310901645	-0.004879700787109039	-0.012347990410543163
Si	1.3654343611490418	4.096319468725	9.558073298599043	14	0.00958893729149226	0.005757219032875579	-0.04244072129862031
Si	0.0	0.0	10.92352404502596	14	0.1552988751054562	0.13299530778476765	0.0013819691095795926
Si	1.3654343611490418	1.3654343611490418	12.288958406175002	14	-0.025469626411918887	-0.02359966151257519	0.01977154280140671
Si	2.7308851075759586	2.7308851075759586	10.92352404502596	14	-0.21442144194226131	0.22753896417512476	0.20140933502752387
Si	4.096319468725	4.096319468725	12.288958406175002	14	0.04449143490197042	0.005549987944071644	-0.0009042577410960794
Si	2.7308851075759586	0.0	13.654392767324042	14	0.008755899167764283	0.10130617760341057	-0.11926277715932476
Si	4.096319468725	1.3654343611490418	15.01984351375096	14	-0.0039767285986730344	-0.009566825785738987	0.06931288566267998
Si	0.0	2.7308851075759586	13.654392767324042	14	0.37391070449849484	0.24809366565704855	-0.41274442214347934
Si	1.3654343611490418	4.096319468725	15.01984351375096	14	0.00827021737278831	0.013841288380485168	0.09797042556105047
Si	0.0	5.461753829874042	0.0	14	-0.002599387478669708	0.0022597444658781466	0.014103284012608257
Si	1.3654343611490418	6.827204576300959	1.3654343611490418	14	-0.09165013446306246	0.07807932636225687	-0.0909546504739624
Si	2.7308851075759586	8.19263893745	0.0	14	0.0019661242383172363	0.009556541364458394	0.05652472202132746
Si	4.096319468725	9.558073298599043	1.3654343611490418	14	0.004264692394529619	-0.005217801136708512	-0.002287512403335746
Si	2.7308851075759586	5.461753829874042	2.7308851075759586	14	0.23537106520135984	-0.23227776839068967	0.23113645473907596
Si	4.096319468725	6.827204576300959	4.096319468725	14	0.0018943903998851048	0.030531875676758437	0.0037592130885885063
Si	0.0	8.19263893745	2.7308851075759586	14	0.04270014582542325	0.009818794107113499	-0.009176789108672524
Si	1.3654343611490418	9.558073298599043	4.096319468725	14	-0.0007782735804088234	0.0015961421827479275	0.009886928398097423
Si	0.0	5.461753829874042	5.461753829874042	14	-0.02407197355988639	-0.0042176411671709085	-0.0008978299777957091
Si	1.3654343611490418	6.827204576300959	6.827204576300959	14	0.09940150278224488	-0.08368022219166744	-0.08069259780965538
Si	2.7308851075759586	8.19263893745	5.461753829874042	14	0.004318428495720714	0.019382277455936292	-0.00833860877430425
Si	4.096319468725	9.558073298599043	6.827204576300959	14	-0.0067733198553980994	0.0012562420594243514	0.00819102732892775
Si	2.7308851075759586	5.461753829874042	8.19263893745	14	-0.00025299676350257097	-0.014893127566957747	-0.00390808008662508
Si	4.096319468725	6.827204576300959	9.558073298599043	14	-0.005790129180973475	0.0076066150896580914	0.0035704939580896372
Si	0.0	8.19263893745	8.19263893745	14	-0.22992083614370998	0.23152289186869424	0.21868536300519484
Si	1.3654343611490418	9.558073298599043	9.558073298599043	14	0.08845862142916265	0.004951177515009155	0.011332403809084674
Si	0.0	5.461753829874042	10.92352404502596	14	0.2839302458303365	-0.2633248935736058	0.24209244872929095
Si	1.3654343611490418	6.827204576300959	12.288958406175002	14	0.005327587333878834	0.0533722897882939	0.003928648929186264
Si	2.7308851075759586	8.19263893745	10.92352404502596	14	0.014275805179590194	0.02132063375679593	-0.006208962237625596
Si	4.096319468725	9.558073298599043	12.288958406175002	14	-0.015188804678774778	0.006484841838477485	-0.051293808247486194
Si	2.7308851075759586	5.461753829874042	13.654392767324042	14	-0.2233719737827608	-0.2244783204020205	-0.23268991657350943
Si	4.096319468725	6.827204576300959	15.01984351375096	14	0.07737895727304853	0.08314208984816045	0.056127486249364575
Si	0.0	8.19263893745	13.654392767324042	14	-0.007327650162422025	0.02113345728948915	0.01817514350812677
Si	1.3654343611490418	9.558073298599043	15.01984351375096	14	-0.014802110438624505	-0.004580938348907833	-0.11155383207792477
Si	0.0	10.92352404502596	0.0	14	0.1365624593059411	-0.0035422117995680086	0.1623167070768004
Si	1.3654343611490418	12.288958406175002	1.3654343611490418	14	0.0002298568156212383	0.005574670555145065	-0.00476477237929842
Si	2.7308851075759586	13.654392767324042	0.0	14	0.01870916208312153	-0.10893130465137374	0.13083635064743931
Si	4.096319468725	15.01984351375096	1.3654343611490418	14	-0.005353812608144345	0.06883388874153638	-0.008836117653752903
Si	2.7308851075759586	10.92352404502596	2.7308851075759586	14	0.005314988917810109	-0.016932528306899206	0.008376146911978412
Si	4.096319468725	12.288958406175002	4.096319468725	14	0.0037093336453776337	0.005946452384438477	0.005082046775804693
Si	0.0	13.654392767324042	2.7308851075759586	14	0.09619610577961626	-0.10261846975881415	-0.0007613042852958462
Si	1.3654343611490418	15.01984351375096	4.096319468725	14	-0.003013849656277578	0.09226977084521813	-0.0015159236967593073
Si	0.0	10.92352404502596	5.461753829874042	14	0.029595993340224534	-0.009669927109076925	-0.039211413016514325
Si	1.3654343611490418	12.288958406175002	6.827204576300959	14	-0.00038232336110601933	0.0046485584188277265	0.013015192241121592
Si	2.7308851075759586	13.654392767324042	5.461753829874042	14	-0.0023762155368808545	-0.041420763818117566	-0.012766823467195288
Si	4.096319468725	15.01984351375096	6.827204576300959	14	-0.008584920663974436	-0.004422558261186711	0.003549668004996438
Si	2.7308851075759586	10.92352404502596	8.19263893745	14	0.021086406062130438	-0.009045148516280941	-0.00793751634436115
Si	4.096319468725	12.288958406175002	9.558073298599043	14	-0.01521143040559208	-0.047319136533069274	0.009176274887608494
Si	0.0	13.654392767324042	8.19263893745	14	-0.004448269314388191	0.02369119286197246	-0.008238335666818477
Si	1.3654343611490418	15.01984351375096	9.558073298599043	14	-0.018879112144783317	-0.102008089355811	-0.008847687627693569
Si	0.0	10.92352404502596	10.92352404502596	14	-0.343893306996298	-0.22988355511656783	-0.22692215600882124
Si	1.3654343611490418	12.288958406175002	12.288958406175002	14	0.3291457039904607	-0.15327361544477555	-0.1572488013802565
Si	2.7308851075759586	13.654392767324042	10.92352404502596	14	0.001968695343637384	0.08157731515031832	0.01855849531136085
Si	4.096319468725	15.01984351375096	12.288958406175002	14	-0.0029344025018850028	-0.07664490670414625	0.014225154404783278
Si	2.7308851075759586	10.92352404502596	13.654392767324042	14	0.0016917873006574362	0.017399955254102126	0.07872133136069784
Si	4.096319468725	12.288958406175002	15.01984351375096	14	-0.006695158253665598	0.00955577003286235	-0.07779753321916864
Si	0.0	13.654392767324042	13.654392767324042	14	0.8011399626840925	-0.6639352412691784	-0.6558876816171149
Si	1.3654343611490418	15.01984351375096	15.01984351375096	14	0.6677872712598242	-0.02756096347932733	-0.01601721481292649
Si	5.461753829874042	0.0	0.0	14	0.013173572328842711	-0.004219440940895013	-0.004717721151939709
Si	6.827204576300959	1.3654343611490418	1.3654343611490418	14	0.07073470690472186	-0.08245663316980896	-0.08340588525400765
Si	8.19263893745	2.7308851075759586	0.0	14	0.006687702048237168	-0.01329698538420982	0.05815197457844918
Si	9.558073298599043	4.096319468725	1.3654343611490418	14	-0.0027539109084106076	0.007564963183471692	-0.0006168081663035242
Si	8.19263893745	0.0	2.7308851075759586	14	0.007308623983052929	0.053195911963331746	-0.014087600270155355
Si	9.558073298599043	1.3654343611490418	4.096319468725	14	-0.004385791455108593	0.0026081292367582114	0.007894064664450647
Si	5.461753829874042	2.7308851075759586	2.7308851075759586	14	-0.2197888814086024	0.22655808749548828	0.22550907652486785
Si	6.827204576300959	4.096319468725	4.096319468725	14	0.028617944876440204	0.0009893613271929808	0.0014151363682095026
Si	5.461753829874042	0.0	5.461753829874042	14	-0.0006211790453477759	-0.02848321895766445	0.002982739281903786
Si	6.827204576300959	1.3654343611490418	6.827204576300959	14	-0.0014444469688591908	0.02594425245401822	0.00023371347360146038
Si	8.19263893745	2.7308851075759586	5.461753829874042	14	0.026394195885044137	0.0055800698763173754	-0.010354355345300345
Si	9.558073298599043	4.096319468725	6.827204576300959	14	0.0028876083850583076	-0.0037671835150809656	0.012137931105887066
Si	8.19263893745	0.0	8.19263893745	14	-0.003661511086422879	-0.0073384488047666474	0.0029655128762587943
Si	9.558073298599043	1.3654343611490418	9.558073298599043	14	0.008528870567995207	0.07139008165082761	0.005071505243992086
Si	5.461753829874042	2.7308851075759586	8.19263893745	14	-0.008585691995570481	-0.009385305750136535	0.02837883208166644
Si	6.827204576300959	4.096319468725	9.558073298599043	14	0.007607900642318165	0.0006191221610916574	0.0019183016793624817
Si	5.461753829874042	0.0	10.92352404502596	14	-0.010944166905742313	0.03977551352375481	-0.008626572570160836
Si	6.827204576300959	1.3654343611490418	12.288958406175002	14	0.012677606112586148	-0.000773645590832557	0.009131537655037918
Si	8.19263893745	2.7308851075759586	10.92352404502596	14	-0.019063203285705918	0.005866748119513886	-0.00478559833239162
Si	9.558073298599043	4.096319468725	12.288958406175002	14	-0.006439590384842878	-0.008463564492863446	-0.0521967804359222
Si	8.19263893745	0.0	13.654392767324042	14	-0.022199437555222547	-0.006646050142050769	-0.005404977604015292
Si	9.558073298599043	1.3654343611490418	15.01984351375096	14	-0.004638016887015119	-0.005752591043299312	-0.11034309858266704
Si	5.461753829874042	2.7308851075759586	13.654392767324042	14	0.007646981443184417	0.004213527398658673	-0.04105258153627236
Si	6.827204576300959	4.096319468725	15.01984351375096	14	0.0008242963656394742	-0.009611048797245534	-0.011748665760416648
Si	5.461753829874042	5.461753829874042	0.0	14	-0.00335940621130548	0.013696020929896803	-0.03237792929662476
Si	6.827204576300959	6.827204576300959	1.3654343611490418	14	-0.0008638913875697545	0.00012212750270703375	0.02676212105635733
Si	8.19263893745	8.19263893745	0.0	14	-0.004117625170217148	0.0024186387746632978	-0.01319259850821181
Si	9.558073298599043	9.558073298599043	1.3654343611490418	14	0.015583983566481536	0.010402435014787112	0.07140602250381253
Si	8.19263893745	5.461753829874042	2.7308851075759586	14	0.02620316275975713	-0.010099301697541654	0.007938287675957193
Si	9.558073298599043	6.827204576300959	4.096319468725	14	0.003205139892096595	0.011239329796495312	-0.002090565735812403
Si	5.461753829874042	8.19263893745	2.7308851075759586	14	-0.009112511475668822	0.026341488225981098	0.0020273165449367606
Si	6.827204576300959	9.558073298599043	4.096319468725	14	0.010705054110968542	-9.590222844152335e-05	-0.0021085634730534392
Si	5.461753829874042	5.461753829874042	5.461753829874042	14	-0.21889362253612685	-0.21928931564489765	-0.21860668718239834
Si	6.827204576300959	6.827204576300959	6.827204576300959	14	0.08341411279103211	0.08174623676985206	0.08324956205054264
Si	8.19263893745	8.19263893745	5.461753829874042	14	-0.004832392449218314	-0.0052504541742743925	0.009993629268883569
Si	9.558073298599043	9.558073298599043	6.827204576300959	14	-0.0025623635620595753	-0.00859854752217122	-0.00861988769632845
Si	8.19263893745	5.461753829874042	8.19263893745	14	-0.0055098787010773335	0.009253922268276966	-0.006100461593115347
Si	9.558073298599043	6.827204576300959	9.558073298599043	14	-0.002972969081687224	-0.008120321932623678	-0.007208093765035139
Si	5.461753829874042	8.19263893745	8.19263893745	14	0.009861731565959972	-0.0053664110242130705	-0.003409799875580382
Si	6.827204576300959	9.558073298599043	9.558073298599043	14	-0.009902097919486298	-0.0035059592145539205	-0.0019036463790376376
Si	5.461753829874042	5.461753829874042	10.92352404502596	14	0.016243214970567504	-0.013776496526417437	0.0006780004729230485
Si	6.827204576300959	6.827204576300959	12.288958406175002	14	-0.005762361243515875	0.003375347064290398	-0.027150872180763716
Si	8.19263893745	8.19263893745	10.92352404502596	14	0.006984150491650242	0.00576261835404789	-0.0017285541067355535
Si	9.558073298599043	9.558073298599043	12.288958406175002	14	-0.00013318325558367048	0.003166059091230344	0.0044688381569493755
Si	8.19263893745	5.461753829874042	13.654392767324042	14	-0.005861348798341576	0.0019722948910855915	0.010677543284042957
Si	9.558073298599043	6.827204576300959	15.01984351375096	14	0.014042863037584776	-0.004343111106794135	-0.002338163178142663
Si	5.461753829874042	8.19263893745	13.654392767324042	14	0.002309881019621034	0.004032264473588233	0.029147078351326683
Si	6.827204576300959	9.558073298599043	15.01984351375096	14	-0.0019926066231147612	0.010154323351392823	-0.008727874119774668
Si	5.461753829874042	10.92352404502596	0.0	14	-0.01194021310676768	0.0003897795665344488	0.038541382970083735
Si	6.827204576300959	12.288958406175002	1.3654343611490418	14	0.013826633080160324	0.005524534001402177	0.00017946315134633592
Si	8.19263893745	13.654392767324042	0.0	14	-0.019309515175376105	-0.005477739884575483	-0.0038911107915121025
Si	9.558073298599043	15.01984351375096	1.3654343611490418	14	-0.005386979866774255	-0.10110177473045881	-0.005031653111529791
Si	8.19263893745	10.92352404502596	2.7308851075759586	14	-0.013711190451285675	-0.001203020179297286	0.0036005758903353696
Si	9.558073298599043	12.288958406175002	4.096319468725	14	-0.008720675024878255	-0.05431280011440407	-0.0033704619641821165
Si	5.461753829874042	13.654392767324042	2.7308851075759586	14	-0.014255493447561024	-0.03350458764791365	-0.0019692095647014136
Si	6.827204576300959	15.01984351375096	4.096319468725	14	0.002671121317101839	-0.010210630557904067	-0.003987784351549671
Si	5.461753829874042	10.92352404502596	5.461753829874042	14	-0.007567534288791841	-0.008792923084374417	-0.007596073557845485
Si	6.827204576300959	12.288958406175002	6.827204576300959	14	-0.002371330436772573	-0.02241952417062722	0.0004154906197359296
Si	8.19263893745	13.654392767324042	5.461753829874042	14	-0.0035108443146622025	0.013959816335743997	0.0027904206039567102
Si	9.558073298599043	15.01984351375096	6.827204576300959	14	0.012488115650491235	-0.004007581862514811	-0.004314828948272506
Si	8.19263893745	10.92352404502596	8.19263893745	14	0.00782952992091493	-0.0037473860041158246	0.005531475985766577
Si	9.558073298599043	12.288958406175002	9.558073298599043	14	0.0015565471608176469	0.005324502007494657	0.004920581361699394
Si	5.461753829874042	13.654392767324042	8.19263893745	14	-0.0012469860802718183	0.014036949495348438	0.004121481828197371
Si	6.827204576300959	15.01984351375096	9.558073298599043	14	-0.002794277261936932	0.0008147832759549262	0.01303704663634285
Si	5.461753829874042	10.92352404502596	10.92352404502596	14	0.009369364897151615	0.00032730170725485044	0.0029493149127418614
Si	6.827204576300959	12.288958406175002	12.288958406175002	14	-0.00871193326678975	0.001523122791655722	0.002923089638476351
Si	8.19263893745	13.654392767324042	10.92352404502596	14	0.008892681970796162	-0.03818117111473099	0.0018239421141130472
Si	9.558073298599043	15.01984351375096	12.288958406175002	14	0.009324370554049024	0.09407288700623798	0.016044725639852073
Si	8.19263893745	10.92352404502596	13.654392767324042	14	0.009735233184208686	0.0007494772008231651	-0.03152483655139963
Si	9.558073298599043	12.288958406175002	15.01984351375096	14	0.0005021368690249199	0.006740409707300204	0.08359177616865435
Si	5.461753829874042	13.654392767324042	13.654392767324042	14	0.00843116856582958	0.00183371231432961	-0.0013215481345561126
Si	6.827204576300959	15.01984351375096	15.01984351375096	14	0.002341505615058855	0.0034622504241114027	0.002082852419851959
Si	10.92352404502596	0.0	0.0	14	0.011562774845769942	0.16272422727004385	0.18311900600105446
Si	12.288958406175002	1.3654343611490418	1.3654343611490418	14	0.00269040460700295	0.00195404004331254	-0.013300070710593997
Si	13.654392767324042	2.7308851075759586	0.0	14	-0.11578330032956836	-0.02670144297080183	0.12104609580937947
Si	15.01984351375096	4.096319468725	1.3654343611490418	14	0.08983750521235805	-0.004163390844915784	-0.016199506180124987
Si	13.654392767324042	0.0	2.7308851075759586	14	-0.11854338189074734	0.10240815334362606	-0.013059158142096124
Si	15.01984351375096	1.3654343611490418	4.096319468725	14	0.10311083642762252	-0.009080886880231	-0.005056335722603213
Si	10.92352404502596	2.7308851075759586	2.7308851075759586	14	-0.020565243013736426	-0.0014809566644052934	0.004813623380381234
Si	12.288958406175002	4.096319468725	4.096319468725	14	0.0038993383285365764	0.006094033829814978	0.005384922982518137
Si	10.92352404502596	0.0	5.461753829874042	14	-0.0022052370330910074	0.04137654080661102	-0.013005679151437043
Si	12.288958406175002	1.3654343611490418	6.827204576300959	14	0.001685102426825051	0.0012994366288028392	0.015101901318953772
Si	13.654392767324042	2.7308851075759586	5.461753829874042	14	-0.044683753579917496	-0.0010616093866891417	-0.01071508142171712
Si	15.01984351375096	4.096319468725	6.827204576300959	14	-0.0009546514053709817	-0.009493292173582753	0.002124504326038358
Si	13.654392767324042	0.0	8.19263893745	14	0.004375249923295986	-0.008358149174737376	-0.01611363126243204
Si	15.01984351375096	1.3654343611490418	9.558073298599043	14	-0.08605000996524792	-0.0044966060944069755	0.004518203379096219
Si	10.92352404502596	2.7308851075759586	8.19263893745	14	-0.006695415364197612	0.011271468612997163	-0.014203557120094034
Si	12.288958406175002	4.096319468725	9.558073298599043	14	-0.043416198657084494	-0.014849932997579262	-0.01771568698741631
Si	10.92352404502596	0.0	10.92352404502596	14	0.00977508531667098	-0.10398372668381278	0.01047982528492357
Si	12.288958406175002	1.3654343611490418	12.288958406175002	14	-0.17746360273885675	0.6219943428447948	-0.2178836923663727
Si	13.654392767324042	2.7308851075759586	10.92352404502596	14	0.030377609357549556	0.05671652647821051	-0.010599124571778442
Si	15.01984351375096	4.096319468725	12.288958406175002	14	-0.11303761695818222	-0.03191255923367795	0.029939235900464305
Si	13.654392767324042	0.0	13.654392767324042	14	-0.6439284423309781	1.075678475000992	-0.6261909009483405
Si	15.01984351375096	1.3654343611490418	15.01984351375096	14	0.19766374879713217	0.7777166789964794	0.35543551299950676
Si	10.92352404502596	2.7308851075759586	13.654392767324042	14	0.008650226739106197	0.034069716597282196	0.057163641693384254
Si	12.288958406175002	4.096319468725	15.01984351375096	14	0.017269600214370618	-0.005544074401835302	-0.0867146406905062
Si	10.92352404502596	5.461753829874042	0.0	14	-0.0003121321858659768	-0.01382149086952003	0.041566031268705936
Si	12.288958406175002	6.827204576300959	1.3654343611490418	14	0.0014164219208695767	0.013082812311041485	0.000286421132664496
Si	13.654392767324042	8.19263893745	0.0	14	0.005620693340375715	-0.01612520123637271	-0.00871347592998184
Si	15.01984351375096	9.558073298599043	1.3654343611490418	14	-0.0846292171653341	-0.0010109586118822247	-0.0034892470299729577
Si	13.654392767324042	5.461753829874042	2.7308851075759586	14	-0.03884374495573315	-0.01155891818778972	-0.0033987441227037456
Si	15.01984351375096	6.827204576300959	4.096319468725	14	-0.0032035972289045063	-0.0007060255209126625	-0.006096090714071095
Si	10.92352404502596	8.19263893745	2.7308851075759586	14	-0.005197489404679342	-0.011493097891593928	0.007875552706145582
Si	12.288958406175002	9.558073298599043	4.096319468725	14	-0.0520250306005363	-0.013621715986144521	-0.0017552936020650935
Si	10.92352404502596	5.461753829874042	5.461753829874042	14	-0.010480082395455585	-0.006168081663035242	-0.006578687182662891
Si	12.288958406175002	6.827204576300959	6.827204576300959	14	-0.023429968561445413	0.002141987842215365	0.002546165598542643
Si	13.654392767324042	8.19263893745	5.461753829874042	14	0.021248899918363796	0.0027089165653080157	-0.02019114718965488
Si	15.01984351375096	9.558073298599043	6.827204576300959	14	0.0021504724897718533	0.009232582094119736	-0.04921301271189035
Si	13.654392767324042	5.461753829874042	8.19263893745	14	0.01566754448938635	-0.014004296457782556	0.004428986024487081
Si	15.01984351375096	6.827204576300959	9.558073298599043	14	-0.0878952922535182	0.05458070928876349	-0.08322256544468108
Si	10.92352404502596	8.19263893745	8.19263893745	14	-0.023465706925395475	0.010421718304688224	0.011227502712022632
Si	12.288958406175002	9.558073298599043	9.558073298599043	14	-0.04288372274528183	-0.0025595353462074125	0.003424969396969256
Si	10.92352404502596	5.461753829874042	10.92352404502596	14	0.01280333316274139	0.002943144259973506	0.01650778170801074
Si	12.288958406175002	6.827204576300959	12.288958406175002	14	-0.0777363409125491	-0.09511701287675012	0.09162699451518112
Si	13.654392767324042	8.19263893745	10.92352404502596	14	0.1910752914142527	0.2564327886524169	-0.24475302851458017
Si	15.01984351375096	9.558073298599043	12.288958406175002	14	0.0978513833847276	0.019141621997970433	0.049988458076447015
Si	13.654392767324042	5.461753829874042	13.654392767324042	14	-0.03201334656222776	-0.004114796954364986	-0.008401343744115863
Si	15.01984351375096	6.827204576300959	15.01984351375096	14	0.006214875779861937	0.0006833997940953594	-0.0009150563834407014
Si	10.92352404502596	8.19263893745	13.654392767324042	14	0.003286643930745289	0.0036121458642760364	-0.045978562219144065
Si	12.288958406175002	9.558073298599043	15.01984351375096	14	0.011584372130459186	0.015815640155826878	0.08194601165322755
Si	10.92352404502596	10.92352404502596	0.0	14	-0.002881951953353982	-5.142210640296158e-05	-0.09154343359227632
Si	12.288958406175002	12.288958406175002	1.3654343611490418	14	-0.2455395296320135	-0.2683498618113032	0.7718015940969468
Si	13.654392767324042	13.654392767324042	0.0	14	0.7548739508901559	0.7835209492567137	2.495278539156804
Si	15.01984351375096	15.01984351375096	1.3654343611490418	14	0.29744166139824674	0.25711490289385214	0.9623960888163318
Si	13.654392767324042	10.92352404502596	2.7308851075759586	14	0.04787758060860544	-0.004158505744807504	0.03704525678428956
Si	15.01984351375096	12.288958406175002	4.096319468725	14	-0.0813006642178704	0.01012681252446724	-0.004953748620329304
Si	10.92352404502596	13.654392767324042	2.7308851075759586	14	0.009028179221167965	0.053774153549833045	0.027001748072195127
Si	12.288958406175002	15.01984351375096	4.096319468725	14	0.00964987248757977	-0.09506276255449499	-0.0052501970637423775
Si	10.92352404502596	10.92352404502596	5.461753829874042	14	0.010656460220417743	0.01653863497185252	0.0014719577957847752
Si	12.288958406175002	12.288958406175002	6.827204576300959	14	-0.083047473172379	0.08850027333534904	-0.09654217655570821
Si	13.654392767324042	13.654392767324042	5.461753829874042	14	-0.0073014248881565135	0.00025633920041876347	0.0022327478600165916
Si	15.01984351375096	15.01984351375096	6.827204576300959	14	0.006706471117074248	0.0002599387478669708	0.001755807823129123
Si	13.654392767324042	10.92352404502596	8.19263893745	14	0.2001631202788481	-0.24366236563777333	0.24899612362442056
Si	15.01984351375096	12.288958406175002	9.558073298599043	14	0.09454314216929308	0.0313942244011361	0.013436853513625875
Si	10.92352404502596	13.654392767324042	8.19263893745	14	0.005566957239184621	-0.04187353546499564	0.0021368456315750683
Si	12.288958406175002	15.01984351375096	9.558073298599043	14	0.012465747034205946	0.08380312102597053	0.019001753868554377
Si	10.92352404502596	10.92352404502596	10.92352404502596	14	-0.03344519511501822	-0.016998862824159026	-0.016417021690209515
Si	12.288958406175002	12.288958406175002	12.288958406175002	14	0.021387739605651792	0.019286889448558803	0.01716007112773231
Si	13.654392767324042	13.654392767324042	10.92352404502596	14	-0.1232536468372586	-0.08768934671737433	-0.009530830311256913
Si	15.01984351375096	15.01984351375096	12.288958406175002	14	0.2859385361959042	-0.17870338972423216	-0.5969006120306816
Si	13.654392767324042	10.92352404502596	13.654392767324042	14	-0.11065008855789274	-0.03081161193559055	-0.09920558455684961
Si	15.01984351375096	12.288958406175002	15.01984351375096	14	0.4133149504140203	-0.6415766522946387	-0.25532361381730495
Si	10.92352404502596	13.654392767324042	13.654392767324042	14	0.017517711877764904	-0.09525790944829424	-0.1025325948411212
Si	12.288958406175002	15.01984351375096	15.01984351375096	14	-0.6529116272090434	0.21139036588033872	0.020983304738792504
H	12.761444278975617	-0.8929386571817004	12.761444278975617	1	-0.5851992546081557	-0.7321209543595054	-0.5405219287915385
H	12.849921502444504	12.849921502444504	-0.8044614337128154	1	-1.9355923626404778	-1.8967933549173148	-2.1550917375900314
H	4.080433941825285	4.096319468725	4.096319468725	1	-0.002338163178142663	0.008506501951709919	0.008563580489817207
H	17.7348430944272	4.096319468725	12.288958406175002	1	-0.07877995256199721	-0.03667527472872026	0.04035838309983238
H	15.003957986851246	9.558073298599043	9.558073298599043	1	0.014220783525739024	-0.011252956654692097	0.01876444084750471
