225
config_type=interstitial dft_energy=-23352.22044123194 dft_virial="-72.23271956457408 0.4061562460503948 -3.96298084738492 0.4061562460503948 -76.64523256778178 -8.115238391958373 -3.9629808473849195 -8.115238391958373 -77.7887792799625" pbc="T T T" Lattice="16.254729908999998 0.0 0.0 0.0 16.254729908999998 0.0 0.0 0.0 16.254729908999998" Properties=species:S:1:pos:R:3:Z:I:1:dft_force:R:3
Si	-1.3008335251574519	-1.3401699715372317	-1.6349982626266737	14	0.14177794644786149	-0.25523953867333615	1.6055362302561524
Si	-0.06129658648683899	0.08909217463122898	0.027015361108757997	14	-0.40427160167146337	0.3437310702505967	0.9110896821527767
Si	1.262326070003031	1.5204024167682237	1.4475324625861767	14	0.341530975428146	-0.18930508540133076	-0.21518171778542908
Si	2.690060271560046	2.7008696669495307	0.013605208933832998	14	0.6147983332747644	-0.5410577471402575	0.5267176643276635
Si	4.003735033345608	4.063617458330364	1.4577729424288468	14	0.6281801651345391	-0.6814475538257709	-0.8642896517838454
Si	2.728892821312647	0.14804808001117198	2.6596964360900337	14	-0.636945577391988	-0.6509488454076424	0.310415973064778
Si	3.9939171764805717	1.5276032621179108	4.021306396377237	14	0.33369296085967454	0.19993403479482288	0.062476573726938246
Si	-0.06796102574952899	2.8924479136570045	2.8092399512528337	14	0.3072370584469469	0.12386274168760168	-0.3580176740725315
Si	1.406245448617317	4.279187686383521	4.07374415506367	14	-2.077500921238603	-1.8443525765865105	1.375195018392598
Si	-0.064173673680732	0.17860697224009198	5.443741555983917	14	0.7389171570522528	-0.6373932068282258	-0.5856132025646995
Si	1.3946883356520179	1.421069762294325	6.786626067415953	14	-0.06998342993017459	0.6178967722960749	-0.9478811708419678
Si	2.711240184631473	2.915220790259514	5.408159952213116	14	-0.29298927831534627	-0.7824742522808814	0.38192895354990863
Si	3.9586444125780416	4.240745250148736	6.847776361333611	14	1.7749952108017921	-1.8879796058798473	-0.4689333578099955
Si	2.6921083675285797	0.0005526608169059999	8.004202865979506	14	-0.11541306116346704	-0.7696459793965346	1.12294130432755
Si	3.947054790152925	1.214439635691117	9.583138565150039	14	1.0882889752647222	0.30241546464007313	-0.9571016687410828
Si	-0.011329546746572999	2.696952277041462	8.090954359503838	14	0.24285323879352275	0.3909483910129881	0.3567920281664169
Si	1.407740883768945	3.9291258230632975	9.55467653307938	14	0.18952157246928722	0.002606072352502093	-0.5254866191003766
Si	0.066286788568902	-0.11196257961319199	10.79263676294882	14	0.3811026003000131	-0.3058100949942647	-0.22728802429587833
Si	1.3659174637130878	1.064879865798408	12.236820751173743	14	0.47849966937467053	0.7353824014581133	0.5864166729772458
Si	2.7030803102171546	2.5175000588461014	10.976656560248609	14	-0.6311071114309957	0.35983801663919635	-0.43562083172949695
Si	3.9765733796676686	4.012252511817923	12.180335564739968	14	0.10272954150864455	-0.5262661782334456	1.2241227833229336
Si	2.746512948534003	-0.257491176488469	13.642627322083516	14	0.27540343214659746	0.9853295769404566	-0.9834485562882361
Si	4.017015147681261	1.199095170657021	14.941445260732252	14	0.17730702242485974	1.028865074884396	0.1204876517338433
Si	0.064986410176182	2.5053740303339875	13.536321388478656	14	-0.1116394498850857	-0.09376384014675619	0.7791588119705506
Si	1.3307259734601027	3.9594408943435826	14.966770129930474	14	0.14626838188950012	-0.1187999782016981	-1.006832502064451
Si	0.22561565113691998	5.4779577624423625	0.009980404164125998	14	-1.0715917030946167	-0.6266418728214945	1.1505115237860302
Si	1.4008326235576198	6.737943151338497	1.546978900169439	14	0.4916441882133955	1.0998844031480584	-0.6718077086489398
Si	2.8671718086485094	8.078373198554273	0.084784671205344	14	-0.5200700715224207	0.10648284105499672	0.6525853539439167
Si	4.247864821848879	9.556903431076913	1.4688424134968758	14	-2.160103850301128	-0.06404006287212029	-0.5723419282336911
Si	2.752852293198513	5.36128131115556	2.8122633310159078	14	0.9705493208970533	1.8026777875627624	-0.9547660766682603
Si	4.100499440493885	6.803774807469948	4.048289248026176	14	0.38877349302267483	0.05865565411066619	0.7182657820102915
Si	0.060240029042753995	8.20405477021066	2.884938228439047	14	-0.6877547322866262	-1.5530833677303435	-0.31975577025074786
Si	1.3927215133330286	9.450776299501051	4.228928061504893	14	-0.08907260137961401	0.916579506232357	-0.8273068728588355
Si	-0.04315630790839499	5.449008088474434	5.474999401598924	14	0.37525436413880425	0.38335900232897496	0.06803941719761063
Si	1.467980912811699	6.7647309462285286	6.752734955555687	14	-0.6888567080268417	0.4375039092659734	-0.02098099074400437
Si	2.8140188418460794	8.226892665732805	5.452437836485232	14	0.6183791116541346	-1.3397775283864946	0.21810300765018134
Si	4.319044284120389	9.545687667439703	6.634221719789168	14	-1.210917072177589	0.7496373806846104	0.0801079284598537
Si	2.7227322786771353	5.440165515403937	8.18230594159242	14	-1.4541822020433994	0.1613671978820697	1.026730800358141
Si	4.115811396068163	6.707059164511397	9.455864029962568	14	0.853256267523494	1.2165642479027623	-0.7816700105367391
Si	0.051007342454441995	8.139312180983115	8.071676249831766	14	0.16295305564353704	-0.47508524150951376	0.7437819454285051
Si	1.5711984477338488	9.43196957699634	9.342178448979023	14	-0.4696869487793309	-0.010292905928148804	-0.027742483514929788
Si	0.10268112883515298	5.2773093764456664	10.908305420981264	14	0.09216101309017588	0.6174645694917579	-0.7365653670159135
Si	1.3296043970963818	6.753303871102502	12.122322433694746	14	0.9795021667323409	0.5974868240436754	0.9562105236371196
Si	2.8432773556822797	8.058444899685838	10.775959410062185	14	-0.6640833369356189	0.34062723190811395	0.59496199861929
Si	4.130944549613441	9.41196000447836	12.215640838102315	14	-0.03256124910595132	0.208235105431453	0.235738733262141
Si	2.6717574456825113	5.352081134027066	13.613271279867863	14	-0.7004858173898715	-0.07000219899901168	-0.9437596890137703
Si	4.049313296010443	6.577769042815212	14.950482890561656	14	-0.3240598005566757	0.8987805154325679	0.2969328396553894
Si	0.040896900451043994	8.203892222911572	13.535069774275664	14	-0.14221246324696651	-0.8227449606892968	-0.32090196900246987
Si	1.4137876432950929	9.394323622527095	15.003294508035998	14	-0.18175914839722815	0.424266316414659	0.5457137617645136
Si	-0.04730126403518999	10.8628571961557	0.039580267328415	14	0.08964801475026314	-0.4516760989011616	0.07817779969601853
Si	1.2051906943728958	12.271199504931278	1.5074148875709328	14	0.361603080441478	-1.1098471791531	-0.8149141452157219
Si	2.6162637977731857	13.5382069371481	0.138929176532223	14	1.4112869093241769	-0.013344293722100544	0.014411559540494013
Si	4.173775762923656	15.047637411227749	1.3752314239509449	14	-1.3848860285653004	-0.5681268581718404	-0.24536366602811538
Si	2.6345503689208107	10.842083651331999	2.7544777661894124	14	0.45862631080258587	-0.04913896487867009	-0.02431957100221665
Si	3.9939659406702988	12.296183024801412	4.029433761331736	14	1.0007027298706859	-1.287385858167305	-0.3772505703093672
Si	-0.10125071260316099	13.647585014705761	2.722634750297682	14	-0.10318771247669493	0.4299661997988953	0.37072716189108745
Si	1.277377949898765	14.980635414542851	4.0347653127418885	14	0.12392701932060537	1.2293860930238087	-0.2818993297379516
Si	-0.05347806140060999	10.740117730612841	5.463426033903716	14	-0.6494632607536609	1.1611412445111182	-1.1090992446154688
Si	1.3762229624753939	12.159090632748905	6.527671965235673	14	-0.6075635000143997	0.5088698225267916	1.3449009699579535
Si	2.6465138501338346	13.591506196519711	5.243987180132216	14	-0.15071639409335627	0.6432388718841144	1.0469029213684269
Si	4.008465159749126	14.848581988762135	6.713300980796453	14	0.789740710136684	0.45399986388951147	-0.49315908346802684
Si	2.7404336795480364	10.872821345589916	7.904902720965426	14	1.071384472005813	-0.21881700359758646	0.35931325404335407
Si	4.221499649936481	12.113203530215797	9.332409356303714	14	-0.5109979264002782	-0.23204996845932457	0.4880436123230601
Si	-0.11818814116833898	13.432031041382514	8.033510144005433	14	0.9056474235216194	0.2049949985070024	-0.28579995361914823
Si	1.3489312709581829	14.763520987148338	9.390926383976113	14	0.5350303049382343	-0.23112899853364752	-0.06892336320667754
Si	0.04852036877836499	10.674221055561755	10.643710927522562	14	-0.2910514362355507	0.34518554453020445	0.04649766838328197
Si	1.4994825793753408	11.960945475158196	12.146330669770341	14	0.3314483859151853	0.19183685281008056	-0.3495955043753224
Si	2.8695449992152238	13.40625103974684	10.770936698520304	14	-0.5678301526178954	0.2952919602400709	0.20855572226487548
Si	4.160528158047822	14.747607606567428	12.305009343141997	14	-0.3565390314029143	-0.4524710846661514	-0.8725205312452355
Si	2.7923187774175644	10.759444604474643	13.753045702355355	14	-0.037042428568437404	-0.3797224309641576	-1.412297096604463
Si	4.115486301469982	12.124012925605282	15.010267787166958	14	-0.03496600391188581	0.32921820916048883	0.9642305724622574
Si	0.009086394019131	13.301180465615063	13.463874057274243	14	1.3680918257246253	-0.3390380317097304	-0.4976806292840392
Si	1.3192176246845309	14.822460637798372	14.91321079488032	14	-1.4408335374422545	-0.35932251002250665	0.5465411434565373
Si	5.516611510165964	-0.066546864247446	-0.067603421691531	14	-0.11652017911432282	0.22445312356988303	0.06445041128121592
Si	6.774321236874839	1.2953069169883917	1.3230049767533278	14	0.541187587958925	0.7850654122225268	-0.06412310957396108
Si	8.066783576129156	2.810101451938011	-0.05638765805432099	14	0.16314228899509994	-0.5384789285041489	0.17025396631062953
Si	9.390211175860117	4.165729671618702	1.3250530727218617	14	-0.36827021364715395	-0.09601921373359008	0.4895453949405587
Si	8.113337122588533	-0.012207302161658998	2.7487886107212627	14	0.016001016849409553	-0.35616365002617273	-0.634201950904858
Si	9.401313156387966	1.3321888991519129	4.089608771454855	14	0.3348520151379973	0.5136649339488677	-0.15666464625151888
Si	5.501185771482324	2.7495200735671674	2.6791208383312886	14	-0.8663874166145542	-0.6182595552567477	-0.25001582399439126
Si	6.698509176579264	4.043835452031111	4.111292581153461	14	0.27130791848213354	0.8232154729628838	0.0711746230249992
Si	5.357900327334488	0.140424611683851	5.291385972546861	14	-0.18002956584836455	-0.9737233504147762	1.0548530361288568
Si	6.744802647360095	1.372126770538326	6.761284943487821	14	-0.5371902905176906	0.2000731315926429	0.2704969918641589
Si	8.061321986879733	2.723935128690402	5.384476810735704	14	0.5344070690086304	-0.0946493288190152	0.686674868052164
Si	9.461634459080264	4.049443333849716	6.775215247019834	14	-0.9941543817308008	1.0562077515220427	-0.21066505706952496
Si	8.130615900481798	0.12581160949566	8.197829208655513	14	-0.0042361531254759745	-0.15034872603257513	-0.5200183923054857
Si	9.404043951012676	1.5435979163483668	9.54801209381669	14	0.1849455192204877	-0.5423972930120546	-0.055500650772312476
Si	5.3792590424349145	2.721805759072323	8.211418162859438	14	-1.089273965712871	-0.6658103483791624	-0.7009730418480395
Si	6.624046258866135	4.064608996854812	9.559601716241806	14	1.009123099794171	-0.4131681403002398	-0.8751489722140229
Si	5.3856471512891515	-0.08668647460469699	10.913344387253053	14	-0.09197126551754896	0.3113629111541885	0.022784364015556235
Si	6.664601809989089	1.3650884724877288	12.24987329929067	14	0.12570005354937952	-0.022588702900692963	-0.2473513875511218
Si	7.950676040389169	2.7733495076137618	10.903884134446015	14	0.9653148075757639	0.05820519645857625	0.46933470735047067
Si	9.464722857762974	4.113990866318355	12.213804053622598	14	-0.7402253354391441	-0.30533906849961356	0.18643496053244946
Si	8.118538636159412	0.11924469861242398	13.554169081918738	14	-0.023930305656746233	-0.3204972770250786	0.03327267394803629
Si	9.509114525144453	1.4861049366602337	14.85874119495526	14	0.0906890552943911	-0.38087660014237207	0.4244676339612266
Si	5.386329849945329	2.685265126236891	13.647991382953487	14	-1.3576320550611987	-0.2519174134891728	-0.8910839116567046
Si	6.639000610382414	4.098857712773076	14.875207236353077	14	0.2137526974484908	0.28356437754327946	1.3751795917606773
Si	5.371960668705773	5.436248125495868	0.15068134625642998	14	0.2793979013719795	-0.5908178910642752	-0.28896704115250665
Si	6.697290071836089	6.89233057601418	1.379278851698286	14	1.0352856390898697	-0.5741890102956855	-0.5365925085307562
Si	8.199909814083865	8.11566154896552	-0.021179913071426994	14	-0.2601930301831334	0.054323341646216675	0.584563163151951
Si	9.512024121798163	9.542176645779358	1.3267760740922159	14	1.0657848617290622	-0.5263155434555924	-0.6645412507931373
Si	7.98983368473995	5.4667257440752435	2.7475857607079965	14	0.3854462256278712	0.12141942030186498	-0.08172669636941893
Si	9.410838428114639	6.839291392321112	4.067112225260799	14	0.49117136194502026	-0.060554672500127554	-0.4652379081333467
Si	5.487011647001675	8.211824531107164	2.7453100985207364	14	-0.04703168695827672	-0.2814792111286394	0.7810999964872622
Si	6.889193413141743	9.682828823681936	3.8488274573128374	14	0.30053804353530106	-1.1992208569657035	1.5273201210908638
Si	5.440084241754392	5.441319601227477	5.528331170430354	14	-0.31714841234558566	0.4556533417208987	-0.6455464389089473
Si	6.836820673374945	6.814437910290251	6.803417203411949	14	0.5500342471444905	0.12975288686552894	-0.9376653980734234
Si	8.268488519569937	8.237620787472746	5.470334294115041	14	-1.2814576606306396	0.3758436614781821	-0.34630474667606487
Si	9.561568538560795	9.547394414080149	6.895061370638891	14	-0.44310737620070406	-0.38123809755038485	-0.193633284097268
Si	7.9856724738832465	5.435012766022785	8.241684469949995	14	0.6683099769714104	-1.1418607828258598	-0.8139780057686559
Si	9.369876508743959	6.635245767773435	9.584146358404396	14	0.47452088389174124	0.8366659533347066	-0.3702448225330277
Si	5.58072016492706	8.266928065498673	7.986030077941244	14	-1.2808681061807297	-1.5299254221117697	1.200760949052472
Si	6.8397465247585645	9.43973933789284	9.42771083776018	14	0.3962322695564244	0.566155591722883	0.6722203710528235
Si	5.272335429093513	5.270921267591429	10.800374014385502	14	0.48177654310519913	1.603790963964836	1.3487735687911608
Si	6.750621840667518	6.715414095684623	12.228920952437969	14	-1.0890052852069156	-0.1453790365592609	-0.7719484042107273
Si	8.059924080107558	8.047277900238356	10.829274924163705	14	-0.07893653287599423	-0.21840331275157462	0.17314363157994395
Si	9.494582796605807	9.289952001781407	12.131425082443787	14	-0.3089044202470629	0.7573342415710056	0.61076272636426
Si	8.005015602474955	5.44889430536507	13.63347590914475	14	1.6330421720816286	-0.22898315403345196	-0.36095799011665286
Si	9.566298664964316	6.786447265386953	14.86556818151704	14	-0.47500348036033313	-0.06376032661328818	0.10252488152516076
Si	5.3588756111290285	7.947132509269007	13.645293097788594	14	0.24159751095516244	0.7051809128149938	-0.5807129329350293
Si	6.736561499296232	9.351378626107516	14.942696874935244	14	0.17505550549600604	0.07289417826311423	-0.6512110981502975
Si	5.601867568538669	10.764434806556705	0.11578244114180698	14	-0.16555424289593088	0.39065837033287537	-0.4064822380257268
Si	6.956471740235093	12.204213762976288	1.2925761223636798	14	-1.1590244535010406	1.102087840407425	0.26294514131781993
Si	8.247714974746234	13.470505987077116	-0.15401356588777498	14	0.05690164606126116	1.151118818862649	1.6566030099038696
Si	9.562771388574062	14.932358866713122	1.3986219802899957	14	-0.6928650612209525	-0.2606146914556377	-0.9708473120036585
Si	8.299453780046582	10.971487556137546	2.6329899148495466	14	-0.07052464760006576	-0.028524356642786818	-0.0540999125938958
Si	9.487967121532844	12.254473387854915	4.102758847951236	14	0.9903427180936812	0.8646375223336615	0.3371675525893227
Si	5.344018787992202	13.55610339477791	2.635395614876079	14	1.4075019851823871	-0.3191893557487192	0.14889502308456337
Si	6.715219038925715	14.929595562628592	4.055880206893679	14	0.01269971761833942	-0.5534088228771848	0.2645747078697298
Si	5.600502171226314	10.955379118797728	5.315849341059905	14	-0.8350266165825802	0.3142428062232863	-0.6811721884459832
Si	6.943337918468621	12.198280786559504	6.699760790782256	14	-1.3711257300024	-0.12087614574771768	1.2492838770964347
Si	8.16897706306704	13.662214271623862	5.603216711121116	14	-0.818911699767488	0.17865453872314935	-2.539204587998874
Si	9.424996297865377	14.985381795676279	6.802799523675407	14	1.5021973367866328	0.7557301289617652	1.5161720655332336
Si	8.13596370662186	10.884524751124397	8.14864239595088	14	0.5805098156147376	-0.05496020443401735	0.13660436832265951
Si	9.528376380086618	12.236593184955016	9.479010765352983	14	-0.9615658789084558	-1.1775672650699482	1.4947277616105386
Si	5.530866908296158	13.602689450697103	8.101910047462505	14	0.17468038122979646	0.2503714078601678	-1.114967792508707
Si	6.8075296500789255	14.991981216019333	9.494550287145989	14	-0.4849634281495227	-0.3620165141769578	-0.049725948223259896
Si	5.544715938178625	10.781648565530336	10.811671051672258	14	-0.8470676170178977	-0.0943353968594251	0.1999497185372758
Si	6.8025719574566805	12.112423303180165	12.272402354944544	14	0.21722626073601084	-0.1658465775708317	-1.070932985911595
Si	8.012655325532187	13.541734213538353	10.82808832888035	14	0.36011055380313206	-0.6137786329047937	-0.2177859903642071
Si	9.254988077747146	15.00649668982807	12.05091540520451	14	1.1081762178055359	-0.10720712142368245	0.5468615031794277
Si	8.102543981928957	10.685956970556054	13.519075120045208	14	0.039021922554419414	-0.8305786043787239	-0.12860848788753101
Si	9.408465237547926	12.029231595505903	14.83224598520359	14	1.2046353476594032	0.3833554027815268	-0.9501817958824365
Si	5.481842642890613	13.375594619138464	13.609662729828063	14	-0.1308080684889177	0.8414047575502716	0.5736413648624941
Si	6.873930221757191	14.857034448314815	14.873175395114451	14	-0.11797953849403887	-0.13870933224826476	-0.5822476257006256
Si	10.842847623637722	0.025113557709404995	-0.033500998342449	14	0.1863285167721953	0.9565028583120203	0.10123727198083061
Si	12.210423069801527	1.5569267948737466	1.3872274146237868	14	-1.1001487127749694	-0.9695082803529255	-0.36558675102451543
Si	13.505534930031011	2.8749740790048297	0.036085500397979996	14	0.48273068028950616	-0.013620430433484447	-0.48040845796434845
Si	14.866413427472308	4.254269185433024	1.4131211993688237	14	0.4319850316962755	-0.006935299490567428	-0.3542150093040325
Si	13.380178452972803	0.15619169969558097	2.8208295736779507	14	0.8332983195863767	-0.6215181741395035	-0.7694279496653861
Si	14.835952063622841	1.4576591593194839	4.0477690966690885	14	0.5059197362824537	-0.18057386884463988	0.029311114870752133
Si	10.664468217616355	2.7562332770195845	2.6863867026006116	14	0.7257682673344835	0.39240569350844806	0.5286171969381889
Si	12.125654653326091	4.173483177785295	4.108252946660478	14	-0.6153248956443307	-0.4608073794456675	-0.48036500628443785
Si	10.808192539471733	0.07818525086228999	5.451234986471967	14	0.10668518704369238	-0.012770165904111478	0.4086018572516568
Si	12.14763104816306	1.5400381304982957	6.813901504203254	14	0.8698334690751487	-1.4497017939125094	-0.45258421330023796
Si	13.547911010903773	2.7838988273247027	5.363882067941	14	-0.7760464889805113	0.493214876453474	0.6466062485219124
Si	14.836049592002297	4.105961029743309	6.7967852736090775	14	0.19910305355535104	-0.19916861674101485	0.26230956408267936
Si	13.607663398049256	-0.018042750198989998	8.0912469446422	14	-0.5102013979720962	0.2992941427814134	-0.7528569187664997
Si	15.052838924798628	1.2125865964814908	9.429076235072536	14	-0.9632211565135673	0.708275238067792	0.05087343252764198
Si	10.778673949956989	2.781769457706624	8.129543088307804	14	-0.18687899042123904	0.009691781504298183	0.43958419058050513
Si	12.147793595462149	4.0958505877399105	9.42709315802364	14	0.34447206280386333	-0.45564948506291847	0.91086676732152
Si	10.760696218677635	-0.01674237180627	10.727113946685641	14	-0.3081487723934714	0.38104166510392556	-0.019934550878704098
Si	12.094087967842814	1.4065867979454059	12.0068325776913	14	1.082189542113735	-0.4537653790843139	-0.1918023999987906
Si	13.651925027591465	2.664832930741278	10.68291733606307	14	-0.03295411399886994	0.4215026353060319	0.8895829003708022
Si	15.144905715003205	4.000435323174081	12.27505187591971	14	-1.544532899877659	-1.407972497455974	-0.9143053635766861
Si	13.452658293637032	-0.20580113537784897	13.328423392942547	14	-0.7500176471614601	1.4713507578186884	-0.5991734691336925
Si	14.706515649357476	1.3231837787823268	14.849102140119223	14	0.17257387464099913	0.4174904254539407	-0.02700946138815557
Si	10.91648155012549	2.738060488981323	13.463532707946154	14	-0.4901678595385665	0.4441869833246343	0.4583455461016257
Si	12.179685375543608	4.181122900842524	14.841397398142357	14	0.15484661767964217	0.09225588687648933	0.3650987552347513
Si	10.812239967219073	5.530964436675611	0.11683899858589199	14	0.38180631182613756	-0.6602063672233676	-1.1892735075925824
Si	12.304895560032636	6.841209450450374	1.2558241780394308	14	-1.0288388496101304	0.9031089712390373	0.9229471056682359
Si	13.72354336757052	8.07403318566857	-0.088507004354505	14	-0.00848670444074478	0.08815240278553302	0.19674894952422348
Si	14.897021083890955	9.391072676545296	1.4753117960006576	14	0.5082663841081528	0.6237804897107017	-0.846850101507813
Si	13.43890679213402	5.580703910197152	2.7805828624232665	14	0.5720169405212245	-0.7442815111922098	-0.2499278921924422
Si	14.784505843460858	6.798735841198158	4.211616774151809	14	0.7204849030121112	0.7828707167212483	-0.3426589193320949
Si	10.879648332151696	8.20264060870858	2.7815906556776246	14	0.17696763652260017	-0.06271594363224403	-0.7897736202847818
Si	12.21102449480816	9.681333388530309	4.10105210131079	14	0.03755330719555083	-1.3427430412627535	0.08953411478458059
Si	10.761313898414176	5.546373920629343	5.443448970845556	14	0.2518551927404252	-0.5317310625914202	0.5590408290809691
Si	12.12713383374781	6.783683961302423	6.952261765188663	14	0.055956507745574736	0.6842228049083388	-0.9160699131579038
Si	13.497781423864417	8.24062791250591	5.526478131220728	14	-0.881368475983461	-0.7638846465951469	-0.3013718529906251
Si	14.875694878250348	9.474947082875735	6.827604241516542	14	-0.18196766503869216	0.2228320416655297	0.6258718267781102
Si	13.530453430981506	5.448487937117346	8.233134482017864	14	0.8855907451402083	0.3781085481547006	-0.35549799085878636
Si	15.078976530492302	6.719802872760053	9.597410218010141	14	-0.5100700144902367	-0.10125372705487955	-1.0509097318993457
Si	10.691483578725114	8.089263867593303	8.272779768265913	14	0.2910774043992842	-0.3814355584389722	-1.1055752876636739e-05
Si	12.116649532956504	9.394014782658825	9.572751792738188	14	0.3078916618614566	-0.8084280178245843	-0.8735813693003287
Si	10.826397836969813	5.418871819223147	10.856729162980006	14	0.3561788195475616	-0.4913603381860512	0.3701615187206549
Si	12.290412595683716	6.651305440923527	12.217136273253944	14	-0.17332746561033455	-0.18176531904999652	-0.1234757903369194
Si	13.483152166946317	7.955503695172142	10.737581992747037	14	1.1219619703111054	0.6483049778069342	0.7031587384806974
Si	14.907277818463534	9.405214291566125	12.05205323629814	14	0.0450640200567674	-0.32159616743890984	-0.23773853898015215
Si	13.842219150636128	5.40177184335888	13.50571373206001	14	-1.1064543485726326	0.20303144537400528	-0.09078650018602472
Si	15.10729226999378	6.671347522901324	14.913357087449501	14	0.04418238804248862	1.2331733311603867	-0.21417127339461087
Si	10.951461728889658	8.073106666063756	13.469920816800391	14	-0.1475374794755252	-0.4041481886160963	0.3168213677488629
Si	12.422774861332703	9.398257267165073	14.717942724483503	14	-0.6850021069308757	-0.27415978850324185	0.46368316074625315
Si	10.950145095767029	10.71706852360188	-0.2951858951474399	14	-0.393256729369417	-0.012114534047473719	1.4461264148543116
Si	12.132595422997234	12.06744646552196	1.2655282517951039	14	-0.16761446958896553	0.17569982448923518	-0.062228462063543946
Si	13.355146168912942	13.604948858154454	-0.020887327933064997	14	0.8508617971388401	-0.35222625933889795	-0.36095259079548053
Si	14.76121281550126	14.932911527530027	1.4052051459031407	14	-0.4524991097141411	0.7314624942870155	-0.32611925591811436
Si	13.56650642191967	10.866693312414224	2.6644103077636436	14	-0.12611965793762767	0.3050058532501223	0.011385625689211738
Si	14.805393171393922	12.323978612945801	4.009521717193212	14	0.43847707262964947	-1.3688765270683345	0.9278419759767337
Si	10.973616925755627	13.62144740901209	2.643766800779214	14	-0.6922328264227281	-1.1107833186001659	0.6594931426075585
Si	12.15249121240585	14.947280708769583	4.133138938151157	14	0.36174500545515015	-0.22450351723415793	0.394506543665541
Si	10.818871897021946	10.832070737708053	5.484801003734051	14	0.23343785111114052	1.5834684332933215	0.22165627520262596
Si	12.136350265606215	12.289502330808812	6.954521172646014	14	0.5138719079271397	-1.411200005964356	-1.6348887399225591
Si	13.543879837886342	13.555810809639548	5.527941056912537	14	-1.111962427499986	-0.17494906173575195	-0.8975641255056059
Si	14.93172493224667	14.907537894142079	6.63939072390023	14	0.25545165486224836	0.5409024523789205	1.2142283987194076
Si	13.380617330680346	10.702423011953869	8.180387883463156	14	0.6734940966284249	0.316893358697827	-0.32613391121843927
Si	14.774297873078005	12.093502797566089	9.394616207665457	14	0.38778258903228974	-0.0013200054713640237	0.700599717355554
Si	10.823228164637557	13.532891640467858	8.235345125285486	14	-1.1711135336058445	1.0681801034453124	-1.4493171565566154
Si	12.122338688424655	14.932163809954213	9.325939973799933	14	1.1059514403720117	0.6763711634816706	1.6406377314184102
Si	10.835598014098306	10.668158041305697	10.851413866299763	14	-1.0646011248396663	1.5788522708015276	0.031501953714050304
Si	12.09885060370615	12.11656825930696	12.172614568033193	14	-1.044037938710186	0.49435207633657546	-0.05327818733357647
Si	13.366020583222063	13.465369492425872	10.817717811198406	14	0.2809667898383339	-0.026268983055952922	-1.1872755016482952
Si	14.99092465857525	14.677484701740001	12.048672252477068	14	-0.6153981721459549	0.8660079214693005	3.574450374956281
Si	13.520391753167837	10.790897506848555	13.291330099290208	14	0.9846230371984799	0.07804435932990285	0.6874539129641689
Si	14.764431252023243	12.097436442204069	14.810139552527351	14	-0.159844589311478	0.07997731630959018	0.9321763453254394
Si	10.623880157033582	13.547683444685047	13.363452335896442	14	-0.26797679442934974	-0.6242029223148021	0.23070682304007922
Si	11.986855514633142	14.824199893898637	14.7378060044323	14	0.06297408260638691	0.2604755946578177	0.5239740378405335
H	15.010732672442355	14.550663673516993	10.673314041632832	1	-0.0118520241942866	-0.5533435168020531	-3.794922399048447
H	2.9202321234904582	14.76618188643444	15.092544353547343	1	0.9262162660828042	-0.0938090916003908	0.14014915122754767
H	-0.9871074850758065	1.1093593087213955	0.9447931721766977	1	-0.06955199845745375	0.10637048375250625	-0.05216592717208041
H	-0.7904545116907427	12.372780188551593	12.579379431167972	1	-0.7997124850103463	-0.8479533628006886	-0.9326980225948973
H	6.723466688881541	14.848581988762135	6.713300980796453	1	0.07713264538337834	-0.22643801687703738	-0.039899955021249975
H	6.962866350981294	9.556903431076913	1.4688424134968758	1	-0.045384636890189865	0.05995483362893701	-0.013599090259327219
H	15.00541412481613	6.651305440923527	12.217136273253944	1	-0.13456625313537815	-0.1881079787642698	0.1609645627889345
H	14.831651062088921	9.394014782658825	9.572751792738188	1	0.17673058061208252	0.10857854900144942	0.1245610538925539
