223
config_type=divacancy dft_energy=-23024.275680852897 dft_virial="1.1947333676185057 10.116759160376366 23.955416506655805 10.116759160376365 -1.3486312251422454 -14.71344516799333 23.955416506655805 -14.71344516799333 -23.234526542465655" pbc="T T T" Lattice="16.3999889955 0.0 0.0 0.0 16.3999889955 0.0 0.0 0.0 16.3999889955" Properties=species:S:1:pos:R:3:Z:I:1:dft_force:R:3
Si	1.0610792880088498	1.427684642014257	1.0092061228160836	14	1.4292311675745544	-1.65309885046304	-0.6346601218729083
Si	2.8344920980372423	2.8275713026811418	-0.14415590327044497	14	0.6322114011659993	-1.0045460181032433	0.12023028409129649
Si	4.148574016279671	4.144195219217872	1.3034547253733444	14	0.027525996446973316	-0.6402867287555203	0.04980385271446038
Si	2.690746194491685	0.06760075463945099	2.6784954027120462	14	0.07779496211384848	-0.34122681366877244	-0.8372544793424884
Si	4.2906635209366835	1.0471228973736795	4.138061623333556	14	-0.3975237357587348	0.9963375072581386	-0.28943395387864557
Si	-0.184795076001294	2.7892609283876535	2.5561022848386297	14	-3.542915511094133	0.5590963649558843	5.776764575519344
Si	1.4153354503006454	4.029165696403435	4.143670419570017	14	-0.16602758338537013	0.1432990123552611	-1.1199259120080804
Si	-0.172790284056588	-0.2450978355377475	5.492946714196788	14	-0.10138125387875889	2.315278798130153	0.3996945199805358
Si	1.0310509081580894	1.6038041238369316	6.697394706004299	14	1.2788150785825916	-2.3098632789943254	-0.6891510995859987
Si	2.786325330357459	2.430839168891001	5.38054118962163	14	-0.31061060573751315	1.3970028766075624	0.06986181664853158
Si	3.9509541488838957	4.158840409390853	6.662101929685982	14	1.5114420030757572	-1.2788968397317724	-0.9957096433389585
Si	2.7054241846426574	0.09428353673512949	7.8220075513817156	14	-0.3274642011110838	0.10845385039342224	0.48241417722459595
Si	3.889503390117757	1.408267055043585	9.401014891857452	14	1.140108060329115	-0.08033649972281486	-0.10347079117244325
Si	-0.22008785231960998	2.8067761166348473	8.148104932568238	14	-0.39241572081919657	1.2649601633439096	-0.21260109937559643
Si	1.13291123980914	4.128074030035296	9.57562557469254	14	-0.8238147976130102	-0.11575039018147047	0.4911567066446954
Si	0.045624769385481004	0.050708765974086	10.66524084355356	14	-0.3667681739191235	-1.0488631320645077	0.04343213951006941
Si	1.360051087396815	1.2763947435307694	12.289134953909977	14	-0.22607831924274865	0.3111821624501821	0.18899578143131693
Si	2.548066290230835	2.7623321464570423	10.759147180541794	14	0.6145052272682675	-0.24138256655039805	1.3500395810508017
Si	4.104622045771731	4.022474500893272	12.234473790587977	14	0.05238575667695308	0.44441375481387135	-0.5671812056350899
Si	2.673591806002392	-0.0236651841205065	13.861582298787514	14	0.48757721381798524	0.16445380981890748	-1.2747694443613384
Si	4.362380672814004	1.2317211735070275	15.013993125512302	14	-1.962045436837353	-0.21669044238729196	1.4381693581095174
Si	0.07499714967642149	2.7594129484158434	13.73946798072702	14	1.2843264999468609	0.42388553571674503	-0.5784758141959684
Si	1.362347085856185	4.215485971381311	15.165857023610634	14	0.271992346718357	-1.0507978888179192	-1.3512683122833005
Si	-0.063992757060441	5.37624439250481	0.060712759261340996	14	-0.6318599310687351	1.6070392984263109	-0.23126809533146755
Si	1.2255219776667285	6.841616209230725	1.374450277734864	14	0.55030601297683	-0.27900297959480475	-1.0657578651232007
Si	2.7839145319751206	8.049672198617246	-0.019778386728573	14	-1.2953701686284929	0.3169923462526527	0.770015704341572
Si	3.9707161356234733	9.530509204965918	1.24475916475845	14	1.514097183539874	0.2582788422722832	0.6071145850255018
Si	2.735091764735517	5.528469090361041	2.5350282989794124	14	-0.9442420283718302	-1.0071528617873415	0.9555284093956843
Si	3.938375357324347	6.709907897607865	4.048845683198035	14	1.4276872188298055	1.2044214316967667	0.2519477525319505
Si	-0.14336870379866098	8.112844956227914	2.6756582046158246	14	0.9378039806501794	0.11260310015907721	1.4506230209487183
Si	1.4379346351364446	9.217384215074837	4.186277590980326	14	-0.5426194365117154	0.510455423177727	-1.3053527421445
Si	-0.1079283275793855	5.421163962363484	5.445681945911757	14	-0.09625781230729982	-0.8897294533740506	0.5545732764766798
Si	1.2101387879889494	6.594779974859455	7.0298552829210745	14	0.21030767343002438	-0.28108274668827254	-0.6287059561725094
Si	2.6118950474013207	7.892478304095379	5.650157008707651	14	0.9562406055693652	0.6036343368641495	0.3887475248589414
Si	3.984016526698824	9.578528372744744	7.048141270651057	14	0.9467593975907873	-1.4285763070495128	-1.5395452126671039
Si	2.6308042347131324	5.162191736135544	8.236648473154942	14	0.42017877317668756	1.5300791742099147	-0.17742735015384267
Si	4.023179700420078	6.811833829214898	9.356505321723665	14	0.7552318487507205	-0.5466198192793337	-0.0353113033563817
Si	-0.0256003828219755	8.00814742648064	8.344724400635286	14	-0.4213054315279765	1.7898873099266217	-0.5139420991023798
Si	1.3720394793525255	9.63973313167595	9.493199230001157	14	-0.7988894741973669	-1.0805026399131858	0.8511248212130913
Si	-0.085017542952672	5.677446590396163	10.979776232498253	14	-0.48047145004469205	-0.7661657312351822	-0.40246462885246337
Si	1.4060202565512014	6.8950637733670606	12.264321770559786	14	0.5489836935106779	0.4865454292530099	0.5408697993413546
Si	2.9340564312289232	8.28217484260645	10.77963076679717	14	-1.9511786602017471	-0.23788354932020855	0.2809071401949064
Si	4.070936468374974	9.579610772018444	12.275112963318826	14	0.5843489900787828	0.3504228860673461	1.5970045314723051
Si	2.7381093627106887	5.362878401473477	13.602068872922722	14	0.17057021226500774	1.077237079046066	0.41974297082492246
Si	4.193854385896246	6.748562671670259	15.230686180109846	14	0.5375916400581658	-0.9472970157132301	-2.4164055125822173
Si	-0.0804091460449365	8.102922962885636	13.90456666994472	14	0.9567674250494635	-0.3063759952752293	-1.588804505274757
Si	1.3745650776578324	9.433913269782423	15.150359034009886	14	-0.30239592423964007	0.889890404567092	-0.3415785408765687
Si	-0.2421786374965485	10.787305961647066	-0.070782352504578	14	0.8406462814808278	-0.4144248965807282	-0.11288772151801761
Si	1.0599804887461515	12.051236713541256	1.3037499251752633	14	1.1697768159498996	1.048226269276707	0.9947691330128483
Si	2.319237243776623	13.608350068707999	0.019597986849622502	14	1.2057409229470668	-0.5552145101435249	0.3875622453063531
Si	3.9758657321680606	14.657244164893191	1.3947042641443064	14	-0.7840120303728619	1.7138139599351447	0.321008155652192
Si	2.6296234355054566	10.740270793207973	2.7239725721965677	14	-0.9762530609392699	-0.3538298577270743	-0.6870857306823237
Si	4.013766106736661	12.033180325657211	3.9675181377693507	14	0.2962119017236199	0.43465358190805725	2.3040014159749194
Si	0.091774338418818	13.849069107183947	2.6164050443750835	14	-0.8986347337609155	-1.117222908985009	0.12206888150573439
Si	1.310129520894513	15.187603409018665	4.054700479269429	14	0.9201469148640624	-0.6867928817863589	0.01330932668974653
Si	-0.002558398283298	10.601953286019924	5.312563235235283	14	0.6480198422269298	1.9455811068092528	0.6641599558741593
Si	1.404363857662656	12.287494955010429	6.762863462074335	14	-0.5183829122113395	0.23232944760762467	-1.4780901390838606
Si	2.8205521073910673	13.75535957006366	5.241534882895773	14	-0.7340791081713302	-1.334057847491293	0.34617593429952553
Si	4.172419600279127	14.944670372028325	6.722453889189422	14	-0.2136243992930154	-0.514138531548839	0.9546874008454639
Si	2.6650802117137276	10.97716863424797	8.217788485810118	14	0.22142796105019683	0.7785178354142376	0.396937780856273
Si	4.143391619757092	12.166299036333683	9.656805520220264	14	0.3730362715791125	0.8476407163937586	-0.49305521081309284
Si	-0.0464939688022425	13.69664760945977	8.06810578624819	14	1.724794379425901	1.484176716708247	-1.320374939198529
Si	1.5043545905682196	15.063160292520813	9.251250192350545	14	-0.16610574498710262	-0.1972839965413463	1.354007053670322
Si	-0.08259034458133799	10.990780625114235	10.845788322405019	14	0.7665017747005256	-0.7055992316505819	0.012723114676752769
Si	1.4405586333757245	12.246921382235561	12.167873435277253	14	-0.5526632023343417	-0.0406208929530195	0.7958455426088435
Si	2.874327671307312	13.694007211231495	10.973527836690968	14	-0.9135877680818328	-0.16628546524898097	-1.3623153234018484
Si	4.102473647213321	15.132286246136845	12.257712574994601	14	0.14336997486209718	-0.11057192695616024	1.409061617669589
Si	2.6710662076970846	11.025466601839717	13.864386696905743	14	-0.10867136590350678	-1.034108844184838	-1.6734887440939423
Si	3.9500685494781385	12.538939586289434	15.032115113352331	14	1.1210587410121378	-0.7563767619497824	0.13164187794424173
Si	-0.10222113140895149	13.537075716533556	13.481496153827806	14	0.038966900900568244	0.3275781010767664	-1.1935839656618108
Si	1.0975692635238374	14.957429563466825	14.936913177233453	14	0.32152700470579787	0.21593942252327672	0.23983193293181676
Si	5.426051159084143	-0.180531078862464	0.2506082318402355	14	0.4465565139876828	0.2230097050431519	-0.7106815355369186
Si	6.885486179793689	1.4838546043238445	1.4144662508838841	14	-2.0523971631137408	0.08536275351317234	-1.7024057085191155
Si	8.073124182880811	2.7898677279804867	-0.18574627536303298	14	1.247185855155194	-0.416244467815797	-0.1825793309943554
Si	9.504941622121935	4.100850048302766	1.2636355520922704	14	-0.6361189670315603	-0.026241215118495326	-1.257277700647307
Si	7.968033053397648	0.0278307813253635	2.6523538202532198	14	1.8882629416861276	-0.7285234637955543	1.6451999006984805
Si	9.279736973235728	1.609954119710244	4.159775208763597	14	1.4157634607970868	-2.075286942447423	-1.4256146508312342
Si	5.386707585483939	2.7278921695664926	2.7667929434638183	14	0.09405180394261278	-0.7057421851063822	-0.03861748768756012
Si	7.101966034534288	3.8234442344438837	3.8749565998787485	14	-1.154593410592297	1.470373994907564	0.6978895152375859
Si	5.6951913784892945	-0.2881314066619395	5.543343880379959	14	-0.6688568510730059	0.35972720199989794	-1.164505278712
Si	6.797779038645754	1.0541420926637535	6.975440119434006	14	0.7042478586943121	2.011516074302323	0.1904152886785707
Si	8.090655771117001	2.7004877879550118	5.685662984882908	14	-0.9937126658367994	-0.2325888721344276	0.2880962077805725
Si	9.392437697612806	4.185227991684614	6.846979005632255	14	-0.4079341412000144	0.37388550766635736	0.8587849152934086
Si	8.370964383028088	-0.07968754652913448	8.303314428421649	14	-0.3362581526375863	-0.6000113923575288	-1.1157746053581694
Si	9.452609257237294	1.2698019479545783	9.729621471360284	14	0.30951197243421386	2.1818633717360734	-0.5732143042688175
Si	5.422115161725223	2.7549521514090674	8.027630613407295	14	-0.6588346825350686	-0.13942615641152203	0.44622946939096
Si	6.743626274982613	4.180783594666833	9.475093642150124	14	-1.6785612777800625	0.9247792753193733	-0.5486998434833336
Si	5.379835990094825	0.05721956160529949	10.87438990321317	14	-0.27719626388633667	0.31582634998996556	-0.9573482377412851
Si	6.826610219299843	1.2765259434427334	12.1837322246359	14	-0.2905670399932348	0.6740129456820309	0.7436179089090796
Si	7.860317925675203	2.812401312860304	10.761738378803082	14	2.212794797179583	-1.8582380879785025	1.29709255208246
Si	9.502563623717586	3.8475522182672686	12.12818546190814	14	0.6355186139393056	0.973719750867328	-0.01094879489531858
Si	8.14077413748725	-0.08160634524160801	13.64821844195606	14	-0.2724402332651268	0.40258984168155454	1.0231993872009175
Si	9.646243927307163	1.257157556439048	15.024325118579469	14	-0.9504610179202044	1.1998482066638194	-0.39645646994034134
Si	5.4494867433587135	2.6182418431425796	13.610941266969288	14	0.8266463559020893	0.7460640585106685	-1.008012382295867
Si	6.913169361218092	4.212386373461161	14.643353374214003	14	-1.0562612305127017	-1.3000421241057338	1.4471186043973567
Si	5.6840065859943625	5.295195646889049	-0.051479565456874495	14	-0.8879389356290995	0.45148969376545084	-0.2920227998255026
Si	6.6257923540499455	6.855179000130004	1.369792680860142	14	0.9388403932047311	0.10204408483029308	-0.346584997155961
Si	8.051115397648852	8.058167392916916	-0.161310291759738	14	1.218053689214724	-0.3947937361298016	2.9056089505151963
Si	9.459907252340292	9.57857757271173	1.366184683281132	14	1.146812731672465	-1.8680386272378429	-1.4298945127471525
Si	8.161552923544548	5.495308312612139	2.4930115271729414	14	-0.2353142437737846	-0.6453026981245973	0.5539919495637944
Si	9.612082750229536	6.63776434601666	3.840041023307329	14	0.36199671666599265	1.260661789469686	0.5219361797637841
Si	5.4578015377794316	8.296196833197603	2.776386937026186	14	-0.8591137596638554	0.4067565749633865	0.48605949034750184
Si	7.009355296676699	9.689736698123228	4.242185153465985	14	-1.8074147920046033	-0.5436501926345628	-0.1304465710809049
Si	5.597463844065109	5.379196390524	5.055099807994929	14	-0.41280844266595107	-0.4823465571546761	1.4698582311803423
Si	6.90031176984562	6.710235897387776	6.681043916975785	14	0.14522374179792394	-0.8615416544176713	-1.0096044107101028
Si	8.24343806859908	7.96795105345267	5.211194903254097	14	0.09493009351997538	0.3934248796573547	0.6897666221996421
Si	9.38425410310405	9.46258045054656	6.666743126571709	14	2.4664471925387916	-0.8028258364425136	-0.7760485458647673
Si	8.166128520474292	5.5729622605058315	8.3672743855041	14	0.5259522462738554	0.361342627472547	-1.0895236200394576
Si	9.815360613828759	6.892308575215816	9.572148777025493	14	-1.0478532018947535	-0.34951914254731403	0.06083132343257548
Si	5.584622652681633	7.995601434899083	7.948172666724097	14	-1.5797711838429487	1.2652722955297755	1.4881017660899851
Si	6.777721852104257	9.4777340403784	9.415479682151483	14	-0.48696349097806596	-0.269873755934555	0.5141742699127891
Si	5.558120270464904	5.792968112880464	10.87125750531503	14	-0.2242880586083295	-1.0665549077724468	0.16011224137530544
Si	7.194773572259822	7.310655894502026	12.08187189298485	14	-0.8069388336231544	-0.7737204099973733	0.35490123731398
Si	9.112358685547656	8.957329589573193	12.032753925943329	14	0.3975049666898977	1.704185941842786	0.32810749166218484
Si	8.222675682530777	5.452438741377902	13.317348663971847	14	0.7928808010641807	1.1220151921912327	-0.26719543552255676
Si	9.402556490823029	6.81944342410881	14.905507198307072	14	0.6675990663503895	-1.2097626458888424	-0.34060563462342464
Si	5.562023467845834	8.23064607718259	13.691268413069245	14	-0.543377912581159	-0.364016319894969	-0.37996334353265543
Si	6.9648457265429125	9.490034032125024	15.071425886974543	14	-1.6917358785510328	1.479632802275949	-1.625233725224339
Si	5.493832313602545	10.813414744127902	-0.18330267700270347	14	-0.9696116387867953	1.744656682245109	1.225170765851426
Si	6.789579044148004	12.40331167729665	1.2930079323832109	14	0.9547694191051767	-1.0458652232612151	-0.657122069281318
Si	8.565041852800835	13.908158267534734	-0.14705870132264848	14	-2.2369279630460883	-0.7648596097325469	1.1780182369431023
Si	9.613279949426207	15.094057871788335	1.492005398854608	14	-0.06041300459698741	1.393697206497448	-0.7021786331326569
Si	8.256377659916529	10.890527492384743	2.686137797583949	14	-1.7624893545245919	1.1016111574810696	-0.2710333244339418
Si	9.520275611832728	12.317818534663107	3.899294183548071	14	1.5402108718344902	-0.07619496327312034	1.0261273619395024
Si	5.379917990039802	13.417601796701337	2.85228608609736	14	0.2316457907029973	0.4835200096227916	-1.3417038004923496
Si	6.808275031602874	14.824015652988432	3.9973333177631702	14	0.4813176008055527	0.2584716751712943	0.4552486497435074
Si	5.426297158919076	10.965311442204223	5.777765323081636	14	0.25960681817013964	-0.0883069262152739	-1.6202789481618816
Si	7.042319274557655	12.368510900648198	6.9314553489480755	14	-2.029139201498213	-1.087049959610943	0.04866742416295492
Si	8.213868888440192	13.494337345211282	5.425870759205193	14	0.7950636694809865	1.4932884568523197	-0.9513966431462063
Si	9.603226756171965	14.90657319759178	6.801698636015678	14	0.2950615892033856	-0.26866996442366164	-0.41191498356719963
Si	8.167309319681967	10.696646822479941	8.036404607519888	14	-0.18762975317472227	1.4212026341018602	1.7947621256136228
Si	9.30637055536442	12.254826176931392	9.635288734658168	14	1.1163772724452121	-1.133058603762333	-0.18767371907569677
Si	5.58306465372706	13.578157688967284	8.267464052477486	14	-0.5321007875364576	0.8531778488112295	0.49119810144034987
Si	6.925026553261839	15.145455437300232	9.63138553727724	14	-1.0694538290209137	-1.3767597930904403	0.34531512823833993
Si	5.555939071928504	10.878719500307982	11.019398605911382	14	-0.7881170571270104	-1.229895171877198	-1.412729813629844
Si	6.767717858817003	12.155130643827748	12.364000903674436	14	0.8937529760895505	1.768270999058009	0.299339908456112
Si	8.17900251183576	13.720706393316169	11.144514121958052	14	-0.730776266277068	-0.6588958748416881	-0.9117437713462225
Si	9.563095983099977	15.028851515542227	12.435800055496735	14	1.0151883372444002	-0.7968122782092193	0.03951248944950366
Si	8.151024130609438	10.841032325596325	13.608153268840052	14	0.9758072312767563	-0.8291827513004156	0.022308709531328835
Si	9.472978043569706	12.24306738482162	15.094927071205095	14	1.042184943105955	-0.366100714978013	-1.7597043332418076
Si	5.586885851163012	13.74297757837206	13.632031652817501	14	-1.9389445697568868	-0.8577739566815262	-0.4538818501553167
Si	6.785331446998169	14.861424027887168	15.149407834648148	14	0.7824822227073739	1.9431431847446885	0.1844582947623196
Si	10.95916144633091	0.272469417171237	0.2595626258317785	14	-0.4357018215470816	-1.7050711734045132	-0.998672070888833
Si	12.196507816063393	1.4252574436429228	1.7071896544645633	14	2.0173517120474624	0.3330887511094398	-0.37525950634944455
Si	13.550933707234753	2.6405622281654546	0.0078227947508535	14	-0.6584402749789579	1.6127448382422518	2.2145351783707907
Si	14.906737197481734	4.236543557251533	1.417647848749011	14	-0.3193580202577209	-1.8290128480254433	-1.5559102980298465
Si	13.963590230339523	-0.07519394954436749	2.842282092810105	14	-14.059280830606584	9.763354391537273	18.214733902067476
Si	15.081954679909655	1.4655850165828574	4.129632028989868	14	0.09494063505178796	-0.7911039101774264	0.7056449973252805
Si	10.771971971936273	2.9143272444673363	2.7270557701277216	14	-0.3846928917690678	-0.6403276093301108	1.2410843651199504
Si	12.037821522542938	4.109525642481385	4.269737134978425	14	1.2043005897467198	0.3159245662131952	-0.7482294434112972
Si	10.778187567765567	0.0200899865194875	5.266413666201946	14	0.4768343644588106	-0.1128509547119395	0.38373515503731265
Si	12.04644791675457	1.3763690764473375	6.796401439570132	14	-1.147140290490252	0.18767063374931264	-0.261522805854714
Si	13.43042658809582	2.6216038408866567	5.446272345515594	14	0.4994264097964198	0.7266483566855703	0.056032098241987086
Si	14.64376337393889	4.144539618986777	6.8571305988204685	14	0.793457757098022	0.7722847047866026	-0.3775061381781899
Si	13.306409871311848	0.004985596654632	8.093771769026146	14	0.5878186967083225	-0.3790685988812439	0.5910346352427637
Si	14.933223179709467	1.277034343101594	9.232915004653576	14	-0.42529167321633404	-0.18087006017752094	2.1800957368284717
Si	10.67576963648867	2.875672470404943	8.228710878481118	14	1.3702006463082106	-1.2848890577909093	0.5583597432816619
Si	12.444574049609328	4.073740866493204	9.423843676539189	14	-1.1678901388659748	-0.637692483487491	1.1119778541319068
Si	10.867485507846066	-0.044739169979724	10.979809032476245	14	-0.5515509421728457	-1.603185725772473	-0.9319907115213245
Si	12.290282953139663	1.076003277994755	12.236523789212415	14	1.2080960554203226	1.942043522999261	0.5137081285182462
Si	13.740665179923692	2.6044658523863595	10.977660633917836	14	0.2433245223987059	0.32549576287797843	-0.6750601568789271
Si	15.152802632370216	4.133650026293766	12.475750428689773	14	-1.1025159294432296	-0.08439190414428442	-1.4304200466745909
Si	13.783911950904825	-0.18151507820219398	13.574746491256219	14	-0.23330698185034496	-1.181085822700571	-1.5083859872922294
Si	14.776193285077554	1.1008164613449465	15.359852493438403	14	-7.984920841590848	-6.775223244666606	6.463629448254667
Si	11.047278587203731	2.648565422795259	13.556034103812353	14	-1.2377928360890968	-1.1002934660044938	-0.20021737060110323
Si	12.267093368700028	3.9766365316508487	14.951984767120319	14	-0.13675503509442022	1.1599875895539677	0.34445843594566655
Si	10.758458381003981	5.4285275574224645	-0.142417504436922	14	1.5955330878975844	0.22062603330084266	0.2588591407430406
Si	12.410347272575718	6.730588283731191	1.4296362407047214	14	-1.1463702444468675	0.19799799248875138	-1.7445816059697605
Si	13.667160429245861	8.327848811958917	0.19078107198465147	14	-0.9302971244469431	-1.368641270931541	-1.4201711066474165
Si	15.002578733171436	9.616510747258321	1.56423095039079	14	-0.5632533280374998	0.5777217090055691	-1.200707470061813
Si	13.633917651551982	5.383165187860911	2.7850461312158097	14	-1.420231013401376	0.11043257304780821	1.7452009852413843
Si	14.953591966041877	6.7805590502004796	4.084269659428315	14	0.8011978125537959	-0.7543396752046291	-0.5747428263816454
Si	11.036913794158576	8.155517727594203	2.5931826599574554	14	-0.9589996586884162	0.31135519783822807	0.3211099714228699
Si	12.40877287363215	9.58131637087398	3.915628572587589	14	-0.6870667045029546	0.18194272531708672	-0.013486990067368762
Si	10.728249601274271	5.537292284440619	5.566910664566493	14	0.09593385303696116	-0.2583552041002916	-0.6682827232550168
Si	11.991278353773708	6.985575312633225	6.835581013280382	14	1.518279086343095	-0.6892459733723121	-2.959570280532336
Si	13.531319320396134	8.05719979356618	5.22208449594711	14	-0.2956372596845668	0.922829349044573	2.0973143730567276
Si	15.025292717930203	9.381990904622672	6.666792326538696	14	-0.4776126380392194	-0.8491381281322128	0.9937797716856552
Si	13.286631484583275	5.811549300412366	8.19099090379147	14	2.5488074092590947	-1.3872082508904582	0.5941443871274829
Si	14.736784111521366	7.122744820591587	9.74279066252367	14	0.8211876421968831	-2.131920936444857	-1.23197930984971
Si	11.063383376397313	8.305413627013074	8.212884889100462	14	-2.0171707062329243	2.7594866074078803	1.1647217657799565
Si	12.391602085153862	9.604932355027499	9.724521074782684	14	0.25613402621421566	0.5127064258855166	-1.3104214191726398
Si	11.014265409355792	5.351447609143613	10.874963902828014	14	-0.28349495769963545	-0.5923253301134781	0.28470312008957305
Si	12.220550199930798	6.807143432362184	12.25184137893421	14	-0.3193101976987662	0.018501159662721547	0.71105048915036
Si	13.626472056548026	8.355482793416334	11.225530067595821	14	-2.508350809936033	-1.4294756796905006	-1.451777961458529
Si	15.180420213838637	9.337136934719979	12.231357792678832	14	1.9736982003693284	2.485859294816441	1.9311474357630054
Si	13.558280902304737	5.461458735325428	13.596476476675257	14	0.10564543205222449	-0.5116453307198915	0.5547871924393161
Si	14.833396446693856	6.7361806799786565	15.063045492597844	14	0.4607127627698861	0.5059793859258811	1.1047481630821823
Si	10.743386791117118	8.169146118449463	13.57987968781181	14	-0.0976395243063474	-0.7505920320899813	-0.3617691738451595
Si	12.027719129321708	9.448837259768329	15.008531929176803	14	1.9400162064543245	0.5500815554823811	-0.008451480297858752
Si	10.85238111798121	10.93208506449934	-0.0445915700787645	14	-0.2820646518100371	-0.6077586469081989	0.5521793203130899
Si	12.205035810341055	12.232604191842489	1.361330286538464	14	-0.3016852707291511	0.06636819873951438	-1.0182695498600658
Si	13.556378503581259	13.48049575449908	-0.0006395995708245	14	1.5142923304336733	1.7263182735491527	-1.0319869109641198
Si	15.465599622481387	15.268553754700454	0.8972597979328005	14	0.9423172989291674	-2.8060498389768265	0.20402414913811445
Si	13.672244425834467	11.157142113484586	2.6608818145308795	14	0.4687035009943743	-1.1490670768171707	1.1709870352240932
Si	15.145996636937083	12.279081760655737	4.090649255147565	14	0.003539126473183831	0.7512348084200182	-0.15984638908520213
Si	10.99148582464104	13.688693614796954	2.6051382519351747	14	0.10674895045563204	0.29069790925403033	1.533283542770415
Si	12.487312420931602	15.054369898419225	3.9986289168938143	14	-1.7633517032489696	-0.7735355475248546	0.477329045122407
Si	10.916193475162702	10.82450113668886	5.2478816786370315	14	-0.6860212930797823	0.07369867711778857	0.7408879092801464
Si	12.157705442100042	12.017436336221529	6.911955762032425	14	1.4407993417414966	-0.0627658230754549	-2.064566461704534
Si	13.60812046886206	13.572565292719817	5.405649572773741	14	-0.1454019193966102	-0.8143199627762356	1.0324815916277164
Si	14.736866111466345	15.02176672029617	6.905756566192126	14	0.4772606537208911	-0.681222324999726	-0.768469955823099
Si	13.820828326133697	10.875488702475868	8.111237757306354	14	-0.5471119288376101	-0.7975450432254615	0.0542508364761885
Si	15.198640601612638	12.356440508747509	9.274259376911232	14	-1.7793061830920847	-1.8344047129923258	1.8776432482717882
Si	10.897481087718836	13.311182268109539	8.18388970855642	14	-1.8458746709360385	1.536473256030591	0.45631848666722097
Si	12.052614312616878	14.893896006098258	9.411724084671512	14	0.4208683436235513	0.48214009739746816	0.6736097963678316
Si	10.82369753722808	10.709980013533283	10.988222226830937	14	-1.2222278787019845	1.130976008453013	-0.030287620671344374
Si	12.33836772087447	12.328183327708265	12.242329385316822	14	-0.21418232914748753	-1.336832841463329	-0.005728165542757905
Si	13.599592474584401	13.50986813479002	10.564708911011145	14	-0.8281705071358733	-0.1805689837445316	0.10258864493710045
Si	14.942456373513933	14.803745266589994	11.824375665766503	14	1.3224264241334753	1.2246460032555837	1.4909852607065313
Si	13.652318439204933	10.648463654811163	13.471262560694614	14	-0.4259748158998974	1.2462263186497144	1.0051250310213407
Si	15.037937109445734	12.21197300568615	14.87711881735586	14	-1.7681771537138238	-0.5500771846033369	0.2265447177478235
Si	11.031091798065173	13.604873271040953	13.77730275533964	14	-0.13554481582022648	0.8946718891309714	0.2567022404899684
Si	12.433471257059374	15.330381713213491	15.237885775278869	14	-0.9974430825458024	-2.335813702101112	0.0063701705411988805
H	0.8040471804790772	2.8839757848333645	1.6975563009286065	1	4.370211842421156	0.27595262024298106	-3.3565054902832894
H	-0.1407807855351711	0.7431146613651964	1.87382666265004	1	-0.021082292293618205	0.08661771001993661	-0.28180239906738197
H	13.171929961548747	1.050929334819535	14.580702136253393	1	1.3208703911937214	0.305209484791478	0.1230777832333605
H	15.40097382584572	-0.19022511235770403	14.29867972549228	1	-0.5311623340946034	0.3363260298180382	-0.1667477499855436
H	14.500452070101714	15.971647522919932	2.0405784707584846	1	11.945686989994273	-8.148245679063677	-18.617728178615888
H	14.813914899766104	16.195645132616068	-0.30641739439192195	1	-0.42264394895764557	-0.3867091525611279	0.8952547587070487
H	-0.9311356152019054	1.7756202485471866	14.745392465745105	1	8.558546008489825	8.129134138997953	-7.506835891504316
H	2.1595571109230383	14.033336103539586	14.084082589488363	1	-0.1239738134374321	0.1141743026202197	0.08921812594073437
H	10.601141486564648	6.004277051090784	8.601244828508399	1	0.32100404188367976	-0.48513749197969674	-0.417371897498682
