67
config_type=vacancy dft_energy=-6809.885794895401 dft_virial="-2.3516233055987508 -4.690095692864209 -1.32465613757164 -4.690095692864209 -1.1716272696933276 0.6862388293918062 -1.32465613757164 0.6862388293918062 -2.454439576204492" pbc="T T T" Lattice="10.9198319835 0.0 0.0 0.0 10.9198319835 0.0 0.0 0.0 10.9198319835" Properties=species:S:1:pos:R:3:Z:I:1:dft_force:R:3
Si	6.8284548549141215	9.551249441007945	9.55863124742879	14	-0.07436459339570692	0.04919167253773312	-0.10658517104673862
Si	1.366529614079157	1.3617139681744335	1.364301968354523	14	1.4815048240595492	1.2363309056040608	1.525711123381515
Si	2.7274245948548277	2.7287895738527657	-9.82784878515e-05	14	0.0048555323970996475	-0.03260135834894563	-0.029636102583218846
Si	4.095635863059444	4.099348605933834	1.3611679765752585	14	-0.003421112738989034	-0.08089391535622298	0.0387735537804931
Si	2.7296085612515277	-0.0001856371437195	2.7328299116866606	14	0.017882294612161904	0.07019503189802279	-0.02276070984661087
Si	4.092807626575717	1.367949192237012	4.097634192312425	14	0.04128115279923352	-0.05512886894301906	-0.055847749990532464
Si	0.0020966077408320002	2.729848797555165	2.7343259286684	14	-0.030176548921513977	-0.05346227847449908	-0.12360408849239478
Si	1.3645749641541105	4.094522040197127	4.094522040197127	14	0.0002635382953151781	0.016042668755595953	0.029162762093779587
Si	0.0040730973298455	0.002358683708436	5.461968920162898	14	-0.04372653106922637	-0.03930268725537958	-0.062121504082225804
Si	1.361178896407242	1.3620634027979055	6.827504829531557	14	0.10731845028404484	0.0985250129786064	-0.054964061091997564
Si	2.732567835719056	2.730089033858802	5.456345206691395	14	-0.08312486344251545	-0.03192412920761862	0.08737721453150836
Si	4.094696757508863	4.091388048417862	6.827089875916183	14	0.040850235547576705	0.026876278132571898	-0.05058932538976561
Si	2.732906350510545	-0.000327594959505	8.18765726173235	14	-0.004292717442519233	0.23054535762597395	0.006212304674541789
Si	4.098518698703088	1.3627076728849319	9.552909255469437	14	-0.026388025232275777	0.09203939980853286	-0.008000765535236792
Si	-0.000152877647769	2.7263762909844123	8.190551017207977	14	0.05109274781145061	-0.02805564414292382	0.10393127613528176
Si	1.367621597277507	4.09646577029019	9.552931095133404	14	-0.026153797537610293	-0.01174352354977635	-0.006847881909682394
Si	-0.0029592744675285	5.458780329223716	-0.000327594959505	14	0.04907751546151855	-0.015428945915676607	0.028589662717918577
Si	1.364957158273533	6.827799664995111	1.365918103488081	14	0.008759498715212491	-0.05307069913424053	0.026501668087426326
Si	2.726398130648379	8.192068873853684	-0.002686278667941	14	0.06012324102740671	-0.05935936563679071	0.277288052346266
Si	4.09094033530654	9.553837441188035	1.3652956730650214	14	0.016659991142963508	0.03298445304164769	0.018902252092664645
Si	2.7293792447798744	5.460014270237852	2.730547666802109	14	-0.010286735275380451	0.02084755037788868	-0.038159573830041746
Si	4.095472065579692	6.826947918100398	4.092217955648609	14	0.014310515101412194	-0.06254547934951821	0.05862891461533665
Si	-0.0011029030303335	8.18815957400359	2.7338782155570764	14	0.3961605357179923	0.049523859345096254	-0.019784398328007453
Si	1.3691612935871804	9.555267939177872	4.094314563389441	14	-0.007272628508570856	-0.024999628359395815	0.034213698495210484
Si	0.0016598144614920001	5.4643712831992675	5.461543046715541	14	0.01551404950177351	-0.1107573036497429	-0.0066535063474792
Si	1.3616266095185654	6.829404880296686	6.823213335562041	14	-0.06070225394550406	-0.12122504473966178	0.017884865717482053
Si	2.7289096920045837	8.187296907276894	5.462241915962486	14	-0.028739558158083215	0.0841571622285549	-0.006970780743985472
Si	4.0968588842415965	9.55669843716771	6.822219630851542	14	0.05555412976297156	0.09311643582714291	-0.07532927211182648
Si	2.7327207133668256	5.458507333424128	8.18841073013921	14	-0.1018898185110842	0.07725117333863717	0.030011483959960464
Si	4.09082021715472	6.823813926321134	9.557768580702094	14	0.09385511438562145	-0.06057421290056067	0.040216715196692225
Si	-0.0018563714371950001	8.19427467991435	8.194252840250384	14	-0.2439706411656591	-0.07760752853600969	-0.09362088669095596
Si	1.3637996560832821	9.55142415831968	9.552494301854065	14	0.8542199177974855	-0.7826434310109472	-0.9009878093499152
Si	5.457535468377597	0.001157502190251	0.0001201181518185	14	0.021614253984356843	-0.06677417626956576	-0.003147290022393263
Si	6.820931090677489	1.3646186434820444	1.3633301033079914	14	0.024427557425662865	0.04124644287741153	0.05523094182422895
Si	8.186259523238462	2.7312356162170692	-0.0019764895890135	14	0.1212271016239179	-0.11147181381821204	0.08907362982174205
Si	9.552068428406708	4.094128926245721	1.3676761964374244	14	0.02712747512235037	-0.022694118218819035	-0.020376780993769567
Si	8.19293154058038	0.0025224811881885	2.7319563251279804	14	-0.00445726818300871	0.34416841526555386	-0.08181514239243202
Si	9.554339753459276	1.3656669473524605	4.092163356488691	14	-0.00428191880017461	0.048396943883275347	0.0877564525662302
Si	5.460909696460498	2.7290734894843367	2.7313229748729375	14	-0.05059806714785412	-0.0018465678409303502	-0.04820822475277648
Si	6.822667343962866	4.0933426983429095	4.0933208586789425	14	0.02498857260651918	0.029428614383882896	0.04395484522165551
Si	5.461652245035377	0.004433451785301	5.455449780468749	14	0.007556992756979233	-0.037738683889133505	0.006279410523397653
Si	6.824567394727995	1.3634174619638595	6.823923124640968	14	0.016554575824837433	0.027304367168376555	-0.012128932237266549
Si	8.192451067973106	2.731661489664426	5.460483823013143	14	-0.02460882035073331	-0.051082463390170016	-0.0121957809755904
Si	9.555934048928867	4.091595525225549	6.82686055944453	14	-0.01386699943368665	0.051002759125245434	-0.019472266142141474
Si	8.190714814687729	-0.0028937554756275	8.186357801726313	14	0.0024340654065841865	0.035238541075821514	0.07401106641418656
Si	9.55313857194109	1.360763942791869	9.553913880011919	14	0.5416984665860383	-0.819169581631099	0.533827541869469
Si	5.464076447735713	2.732032763951865	8.192036114357734	14	-0.029646644115031453	-0.08359126194759031	-0.030076018703496188
Si	6.828334736762302	4.091038613794391	9.551063803864226	14	-0.052866296261288755	0.07856860770468103	0.044575510045939265
Si	5.458900447375535	5.462536751426041	0.000152877647769	14	0.07489501242325347	-0.054093227720063426	-0.034920495347719196
Si	6.822350668835344	6.827188154404036	1.3685170235001538	14	0.00316477353857027	-0.0991204809707527	-0.07569925416739579
Si	8.188421649971193	8.193575810667406	-0.0007643882388449999	14	0.05571842339292902	-0.03807806979139305	-0.30199200359384476
Si	9.555737491953163	9.552123027566624	1.3686371416519725	14	2.164648536065022	2.211904166296683	-2.2262452775514054
Si	8.19405628327468	5.457939502160986	2.728734974692848	14	-0.03862622944564862	0.06742826546301144	0.0011235730249047103
Si	9.557768580702094	6.822012154043856	4.096989922225398	14	-0.01422746839957141	-0.060688627087307274	0.034579566782267555
Si	5.458518253256112	8.19340109335567	2.7276320716625144	14	0.011680531469432723	0.008608317722387782	-0.031055352719940588
Si	6.824283479096424	9.551260360839928	4.093976048597952	14	-0.02886451387664241	0.12930320054503502	0.023698134846336857
Si	5.45882400855165	5.459009645695369	5.460221747045538	14	-7.019117524004256e-05	0.017448549144652926	-0.014355509444514785
Si	6.824742112039732	6.823595529681464	6.826030652213784	14	-0.027810360695381696	-0.005397778509118877	-0.05813217706748404
Si	8.190769413847647	8.19252750679699	5.4566509619869334	14	0.04769014703076664	-0.02407788710212273	0.022235947250768644
Si	9.556283483552338	9.55685131481548	6.823344373545844	14	-0.03339634411393541	-0.01661191147347674	-0.021562831877953877
Si	8.186510679374082	5.460549342005043	8.189611911657396	14	0.09801362013042896	0.006228759748590737	0.0267929743201991
Si	9.557561103894407	6.826063411709734	9.558281812805319	14	-0.10733644802128588	-0.023506073278921798	-0.06465121460671949
Si	5.456705561146851	8.18984122812905	8.18772278072425	14	-0.0037209036193183004	0.038819062344659726	0.11250719793063568
H	2.360268176056806	8.549051285192679	8.553251052573533	1	-0.639585845445248	0.6433980233034315	0.6709026795762476
H	0.5463868970928027	0.5427768006390576	0.5472047925083668	1	-0.6134772993612724	-0.9694602006834385	-0.6270645625361269
H	10.534761580333047	0.37773664400683526	10.539489867581901	1	-1.4447480452921801	0.9658200297711731	-1.5037065756095598
H	8.778633108763378	8.77794952728121	2.1429766233835363	1	-2.6760233865052334	-2.7352138305224902	2.699314001158327
