145
config_type=liquid dft_energy=-13866.432913118635 dft_virial="-8.676620835923789 -7.9545854781972105 -10.789062119002226 -7.95458547819721 -12.694162167598368 -3.3735638504589818 -10.789062119002226 -3.3735638504589818 2.480776887864631" pbc="T T T" Lattice="13.849990867899999 0.0 0.0 0.0 13.849990867899999 0.0 0.0 0.0 13.849990867899999" Properties=species:S:1:pos:R:3:Z:I:1:dft_force:R:3
Si	-0.5281818667391476	-1.2453884088433942	-3.915433968327933	14	-1.613762738838498	0.07894038953397445	0.42187647401958134
Si	-2.616540274763668	1.8824395137987564	5.638419922263644	14	1.717714069595277	1.5349156804276451	4.279439997535456
Si	1.353216127746343	5.91908029220803	-5.451766365335129	14	0.899996391138466	0.4595220838961255	2.375037456423163
Si	0.14138209177860997	-2.231214138831475	2.836885319477436	14	1.9583003648280257	-1.0642108310520677	0.49721680188428447
Si	-3.252754840270609	6.222485117155681	-2.3756764685791056	14	0.6497805351501672	0.8773670647737146	0.15313631842067965
Si	-0.47874570933526533	6.164532600367128	-2.205687220662848	14	-0.4292406338775495	-0.6107321302109502	-0.7467479725258278
Si	1.2598741142921308	0.30106833148823664	-0.9132974828101486	14	1.995398329271378	0.17662825062034065	0.515562666785669
Si	5.132881405594426	-0.8301241326511486	-3.959349519371871	14	-1.030117717396372	0.43163356159901134	0.5311111690987325
Si	4.395523126777385	-6.614032668985735	4.13148690087174	14	0.4829147714304288	-1.1865363088687528	0.4224922537437568
Si	0.2170432068908609	6.3745178519117065	4.1534751463736175	14	0.4609271929535864	0.3405292727954163	0.5412153558963825
Si	4.372465661980505	-4.336036031000668	4.004906294333654	14	-0.5071327837724995	1.4148725728036555	0.6164906347964859
Si	1.930336937217215	0.8206964438673691	-4.055821630762228	14	-0.746733317225503	-1.5845027889636172	-1.8968152093125359
Si	-1.5490923935937924	-5.051994688927717	4.446585273109158	14	0.37611954107903406	-0.38710690255415486	0.424059085325855
Si	-6.2582845735510295	-4.954284388353769	-5.523632582949576	14	-0.7155370679340184	-0.483300694338983	0.024573339097315267
Si	1.1338198074070258	4.7867576688138245	0.2782961765032354	14	-2.24260547781404	-0.339429611049989	0.8357796933308516
Si	2.174051071522391	-6.7809278289421036	-2.130959594935094	14	0.32476711163024846	0.688306748598862	-0.26198071971223236
Si	4.594597355516232	4.869771744077843	-2.9551033015294834	14	0.6026094942835384	0.177659006743188	-0.6796904604499818
Si	-2.0560713093132716	-3.1824716766123635	-4.300165939651894	14	1.192408713419971	0.4159698737676052	0.9433660527892558
Si	-3.4182414561557124	0.9383756612746551	-3.451694724098038	14	2.401213622577058	-1.9586569771359301	-2.136344523148172
Si	-1.0149051708143233	1.1050755363597862	1.4533127817468299	14	2.840950279703048	-6.221326168889124	0.5163211428551128
Si	5.368033475545066	-0.21721494677762285	-1.0849113346552106	14	-0.37288740458107594	-0.2634709323557902	0.08247848756503023
Si	0.9312179859941244	3.197843781476646	6.20514077359181	14	0.9632260416136755	-1.427087637069147	0.5761425361179341
Si	-2.805263020327847	6.153314107764128	-6.114704488221683	14	-0.7271618064180038	-0.12030458903504877	-2.0770756604186498
Si	1.4689798914165983	-2.736405020729908	0.5418864327029346	14	-1.34268647694571	3.505892622926129	0.17698691981250128
Si	6.911078963125934	1.1472085935790248	-4.1304855465319905	14	-1.0153112360787035	-2.3437643310826055	-1.8712401675824912
Si	-0.7623145773619103	-2.3109028312881112	-0.8725037197078359	14	-0.20316591418224902	-0.45154317275610995	0.12689227508633216
Si	-6.670119592004383	-3.716071659779034	5.48445788377972	14	-0.24241357978377742	-0.2736016015382377	-2.4475757937099685
Si	6.405770356305123	6.061491438308125	-5.7359944929270865	14	-0.23705925295456906	-0.6746264114114182	-0.039877329294432676
Si	-2.144536740982896	4.012828489110094	-1.0127764272179272	14	1.7390802119162398	0.6524166894349149	-0.14906908691473744
Si	1.6613964295452461	-1.5339349635879627	-4.321251165749184	14	1.4797202198568342	0.7938398233485959	-1.3696450304485266
Si	4.872135937518994	3.8911937143109347	-0.7763155331302705	14	0.49628169087934665	0.840633940175291	1.1151415992283489
Si	-0.8135221485977969	0.05768382696571671	-1.7762156238383107	14	-0.8195637320766775	-0.810144230625783	-0.373167912171504
Si	-6.744971867649948	-2.047759929793445	-3.226320747700135	14	0.4517210932442642	0.34374109756134524	0.12246251773024903
Si	1.3743304388244566	3.543852563333044	-5.145664947165498	14	0.48029661488292197	0.15659548351840688	0.57499608025568
Si	-0.7037471209788215	3.1825533915584843	0.8913438622854402	14	1.9203274532442265	3.6369799134528145	-1.3757259516412088
Si	0.07297006188661793	3.8362757305215376	2.955083911542268	14	1.355201846312595	0.5294726036782023	-0.46723925651454995
Si	-3.9621776875070958	0.10491368082434249	-5.6486550655150225	14	2.129150570462397	0.6172000027543147	-0.4341488739337121
Si	5.8991986303171595	5.863133254097148	0.982597297116773	14	-0.6994753729990533	-0.631494577002742	-0.6535939985610109
Si	-1.1977832202322485	-2.5536100712571903	-6.808925585481563	14	0.723501323773709	2.553572181638393	-0.9465465100702788
Si	2.795131752007978	-2.3751238539434767	-1.9310363617560442	14	1.4221020067428478	0.6243677301658236	1.508121420554786
Si	-4.287371318088128	4.261487070155109	-1.3407677559542746	14	-1.7364108903728621	-0.23918761393858762	-0.7462936582157577
Si	6.136932338565576	-3.494319455993087	-1.5040979282612457	14	0.9385004930814075	0.9216276144179358	-1.0909912069561982
Si	-4.819553062189925	4.7599551664862645	-3.7381900951950704	14	-0.5271053870099419	-0.04542911701222842	-0.15665281916704618
Si	-5.076157382995855	5.06206363228868	-6.858214932982246	14	-0.8602108503039626	3.200846146211948	0.1430748119713442
Si	4.1583600381527255	-4.647160840858087	-1.701424288152564	14	-2.256944789295037	-0.8248370690883013	-0.8245437059712725
Si	1.5115561483436097	-2.3316542726054856	-6.810016964761954	14	0.6419476627923361	0.18259604317893632	-0.21570519482861122
Si	4.846420659474564	-1.1379886546582638	1.7030682820685838	14	0.05147095740404439	1.2497955270551442	0.3367523190801187
Si	-5.653659067215594	0.5853324690564502	1.0826454761492221	14	0.1285370111596309	3.3368727871691704	-0.3683558314543149
Si	-5.942162686988472	-0.5842674047587086	-6.192135632166852	14	-2.107354796442438	-0.07865782505929018	0.07054933021113918
Si	-2.509567100297269	-2.869399558038918	0.917251655202934	14	-0.07642636275193365	0.9120006247677053	-0.3210742330589198
Si	4.996834330298132	-4.3611973094103815	-4.929066324981497	14	0.25307621065696356	0.5482709831159328	-0.42342890741188677
Si	-0.10956312275869652	-6.472827857090234	-4.3445288454008635	14	-0.02754630817900249	0.09534455569758322	0.4864356430558396
Si	-4.584542262146137	-6.740499705598703	-4.523667397284456	14	-0.30510741191026824	0.17019843043571434	0.40282406937622006
Si	-3.3001231940379134	2.5967126278371824	1.558241697561127	14	-3.3328387229218577	0.4884241359104421	0.7387559487486796
Si	1.7967648552890139	-5.028725319270558	-5.3372144758658155	14	0.5698878082056098	-1.3998573177339908	-0.7152781576282794
Si	4.376858879083803	5.006298029058168	6.046946177898657	14	-0.4341203346646585	-0.014735518810832671	0.8418750127133265
Si	-5.627218049649686	4.895176782326832	0.43676223201740005	14	0.2645140297841743	0.9876839380821161	-1.9954821473048148
Si	1.7562093120296294	5.450337046277562	6.315931005541403	14	3.318249500003742	0.3105023622035349	-3.1914636686776636
Si	4.320788576054197	-2.1871033029163	-6.280290824041035	14	0.0041744465977924215	-1.9966134336456802	0.31305135601792977
Si	1.1867364675160115	-0.7912015033150892	4.959118035166666	14	-0.37126349446087037	-0.8936933264461231	0.8977880687789906
Si	-3.36716130483581	-2.9907351730353295	6.782557972867255	14	-1.1618850652802368	0.15389350893746326	-0.9330749466348311
Si	5.525614516642773	2.0008915606964717	-2.2355796559530368	14	1.795062687825548	-0.4448804104294782	0.46500316621761717
Si	-6.464084357855329	-3.020522348394922	2.018903473820175	14	4.21905656064965	0.44244583080183003	2.6301612953570923
Si	-2.371360811424668	-0.4125759929647863	6.042777330647419	14	-0.04382706128724415	-0.620659939183638	1.1020495309381548
Si	-4.358366371276983	-6.624915991809731	0.8490002852050096	14	0.13200337535225454	0.4779167997985929	-0.4413605672461955
Si	-2.581127233113534	5.041907740578625	4.194491894328904	14	-0.09805938580512759	-1.2357560064544755	1.5930553137005576
Si	-5.219580963428394	-4.383937609416386	-0.03525930675149982	14	-0.18481310729650005	0.15513483858603075	0.18537386536682435
Si	3.817399577967677	6.382296006783119	-5.172477144486666	14	0.2649171790983735	0.08793385883332042	0.015829781235087693
Si	4.482818234218672	4.728478292240788	3.7004405600855215	14	-0.31074018944564863	-0.7035978832693787	-0.9677481016507521
Si	2.4674908280405883	-4.314532535179166	5.601655121504804	14	0.11224031719840431	0.34563343107697425	-0.07800990651861286
Si	2.652438066094178	2.4130326639480058	4.737962765987126	14	0.13034321264703494	-0.12942867048465823	-0.9511559876882405
Si	5.489450805487598	-2.259279760326187	3.9168411274001125	14	1.094202003279999	0.2833509758017072	-0.12459293559852375
Si	-4.1983629667764815	-3.784464299683811	-4.8929109238208435	14	-0.45732250329473884	-0.34332612116267336	-0.2727482516824805
Si	-6.123071267704981	-4.430040074018366	-3.1086623052791507	14	0.6443683584512555	-0.994171865246978	-0.23328769856044387
Si	-5.473757380835181	-1.0806773924468935	2.4276277843245984	14	0.357470799970936	0.021540720372200606	2.0425778547855633
Si	-4.440081317397594	3.8074511295272644	3.9502223753899246	14	-0.9300775520526026	-1.018967862065018	0.6541663266052757
Si	0.2684211330144227	-6.328592667192837	-0.4613584307997037	14	-0.70129340157093	-0.476703495198015	0.7925959225947085
Si	5.070181111936357	-2.9714532157490394	0.5180436734238447	14	-1.9374664413083333	-0.09499154293712689	-1.2154386179936016
Si	-5.119820864205996	-3.9865869114126826	3.7695492445181693	14	-0.4267446048327498	-0.027970540556826923	-0.622898600585891
Si	5.48561020301993	-5.795469123712023	0.14885416185184203	14	-0.447549474862324	-3.862596976401129	1.3103103474228095
Si	-0.055236533579358774	0.21785481635571982	6.866214687707545	14	-0.08190076019959296	-0.3746506686096335	-0.19593750868518472
Si	6.92261323552072	5.9019769384852605	4.39288885851431	14	-0.8943780117928785	1.2209055592358324	0.24470520595562545
Si	-0.8451028977747824	3.0425161338931472	-5.038116998078081	14	-1.0583363696165933	-0.061881877066388	0.03841077081982021
Si	-3.4576252901876723	1.6634877781662991	3.8037614919600555	14	-1.9849524425766805	-0.7896342663764299	-5.0385051072079845
Si	-1.9732649839122711	-4.382204975558812	-2.0655128480879195	14	0.666845732491586	0.6223386138471626	0.5689717233800411
Si	-6.386841573785964	4.816742899042828	2.5564465493869366	14	-0.49850364009701864	-0.85304775088203	0.2783710019071124
Si	-1.662208039010105	-0.9759216015184452	2.5187150192655166	14	-1.861595694416084	-0.07811172228929072	-0.010162036667353267
Si	-5.186033515548166	1.618185843036485	-2.6445989712629463	14	-3.280749928909382	0.26495214613072754	4.520145077833995
Si	-6.869929255258317	3.598431222346178	4.887340457493774	14	0.48545090971822286	-0.3783975403926853	0.5457235319647301
Si	-4.456817646362364	3.0518330227499835	-6.859951721837081	14	0.963007754771995	-3.5507733231735696	-0.18596676225365047
Si	2.1096126040103997	5.440776397581451	3.0762436316546573	14	-0.04161128272234054	-0.6400866967616129	-0.4121450974933529
Si	0.6294543849643192	3.656950203761229	-2.249908856504966	14	0.21668709995037574	0.27319228157127007	0.016884962858476463
Si	4.548033686218353	0.021615680747531528	-6.29561445393728	14	0.3889740392376464	1.7541648868295485	0.05467506885401293
Si	-6.122472948099489	-0.2796590156046368	-0.9322941302845602	14	0.500231422872158	-0.10417578825122786	-1.2891774043543842
Si	-0.3429063839019889	5.154438916380313	6.766169278673269	14	-3.666762054818218	0.5330875777583304	0.21259338605963599
Si	2.9760431027226613	5.3963927168461785	-0.6877794665072197	14	1.7878008579593219	0.44512955053500064	-0.7077682160986589
Si	-4.481352905184848	-2.200285724224367	-1.0623690895186166	14	0.17038972067153335	-0.354762397626692	0.12919264301626868
Si	6.20420035921188	0.2758765830986133	4.214319541255389	14	1.6364195760301752	-1.1028866828303951	1.2783990737417914
Si	-2.50078620608702	4.88728644252939	-4.35227099029602	14	0.9021800308868677	-1.472441677806027	1.3537725688651245
Si	2.549498008968511	1.860236593438426	-2.3217570691312845	14	-1.061529425313685	1.1459863784225692	2.2533215876778847
Si	1.1611596893802605	1.6753101303711386	2.1847903544413607	14	0.1931828264451781	-0.3291745003700463	0.12465567056833535
Si	-2.035900182613262	6.79293715602366	3.0914966265974755	14	0.5540441430017934	2.227288632090321	-1.3800891173695002
Si	-6.396540722390754	6.610474606331772	-2.2704123829858056	14	0.19391276324556814	-0.048416998504772504	-0.26432993864325166
Si	6.524988307697832	-5.837357036092899	6.170362061523427	14	-0.9579943565082383	4.339498189598264	2.5079268346687402
Si	3.4650987452599917	-6.816475215503656	1.825348466442186	14	0.3683355197222858	-2.454122084965598	-0.572233684699713
Si	6.907659400380648	-2.759621760421769	-6.448947702835801	14	-0.6644240083905385	1.0815030569932556	1.9100288908843737
Si	-6.694426325977548	3.2902398405545803	-3.5330814254350784	14	-0.8171774892290481	2.176454280363546	0.06454219974114522
Si	4.175340126956771	2.4467338467268664	6.50253193250462	14	2.356446050963704	0.576038920573532	-0.7596582636698873
Si	-2.072980763163891	6.253687761581973	0.5256279284231068	14	-0.12863548449339254	0.4592929984121003	0.3416441040622325
Si	-6.725802095289688	2.9564855306181	1.2823581894670797	14	-0.2922050911927011	-1.8760741026949017	-0.370840547635706
Si	5.789063502935619	3.345613489043531	-5.815294000640335	14	0.5378338381793237	0.6676898263681905	0.030601038409870423
Si	1.8537326377268604	-4.81676782902639	0.2830093283955818	14	0.994556502602872	-2.0555843052685963	-0.4956270874648369
Si	2.6103174738667203	-0.4654691080892964	1.2005075134359644	14	-1.3257508633124266	-0.19033635574524213	-0.5085276084086799
Si	-1.599086705629651	2.16408461809385	-2.858886029971095	14	0.7360578308257162	0.66722779874216	0.31638530828656575
Si	1.2107495816827765	-3.37266252120854	-3.0805177388364915	14	-2.2315283847632457	-1.6127669497480048	-0.06855338115110822
Si	2.616317289910695	1.661115274730628	-6.071408031769542	14	-1.80603487977928	-0.6592103210223423	0.782155692331715
Si	4.684546121207809	2.8162183631043556	1.3771849219423309	14	0.4497554832270111	0.5938579659948184	0.641808823105048
Si	0.8265826899862266	-5.017004071999055	4.0024756209363375	14	-0.40593973480317547	0.05384151650922093	-0.16553778782188192
Si	-0.8462815319976408	-5.8800607129358955	-6.916915349277667	14	1.7448086345695297	-1.7284839155603136	-4.499122692294336
Si	-4.980086921340667	-6.305461797444357	3.247320103854045	14	0.1178327283802584	-0.10272825595598448	0.16161325266120788
Si	3.9564964212530835	-5.562956862020805	-6.855997549444296	14	0.5259640733583281	-0.5522412839513056	0.3657114496325426
Si	-1.7406322273005022	-5.109473536028588	0.9441871174428258	14	-0.052855240508412116	-0.6280066155254291	-0.47544802447018675
Si	4.662393060814603	0.8825089531108068	2.782705540201298	14	-1.4596208611271086	1.0977244175686018	-0.9960068631139676
Si	-2.3408492815426847	-5.49114604436983	-5.519879235424375	14	-2.9095764231347165	1.2208474522555968	3.044400301023174
Si	-3.0197093539309763	-3.2170052438423857	4.248861418479932	14	0.6925004784865556	0.7040851077275467	0.45626886433454217
Si	-0.9282873279264766	3.5451627724691477	4.926067801958596	14	-1.7968467778071988	-0.6114880351750738	0.8739084138970515
Si	-0.18276863449006875	-4.1144888070795655	-5.721791327292055	14	0.7278305509117743	0.2428635232148034	1.6582369473348235
Si	3.6418634087088253	-4.624831885580858	1.8274675150449746	14	0.48004721766686764	1.7768474350744272	-0.8087491488790707
H	7.583948914463858	-2.651195721913327	-1.359785178414988	1	0.2553102440696402	0.3628639504904786	0.21484233188316954
H	5.472359916756609	-4.487352721228822	-0.3218266978010451	1	0.5352323938163979	2.3127295472052265	-0.19869424780944747
H	3.873744110816468	7.139235402689198	-3.7915942749826055	1	-0.06917738841230818	0.2590812842427014	-0.05394976004319916
H	-4.628266683316097	4.816742899042828	2.5564465493869366	1	0.17146624246907935	-0.6033407166365885	-0.10750408408815955
H	6.317936484219074	-3.3740364403026355	1.31590009735096	1	-2.9850201094332895	-2.0200919960976758	-1.893805987645835
H	-4.890528725391565	1.9806484140439486	-4.0657700792026406	1	1.1873636905607765	0.4547452273218223	-1.6842094819473636
H	2.3673830940474074	-4.321965825277968	-4.157333753829414	1	0.6888837046327032	0.4785132962328672	1.0655143814493826
H	-4.883757464856249	-7.904041593408242	2.8873075962311128	1	0.2454161165766464	0.833827195950731	0.5381056040116633
H	-5.388606251980245	-6.095555490847725	4.82320114978453	1	0.1740021236463414	-0.7129819034668552	0.08898646935138904
H	4.0794566401783	2.3070857738049177	-1.9214493980772838	1	-1.6100428636613082	0.2281413741516355	0.1454399717553484
H	6.5122961760664895	6.725771625309778	5.786922294347441	1	0.21042388739049506	-3.9318175593828153	-0.5756643105283866
H	0.999909785701648	0.09482257747799056	3.7622683043189142	1	0.08284898384166357	1.200829854675052	-1.007926507378174
H	-1.92058377364804	2.1202507819960337	1.2973037146126305	1	-1.7581408440966253	1.4297572157230567	-0.6840703383628541
H	-1.2662201801078028	2.7091510087000548	-0.6031435573125695	1	0.2906976521434983	-0.5821272979716428	0.333005704407599
H	6.243697763168957	-1.0704339392009947	-5.046777397367779	1	0.6698816936536169	-0.24586863111299243	-0.42356209066747047
H	2.6122024576238414	2.055554704653899	2.672553792830716	1	0.28738658271221157	0.19683739554723656	0.20601161355058895
H	-2.12413985943174	1.5523706864322244	-1.3413342205807715	1	0.20751236772595938	-0.14160002595970725	-0.12024776760747351
