72
config_type=liquid dft_energy=-6912.36181736208 dft_virial="-121.79081004362422 -2.0420171294077694 11.509786773839224 -2.0420171294077694 -118.074909215671 0.333566911532543 11.509786773839222 0.333566911532543 -147.04856571790702" pbc="T T T" Lattice="9.799987616100001 0.0 0.0 0.0 9.799987616100001 0.0 0.0 0.0 9.799987616100001" Properties=species:S:1:pos:R:3:Z:I:1:dft_force:R:3
Si	32.76471999637462	25.513140759940498	-8.995947632137076	14	0.7345835590351433	0.4791013080195852	1.232328465952186
Si	27.79316667875186	7.570098433932607	11.445826936310683	14	0.14660776779175966	0.004715921378215607	-0.0888900529018835
Si	2.3465482347494486	-7.627085361920229	8.796057284731484	14	-2.123640434650788	1.124916427434488	0.466094343315488
Si	28.349776575383494	7.319718550328868	37.974726612672335	14	-2.6740791166621376	-8.295796528286868	-0.23583797792749872
Si	18.64485863914728	7.877553445412512	-5.705425390254411	14	0.719542078691213	0.29002813631813174	-0.26283252690479747
Si	23.017211313958843	13.348425932063185	4.503172709498879	14	0.0659570789988227	-0.10576498844961138	-0.7448443261467902
Si	1.6365685319258518	-10.268838623629456	0.559471493015533	14	-0.8924828500613973	0.4267358630746612	-0.23302056071768046
Si	17.919365555927396	6.391385323430947	6.290602250786974	14	-0.10228988249889923	-0.6462131265184617	-0.5647186009594521
Si	23.184438302639972	8.570608569623104	-0.42196786677403386	14	0.020918769995256787	-2.586103348812099	0.8305248682775328
Si	25.880983295110813	5.0118116667497015	7.521960894762324	14	2.8550710472318337	0.3992931704400607	2.2112120247444995
Si	17.52100585932055	-9.449589058886346	3.6401564000622653	14	1.0934119026151177	-0.21780090277506395	-0.015370838935441262
Si	10.002465160236243	10.764012397895758	17.86784702102956	14	3.4827737581084217	1.818782677067106	-0.48326778419088506
Si	8.376255215220608	19.436384038924444	-1.0787140368669754	14	-0.26333312111063023	-1.4294867354433771	2.5790857739512867
Si	25.258693881476084	23.09616981418176	13.888914849066333	14	0.6910557744071644	0.08858949068995818	0.1540308059615592
Si	9.975671994093826	-5.004912475467967	-8.54732379904725	14	0.1286624810992541	-1.7238530977681947	-2.0641543135217137
Si	22.793056197215787	-11.370759031171357	21.71265656247884	14	0.254890125460328	-0.7833602551742045	0.24310186467798114
Si	11.859023814168307	28.62742982452284	-2.6525920480126355	14	-14.310042789364882	11.43268231589162	50.820198563319906
Si	2.2407573684336493	22.6192828168071	30.653048064820247	14	1.6361274984658065	0.7134048502920194	-0.9248019010461906
Si	33.98386785578031	4.384583059356453	6.467198027629097	14	-2.102896499817301	-1.2836469568107456	-1.4626851044476612
Si	16.83349752810067	-4.427379605275962	13.859946085673142	14	-0.5942174065185751	0.00946321024133702	0.5035466060719571
Si	11.147162513722419	7.015869934291688	-12.032336595159038	14	-1.3318436115895815	-1.6449307059714613	1.053692439187342
Si	10.448011797214614	2.991661819542079	-15.545632155530885	14	-0.661149962875862	0.2523521873988098	1.7408972120459882
Si	30.85873020490695	16.608048812992287	3.770888234861039	14	-0.33918329916031875	1.3995349011268443	0.5797960767778646
Si	16.327298767766255	-21.706511970243547	-5.373343009895247	14	0.1230397308746223	-0.1655655557593395	-0.867824407377985
Si	15.604040081722843	11.184902266032022	-6.6806025579572905	14	-1.0868098183740411	-0.2528478965045344	-0.4374997954974611
Si	52.40505157757773	-8.852289613672667	-8.146514105536376	14	-0.24201351579596245	-0.18516714849908442	-1.5613111618653495
Si	9.897428892966884	30.637818884064828	5.655455253399918	14	-0.5818552750287711	-0.2580878091469962	-0.29901389230151726
Si	7.631544356285554	-4.475840544037577	29.662524116510554	14	0.011945869538472004	-0.07993129352435953	0.4552612481595761
Si	8.843773424434275	2.9266879016473366	9.050494363208289	14	0.7861663595206141	-1.70595511941358	0.7808248882180064
Si	18.90911530521542	28.12361246117914	16.381874898800316	14	3.1942492041815123	-1.4513688986020936	-0.6368525033793986
Si	27.73871794755681	22.562795688187897	3.370911540297534	14	-1.2799818461768746	0.24982993307974458	0.5604084000007559
Si	27.996702621550643	20.29493155400812	-8.40482217912154	14	-1.2114528905263078	-1.8718569757487948	-2.1330339679379486
Si	24.047503612014665	22.876914691246753	8.607093923517844	14	2.080829988407131	-0.2674391763069067	-0.46896241130011324
Si	24.807816051234553	14.202984852187107	11.418533970799844	14	0.15121467430440097	0.9419452599893419	0.4089507562436009
Si	0.7147032968545569	3.457690430638099	-12.56263352504144	14	2.678071271892732	-1.1716179844696575	-0.025397378352422725
Si	8.961471275703637	4.803865729523675	17.71963200832366	14	-1.7755392566875356	2.5936328307421523	0.21116590838588978
Si	6.496303990848913	7.1757371322731265	28.628351023358753	14	-1.4933041405947725	0.5801452328803407	-0.32691038502512393
Si	-1.2098378711703934	23.151265344559473	-13.765846604583349	14	-2.144745866892287	-1.1857454368722753	-0.781980600059413
Si	10.734602635059842	16.781087194329768	11.214214028991776	14	0.12263555311829501	1.4197286194218193	-0.5554225125639247
Si	24.33480984895587	-10.598725806762616	23.42795819491244	14	1.0374520524326265	-0.6025135920550969	-1.0059385287446356
Si	16.547573089413337	11.750822150898948	-1.0767932392942199	14	-1.1136560145743672	1.928319991242439	-0.32451488619834196
Si	3.1703841936968953	1.0553018664521125	3.864693716322348	14	-3.693913955441109	9.557754926169505	-10.82153546639253
Si	20.085045219234104	-0.2236651173622503	22.281447843717284	14	0.1579396573797803	-0.8230612066436749	0.798927526556105
Si	23.186613899890745	0.5459769100681632	-1.757147579554346	14	1.5844925045423366	1.344822294135157	-0.940125688754273
Si	25.86195171916035	-7.650860131876887	16.20724891946903	14	0.0757707308952959	-0.1150597912924787	-0.7425899810020843
Si	3.4436274484089955	-3.7111083104028286	-1.3916374414366646	14	0.6113867336254599	0.3272574842433439	-1.0485242603833123
Si	41.62665279786153	15.281551889239841	25.697723526689746	14	-0.9799353979787858	-2.0775569713345816	0.2640628008004883
Si	29.58765221112355	24.94737767487543	-14.40668739477536	14	0.4301374354132171	0.22718929385158462	0.531901269763614
Si	5.759619321771445	-20.075568631209336	-8.561984580520937	14	0.18513578101417863	-0.3642744588691118	2.107765659072598
Si	15.52765897824296	-22.574526273364373	-8.114262346291792	14	0.14964450028538653	0.2563618261455808	0.061384882408003376
Si	2.342363640037374	11.795461094490282	-13.6343993706886	14	-0.47305355408553285	0.725582890640901	1.8138700661318992
Si	10.160440960607774	12.113764692261212	2.063495192433632	14	11.729050540818706	9.43357516719593	-6.092139439415091
Si	7.45774157591402	12.857407352546112	20.699151643209394	14	-0.2351062413533846	0.17381674695275873	0.7352700441556228
Si	-5.118543331876647	9.934257246428187	-3.7531894572263624	14	2.9850476202602154	-0.06629415090629412	1.6010735627519717
Si	30.691101416733563	14.553226609598905	-0.8392709394428041	14	0.8109353597327926	0.3325827575824346	0.30490249481625237
Si	18.88593833450334	5.500909448694021	-6.733983090502187	14	-1.177704562094044	0.8645848146745985	0.9060338606512376
Si	3.4106896900312833	7.4107506352948205	-13.868775874515249	14	3.7770969258638605	-1.135702985584105	0.7801540868399799
Si	-4.586276604483407	-17.351681673289573	30.22505320566231	14	-0.06322862203308156	-0.8506103430385297	-0.0946493288190152
Si	12.065156753685354	-10.739492828880277	-14.92264694277541	14	-3.660791691154302	0.5686801600367363	-3.0247431724085136
Si	27.251727162949955	-9.767177257561299	-3.8940446792325676	14	-3.1735638905493246	2.8374152669983768	-0.5119196676575513
Si	4.123873988805345	15.620161061351327	-5.811216256570211	14	1.0487602878517017	0.8544502888341707	-0.05565594553364942
Si	5.812803854564019	7.0997382283102715	-3.300488829288239	14	-1.310890903004099	0.7881551094857486	1.1237658578037217
Si	15.450131276211993	19.346459352559112	8.854092811394029	14	-0.6653429214319594	-0.778439159591441	-1.5825806306262744
Si	31.74138568952623	-4.735187416310047	-16.92644061065176	14	0.043645798362173714	-2.163248054997137	-0.6192028937987101
H	22.748903333010205	23.625626885125463	8.541543766351275	1	-1.2738998965420643	0.858239326744473	0.07965875636042383
H	21.410636624130824	13.385871684744304	4.800081954305099	1	0.10507850332913184	0.8667316876169221	0.6381390844816007
H	3.4142823654913457	10.83249765135335	-14.340225838760494	1	1.2456719883426906	1.3975649202305467	4.16179136029612
H	28.93836579160398	21.236594724061458	-7.4631590090682005	1	-12.056333736115251	-9.58370252106044	4.340275434736544
H	9.314948009027509	18.217723238903275	-1.0798214354675948	1	4.944090006083636	5.760790555275797	2.0554338956073677
H	16.92007257869882	20.040885495037198	8.481266002522167	1	-1.5960190268030925	0.42230044928687377	-1.1647724165547635
H	13.239005150334384	-9.565644432231249	-14.92264694277541	1	2.6055828140491366	-8.529740372925014	5.803811575045174
H	12.065156753685354	-10.739492828880277	-13.262574120551104	1	12.179627749306034	-9.34831500078503	-49.73581638258915
