72
config_type=liquid dft_energy=-6925.954627908877 dft_virial="-3.183407965637354 -1.265246510527032 3.4842024190834024 -1.265246510527032 -24.156659320798187 3.034204367697845 3.484202419083403 3.034204367697845 -23.113427764005145" pbc="T T T" Lattice="10.914011036500002 0.0 0.0 0.0 10.914011036500002 0.0 0.0 0.0 10.914011036500002" Properties=species:S:1:pos:R:3:Z:I:1:dft_force:R:3
Si	-2.1822128507040293	-5.036794265322678	1.1172891378285783	14	1.6785975303650764	0.08267697689574567	-1.0644450587467331
Si	-5.061318048121693	2.5060533861790573	-1.2388166507200056	14	-1.592507154046302	-1.788766050896505	6.630143227656077
Si	-3.356920600595634	-3.697241292735777	-3.7735302298809117	14	-0.627622749501131	-0.24797076682274555	-1.8399901821898152
Si	2.4971475531732734	-2.244979328174941	-4.311656458046581	14	-0.015582698013821462	-0.9456497085346113	0.08250368439716767
Si	-3.6485538895019505	-0.6844503741320247	1.5286818698384093	14	-0.4467819999242597	0.5358373748982287	-1.346801531010607
Si	1.6948040318249757	-0.9891368202379952	-2.3236366057149964	14	0.5358006080921507	-0.6162044707743535	0.8160780845941529
Si	0.10439251556412252	3.039104599212754	-2.8430234769309948	14	-1.4445806663358385	-0.9499881916518294	-4.166979336611115
Si	-5.325808191580235	5.027571925996835	2.7764152675752354	14	0.5409176219003093	-0.8997899313812582	0.924876977321539
Si	-0.032403698767368504	-4.131924524297499	1.9068850942862439	14	0.5707792104201052	0.08029176249024429	0.8688487357375321
Si	3.6391460119884877	-0.7533723538275222	5.119675265133859	14	-0.1718717057780667	0.49450942798216857	-0.6535094091959779
Si	0.36106822712052955	2.44670299416257	5.6269366700883054	14	0.2016862430705038	0.588519580018595	0.41846307459655274
Si	2.287336605007597	-0.8175139966890326	2.9499698710776583	14	0.1905387017339378	-0.23195689444673523	0.5514594108234485
Si	5.2205752971663015	3.658562037622421	-3.6297599624970975	14	-1.4716688035467904	1.7853472521523044	-1.0087315204539122
Si	0.41554005620370105	4.970764498551853	-2.0473375023149623	14	-0.6356124592834912	2.6553686690263563	0.9645822996700538
Si	3.918042650015208	1.4566384829864727	-4.4068157202738245	14	-1.0599196562727407	-0.42090691020335347	-0.02313917654973667
Si	2.374768747420999	-4.771616539168837	-2.47227452202109	14	-0.06488081431180871	1.028360881131115	-0.9193514148780086
Si	-5.783781922693847	-2.5016004696761653	-2.6884701666431186	14	-0.5120693059871839	-0.1330757833812883	-0.2928589232756148
Si	-2.6179001712811094	3.765257409515245	4.378090043225757	14	0.2022416018196558	-0.6777482474911418	0.1781086930636819
Si	-5.104559359848306	2.196957679614341	2.659842715694379	14	0.07690535967307725	0.46232536002668295	0.013582635185278271
Si	-5.403865198513282	-0.6725104460580936	3.235011097317929	14	-2.3075078894105374	1.2642605655862973	0.1287856370440892
Si	-1.3851080546532517	3.493946009158891	1.7741161500272213	14	1.1562430317657042	0.9017640260460678	0.8844296339776295
Si	-0.07368048850741152	-2.6415617472082413	0.12403773542982252	14	-1.4388645849880852	1.191853354670819	2.058809756892722
Si	-2.534604439050541	1.4898825606036517	2.4656278892998613	14	-0.7687934008723735	-0.1971492706225705	0.5401712300258704
Si	-1.745761549354394	4.373986375076033	-1.1252236238521136	14	0.27730656430457107	1.2869395142837274	-0.6106789083308232
Si	0.4707103819932086	0.9736934946213477	3.6486957716454254	14	-0.628160881844638	-0.4389136463130106	0.27584566226166296
Si	-1.1584677014692928	-4.610176487916929	-3.8101903929525154	14	1.549337781499952	0.6826875979216784	0.3791783850784142
Si	1.8349399335336358	-3.161756255240941	-0.6611817026022067	14	1.9519546197873683	-0.20595993433365395	-1.589291472622393
Si	-3.397935454070801	-4.617794467620406	-1.6576309102346567	14	-0.14888165333689862	-1.8351739877041144	-3.166976461608573
Si	-5.179396733525587	4.539377298323154	0.6080086408323786	14	-0.491616420275938	-0.4505815793663746	-2.1045142392847387
Si	4.532228621094246	-3.54730460911634	-5.937985984628557	14	-1.6294112571485153	2.531325949966344	4.368927832424274
Si	-4.219902367262725	-3.7046082501854145	0.22422835674489255	14	-0.23707750780234213	0.24111979958667898	0.7499497699810083
Si	0.8934645994920362	1.7088831060620606	-1.4047641885299882	14	2.4907891321572935	-1.766431373201443	2.340527309484539
Si	-3.315600154811445	-1.1217529683425067	3.7995601462029645	14	0.9817955926779132	-0.0740863998000669	1.262209080651351
Si	5.346883146891716	0.15473884847549702	-1.15535720832389	14	-0.09897727040442045	0.16909362647964668	1.597040526946787
Si	-2.0873482667747716	4.2664178823002885	-4.215536762848125	14	-0.39258669932298645	-1.6836448672190591	0.028509958452993988
Si	2.47358420334547	3.58375740597825	-4.309233547596478	14	0.02398069932102113	-0.3487277563297725	-0.4569838887240753
Si	1.6691561058892006	3.225712359914831	0.4014391539445431	14	-0.44321279151883014	-0.05294934296312954	-0.28527647657596605
Si	-1.039035678696873	0.8282861255820582	-0.523872529752	14	-0.8318093924954788	-1.385534461327042	0.37713127102251237
Si	5.299723705202999	-4.901285904293493	-2.0979785135243225	14	-0.900551235666554	-0.5420748764049079	-0.8688777892276498
Si	-3.011099246893095	5.669501313130656	3.129330728451499	14	-1.0007400108978282	0.8291020185933629	2.195613128767161
Si	3.4863498574774874	3.1875242352981172	4.299880240138197	14	-0.6244003832033894	0.4109803867833258	-0.37227419596222056
Si	-1.6900127809799523	-3.4051496153659273	-1.1822384175067897	14	1.2002019907558719	-0.9826754249184676	0.33051018958386325
Si	-4.8312070394281275	-5.468989102368078	-5.36517502938889	14	0.5972255997431483	0.00832369636344739	1.1072087108735642
Si	-3.978669981322966	2.0758885551864465	-3.6173398179375607	14	0.7318517596324859	0.16506187622712248	0.8454287944868353
Si	-3.3337938112092904	-1.4183739602925036	-3.2365827149071853	14	-1.5572994662343225	0.5892070935812025	-1.0568970648583744
Si	3.5814872916826577	5.60153976640637	3.9148011887373677	14	-1.3159323263158451	-1.3078364298837628	-0.2346683821173634
Si	-2.566877169685472	2.6301675196861356	0.052256284842762006	14	-1.3517066857403857	-1.903516795329502	-1.1115513077592942
Si	4.045147222546288	0.766862071468636	1.6938545128648004	14	0.5938371400417252	-0.28266937578133594	-0.0802328841784129
Si	0.5223227401848171	-3.82997749496169	-5.450042379208713	14	0.15103289715826654	1.0706722758321319	0.4231584271322072
Si	-1.2282518880366737	-0.5982296869436746	5.013001721263108	14	-0.5269562629013733	1.9645736046986546	2.2624821788230403
Si	3.7967661593776207	-2.839236315101329	1.4938989166650838	14	-0.7535490603186835	1.6575779730412699	-0.1751706910143487
Si	-1.4174026133102553	-1.1109153553832622	1.761488639257991	14	1.5357091235294429	0.19977359782284565	-0.5454887900490006
Si	-0.08046900337211452	-1.904254817626447	3.7431783651884056	14	1.640027093904875	-2.270246916889888	-2.160430123566255
Si	2.4642636379202987	-4.618613018448143	1.9808602610916406	14	-1.3787344019763144	-0.6278500352114321	-0.6124786820549268
Si	-5.35335515543636	-0.049898858458878	-3.455932508718762	14	0.7929792743979425	-0.5580201002688703	-0.9103859706266523
Si	-1.6000485880060829	-1.3749907664224164	-1.859300006167104	14	1.390346542044231	3.3802568470097527	-0.49488095270093
Si	-5.279740150995168	-2.990755530321059	3.038526156627819	14	0.2253481253318266	0.40608911602227615	0.6344315506099472
Si	2.151249801393479	2.0583388254397543	2.4253333605531036	14	0.49804418357630814	0.456318743777753	0.3880237587113196
Si	3.2336468459383663	0.6739729235369846	-2.177388857825896	14	-0.28303267296307283	0.8774575676809839	0.09604518189732358
Si	-2.552579815227657	-3.0978547206222333	4.897509656474865	14	0.23769123064226147	-0.547354641179832	-0.4591821837728019
Si	-3.1191697841765182	0.7944090353247621	5.585223319906802	14	4.143424669441643	-24.356210281470887	-4.798239428808659
Si	3.722245292020399	-1.7291504245568412	-0.8360896434731555	14	0.5526212933176234	-0.05813294839908008	0.5265153183389679
Si	3.40015099831121	4.895174058113054	0.2633223442776355	14	-0.6190421997162009	-0.4080570400343175	0.46846001732055625
Si	0.145636563271056	-1.3561313553513443	-3.9054042252349412	14	-1.7020033305365123	-0.4422522265712228	-0.755659166454929
H	-5.514638044929343	-2.8581459306231696	-0.34321727066923013	1	-0.049655499937487836	-0.055851349537980675	0.0761908495046081
H	-4.822517303840866	-3.035116619580017	1.6038914112920344	1	0.9949249419952492	-0.030365525162544857	-0.8783476843428191
H	-3.4238933379200125	-5.200395290759813	-0.31851886369363064	1	-0.1652246271938879	-1.470826766554442	1.883543934981528
H	-3.281959898593641	1.7990666706577638	-5.147976387152607	1	-3.4304707910227767	23.154617579847347	2.79972209167341
H	-4.6143871133748116	3.0237169350523927	-2.351492436083455	1	2.5146114513905933	2.7193670799922898	-3.720001161350928
H	3.2142602881342315	5.702463809263094	-1.2121067915103791	1	0.4922733376852357	-0.7229896738149996	0.95302672391918
H	4.38283327242222	1.988166100079474	-5.920874998125532	1	0.6117623721127335	-0.042048884847829746	-0.398083208276399
H	5.104475321963325	-4.415258799211661	-6.897097269104036	1	1.7865091346464792	-1.9114717951900406	-2.2681452954011987
