145
config_type=liquid dft_energy=-13864.53988228655 dft_virial="-9.92798616874046 0.622023703446884 5.934837923475563 0.6220237034468838 -30.630398604637335 6.469046515847593 5.9348379234755635 6.469046515847593 6.437335503515007" pbc="T T T" Lattice="13.849990867899999 0.0 0.0 0.0 13.849990867899999 0.0 0.0 0.0 13.849990867899999" Properties=species:S:1:pos:R:3:Z:I:1:dft_force:R:3
Si	5.413230150744284	-6.337082711594859	-1.98170932334443	14	0.7565197154055827	2.0240052183949415	-0.8269739147198764
Si	0.14404406002342035	-2.619018038129935	-4.4840148734296585	14	-0.12278879099537585	-1.2565040550564746	0.48448031745986686
Si	-2.9103886060124684	0.22855947429751974	1.6108411928792377	14	1.0123423807655283	-0.5728875167826266	-0.22180694197438663
Si	-6.246899881057615	1.1012681738702006	2.7208237810035207	14	2.8509379954296956	2.0044501626614912	0.14676666210054481
Si	3.596355108715079	3.3577723960264607	-2.895509560823083	14	0.44240777844309176	-1.5363074197374413	-0.46450257201178435
Si	-4.3629507182542575	-3.207339335215678	-0.18554971265634307	14	1.974578546830947	0.14758350226075587	2.6949153541766173
Si	1.4409558198944894	5.816953229546309	5.72316524638615	14	0.7670512199074412	0.14541503203374295	-0.294234207511362
Si	-2.6183795535509247	2.209271598299461	5.70305921464322	14	-0.13733790467049778	0.24025847930442934	-0.008091782663570034
Si	4.877631613895376	5.882077271606262	4.564714615219652	14	0.09921586897813019	0.5057266462729105	0.1432676448703553
Si	1.626660652448553	-5.919207712124014	0.025110033443502697	14	-1.3869660527693002	-2.8764364182212003	-0.03759084533322499
Si	1.0323464643142697	-2.2387526888608726	3.217992748191267	14	1.468999224892881	2.8319406124401856	-0.9873440379587927
Si	-5.142266159406515	-4.026138330334145	3.8556948027174207	14	1.1030838866084505	-0.7462072690770007	-0.5751644876541497
Si	5.663902520461493	-2.7450086350570477	-6.745952447003396	14	0.47085191659989	-0.3921377843340886	2.9923055934684615
Si	2.424623721305351	-5.990852329884575	-2.840572187046471	14	-0.1933491769593917	0.6627756727697917	-0.9391777222227345
Si	-0.09029778546144762	4.0703350361927	2.000049481251703	14	0.23699266132677724	-0.5914475547571796	1.8703582784576804
Si	0.1088456932317393	-0.989627552481319	4.802257193594091	14	-1.1725392115058668	-2.004577175264307	2.1597804052518534
Si	3.5430714238480947	0.33342883515108496	-5.246936080391583	14	-0.45246208579753083	-0.6978154674043656	-1.2113605878453144
Si	-4.10323430450031	3.9689240180588503	6.781534458542118	14	1.4441176102676798	1.3021419458206989	-1.6495018741201526
Si	-6.765692838987413	1.4413173046561416	5.115024612368442	14	1.8849978950400716	-2.6949112404081053	0.41726982461747203
Si	4.3845553190090945	-2.2148143646447944	5.394420478146589	14	-2.677969199011522	0.9600728380490459	-1.4561951203985435
Si	-1.6258573529782148	0.6759266443224707	-4.391397214497838	14	-0.3003164142567043	-0.6135716589265218	-0.1994735498319844
Si	5.796554962996066	-6.734427869602216	1.9240338063732338	14	-1.0231911596638932	-0.8818932385793034	-0.4882945522023066
Si	-6.7934773056675075	3.826710926828166	5.564634095914907	14	1.6853507955989773	2.393177118677871	0.4647332001590016
Si	-6.196398659355991	-0.26767600350572973	-3.428899024128561	14	-0.4245151994096494	0.05988772778008115	-0.05116242476562663
Si	-4.852453715496621	-6.631827137252813	4.596594524199384	14	1.9841412588481735	2.1536755727796937	-0.957972502113017
Si	6.379994138300874	2.7064474904826405	-4.576355532544122	14	0.18277447788815462	-0.08477037084741024	0.27612411296783496
Si	4.556141470872421	0.633069232580841	0.3695551513309153	14	-1.3870092473386788	0.953440414765192	-0.742339555343902
Si	-3.221935840591358	3.974310279507376	2.708371254214192	14	-0.05787712341972535	-0.23884360004675184	-0.4045220273296459
Si	3.233848217736839	-1.2668157297151226	3.4264309557559014	14	0.6589164436842494	0.34705319543476004	-0.788455928808206
Si	-3.4622027121695136	-0.618375777269086	3.718383223254886	14	-0.555967586891796	-0.046758892683809006	0.5952322217884375
Si	-0.7377599285522104	-1.1600170651336588	-5.985288788552939	14	-2.52243866731672	3.5256207140476254	1.549723447297974
Si	5.393525768736524	2.2272973614140326	6.840460629688685	14	-0.37637408050572874	1.3663455309911807	1.0203691144644986
Si	-5.868989030236096	-6.66106031297769	-0.8778331961938037	14	0.14817537070545395	0.0932725019200759	0.46887730771401637
Si	1.1849595136876598	6.887635083583839	-4.7457132208768025	14	0.4189909225187792	-0.09965655643000357	0.14737729961407997
Si	3.0362130030491663	-1.108467399123335	0.02710997212482746	14	-2.8034103422551624	0.5817624581267138	-2.1889560228722336
Si	3.8559247125658276	-1.6090199190801087	-2.2791295672380616	14	0.09072247966355304	-0.5011251390814416	0.3584938427778229
Si	-5.848545058715989	-1.0147639009074707	3.29921878963424	14	0.787311272719676	-0.7056395980041082	0.518616368574409
Si	-5.326899002667403	-0.6869318470661042	-0.20916671708428616	14	0.07137182680305455	-0.2966029668428144	0.10366928050315868
Si	-0.749040746114115	5.656402750406525	6.4796074276200715	14	0.244003037092693	-0.8052838131285751	1.5932352910729681
Si	6.428133936559521	-2.563249664901249	-3.0832946620055055	14	0.2978527811389384	-0.6714706367414683	0.09935907954446245
Si	5.185314701022122	-0.9214121924596512	-4.149363084084938	14	0.04903817755012028	0.024139593629806284	-0.0037535566568841806
Si	0.9500525885753816	-3.5181400552867883	1.4430139285374595	14	-0.42387525129546444	-0.8447690488616851	-1.316730911628283
Si	-0.07216953241445331	1.053463545390557	1.2669860846027976	14	-0.013994269147033979	0.3045227425604666	0.4747993345979134
Si	0.555912318454857	3.2514626361226338	4.8490798577212	14	0.23793240032129134	0.25223443077514707	0.33679499942843316
Si	0.3728777641401245	-5.715608691368624	6.604339060377292	14	1.1184467551173993	-0.41523299498285077	-1.1207553505843604
Si	6.427229532155847	3.0668782678297837	0.8565637652179697	14	-0.18978973875417868	2.6046392183966423	0.41668926903618264
Si	-5.260383036525227	3.4187248208370016	-3.465080740271863	14	0.16942478484488177	-0.21077998547733556	0.6190347435107725
Si	5.555211947127475	0.6684393392592841	3.273416256647342	14	-2.9279400286628103	0.03190278903346139	1.2803561991114882
Si	-2.7334023427097476	-6.5763440738360055	-1.5643273835484823	14	0.19736112970095074	-0.12600447241928503	-0.11153763411440784
Si	2.610536303722433	-4.071747735261226	-0.11157968142906277	14	1.446881034265775	2.8030095069357515	-0.38663510472790763
Si	6.889220907538213	4.849417797498377	-0.9722984439074026	14	0.8128629173913077	-0.7210222640240223	1.5369447967463061
Si	2.077559570144819	5.174686218030096	1.1418874270875776	14	-0.2343904456322554	0.43068739484119684	0.433746753061641
Si	-3.0326480153997686	-5.284850430392459	0.3597493577964421	14	0.5158999958036725	0.6898154732007249	0.057586845629080625
Si	-3.404987014895132	5.18645040027329	-2.600460435366036	14	-0.080929139499109	-0.34998836926824106	-0.02612602960015269
Si	-0.28925705927609147	4.611462489396074	-0.1878197261595919	14	0.6628656614559968	1.6588766383384765	-1.06234420858964
Si	-1.66780205032165	-3.4496380004541547	-3.3667887400814633	14	-0.7174767097875381	-0.6419900860301184	0.5890767385414709
Si	-2.115948974832464	-2.1181345033914183	5.1176588806315175	14	0.10581666766654634	0.2766213647367516	-0.18222220446538684
Si	-2.737751239842268	5.660883222452291	5.384257354847725	14	-0.7951258902297341	-0.9561066509821855	-1.4630167770339604
Si	-4.649450244348551	2.793080568360442	4.2383174204322	14	-0.4172669964016199	-0.0717407804164958	0.20861640035043094
Si	4.659085682995348	-2.0031961991768896	1.1127068813279992	14	1.6456778691774963	-1.7994669912389618	1.8597642960965421
Si	2.4017172214089313	4.225439698923227	-1.1432336461999375	14	-1.0119114635138715	1.7188674674418956	-0.17340434165940696
Si	-3.569631551335467	2.2080818840839083	0.5769227546014613	14	0.9456913604407977	-0.0636513117477139	0.9885879387126801
Si	3.4457073730458445	4.919861621050691	-6.757022744704108	14	0.11595582149655032	3.2508410320516954	2.186729702775518
Si	4.724573979815127	-3.9936878017306547	-4.8911270449970585	14	0.023610974375983838	-0.9027775557632702	0.6024040629684585
Si	-6.902217738968651	-2.8043392259369577	-0.6663798456172273	14	-2.337349166198304	0.5661069978323321	-0.4236554217905918
Si	3.376604228609544	6.659243194175821	-1.1792920974245151	14	-1.7950827424470452	-0.32198620411597634	-0.41345096188545605
Si	1.1199338065628692	-0.7975517241280214	-2.1605362504334944	14	0.38679091371030866	0.8877936681785112	1.4067316820284708
Si	5.379886297729815	-4.29136981045169	5.130492282169714	14	4.7544743311596305	3.8233220570832063	-0.9271670608301948
Si	6.729964017545492	0.8723319798210738	0.6960880760288729	14	-0.024573853318379295	-1.0624372826022295	-0.29127640795106363
Si	-3.423677577571363	-1.494612069515821	-1.387649975042116	14	-1.1977527558278989	-0.33079686782705975	0.9635536004314625
Si	1.5643079935612674	2.777586583576522	0.5416980728271312	14	-2.3615553514559022	1.0664330373802715	3.1888568249935654
Si	-3.6815006975736684	0.07994907228495274	6.137847822961945	14	0.1820584250564934	-0.05487304396366433	-0.20147952620276388
Si	5.987267952247962	0.38755321446375135	-5.898625240695228	14	1.85236131254824	-1.0143820386160018	0.7493257627198083
Si	-6.450503056810266	-4.3942586226111455	-6.86766201175324	14	-0.1732297636081689	-0.2997302022437105	0.44832697711113667
Si	3.8721846018447423	-5.523870802792504	5.41194625659083	14	-5.133986188598068	-4.782154079704749	0.7336741590834068
Si	-3.6987217762188154	1.7005101887552827	-2.4419223598993582	14	-0.19745934592418038	0.5032529858443962	-0.3373385310931125
Si	-1.2533452285970028	1.7421058663288467	-1.389082064097857	14	0.09485501724462703	-0.16790449026907822	0.018051473342227647
Si	-1.832425811775683	3.8949345968443545	-5.314389690915516	14	0.41225668346424726	1.080206705690837	-0.3210315527106053
Si	-2.7937093579458447	-2.3154290083037408	2.0240667504157286	14	0.21822693492661244	-0.3850739295775138	-0.5358224624873719
Si	2.1274070722774776	1.6124394818253933	-4.069312906866649	14	-0.8865009164235408	0.9658244006502172	0.4202345661621348
Si	-2.448023280876668	3.8871605969702023	-0.5146074906895188	14	-0.1609249677670042	-0.24259458559831584	-1.6953567661733977
Si	1.6015450790087031	1.844990523491042	-1.6544742041094698	14	-1.330237442096085	-0.9406447949184111	-1.4907204368585558
Si	-5.113247658540091	-6.367088716810165	6.867523511844562	14	0.0702281991566527	1.107052644780631	0.9252042790287938
Si	5.176734631679458	3.188069842921169	3.970230072197693	14	-0.7469194652506818	0.5267287200805402	-1.2595209900391362
Si	-3.774359346346591	-0.5194563724923706	-3.643195777830318	14	-0.629568562007419	0.5304969320377493	-0.9576364586476735
Si	1.3606438778487977	-1.3229926776744116	-6.546106773773206	14	2.251358034544888	-0.07904863306795269	-1.2426329418542756
Si	0.696265355911982	-4.055100046238011	4.260955230505782	14	-0.36239420954848756	-3.3019664329007123	2.3431084421154362
Si	2.4203274541381283	0.7473413522346236	1.987433524570133	14	-0.29213901378597334	-0.40811874656200103	0.014282490053422579
Si	-2.0280361577984687	-4.7018447598018165	4.602490465311849	14	-0.19500342612237492	0.9554096243298935	0.5515002913980388
Si	-6.638912792580831	-2.5805524584925164	4.744714636535227	14	-0.1923636722901789	-0.25929262910001755	0.07485593162238723
Si	-2.636449636636274	-6.599688233443851	2.37265440057173	14	0.8545258793305831	0.9242264876755415	0.5903741182860177
Si	6.822806046329373	-5.964342062364327	4.673233448666908	14	-1.0337383479082045	-0.8937763731479638	0.8567342016900583
Si	-2.299268838959075	-6.580927035814194	-4.495208436049095	14	-1.1163042530541198	-0.6419854580405422	0.9881295106340978
Si	5.107161972552736	5.193519435612266	-2.2596273950969716	14	-1.2724040274668023	-0.5150990964964464	-1.4376541086033596
Si	4.430066389001015	5.6820723234810915	0.4914419959638692	14	1.0722509344987028	-1.2591918885581574	1.4818771201099066
Si	-5.328482056623605	3.2099251285107147	-0.40665235187058546	14	-0.34661379353554667	0.3508152367392007	-1.0596059814236825
Si	-5.012033310276564	-4.511014045627542	-4.096104329201515	14	-0.11756121965845076	-0.5247898495586165	0.7627376765118288
Si	-0.6526558896662252	-3.186539418930266	-0.28344144811066024	14	-0.5872029169841471	-0.2722494572503718	0.08158657112947086
Si	6.209027081029343	2.6115044180840994	-1.9768964515178347	14	-0.12553113192984577	-0.059065488298697795	-0.653720496942762
Si	-0.5719686128680134	-6.695934589983062	0.4998572504152053	14	-0.5315207461762321	-0.5304439672681541	-0.43416095812871686
Si	-1.192510528708839	-0.5736389217666822	-2.3966647447403213	14	1.347807347411849	0.5821856620624102	0.18745260401816408
Si	-0.764684310799408	-5.12746051916873	-5.358368951917446	14	0.9653325482024728	1.7168504353182394	1.384967532603949
Si	1.1230860644844034	6.647301732049518	3.250030547066893	14	1.0823386662223038	-0.2646855225090282	-0.1670136022756469
Si	-6.125658445999106	-2.4382922772928812	1.4604469120428851	14	0.24440284396997605	-0.37507181566107367	0.36724382840335085
Si	-6.418830897693553	-5.199893201409673	1.8073116233349198	14	1.2039506623126477	2.489186819321777	-2.1080574795264346
Si	-5.793175565224298	6.047353367630173	-5.2930510099853425	14	-0.6876344045576432	-0.9667790520555882	-0.7083729400699578
Si	2.9318533218595393	-5.3783046287727005	-6.184422572252519	14	0.11503665134459738	-0.7081515679018929	0.28837234449195637
Si	3.590438392616313	1.260757743709503	5.664298630200315	14	-0.2582834702618595	-1.1733354828235165	-0.2973444736171451
Si	-4.971450067035444	6.79233329642182	2.125256168695693	14	-0.2042174962581896	-0.5287825190102744	-0.5821458099299479
Si	0.2298115134719779	4.701785204841084	-3.7351334022105247	14	-0.2677086281444583	-0.17026990716361445	-0.5168870431360774
Si	3.2458409248293534	3.6243223952746297	5.538760927974583	14	-0.9106248263108941	-2.7051087583288767	-3.600648138394866
Si	3.6518686421117965	-6.880879058038477	2.714142545408846	14	-1.1361385308253382	-0.0559837614619683	0.9630686899680824
Si	-0.150654660664669	2.2949171718283807	-5.313065631788545	14	1.1053621430326337	0.04480562397209252	0.4770935318750816
Si	-2.387209355974806	-5.881044062287517	-6.91826018339094	14	0.2582389901398209	0.974967508279196	0.15651500792188627
Si	-5.546825777656961	-4.357871926602999	-1.565925672494638	14	-0.4660274945771642	-2.103110158669406	-2.6939532465658185
Si	2.1474549340587625	-1.785916157442188	-3.927878185122742	14	1.7160742186220868	0.10690193122218085	-0.7017181481698184
Si	3.608422605758281	5.08346879317502	-4.463451791988087	14	-0.15942524203376188	1.1672974990896807	0.424700833213764
Si	-3.1073881061193043	5.623388527174713	0.8544627216033094	14	-0.6027300791230533	0.22499382701871015	-0.10376723961585632
Si	-5.841376303442764	4.531297357253583	2.434041715095523	14	0.081207075984217	-0.6913331966712083	0.07027396483135133
Si	1.7262877917586181	2.017691599619234	-6.814831221587636	14	-0.30535089558408623	0.09563920436727219	-0.23611308619675458
Si	-5.13920531142471	0.5826372608335568	-5.754916350450811	14	-0.6171778912485614	-0.06798002466471521	0.32187744636093407
Si	2.446314192003569	-3.5425686691795897	6.368743790718879	14	-1.060171367483583	1.0781194823919407	-0.8248051873823314
Si	-0.8121052945320107	-3.1010794352789754	-6.876111891181746	14	-0.08357146443662518	-2.467357106711592	-1.1330058961032698
Si	4.907223504383732	-4.747534494675931	-0.10216445763706435	14	0.4445240552321057	0.5147589392625909	0.052524596364241075
Si	-5.342013497701543	6.855199789970304	-3.2289079259942586	14	1.0582008723662215	1.0395199924416214	0.2920940194428707
Si	-0.9179026047737253	-6.781040013868133	4.288597042279936	14	-0.3449112075925447	-0.7024449996438242	0.796460808111955
Si	0.3168961010520727	1.0131226769896244	4.154414175754461	14	0.43951811317377737	2.7537790107076843	-1.8325139221398892
Si	5.953702499379606	-6.539947682834252	-5.7228023766254115	14	0.030724194354705515	0.5674557996832817	-0.046106346153555425
H	-4.460860458696703	-0.12106831017266105	1.3492938103325536	1	-0.5395598211807392	-0.20380020586472955	-0.474532710976214
H	5.639141506787862	-7.086264727615827	-0.6033873171518446	1	0.7774086605791257	-0.01799748013050454	0.6366951517338055
H	-1.016661349656373	-5.954912988581461	3.0071875771873082	1	0.010479568174391555	0.7010108370962457	-1.5170254153889908
H	7.182141289398865	5.979615832293447	-2.131868154336028	1	0.2706885392105099	0.08465672799225968	-0.9244805128811722
H	-6.580474141112814	-5.94187460717842	3.0912182417810308	1	-0.342920400743154	-0.6688843618999314	1.218158847422318
H	4.915407463987574	-0.4077922061190136	1.467795717197393	1	0.5686619051889632	-0.43674826141238193	1.2183313685893
H	2.4789600054782963	2.0629658347673123	-0.2644683456207241	1	2.8069186154645043	-2.3354421773823506	-1.2609027020381838
H	4.059404623399754	-4.877919693705429	-3.5776603910415883	1	-0.3391462752437086	0.07107692102283357	-0.055820753384670914
H	6.282879387334246	-1.9221820625941954	-7.968203061102877	1	0.9585211759883366	1.3456494187166488	-0.2595155439312744
H	-2.7889477310854605	-0.3372057276607613	-2.199989334419794	1	-0.1859479931848134	1.6243682911735768	0.13284361257087893
H	-2.1841117048888337	-2.020652727666791	-2.1551943089557453	1	1.1166464671722316	-1.341749309056516	-0.4681689681983155
H	-7.67966066135557	2.643162727209945	5.235390728004101	1	-1.9313824347892674	0.03215938534441218	-0.6185266930995111
H	-3.299627364364843	6.932107404260665	6.2471214809115025	1	-0.5693239648089014	-0.8211789004387947	-0.25003125062631215
H	-5.9204652912948195	0.8650482696236452	-0.22370782249649435	1	1.2649843317339189	0.2694343540353417	-1.4080378035311056
H	-5.321404711290107	-7.917078589812197	4.7697304900408275	1	-1.0376004052095993	-3.326799967856426	0.3257469598677569
H	-2.9654866396831476	4.9729153960692685	-5.315281630327409	1	-0.4450426471751796	0.1374371493358555	-0.11110337442583483
H	-4.855597663423634	3.036675592744154	7.551418055913335	1	-1.0955631464364852	-1.355707325618536	1.312821545988998
