72
config_type=liquid dft_energy=-6931.803906598279 dft_virial="-11.53880945024983 -4.116825674346919 -2.731022656684764 -4.116825674346918 -10.0061900922152 -0.2828900216933082 -2.731022656684764 -0.2828900216933082 -1.4633888885906996" pbc="T T T" Lattice="10.914011036500002 0.0 0.0 0.0 10.914011036500002 0.0 0.0 0.0 10.914011036500002" Properties=species:S:1:pos:R:3:Z:I:1:dft_force:R:3
Si	-2.1267260185944634	-4.896832987790602	1.1316956323967582	14	3.1815687698530737	-2.26012010436542	1.165722182860026
Si	-5.027921174350003	2.311653021596919	-1.1064951809134798	14	1.2465677614362303	1.6502328393626708	0.0056985978315762026
Si	-3.3052427583378066	-3.7372629712066225	-3.793415557989415	14	-1.0632348394725395	-0.24327232896070689	-1.008286976344059
Si	2.3827905455328264	-2.419810870968634	-4.416518276085273	14	-0.10552793253909373	-0.28964607006755777	0.22371264523768042
Si	-3.4396815462854136	-0.7106876566637705	1.452534814836749	14	-0.5071824061051784	-0.2318872174925592	-0.002201894596174815
Si	1.7157480190040193	-0.8745833603988911	-2.215751606619194	14	-2.4125606816864678	-2.910448027838247	-0.6790502552252649
Si	0.030952135299514006	3.070973511439334	-3.120763229787847	14	-0.5209936125534179	-0.017928574507924573	2.0898124019535995
Si	-5.206692675127873	5.077590838577114	2.9017845123515107	14	-0.2173609866547866	-0.7327318489835726	-0.48620167247170604
Si	0.10305009220663303	-3.9467246710191306	1.8953489846206635	14	-1.3394530548950918	-1.817865049578345	1.1073182399602024
Si	3.768946345245582	-0.6136948405823951	4.908172645257525	14	-0.3621484118798814	-1.3327787225945196	0.5896439243750956
Si	0.34970674163153304	2.3793417180452923	5.790002908984651	14	0.09704894141430938	0.3076612908247713	-0.3074761712417206
Si	2.4589266865234505	-0.9011698912838052	3.0665751649916246	14	-0.5077506203809312	-1.0025377277376757	-1.0912789136415226
Si	5.171887893932475	3.802605155282148	-3.750719946814627	14	0.1640599164838608	0.09536589587174046	0.14096444872456665
Si	0.29236452764576204	5.198736361082265	-2.3510744294607573	14	-3.4583336022666895	-1.0474875907182286	1.0127900102017662
Si	3.8817644773298823	1.0849836651605382	-4.53527363017343	14	-0.3955686672732942	2.992647550476041	0.3281586566580558
Si	2.143369885425126	-4.750574325890465	-2.434206451525778	14	3.9231004839053853	1.9487803331591131	0.669431493112059
Si	-5.714325156457561	-2.640961476601234	-2.254801938107791	14	1.9222323851759242	-1.1212045226837901	-2.4979951690380724
Si	-2.436542049887589	3.619970094597357	4.3044532107624915	14	0.3676858014078843	-1.7476466206219092	0.017000919708415142
Si	-5.059015191792992	2.2896722033694084	2.432089133384697	14	-0.17711393241531662	0.41246391455305126	0.07413216547476553
Si	-5.506631526432966	-0.742327374658584	3.275873154638585	14	0.3150889569841471	0.11773399793596472	-0.735153830195152
Si	-1.3525952157755181	3.620657677292656	1.7502581219014324	14	0.6038726783273272	0.45795550942455926	0.46044871025350687
Si	-0.040370926824013505	-2.4991557312039894	0.24349158622431505	14	-1.167090782221941	1.7317278791427444	0.6811282225450086
Si	-2.5581568748673083	1.5667826823668307	2.3720729866949832	14	-0.7701820548557855	0.0851537226506443	0.4542626308532306
Si	-1.8031583333953478	4.521118157859089	-0.8658958076138372	14	0.8462196664833128	1.6083161093282965	-0.47686110395414005
Si	0.20056678081776055	0.988285527377148	3.404942249156234	14	-2.792311137698615	-3.912427311500387	-4.569335464819068
Si	-1.2489121109287682	-4.664735629088393	-3.7777321241299644	14	1.3852038171828707	0.03507141923001189	-0.49879828876670756
Si	1.8342196088052267	-2.914532077242143	-0.7453505557156946	14	1.8897958346780004	-0.18373992793587024	-1.8449922675901635
Si	-3.4518397545800745	-4.671098497522673	-1.5109575159151334	14	-0.335367007533623	-0.41774136533318723	-0.05957122471517091
Si	-5.163658729610954	4.40496033839762	0.32983232753406655	14	-0.582445343699745	-0.04365813966771043	0.452445887834014
Si	4.100612226633781	-3.6910530484780817	-5.5027788805370825	14	0.53162256194691	-0.5006374004022095	-0.46884928266602666
Si	-3.795609274207752	-3.7494211795012835	0.6390808302532941	14	-2.9792178960573117	2.738073928080623	-0.23471646178685016
Si	1.000945780179488	1.8625414674449443	-1.2033461148513807	14	-0.4897996772567213	-2.0082859946886202	-2.147634246608942
Si	-3.3330734864808815	-1.4298991559470475	3.8676635750707247	14	-0.2486366831006639	1.0328834553892554	-0.5199692841938709
Si	5.198310714651842	0.1468480184961075	-1.022359069833101	14	1.464519073872523	0.651792682173715	1.3851271982443303
Si	-2.0940276415291095	4.0162905773657815	-4.320409494897854	14	0.2573051646875431	-0.9461539022878923	0.45814859943410235
Si	2.647138806847893	3.443315911960568	-4.077703717468167	14	0.3522928509666898	-0.3659194520529426	0.21591885368071553
Si	1.6569433275393572	3.232959263243067	0.2981380394840705	14	-2.5635079610375735	-0.8936606734085569	2.038208518404504
Si	-1.0269975245236136	0.8265944538714006	-0.5504481466258776	14	-0.2908231220831215	0.2906295178525144	0.9214862036253277
Si	5.011386447629706	-5.007435575634493	-2.1035664871750104	14	-0.31430965496161023	-0.7398183294669648	-0.09827998664159629
Si	-2.8916890521427487	5.628191781357502	3.4284401149178185	14	-0.12022719876491231	1.055932643252787	-0.5681937069101642
Si	3.1465857799002057	3.2119279639757314	4.217621338956097	14	-0.2369687500472999	-1.282524926449033	0.1250017413444273
Si	-1.5547445281935712	-3.1505693939285284	-1.2655123217152846	14	-0.5022515403221984	0.12367710788348701	-0.8195411063498603
Si	-4.911643300767133	-5.322763182501051	-5.290959754340689	14	-0.3786852470780098	0.0564283055718219	1.501750992903055
Si	-3.7735193158698754	2.0827425541173685	-3.6249577976410374	14	-0.8190528534495641	1.668713944403895	0.9663185670927495
Si	-3.4625900554510274	-1.494924833702515	-3.1535925749856393	14	-0.39253450588498745	-0.061581314854462686	0.2277009438102941
Si	3.4297934522863445	5.433442168422197	3.876111019612976	14	0.3352543931206005	1.277574777376152	-0.11716089856010373
Si	-2.6965247067880553	2.6341402197034216	-0.022570174823482003	14	-0.8269440898981626	-1.9417614727456407	-0.3212071592039714
Si	3.9284109604998836	0.737678005957035	1.7592840090286177	14	0.829225945869794	0.03409542765048368	-0.011635537126330133
Si	0.367540235665174	-3.6631350082467145	-5.500377798109052	14	-0.39510741097885965	0.7009213626311046	0.5510560043987173
Si	-1.2515423875885647	-0.39807763854530104	4.888800275667737	14	2.0789253135859647	-0.5397768224697596	0.2579096315483099
Si	3.943243101498487	-2.7339270226101413	1.2946527311827398	14	-0.1489459309699023	0.33292420036895026	0.7594278926332022
Si	-1.2043938599108848	-0.9870631581410603	1.8781594172381757	14	0.8184093057879313	0.8185404321592586	-1.3800873175957762
Si	0.1314374349125695	-2.0069010914247296	3.4894385226008167	14	0.39588157079075625	-0.7844498896088833	0.6952446191947496
Si	2.430277407552638	-4.433969779732637	2.0031794136612833	14	1.6349584168767348	-2.5801018747738094	-1.6213742390282648
Si	-5.231729416445604	0.007017709096469501	-3.4031632653572843	14	0.4355730091705422	0.21761166942350105	-0.22130609065802176
Si	-1.5275795547237228	-0.8266817659596927	-2.0744151636965187	14	-0.7490187727445826	-0.6679361382578608	0.4933573156882101
Si	-5.230507047209516	-3.222001596162421	2.9135389022378217	14	-0.02127306830837319	0.06541843243425167	-0.2642792878684448
Si	1.956522016480246	2.037438494304857	2.257945173286303	14	0.7082531265620389	0.9993608700041008	0.06186233666595486
Si	3.2816248384548206	0.4879872614639881	-2.0766197939258917	14	0.2838950216874505	3.224013604920206	-0.7965775362934897
Si	-2.3497429201143043	-3.243305745705669	4.778601506232197	14	0.6783128622194464	-1.274865603700312	0.3562477251701416
Si	-3.0089601007299414	0.6271081601462536	5.663989737557223	14	-1.6712058596801824	0.13073916286633772	-0.20750825395744713
Si	4.004863607810567	-1.7011450722371824	-0.7987200696841796	14	-2.4843078898662636	-0.3640582289116874	2.4565810900937874
Si	3.203185841135495	4.565167106402403	0.07144311624492901	14	2.50111366268088	3.214020746982919	-0.19801804711024856
Si	-0.10086728999933302	-1.2125247981330771	-3.797584710205358	14	0.39291631502502944	-0.1402100864236352	-1.3283589925491848
H	-4.901570759981547	-0.08837293016474781	-5.027316538138581	1	0.25950397395733377	-0.027087880100420087	-0.32959590453201854
H	0.5834608472090828	1.8721425229537534	4.320950829845264	1	1.6052762915082854	3.2312998602869736	2.353739448393184
H	3.8091393736897006	-0.40450271684248856	-4.126655239769077	1	-0.08327861554066031	-1.5348634869896463	0.5770989872970291
H	1.4794869650913856	-3.3602242717363824	2.3667502235124824	1	0.040014112097464555	2.237699294642133	1.1775392400219586
H	4.555378329903766	5.730185397295803	-0.12680225442536797	1	0.32160619474965846	0.1713019488391219	-0.5983363172414523
H	1.7254647630298152	0.45775981649729763	3.612628239373103	1	0.05861323087288374	-0.11238095665941643	0.7521087271183365
H	-4.396797749543421	-4.213917123610309	-6.245811300308623	1	0.20280081722678797	0.549680463052438	-0.5779040003727676
H	2.3322095613841674	3.5892187771009145	-2.4264749661075213	1	0.30200280223618936	-0.1872482011452123	-0.7167675989402412
