72
config_type=liquid dft_energy=-6952.550405258788 dft_virial="36.40438403132014 -0.39611742877705597 -2.9967144611829455 -0.39611742877705597 22.145481402800225 -2.65226452311594 -2.9967144611829455 -2.65226452311594 31.219087655957605" pbc="T T T" Lattice="11.2999927403 0.0 0.0 0.0 11.2999927403 0.0 0.0 0.0 11.2999927403" Properties=species:S:1:pos:R:3:Z:I:1:dft_force:R:3
Si	-0.46392120195301656	-2.994328576288396	-4.859720077864379	14	0.3724621437611234	-0.01896807238886044	0.6520089121311395
Si	-0.012102292224861299	4.49476421233091	1.706818703451354	14	-0.8157983483353206	-0.4464994354495755	-0.6860385194854274
Si	-0.6314322943352237	-5.23715113538314	-3.882971305378328	14	0.1053677526776485	1.0565908462147449	-1.3378563984912797
Si	4.949125620425633	4.424421757522543	0.5187487667289522	14	-0.25496931550418855	-1.4190195085745223	-1.2189093530652693
Si	1.1472995629153993	2.531684273515033	0.5804241271055095	14	0.5624969088523122	1.842482611687167	-0.3232779274288187
Si	3.607861682122984	-3.5336659297901742	0.5033468766239232	14	-0.4487769205421626	-0.5077246522171978	0.3097593127660121
Si	1.6058532683167732	0.3644586658528959	3.3780424297707627	14	0.38579538173034733	-0.785645967803816	1.2033896471317913
Si	4.929633132948616	2.6283218114300784	4.635720321773412	14	-1.0428125499146033	0.8780103553248157	0.3524237202274853
Si	-1.5449915074175178	2.888515444268226	-3.1987680449459033	14	-0.5631407136244772	0.3036637362730051	0.8369433755987505
Si	2.265535544502747	-0.2813359192552491	-3.990615036222426	14	0.18611742902541117	-0.43030430014849474	-1.0661196196417457
Si	3.9931462345962534	-5.4344490086287776	1.9538478447470522	14	0.10061403605122672	1.2319751960811978	0.2917842012517929
Si	1.8548034083783227	-2.450516425661458	-4.997263589499311	14	-0.555236107428214	-0.5317174357332235	2.2601938950881086
Si	-1.6017061709810834	-1.3146637553919827	-0.9470071915935819	14	0.08800045046111227	0.17376686750954787	-0.254923806940022
Si	4.746132550838884	-0.600707614074348	-4.27666305245038	14	-1.910662411235258	-1.3507641185300192	-0.01912799513977365
Si	-5.3838589411304545	-1.8098859372356302	-2.6404128036622	14	-1.0132137283585265	-0.35480224975915436	1.1649205122212039
Si	-1.5418501094357142	-1.3237828495334047	-3.3209774664322476	14	-0.15131134786443856	-0.41427088737205137	-0.9736217917546303
Si	0.9177402103962048	-5.414787021260656	-2.0058504113379128	14	-0.474776194650032	-0.275377721093396	-0.3111839622239062
Si	0.6191605022192579	3.3896023223440896	-1.9534184450229206	14	0.36566696951050404	-0.8566197875033118	-0.049845504620646776
Si	-3.3946421191062632	-5.233941937444895	-1.2347050067616199	14	-0.14154371875319602	-0.7952410757480767	0.20901697855931003
Si	-1.2897924713705824	0.8629352456057499	-4.461576133652649	14	0.1969091293856687	-0.6316069343052325	0.2526769180007446
Si	-0.508047673603888	-3.19074505010029	4.0626750899273185	14	0.025091416819325103	0.328856454641944	-0.26998971278449363
Si	-0.37147596134462224	4.537647684780349	-5.966407466871141	14	-1.1995844112579725	0.06171706921536651	0.9113467926847917
Si	-2.8079577960226274	-2.695353368365538	3.558333813942249	14	0.4364973215331355	0.27581532321888513	0.7294086953572811
Si	-5.7177285266353595	1.3819552121604692	-4.7450138515575935	14	2.0147189001996306	1.997707696069935	-1.0769755976350068
Si	5.6686978581351966	-0.8982251229337068	3.285924888951837	14	0.39658733920113687	1.8699458731643288	-1.903774677193113
Si	2.934721114583313	-5.461591591190978	4.079331279226521	14	-1.731932024905164	0.6119171526530065	-1.5145360712180236
Si	-3.5303663319100065	-2.620716916315857	-3.7125561148618633	14	0.6376698577606736	0.512573242629933	-0.05338488820436262
Si	3.9415504677440434	1.0089876517741272	3.0047245696094715	14	0.541417187664014	0.7069050960426853	-0.3975908416075906
Si	2.1867971950883365	0.10565493212180502	-1.7241302923294934	14	0.25591496804093905	0.33726654014414836	0.13420861238534554
Si	-2.7064725612219935	5.117280812394037	-3.519269739039032	14	-0.2260446377630547	0.24967566676053568	0.21529381797738756
Si	-4.185641610927263	-3.214531534818622	5.410097524273431	14	0.3321225297301281	-0.26661616549392736	0.4756012623472676
Si	4.396996675141835	-5.497649868025276	-4.078235179930712	14	0.13992135129618258	-0.8369261491931055	-0.11605789437776019
Si	-5.612502994237685	2.2477267559440346	-2.52251997940265	14	-1.7400168655843697	1.0189076982005263	-1.1771913694721428
Si	-3.5221625371805487	2.444821229320347	-1.8137957347237739	14	1.832341400972907	0.25971120504613765	1.4413212761214866
Si	0.8669919429995175	1.0682448137042604	-5.52679254930251	14	0.6133914244435794	-0.028249762594595003	0.39911859238882264
Si	-2.177689400939655	3.0757111240040365	2.0575591781175255	14	-0.15892336227526896	1.561236599811065	0.4070787344600011
Si	4.462028133362261	-3.607307982478709	-1.7027846060430667	14	-0.2663045475291254	-0.7837605762725515	-0.8453457477849945
Si	-4.129672746884558	-3.3493630481958814	1.7100053014041183	14	0.23651520706882578	0.8746856590353322	-0.7459856397984039
Si	1.3407780386148158	-3.0663434300223273	0.9113896144761563	14	-0.2510064708742444	0.7857279860635288	-0.9915033150351962
Si	3.601556286173897	2.42309134328075	0.7936210901367496	14	-0.058265360323067714	-0.4443168241433018	0.980754552133785
Si	5.0241010722575234	-2.052236881536844	5.095189326586751	14	-0.22769323049433365	-0.9279630750373126	0.8619468606161265
Si	-2.020291802060016	0.7855867952983964	1.5895473787925203	14	-0.9242257163439455	0.4324763699229559	0.037932802340804685
Si	-3.155364772830411	1.2309308091863596	5.5406576403948575	14	-0.9321609186935184	0.31089676975964564	-1.2271947399594465
Si	-4.946628322030027	-5.419386118305958	2.3944345616913494	14	-0.762688311289682	-1.1507092417851494	-0.21681539810585113
Si	5.142457196219426	-2.081752462574508	1.3012845639874675	14	0.8198190428349683	0.9439622921129981	-0.3997829660035489
Si	1.0747197095444525	3.323056665096463	-4.53770418474405	14	1.1743011899817641	-0.4642086946736914	-1.1148888595753785
Si	1.5020289350188971	-2.1410209244973815	3.0459356431333457	14	-0.12819042616247495	0.12107952017854139	1.234149322739915
Si	-0.1521996022191007	-4.885269361450198	0.1724830891879392	14	-0.016844853615482155	0.33355386406185455	0.028714618436477775
Si	3.2681274003858647	4.295579240297642	-5.669274157764952	14	0.5376258357589238	-1.943515480795046	1.57733403310998
Si	3.153726273883067	-3.2085199386807823	4.605210341374602	14	-1.1382627780408445	-0.14472880402379543	-1.1703167480671308
Si	0.2808952195383774	0.6152168047528932	1.5064359321876137	14	-0.19067959830548192	0.7154776754011228	0.49414587368989954
Si	-2.627124012199607	3.46532357369684	4.473203826182418	14	0.13304313034372242	-0.3049287200905179	-0.04460610619924903
Si	-3.221424530390205	0.531551658503712	-0.4643732016626285	14	0.08991952347207077	-1.2889431766597188	0.32103720914230965
Si	4.2642104604505695	1.1244735775799934	-0.9928964621119402	14	-0.8217972512682903	-0.4709511612652478	-0.05681114315399195
Si	-2.265987544212359	-3.5394967260441694	-0.0059776961596186996	14	0.5073731821199334	0.16166004677803458	-0.09452514443205204
Si	-5.488123974145203	-0.5601632401221516	-0.5415634520716178	14	0.8645691309321456	-0.554801333518577	0.44735047131054445
Si	-4.007768425202201	4.065850387887344	0.5249411627506365	14	1.3816112117190278	0.5184880704189335	-0.25089617045601
Si	0.3119362995959815	-5.3704119497694975	3.616822576366042	14	1.3626467388776156	-0.6216724404587123	0.17571396556849597
Si	-4.8128929079485765	4.653834210136114	4.40584456945749	14	0.6429367670089969	-1.7604011027835678	-0.30957239340923737
Si	-4.601289243893718	-5.341709968209136	-5.021276074072449	14	-0.15386959765798588	-0.1530172762443568	0.7174895653141388
Si	0.6476703839030348	-0.7856658952475785	-0.17994108439653722	14	0.2549181505083176	-2.1424195307986174	-0.7487758032918287
Si	-3.0985936093031436	-0.34941837551555666	3.358685542206629	14	-1.3439689442793998	0.4693226231554659	1.3097902128165433
Si	2.5664317511914554	-4.171663519907512	-3.309948673517715	14	0.9279273366733626	0.6879987301815084	0.5373149891257178
Si	5.420617817514651	5.056520751429444	-1.9530455452624909	14	-0.4709282784278984	0.8860419741238944	0.7698542389274666
H	-0.09665561790343008	4.404304380446987	-3.0246430668127986	1	-0.526238924517052	0.6812074125888692	-0.15153194870090728
H	3.665183155296704	-1.2966029769951612	4.890460578115092	1	-0.6702647883463189	0.9012436343292697	-0.14022551305555608
H	6.3261370857622214	-1.2473056286663284	5.436281867451254	1	1.086784621541904	0.8414986028944568	0.7834885533296798
H	-4.180199534423536	-6.413296189766703	-2.0899133173315527	1	-1.225243271021454	-0.5301416052825048	-0.6472107153826792
H	-3.5526510475931525	-1.887289757507411	1.2265870919769883	1	0.5365328588873288	-0.5040603129149226	0.06923575250307554
H	-2.7551495399493837	-4.208572686195154	1.9870438334202314	1	0.6392474879851165	0.6043390768324021	-0.5625272478950899
H	-5.070811852248101	0.8655523239244033	-2.427082500716624	1	0.7572231698211752	-1.3019979639227708	-0.08242629412703122
H	6.432709577294538	-0.8178505345705009	-4.471149487502231	1	0.9952779547557057	-0.10549347972780374	-0.04140096630715243
