72
config_type=liquid dft_energy=-6948.333195896063 dft_virial="13.008284391845862 -0.2424397641010075 10.089733570455046 -0.24243976410100748 34.573500129748595 4.985250449792848 10.089733570455046 4.985250449792848 24.93287628623476" pbc="T T T" Lattice="11.2999927403 0.0 0.0 0.0 11.2999927403 0.0 0.0 0.0 11.2999927403" Properties=species:S:1:pos:R:3:Z:I:1:dft_force:R:3
Si	-0.4469825128353068	-2.931071216928196	-4.758234843063745	14	1.5691782299239385	0.4623634123854211	-0.0008669767139539323
Si	-0.4578644058442157	4.67968859352592	1.6512453391545585	14	1.7663038463775635	1.264532845639701	-0.894247913863679
Si	-0.9335828002181054	-4.853109582111304	-3.624766471262473	14	1.7114500857038006	1.502892049444137	-1.5879115603970695
Si	4.663857303696759	3.844212330279099	0.1505385032862766	14	0.30288032048195596	0.667259937558662	0.3662195000438039
Si	0.9965463597670571	2.5808731419135587	0.2089820657391082	14	0.04124695709847556	0.266592768435514	0.23784446851934232
Si	3.798628159564729	-3.233029622934493	0.5037423763698338	14	0.4804457389914906	-1.1071166653031028	0.7154388517107887
Si	1.6370525482727416	0.6286185961428891	3.5214732376233906	14	-0.7454007133380701	-1.2018924925038692	-0.6050831547120529
Si	4.841538389545236	2.8651244592958056	4.833345894808519	14	0.8767787958764647	0.8636599880909412	0.23807432533496356
Si	-1.73001758854719	2.6258132130417318	-2.9250822207758373	14	0.17094405097855725	0.6602917279199966	0.0742895171203586
Si	2.4244360424168456	-0.6175672032428756	-4.150396933570268	14	0.9181036574661409	0.29551230396600764	0.0020622835772907745
Si	4.152306632343378	-5.517187555473254	1.5713543904806373	14	0.38482350391933134	0.7715745654971777	0.6885008670505331
Si	2.010878908107346	-2.855248265640783	-4.632997023523	14	-1.8344461077879801	-0.32980416406295054	2.0396845899688008
Si	-1.630057852766496	-1.5262561194541	-1.390046006962524	14	-0.6870011413172908	0.15140699298234805	0.6065736244661427
Si	4.996981089680804	-0.5887183217768898	-4.354000202764993	14	-0.980298438049991	-0.7347493953282928	0.13658405659063036
Si	-5.50009066645718	-2.0195573025318967	-2.4757493094505483	14	0.3194310396488132	0.9524034879895762	-0.0003375861285354428
Si	-1.7521542743254375	-1.3770397153184386	-3.709844116604192	14	-0.5666695556763804	0.6342212341947591	0.22244200498846323
Si	0.7215384364463758	-5.5956886050401184	-2.0103252084630716	14	-0.2003263854666775	0.5485193518898592	0.5705292989829868
Si	0.5855769237950863	3.3250906637897173	-2.479512207033068	14	-0.1964177911589884	-0.5360425491027766	1.0275759226768735
Si	-3.5947536905442363	-6.054061510557647	-1.1260668765563757	14	0.2635992305112656	0.7422449386681205	-1.4950848881395071
Si	-1.219529116511397	0.7895078927792805	-4.633121323443143	14	-1.8347111887464875	-0.4247036614296162	1.6367851872067
Si	-0.5719152325720636	-3.0157872625022253	4.247350871282042	14	1.1701807365956949	0.20504307817648917	-0.9286007091567094
Si	-0.6179401030033055	4.761997740646265	-5.6946539414596655	14	0.40175140423665434	-0.25327110044023077	1.0791522953990442
Si	-2.6352713069653633	-2.456437621857375	3.493426655641966	14	-1.3046708850135966	0.6283200332639552	-0.3734335073510754
Si	-5.315719984906446	1.5733205892174495	-4.680988092691054	14	-11.44065659904206	-1.3355619441035798	2.4324330118164244
Si	5.146852893395402	-0.6692420700442675	3.3466284499527283	14	1.1507562930125081	1.3243519249077342	-2.2422771476646566
Si	2.6641766883950506	-5.393192735133942	3.758513185336664	14	-0.4163866499400012	0.8801433442984107	-0.6704208544392518
Si	-3.672090840858849	-3.058569035017001	-3.7418230960592407	14	0.19738786919628026	1.0661183340890856	0.017124589874314266
Si	3.8395793332555757	1.4061936965884125	3.314253970751769	14	0.3615580860983754	-0.8714797478116395	-1.83902601769476
Si	2.0614011756492276	-0.12206252158072062	-1.9128966710562048	14	0.8018238766992518	0.5351508897777493	0.5950309042418699
Si	-2.6340509077494105	4.915632441943384	-3.657683350114967	14	-1.3570558703589537	-1.6226700761096193	0.672159178746204
Si	-4.068890085934484	-2.6984043664054194	5.31323398650358	14	-0.6722681936117784	-0.8902997245340595	-0.27586160311464786
Si	4.50527320557939	-5.469580686058371	-4.236853178026303	14	1.1638951554195287	-0.8846378935085614	-0.15357006388818864
Si	-5.272621812594942	2.556352157667108	-2.5777317439317553	14	-0.4103635786170223	0.012135874221630948	1.6590501879475867
Si	-3.2909420857285303	2.2505630541218498	-1.0735558102922016	14	-0.19404646072221582	-0.1772856822507025	-1.1925552664232195
Si	0.8567993495477669	0.8580423487491999	-5.4833779771942766	14	2.6603306451837097	-1.8769068837080976e-05	-1.745112539218371
Si	-2.285299231805532	3.4620691757876334	2.1805030991319896	14	-0.15693229831534627	-1.0216526102403165	0.407631264993301
Si	4.584836454463842	-3.8130808502795723	-1.6214472582983874	14	-1.2061764681882998	-0.36087134386736386	0.18455805364874137
Si	-3.5539381167662727	-3.513077343017348	1.4873502444492472	14	-0.3979495107997513	0.662852291708332	0.33317873979564494
Si	1.5747669882882083	-2.5635954530136402	1.0111572503802648	14	-0.6469163238235222	-0.24222280376902247	-1.3839712292923918
Si	3.3373511559129425	1.8803074919931797	0.7565232139703447	14	0.45648612273409467	0.726853016669054	0.07873907198740686
Si	4.994788891089185	-2.0475021845786587	5.030496868148533	14	0.4793838724942694	-0.3613693669678765	1.3353565127884999
Si	-2.437363234111749	1.0813189053047876	2.1476766202214184	14	1.3977862923986115	-0.862351295482986	-1.35560833806371
Si	-2.9447103081657384	1.5158375261475434	5.31929078261238	14	0.7789325547023774	-0.3370636799343887	-1.8955913631801458
Si	-4.662535204546145	-5.498508667473539	2.2474555561182674	14	-1.2531688172351785	-0.29185490664809693	-0.28932622456573126
Si	5.710372231361423	-2.048123684179375	1.292527069613735	14	-0.5144912871987634	-0.05244309232559238	0.8876807966549567
Si	1.240321103153549	3.2198425314065626	-4.821966802119038	14	-0.007288569361555775	0.7102817286596357	-0.3142523193129709
Si	1.3946903039787872	-1.837559619456625	3.1991861446772942	14	0.28081175218752896	-0.20684002368474064	1.6569876472597638
Si	-0.011650292515249301	-4.282166148914906	0.1316110154462741	14	0.08774051171324528	-1.9433874397501028	0.13451200281312303
Si	3.220181531188772	4.454378038277079	-5.718576026090881	14	0.16609108968677777	-1.40338693111749	1.021381872850105
Si	3.0007017721939246	-3.1564834721117006	4.758472142911291	14	-0.22849901490166805	-0.8404516488080926	-2.7422584019891643
Si	0.17551148724233961	0.6604167757140933	1.486615744921128	14	-0.832943249941664	0.8753356344602657	0.2903436109409139
Si	-2.420108145197311	3.7257658063752745	4.501634607917013	14	-0.8966482977905691	-0.5679304257253812	0.23102486876818157
Si	-2.9801131854210983	0.0550761646162222	-0.0686474558973225	14	0.13366276672587812	0.8470251937801152	-0.18692089943795745
Si	4.567400565665559	0.8574434491339641	-1.1239198779357187	14	-1.9943030384049953	1.1840271671868203	-0.5950445311000667
Si	-2.2099847801914323	-3.752004389518251	-0.5885375218930449	14	-0.43856089066308623	-0.2650179664269233	0.33416321602272964
Si	-5.187487667289521	-0.576638629537509	-0.41780593157985224	14	0.7370669896638743	-1.3830931968255613	-0.5841507578585993
Si	-4.021904716120316	3.82090044525586	0.7168941394301126	14	-1.3972455889497843	0.6995291091002444	-0.5247019177566675
Si	-0.08175544747607051	-5.31097398795552	3.711075815812884	14	1.4955782832504438	-0.278001019851543	-0.5419841163871069
Si	-4.607560739864584	4.736154657249198	4.407324868506469	14	-0.050189518512482593	-0.3806817103591048	0.05776990832787517
Si	-4.385109082779039	-5.24734372883489	-4.889167858945601	14	-0.8895661881862211	0.33858423162072426	-0.41701477096971334
Si	0.3294964883144077	-0.8606187470939884	-0.3810244552101757	14	1.817411763710403	-0.19474477292716802	0.7106568529258452
Si	-3.754671187804962	-0.10951952963898759	3.701075322237719	14	0.2920066018619857	-0.19646021439677083	0.12498142961239811
Si	2.6930594698392576	-4.607899739646794	-3.0360368494928434	14	-1.0229623312904	-0.3377787043239219	0.614009003941479
Si	5.323381379984369	5.152322089881707	-1.9802672277738738	14	0.4099295760389813	-0.6570811887067276	0.572528847590466
H	-4.176516866789471	1.7387909029107587	6.304645629569444	1	9.878338335222807	1.4258707329211209	-2.1173548534746223
H	3.6298593779905257	3.384198665815678	-4.375417079005683	1	-0.200647516521164	0.48421652205401977	-0.2606159770082978
H	-2.4974373855170056	-3.726226846079079	-4.55538867338262	1	0.2287252721698411	-0.3329923346599342	0.2544016154494999
H	1.53279768525146	-4.056212624079141	-2.267219243421052	1	-1.4444073738372605	1.019473855592023	1.1025755790866572
H	3.906779260082866	-3.9997917603268234	-3.6674917438135473	1	2.5779663146948946	0.6703385790690072	-1.5275497207959532
H	-1.2417855822126918	-6.0704883100042215	-2.9068519424879113	1	-0.18273642552941644	-2.0193851992451677	1.8532773973738086
H	-0.10837371037512118	1.766554985073676	-6.304076109935333	1	-0.8207466976344777	0.3927659053638008	0.28464835554625395
H	0.35723797049184425	1.0049320843796337	-4.013900931262362	1	-0.5076876283005874	0.43470269001967204	1.2527741525685356
