72
config_type=liquid dft_energy=-6949.706081029665 dft_virial="34.20520365750772 6.148431394496042 -1.0148025098435616 6.1484313944960425 20.513318619344265 16.663428157718432 -1.0148025098435614 16.663428157718432 30.83489349426748" pbc="T T T" Lattice="11.2999927403 0.0 0.0 0.0 11.2999927403 0.0 0.0 0.0 11.2999927403" Properties=species:S:1:pos:R:3:Z:I:1:dft_force:R:3
Si	-0.4374792189407145	-3.278387793794057	-4.62655602766103	14	0.9837285496576004	1.166332049041965	1.2899831887617188
Si	-0.0807836481004047	4.452434439525747	1.5650376945388098	14	0.45925108939538195	-0.5672436834943695	0.9743401585810797
Si	-0.6263924975730499	-5.551324833541701	-4.217677090346014	14	-0.11019705980048264	0.31881268881931757	-0.001980008207046036
Si	5.19834696031295	4.581909756344103	0.7709420047069675	14	-0.9195596744089407	-2.086412372278236	-0.9212041533717074
Si	1.2442874006053943	2.3856544673321363	0.1348541133627402	14	0.7106931055108593	1.9311680046055666	-0.3375997553936395
Si	3.8317710382720285	-3.7203079098817096	0.8558840501358027	14	0.13208333672771114	1.0714472069756245	-1.3613652999860537
Si	1.5372284124049314	0.37345346007417474	3.345464550700478	14	1.311221804258802	0.6127694740666355	0.6989413544240585
Si	4.8425553888918635	2.829653782084004	4.755342044922228	14	-0.542509393204013	0.21181177004231097	-0.7606471107760164
Si	-1.7701212627825145	2.9755253883685366	-3.199299144604697	14	0.6480396397378949	-0.39269648552015674	0.8482156155433438
Si	1.8880366870275451	-0.30525800388646424	-4.015554120200267	14	1.071719229918496	0.313543208465674	-0.6840191733669831
Si	4.313760928616785	-5.322093180811975	2.371088776689889	14	0.06735576029298325	-0.05254336543307816	1.0363230800865495
Si	1.9059358755281803	-2.497388795548223	-4.7072040758485505	14	-0.9347083698447212	-1.1040755619304317	2.7258177261300096
Si	-1.5161426259515318	-1.6255604556558567	-1.0292824387357062	14	1.5737488838515659	1.014854607773845	-1.2524378519926602
Si	4.326507320427844	-0.3615206677404179	-4.512222701114673	14	0.6621876609830737	-0.31568056831831315	0.09178948837141448
Si	-5.680178650759341	-1.950785546714431	-2.9833110833666034	14	-0.3096505550109699	1.1741376676834028	0.7066898945273888
Si	-1.7477359771639802	-1.5803943846728776	-3.4021114143076017	14	0.6721661207305685	-0.04425515032304881	-0.49519359910786
Si	0.6426983870973029	-5.576964517069442	-2.242325359414171	14	0.9551782248510801	0.9034743253050304	0.6419702885191533
Si	0.8875466297941232	3.4139312067139556	-2.243760458492189	14	-0.9612663451386587	-1.2495538431550501	-0.6191028778017563
Si	-3.7143528137075714	-5.056893651189874	-1.0738044101324882	14	1.6911676642752804	-0.9977367027733632	-0.16104323861173103
Si	-1.566484093609568	0.7209734368093609	-4.412342065283163	14	0.9931534504296671	0.44107414611353096	-0.24007618793723084
Si	-0.6973677519748742	-3.224882328168736	4.428297655032465	14	1.3224644764922133	0.33111337089197	-0.9776430004753419
Si	-0.405104739739755	4.24087597544185	-6.092165086077939	14	0.3952976727725506	0.6003631195653251	0.4068956717612065
Si	-2.6448876007873583	-2.3277307045453584	3.706804418557051	14	-2.066103982685982	0.6879838177706514	-0.28208933442111056
Si	-5.500565266152273	1.5837391825240064	-4.927135834553009	14	0.8354904439823347	-1.009613409578723	1.2759974042622413
Si	5.606141098324896	-0.5208279653931673	2.8117997935543295	14	-1.4232456343892497	0.10830138384793744	-0.10960879090323275
Si	2.7267447481980915	-5.319358582568822	4.175008317758642	14	0.418797318288172	0.6564042166759326	0.2813984784215867
Si	-3.707708417976275	-2.5869977379788014	-3.9810778423496127	14	-0.8526944810110417	-0.6277153092926563	-0.7323880922022689
Si	4.091795171219072	1.435166877974542	2.87584815240635	14	-0.30155363013675957	-1.3492358535277231	1.6237681951918546
Si	1.863289702926288	0.5450099498574094	-1.8071061390215164	14	0.8690225424571741	-0.05825841833870331	0.30543805605443924
Si	-2.7458643359146793	5.3067251906851665	-3.501460950480319	14	-0.9847220247533056	-0.06750899817006407	1.2022869000599798
Si	-4.516833098152716	-3.0372685487015354	5.086296232300135	14	0.024026464995719768	-0.4023152476333628	0.7551043219268412
Si	4.26007466310762	-5.813654165007765	-3.472080969355539	14	-0.14544768507130884	0.782865060289544	-1.1309032461724526
Si	-5.662754061953799	2.2187083745869436	-2.485727203040233	14	1.6225379212961635	0.15289643429430985	-0.5638775924092316
Si	-3.1809592563871902	2.4269785407834132	-1.3564398285528718	14	-0.994226886900829	0.24102441157930146	-0.27116445080526935
Si	0.8080737808515934	0.9528379878475766	-5.708021832871441	14	-0.8361918415136713	-1.003459983216013	0.5806211444751
Si	-2.0727689683459696	3.2728394973585697	2.1361732276117924	14	-0.2094034156889283	-0.6543236782508688	-0.6791806102649963
Si	5.018823975647803	-3.871603512681586	-1.7095533016945066	14	-1.9618641739122826	-0.14039700578040995	0.14146401448827142
Si	-3.6367105635889696	-3.2529402101429015	1.733000786630629	14	-0.7752201357306155	0.04384223080863303	0.8024211444651224
Si	1.5057014326594944	-3.111023601317474	0.90813521656695	14	-0.8429021692887256	0.4590999084025572	-0.3033485187607549
Si	3.6928715275082613	2.4798738068007573	0.9612564824391002	14	-0.41694895067351756	0.21656702933192482	-2.712492458587278
Si	4.832204595541748	-1.5938300760410942	4.790326822446197	14	-0.2761331118364555	-0.6997427679523486	-0.0019638102435291026
Si	-1.9978500164777806	0.686474558973225	1.7308311880244913	14	0.020127126667183193	1.5767092545171841	-0.4453730342088186
Si	-3.094390012003752	1.3056689611707037	5.237411035216167	14	-1.6600452057064836	-1.2087773983301617	0.4536386235920307
Si	-4.59492734798093	-5.293357299273392	2.6894886721333227	14	-0.30341691016227085	-0.11749488514119093	0.12085891934207268
Si	5.601937501025504	-2.1355969279820375	1.0060496536616492	14	0.06627589605852106	0.3479173439328618	0.473074380038626
Si	1.4212452869184922	2.9682255930583024	-4.905959648157687	14	-1.1190404233358215	1.2455848278723376	0.6932990637989935
Si	0.9585670841669087	-1.8525660098157433	3.085316117833291	14	0.8968473013423486	-1.4420679251064576	-0.07357474984135744
Si	-0.24294984391645	-5.080770535850128	0.1216331218565892	14	1.3685245427500061	1.2773366930235064	-1.055552376775937
Si	3.2597993057362635	4.240457875710459	-5.461749791089343	14	0.5183374036471728	0.8085501453272913	-0.28750588199906646
Si	2.6706628842279825	-2.7763630163207487	4.564903267269952	14	1.3121679710166163	-0.9664566354484417	-1.7991666861375684
Si	0.40177124188136654	0.6694567699063332	1.4010747998770567	14	-1.2384296988768975	-0.98521516275371	-0.875984324332539
Si	-2.5719009476777606	3.3604144410958945	4.426184556390029	14	0.8863039697560174	0.799517338116547	0.1307070240498359
Si	-2.933410315425438	0.21734406036693021	-0.4364622195940875	14	-0.685214994451384	0.751040175747283	-0.054658613779963984
Si	4.293104541887517	0.9216387078916083	-1.1148459837652578	14	-0.5449827965219955	-0.008447366529346512	1.0535829101007035
Si	-1.9692723348375618	-3.507178746806911	0.1280854177113005	14	-0.05095159412937448	-2.027797341631628	-0.15380789113030235
Si	-5.221771845263592	-0.6892882571655597	-0.8190686737879053	14	-0.2896650962469268	-0.28519934341636166	-0.4271899202741994
Si	-3.7209633094606467	4.379549486350811	0.6825308615068604	14	0.14364534024188505	-0.570151603611457	-0.48492897533823276
Si	0.4551863075647646	-5.3053013915998894	3.652564453403611	14	-0.5951777143556504	-1.6026375661182175	-0.42140724729865436
Si	-4.701339379616334	4.459903734727084	4.578338958638169	14	0.3800882992512146	0.48536632035318994	0.13122150222439752
Si	-4.772224234076236	-5.390209537050503	-4.615628934681159	14	-0.05944909721246388	0.3730768950431708	-0.6928617187840364
Si	0.7232447353501613	-1.0408197313235523	-0.43744531896249367	14	0.3442620034992072	-0.2033183807277338	1.169006255685451
Si	-3.5103653447596757	-0.1277577179218318	3.2936088840152413	14	1.4287282593739337	0.26773948140830006	1.2430312060683666
Si	2.6790135788630645	-3.9619808546185054	-2.798036402396644	14	-0.2489274751123726	-0.5804496517502461	-0.4006933943974133
Si	4.915236942197473	4.248706870410878	-1.690365914021477	14	0.21105406530446333	0.4738035455074201	0.7985482885213832
H	-2.7626459551332987	-1.3069063103757665	0.1981566726939008	1	-0.6447218854327758	-0.22265926338801575	0.46550041798653385
H	-6.067367252009351	5.165222161594034	4.675946035930333	1	-0.4320583081978998	0.6608254893844593	-0.06703154391211258
H	6.549464492285139	-3.812480820665063	-0.9974978191557903	1	0.21774073891057247	0.006670732753124191	0.19832837952239044
H	-0.8737346486676545	-3.1885720614963304	2.9046913838759663	1	-0.19550839120725202	-0.1268879042072879	-1.1933631077148101
H	-1.6993437582536455	-4.055246474699846	5.240911772967111	1	-0.7904454501049365	-0.8223729217494712	0.22930454219847043
H	6.0937843750376235	5.832174853109117	0.6577454574302863	1	0.18313983195414765	1.2394648258787893	-0.5202731888427123
H	-0.8058307322926438	-3.6845716828405104	-0.9917314328604153	1	0.6302306216273572	-0.4895909035047253	-0.6684313331425213
H	-3.1698558835205715	-2.4128128698841733	0.13257264482847364	1	-1.3042199131404426	0.7288029429438543	0.6715647391961859
