72
config_type=liquid dft_energy=-6930.103240879766 dft_virial="-48.78241475351819 10.340406151599698 -2.930358663531947 10.340406151599698 -29.38475339259856 -7.198775193385406 -2.930358663531947 -7.198775193385406 -37.24957344718594" pbc="T T T" Lattice="10.914011036500002 0.0 0.0 0.0 10.914011036500002 0.0 0.0 0.0 10.914011036500002" Properties=species:S:1:pos:R:3:Z:I:1:dft_force:R:3
Si	-1.5556503911096007	-5.031762906234851	1.2272259709992428	14	-0.034045548207272805	0.04413148015714969	0.8652885262007229
Si	-4.896854815812675	2.3126352825902043	-1.1053492097546473	14	0.5668652167912437	-1.2296902547831823	1.2526342844391196
Si	-3.221957940118275	-3.8969786087147633	-4.577074292443225	14	0.3411710206833252	0.722236597066728	1.7397165604829765
Si	1.9138373193164944	-2.788409765704349	-4.490209678603721	14	1.0803668855522823	0.9096786595530796	-0.0622953108018678
Si	-3.2331557154417236	-0.8481823677015977	1.727666119055877	14	0.19612725625781166	-0.8208099468253534	-0.1887224729357852
Si	1.3643823476949384	-0.9901954793085357	-2.7229475275074217	14	3.1524268337123873	0.11327621553189197	2.828113007950081
Si	-0.07922480611395351	2.816698882310957	-3.326677876013493	14	-0.08606749348142492	0.8966387847008847	-0.2394789201713604
Si	-5.2020651344483975	4.4730419392433065	3.379556259485335	14	0.871246548559102	2.0189316562666932	1.3667761911323053
Si	0.4308960697320566	-4.1130869412485005	2.1428787549284833	14	-0.3160878314010246	0.9716926914329231	-0.591264749168917
Si	3.4923525635475623	-1.0995538698942657	4.850928657371083	14	-0.19235338786889833	-0.7863437657877044	-0.40976245419317164
Si	0.435534524422569	2.2766190461697544	5.30736351292855	14	1.4616798022674833	3.9672509902419035	0.6418443043584661
Si	2.423903625107322	-1.2849283473492181	2.662549390431431	14	-1.268027234880314	2.440218832946897	1.1995183338512445
Si	5.156488224359974	4.318608683076832	-3.6206685913036933	14	-2.146974758094324	0.33119590337274674	-0.8762002971794316
Si	-0.029096753423309005	5.15752505540844	-2.253568654860666	14	1.3720418148279687	-0.0652348555143931	0.31047099471862916
Si	3.7735302298809117	0.33656627234358705	-4.270445152372757	14	1.0047774175820565	0.8592163467661292	0.006662762326631732
Si	2.3877455065433972	-4.076066615812692	-2.5497203443360936	14	-2.944765856098923	1.121693804026214	0.3321135308615076
Si	-5.21696275951322	-3.1393716186050797	-1.4709904074994704	14	0.39160710819600997	-0.52446871850413	-0.7331293418660675
Si	-1.8401895728421924	2.611209882515735	3.9309757530934615	14	-0.9884485848043282	1.4389196066419365	2.768679851590602
Si	-4.987200999172822	2.7869363742144215	2.1053782130070693	14	1.3866225530985283	-1.1824852753263275	-1.8445415528275415
Si	-5.416241687028673	-0.9166350449225257	3.0743568548606492	14	-0.43113939515647887	0.2622997938824628	0.18893227512990926
Si	-0.9841272891722417	3.5021860874914488	1.7762662102014117	14	-1.1454019661832997	4.247550064028595	-2.3851802098006147
Si	-0.022646572900737502	-2.2770992626553603	0.29838906173791	14	-2.0120778608147747	-0.3111253410226068	1.7954992615089092
Si	-2.9180791308290055	1.4288623248985803	2.300182395997558	14	-1.4971160613424241	0.45969049129459516	-0.49825475710202827
Si	-1.9843418306122844	4.9974274275140225	-0.9139174561744372	14	3.7965576220320605	-2.462310798299737	0.453418536976626
Si	-0.3447954366651081	1.7054233645634904	2.5668880836965084	14	3.34735724044367	-4.3022469872778295	1.2012242622311629
Si	-1.0812401593750187	-3.9204000763990927	-3.3817936317478177	14	-0.8440511962562998	-0.18893664600895352	1.2213148792027997
Si	1.8854390625995212	-2.423794484996957	-0.6687123702173916	14	1.9440142752271548	-0.05949306311343842	-2.4803954389005947
Si	-3.850343039555799	-5.042502293094768	-0.9632269580373441	14	-1.5913396151204227	4.221692714934398	-0.49273433686913826
Si	-5.238266909056468	4.4040544754815905	-0.3825797428734711	14	-2.6241881034773242	-1.6906786400433882	2.643019907284217
Si	3.65270121369582	-4.197495902604792	-4.860620299171495	14	-0.8949007175044645	-0.35423249282020947	-1.1421191789105347
Si	-3.3610024407232846	-3.432041738559864	1.2757060080233757	14	-0.35501925104817483	-0.03530333292988924	-0.11959239286136775
Si	0.6688979084050122	1.7350549045275878	-1.255613313705179	14	1.5544956758827009	2.356775152444683	0.5773841228770336
Si	-3.574327700442714	-1.7165665698317567	4.384081835284795	14	0.19210579042656806	0.07695035401617983	-0.4700163073708418
Si	4.600157425785422	0.5438451699487951	-0.126318763736451	14	12.021109593229221	-1.3199815600845464	9.096107566615744
Si	-2.1393644433747303	3.030580756593247	-4.6262746541957664	14	-0.46620901461276665	-0.22223194568380714	0.3999775986762841
Si	3.3651825069502643	2.801157330594981	-4.3052717615902285	14	-0.6397110582743393	-0.9207467537352532	-0.755295869273192
Si	1.3094957861923797	3.355698231359546	0.5950537097320531	14	0.9794851974372281	0.7153609472195882	0.2500217375366276
Si	-0.9828503498809711	0.9644711552955052	-0.33647896025529506	14	-3.298584658073121	-3.1204721083514593	0.8953594026935788
Si	4.2278041112531515	-5.090218349346345	-2.13917890518711	14	1.2004210489291485	-0.09656403095092946	0.970092178371131
Si	-2.9162346629638374	5.036696039223349	3.9011914169748523	14	0.385026364129091	-0.12294562841990486	0.016629652100185757
Si	2.662221970100336	3.011601291400774	4.188524585532788	14	-0.6398964349679218	0.47110748446871276	1.5875099537460622
Si	-1.6964847895245967	-2.301033688858405	-1.5220898071723632	14	0.6331082027016669	-1.6693865455556456	0.30834597617152676
Si	-5.21365581416916	-4.928090715399137	-4.973089182902627	14	1.7200098095356373	0.37086137358879917	-1.655549885164737
Si	-4.280529698570484	2.821610187277382	-3.172855804465061	14	2.5849568929498448	-2.139212076911733	-1.3721387454985383
Si	-3.765257409515245	-1.8550217138407958	-2.9408894138952903	14	-0.6800537576317187	-0.49118293191896095	-0.5756182877431559
Si	3.632739487510062	5.19750307783514	3.8293335683105365	14	-1.762110373600402	0.7568814699241275	0.3108283783581297
Si	-2.5437394662880917	2.4935895855753745	-0.12032697167741252	14	-1.289451741292044	1.8528979022285548	0.3911671920757327
Si	4.558640527802576	1.0297369412937751	1.8870652502439598	14	-1.1845228762925448	0.3024265203929498	3.728088316024922
Si	-0.20201834428561502	-2.901609888174927	-5.263816608892914	14	-0.2100896436988758	-2.0675857106819833	-1.7711809760593527
Si	-0.03708580950202701	0.29495114826141255	4.83107607129569	14	-1.0750125587230737	-2.76576370393649	-1.13286937041077
Si	4.036306873606723	-2.551837662477175	1.9859025341905039	14	1.2703371158999353	-0.4268204524396941	-2.1221720764024514
Si	-0.8357403951199877	-0.32969044539059206	1.6081467841951658	14	-0.2887960626487168	-2.1159962814234556	-0.14783367080840626
Si	0.38383485414266855	-1.9545247524605662	3.3925657606408426	14	-0.861069599480892	-0.1314626719034274	-0.26517583229358044
Si	2.7347455734378787	-4.550400449470019	1.586668010475334	14	-0.9364906600526477	1.5250814596886109	2.9859351658167306
Si	-4.601390709032547	0.5072177489103011	-3.935985284159215	14	-0.883623335349231	-0.261001899916852	0.7529916446852755
Si	-2.0082216867601463	-0.30558139501096354	-2.5258077461551225	14	0.8883911930549137	1.3985843634899853	-0.39234013032278425
Si	-5.327521691312965	-4.087853747732113	2.6743474363618875	14	1.644424198223392	-0.29838499994020906	0.28936299137180943
Si	2.251615046885133	1.6228916131054771	2.4366184479648445	14	0.05184711011238205	-0.5132545855397722	-0.6910730008128093
Si	2.8819864963313	0.9632051300152711	-2.208319165103337	14	-0.5637040428001217	-0.28533175534034927	-1.7222782957596041
Si	-2.0697657949949697	-3.571839305926392	4.407481474947051	14	-0.1755440155068342	-0.32638870775566586	-1.5228677380079632
Si	-3.176577482228508	0.47831744768564904	5.206528964962326	14	1.3428219741960818	0.2922171753877058	-0.9897179395008854
Si	4.138276478720742	-1.7659306417498464	-0.4994360590412766	14	0.21607337711045643	-0.39171715150371234	1.6953675648157422
Si	3.452723789474031	5.0696126965094335	0.09882636993550752	14	0.5876806283526307	-2.510245714556982	-2.3801372438256765
Si	-0.10134750648493902	-1.0370929847323762	-4.212251645526139	14	-3.321270034533852	2.4664628762812444	-0.1930586420582149
H	-4.427137608823788	-2.187081591027412	5.58771608002754	1	-0.2885543787486229	-0.022232090592788425	0.014469409410197344
H	0.47608225822537387	2.0321430161499467	0.9120980905346526	1	-0.4713954482645693	-0.8203607747259235	-0.06409894118395168
H	0.3034029584080781	0.8103926044877163	-2.3115165964589632	1	-0.06388862476876359	-1.5813030483926926	-1.8976197081672104
H	1.8424749667532354	2.282559542376921	-1.9086640780851933	1	1.880350365063372	1.2606461057272331	-1.1380025821824455
H	6.326710315715576	5.309927214121023	-3.1734320642477885	1	0.9027559584785808	0.6452160518753083	0.2990347182546105
H	4.764171000839736	3.115897763667775	-2.645103343789586	1	-0.4182951814191471	-1.2553606845206047	1.0219873681529998
H	3.89523127554782	0.5590385647127067	-0.9774129895825869	1	-10.784422075317257	0.6891469858174865	-11.95125009057548
H	-1.3108611289730459	4.840464303589286	-2.979080812715315	1	-1.2935616531463008	-0.3176379507985419	-1.1319214038792313
