72
config_type=liquid dft_energy=-6930.560807578469 dft_virial="3.8017076754986774 0.8570254665645369 2.3430933020420417 0.8570254665645369 -1.2079523289182608 -9.079934156206729 2.3430933020420417 -9.079934156206729 2.392032082166201" pbc="T T T" Lattice="10.914011036500002 0.0 0.0 0.0 10.914011036500002 0.0 0.0 0.0 10.914011036500002" Properties=species:S:1:pos:R:3:Z:I:1:dft_force:R:3
Si	-1.9592941752835167	-5.76241228908438	0.8460868775825896	14	-3.124363990474567	-1.2794848515184902	0.5351915132418076
Si	-5.087675384774841	2.663302457192949	-0.8633310150202597	14	0.7793580726328619	0.5968761865301402	-0.06818391331660295
Si	-2.934417405350646	-4.048868900309734	-4.137949058389647	14	0.5721982034462948	-0.007703031539163644	0.03224268915678497
Si	2.925107753936511	-2.5336003500351834	-4.3842892014944885	14	0.13805138639683887	0.90086593895774	0.07370356221789684
Si	-4.172699269529863	-0.7191351012060216	1.4178173457296421	14	-0.09511778420834618	1.7050534327778042	-0.560825433283684
Si	1.5552574867122866	-0.9814424424572626	-2.0910699445382175	14	1.3471278042757338	0.4660781453519711	0.19031990067119317
Si	-0.06847450524300101	2.603439106657747	-3.262994621615515	14	-0.3897338008597501	0.426280263211931	-0.9037221798578925
Si	-5.247620216514748	4.871643450318359	3.2129975370573085	14	0.9251076054687563	0.1419538100517596	-0.9833261716749973
Si	-0.14176208935309853	-4.371432496493492	2.414473919571786	14	0.13626883907838022	-2.74138242640659	0.9812695445294108
Si	3.106400391263813	-0.5456459817698176	5.003473789628243	14	-1.2542952184759353	-0.3745359973123548	3.6186178505879125
Si	0.49445927000863255	2.8167752803882125	5.259047186069964	14	0.27529184617570307	0.6405289268766783	0.48146312536667313
Si	1.9361019018309542	-0.9244713048467327	3.1953277531892152	14	-1.1473117832151056	-0.87186901315711	-1.899016075466583
Si	4.7423560755799805	3.8836307732171242	-3.0009601306401863	14	0.6711176239810119	-0.8037318939573337	-0.773610880910735
Si	0.7124993824958296	5.452639913835401	-1.5859585997579613	14	-1.7626346219751803	-1.41887629800819	-1.371772105879885
Si	3.683009422344181	2.0764560837603443	-4.566585927837148	14	-0.04861985871453219	-0.1236115446978232	0.885932702147788
Si	2.91407368877861	-4.569194376474872	-2.8353072711281895	14	-0.5636729324257479	1.3038265340264599	0.5049103203337636
Si	-5.7654027281083815	-2.7214304799733484	-3.587795590061755	14	-0.32588168578653265	2.2395520331358316	3.1032356753957178
Si	-3.2355458838587174	3.934773828934163	4.6657615461258235	14	0.11044414302174886	0.5318195086144334	-0.46928122835981156
Si	-4.849488007914265	2.335041747248139	3.116397625373247	14	0.17997865796302562	0.7136465341921134	-0.38590876747496583
Si	-6.2068417325016965	0.03321133558406951	3.735505815429746	14	2.56192647415515	0.8075008772461387	-2.0700346884994243
Si	-0.9803946973977588	3.291218254155904	1.9102138676523763	14	0.23097293244071457	-0.8891113596550869	-0.1020183737770916
Si	-0.014199128358486503	-3.206918432909978	0.4961291136972171	14	-0.6227885572781886	1.8668754591910077	-0.998846391829539
Si	-3.0062097699487427	1.2285138243015497	2.5930380541399622	14	2.020057029065322	-0.592375466667221	-0.7396792326691447
Si	-1.5458168671657144	3.9750137876257385	-1.3827615422804043	14	-0.13824241952212588	0.6731174296990233	-0.49409239469924054
Si	0.48066396005849654	0.8081716032417886	4.042931678305878	14	-0.002432008522328068	-0.21465901207384294	0.024055518485837445
Si	-0.36572850983311506	-4.080213940006562	-3.7315440294234965	14	-0.23248525659002564	-0.603280295661565	0.08172721059048296
Si	1.9351305548487057	-4.081501793308869	-0.3725061106867816	14	1.4118019017198027	1.5759361231474156	0.43580595131254757
Si	-3.659315104383939	-5.223085519704696	-1.9185958281284083	14	3.487375008189358	-0.5961981860572172	0.9003357770407255
Si	-4.7455102247695296	4.9001945031898435	0.3856029239305816	14	0.1006780565736984	-0.3884173949358343	0.21671975298794166
Si	5.541403565595255	-3.571228121308348	-5.446277045401121	14	-0.356011954812284	0.6151176645555267	-3.8779148505669747
Si	-5.636344547601769	-3.6135744841299675	-0.4440692810531121	14	0.16927668917844124	1.4788349882951075	1.740597678276191
Si	0.6958991717093131	1.2396679435808526	-0.9632487860594172	14	0.2949888269228254	-0.5373216739995502	0.9421504341938898
Si	-3.3415645870672783	-0.8827579546652295	4.023319200473288	14	-0.09952131629016378	1.8656156175841354	-0.1490914555310227
Si	5.076455781429319	0.332528088260082	-0.706900494834105	14	0.8503995124022775	-0.5182967801831145	0.179655984245347
Si	-2.024887381612882	3.718043397771346	-4.1434606339630795	14	0.4470257407086098	0.5268855575050692	0.31091219639156653
Si	2.394806871684013	4.214172511468563	-4.5538492769575525	14	0.19942855548888178	-1.0745803559187568	-2.4117366424313604
Si	1.4376481037829627	3.173084998696828	0.6111627900219271	14	-0.44951996997968546	-0.03672104040341889	0.7895424779165006
Si	-1.4063139780971712	0.314694594226441	-0.6225897595771426	14	-0.8455362666892174	-0.2137701809646678	1.1918330429387898
Si	5.20542664984764	-4.785684699394886	-2.361737418243418	14	-2.271630171552127	0.07207091033960282	-1.3956332488035195
Si	-3.2790054758060605	6.544302953750277	2.716246324731011	14	-0.05934779566285004	-3.1792630026019646	-3.8275540964401706
Si	4.34730161809179	2.940943983950473	4.35123066206493	14	-1.3767559364324604	0.8422727627063533	0.5014444703622041
Si	-1.4363056804254732	-3.8978189875645737	-1.427061513077558	14	-0.28330392457434844	-2.3378374190986	0.425603291181136
Si	-4.884249133065517	-5.6232586483690055	-5.100761284007604	14	0.29076964309246245	-3.2837334395228814	1.0772069971138203
Si	-3.6152661558406254	2.2799041634917407	-3.2501051745814085	14	-1.0432334398555114	-0.47745502928309436	0.6024935374335997
Si	-2.7720496631606353	-1.0651092510630715	-3.681699741019801	14	-1.9858065637640334	-0.5544604049531253	0.44365990673400396
Si	3.5559812478903576	5.445785914904479	4.262958140801718	14	0.3147837667826455	-0.25017934629275274	1.3387678553272726
Si	-2.7240389286110718	2.333721151912722	-0.035666988067282	14	0.07374932789259549	-0.6790505123357969	0.12722754722007948
Si	4.75355385090343	1.3380577530749003	1.4098173756398877	14	-0.7293482743822578	-0.1390155508918944	0.6115777667507469
Si	1.308022394702452	-3.60536714783052	-5.601125033986984	14	-0.5938623368738626	-0.8072859328413745	-1.0015974745220975
Si	-1.161578194614695	-0.21241939680339955	5.978302341397387	14	1.1372801015874838	1.2648917719423936	-1.6598955673768514
Si	3.3733898432497122	-2.5776929546226435	1.6495545420676467	14	-0.1400316517144169	-0.30539691836931687	0.9713749028153529
Si	-1.9986828411142452	-1.4991922120177863	1.1119412724206932	14	1.642526722497123	0.12658348533738237	-0.4186816185487654
Si	-0.31286104037230905	-2.3846131853759216	3.2510656075526203	14	-0.2204627681130132	2.5693140310715314	1.1394298027456597
Si	2.064548897719523	-5.149579655373868	2.5571527858519505	14	0.22787783585632027	0.3179989339854907	-1.3533419087239997
Si	-4.981492971400732	0.14643328607672051	-3.682900282233816	14	0.8141541264830859	-0.01673609586043989	-0.01839805833938361
Si	-1.7083810615543817	-1.7743890003031337	-1.6979581810145241	14	-1.0874752204308955	2.3257593947466724	-0.15524256789894497
Si	-4.9192831084926825	-2.6855452116853367	2.1694216297692512	14	-1.4762345723743098	-1.0221051247766628	-0.19239221155923253
Si	2.8545377585745024	2.218316399212771	2.6949203471656897	14	-1.008980403448903	-0.6114782649748571	-1.123443441196575
Si	2.695706155960318	1.1480120788963257	-2.6481210678411777	14	0.8346391510108339	-2.16982802773246	-1.033240324807692
Si	-3.2408937492666023	-3.1303784735110036	4.365528016522745	14	0.2221897795565567	1.550906412855774	3.051224528763911
Si	-3.196593778469449	1.5497786531719635	5.20237072675742	14	-0.021382340284479485	-0.6725636136130634	0.1304745961288945
Si	3.5887996790771126	-1.5633011128461873	-0.43933260026327103	14	-0.25797390918131363	-0.5118479338191191	-1.0751709388107948
Si	3.75445253858911	5.498031285736204	0.009560673667974001	14	0.19050604869637192	-0.8821683468485592	0.5679214268567606
Si	0.37912000137490054	-1.8584923693504027	-4.2136595529498475	14	0.3761138846473297	0.2335136987180849	0.4510286945815483
H	-0.7755692694735558	-4.919032086238842	0.81796474534484	1	1.6148076360406065	0.9786899545617062	-0.17282404318864955
H	2.138071133066905	5.000864249589416	-3.26659624525756	1	-0.8787598325256388	-0.17826013116703865	0.8949457118475671
H	1.3752428800773595	1.7809264929139972	-2.6132628079917004	1	-1.3569764232045611	1.5177651223895974	-0.13157811453230206
H	-0.47565224619053575	2.449130270217088	-1.5328521134554558	1	0.1844667794098761	0.11984153296689008	0.0594529538704441
H	-0.2930477447366469	-1.653371171727111	-2.384416733177265	1	0.1790204070102064	0.199136992145577	0.2799666298687962
H	3.8572090438988615	1.1126539573413767	-1.6934637912696935	1	0.42734135837755616	0.40342365113687856	0.7822377105914278
H	-3.165965789297719	-4.803256257163651	4.620230474883753	1	0.506255522637265	-0.7945371071114202	0.08266514981127299
H	-3.2096076452293714	-2.113019112133723	5.719414359803881	1	0.3043782464414742	0.5605958335785948	1.059128270055199
