145
config_type=liquid dft_energy=-13825.49254537219 dft_virial="-1.8685104189816195 -15.038337771568779 -14.945644043211992 -15.038337771568779 -47.77873835064359 -53.501356422354924 -14.945644043211992 -53.501356422354924 -14.740742117370663" pbc="T T T" Lattice="13.849990867899999 0.0 0.0 0.0 13.849990867899999 0.0 0.0 0.0 13.849990867899999" Properties=species:S:1:pos:R:3:Z:I:1:dft_force:R:3
Si	4.21152322809916	-4.529294648574084	-4.906155670087816	14	1.0343649262747245	-0.24994023349797892	-1.1370260763818534
Si	0.9010319308975363	-3.614961186447017	-1.6610390997808544	14	1.0336311328163545	0.8245609323769174	-0.24139927873497902
Si	4.161657720978373	-6.256596259664232	-3.1982939061798525	14	2.8864683569593543	-0.7587398648495305	-0.8698926044975123
Si	-0.6038471368486589	3.3471314480426533	5.252844486495829	14	0.32282978377151694	0.36257650091568605	-0.12175546376720832
Si	0.030976889575145137	4.7787925390656945	-2.0950064036411122	14	-2.1809791686164743	1.3764170647512646	-0.8922375666138551
Si	-2.4580742192495033	-3.3331346472715535	-1.875392638445169	14	-0.5566545862333396	-2.605671774293214	-0.24007618793723084
Si	0.917482950050428	2.879557141341436	-5.894027043727085	14	0.6785404050402796	0.6862388085898669	-0.5288198000374166
Si	-0.4977755967877599	4.604382374064404	-6.393691779269227	14	-0.5259717866742886	0.18367282208701435	-1.3422514459255408
Si	-5.369847824348761	3.339121998323747	3.610872669142812	14	1.080452246248911	0.20054981451899836	-0.7535207781601619
Si	1.776081278926892	4.3017254486236185	-0.8935944858014739	14	1.7781599843403626	-1.2560065461770258	1.506732766571374
Si	5.993364718228012	5.582870378890671	4.544856498313257	14	-0.47626332196720567	0.28362762673415515	-1.234616492576586
Si	3.188115547891033	-5.754564560682766	6.484939674104213	14	0.9771987134760204	1.7115935533806648	1.8223128046716692
Si	-0.7416420809924826	1.0070633059849183	-4.4568952063112235	14	-1.5787447985991456	-0.8920467905991002	2.4021194229813463
Si	-0.642599411297043	-1.2089809378489456	-3.216224104357436	14	0.25339862726411017	2.3453062229430985	-0.02082055377202713
Si	2.802616287072991	-6.313845196916697	4.38899285608317	14	0.12389025251452727	0.09655426075071291	-1.9143475764906257
Si	-0.6249960729039422	-0.865379284405388	0.8625912812436799	14	3.1936683914896906	3.4954354233680225	-5.4062150770058786
Si	5.868113710813245	5.804298492890308	-2.1965296067009925	14	-0.8793401309963962	1.159037309027641	0.3220245135852465
Si	-2.81832633171445	-0.48583828965871695	1.480510008814125	14	-1.212357919599	-0.6425166483996847	0.34471477514608534
Si	-1.9942851150524832	-4.617827945198961	-5.59592261028458	14	-1.0221760872834986	-0.14209599217596383	-2.5221622734948044
Si	3.8653967213203844	-1.0249644191816791	1.0746027864522325	14	0.5938895905902561	-0.5065311451275849	-0.5422067741078317
Si	-6.582043345078146	-3.7653042223171576	-0.3736838336086363	14	2.0312127979389127	-0.677993273828152	0.49081346408445575
Si	-5.491137734375309	6.6887339797308405	4.116052471048552	14	-0.4720240835153456	0.5001864285290555	-0.4643940713672741
Si	6.578910477143827	2.389410119523715	4.697223017849198	14	-1.704901994674447	-0.6150600717963556	-0.7264840630556127
Si	-4.879432112708203	-2.0810830078216123	-5.299568815687777	14	0.14279507571251207	-0.2444442387656304	-0.10911848111868051
Si	-6.2986171319574416	3.9495741958173065	6.45309023510439	14	-0.5719683466306736	0.30758030100718664	-0.5848608971480241
Si	6.216046256401195	-4.401355357931858	4.457269156064657	14	1.3526981039518347	3.7582044439714126	0.9606433663195868
Si	5.669637801679891	-1.732085397935921	6.2812686333963095	14	-1.1944398866228882	-0.3091039380199064	0.052863468045436596
Si	-6.798193227558028	0.7983162436239296	6.433040988324018	14	-0.9997023127906163	-0.6174275455751478	-0.44007321481239736
Si	-4.333530567652665	5.182497612879591	5.38513959926601	14	0.7063543652831095	-0.7610507743112797	0.03875169938527185
Si	-2.596364993066398	1.8268498054522666	2.050741832827304	14	-0.3912525527723616	0.29664359030687276	-1.2853346303428907
Si	-4.496356600292044	0.7988286932860418	5.876019285600642	14	0.02087994630492255	0.21558486709962832	0.8414402388036895
Si	-6.396213862606271	5.217828939583604	-3.7295310809044584	14	-0.7634699273070069	0.8085645435170841	-2.0392575293751243
Si	3.8468114185747493	-4.836638410924566	-1.5835400908804331	14	-0.09521831442636396	2.1612215097837963	1.8171783073473338
Si	1.8727459051903133	1.531800679995219	-0.4512645574551782	14	0.1926169261642135	0.7805214977902291	0.2519631791638714
Si	-2.38403632306697	-1.4009321162844321	-0.8144805679658557	14	-0.37526053479157256	2.0318085230415908	0.7981664793813412
Si	1.2845160180442987	-1.9833020722942383	-4.698817151798093	14	-0.7501014651948971	1.451275053257908	-0.8555016137995793
Si	-6.6800098704831505	1.364692230179485	-5.215956420818264	14	0.9615036581597084	2.2054604621433285	0.8865726502619728
Si	5.626927199841461	-2.724359683672096	-1.5109093537700786	14	-2.2135589296807305	0.6127216515076808	-1.2054095074713
Si	-0.1735099155948776	-5.679594560114824	6.777950080905505	14	-0.1515818281441181	-0.621544913634833	0.2567667752335041
Si	2.812165855776408	0.0757012800857678	-4.195077748942615	14	-0.782276534281762	-0.08539412099807815	-0.23611282908622258
Si	3.8304822793414957	1.5755500311487418	-6.6769033175314805	14	0.3972265159837257	0.031499639719262174	0.1545398848149485
Si	-5.635266279343023	-1.795043301424134	2.6339912632572218	14	-0.803112000464646	0.41052118737314736	0.11748460071991035
Si	-6.704511889327553	1.9920926614980945	1.83886882752743	14	0.3640618284591356	-0.16345107874404974	-0.6110674023446975
Si	0.031082149505741178	6.895213798586754	-0.5622943942467853	14	-0.9101059772572881	0.15285298261439934	-0.5366069067205491
Si	2.3443976492030405	-3.0614102914351364	0.6612110290253271	14	-0.5783518869195373	-0.12348170387915575	-0.2494463241659785
Si	3.648404759395735	5.86385760861954	1.7303832340582561	14	-0.3579881063613498	0.08207251003497885	1.2874676193164858
Si	3.894387522205072	0.6506822659675495	4.943232095641185	14	0.32039443281227264	0.033075727280512945	-0.4642773431857394
Si	4.2672431263598085	1.0597666762345381	-0.46020334156132076	14	0.5521374112963715	0.5774352878729044	0.097267999587586
Si	-2.8954832458404343	-6.79862811727128	-4.05198518329182	14	-0.4116355044188995	-0.3883924552142289	-1.919418824624086
Si	1.8260520459782752	-0.5539359247580077	5.235671882818719	14	-0.2717414068391106	-1.2029731280699274	1.6697614127113234
Si	-3.1710689791308218	5.408064104150558	2.062100210338069	14	0.04701677454741986	0.01899429766312595	-0.04971643513357535
Si	-5.353769369950216	3.833320142470328	-5.399927234515666	14	-0.3185193257022887	1.6256746697867441	1.1745392743344099
Si	-1.9772565512804001	6.669280282557788	5.7266138941122575	14	-0.31078595512034723	0.3723096772156386	0.3752980729292468
Si	-5.506468289266987	2.4850096814893954	-1.3325976463413003	14	-0.6267002369122618	0.039756487344385714	-0.634063368328102
Si	2.2226770044605013	-6.04800154720279	0.03734650037529235	14	0.3883667441610274	0.4303384958492527	-1.9159717437213637
Si	-0.2731730648811992	-4.194130409567252	0.2427141649645135	14	-0.9824000595386798	-1.194183804533001	-0.722807639558333
Si	4.921897569708272	1.7772599131497504	-3.5348916192415127	14	-1.0646054957187103	5.484251208798757	0.8796396647661936
Si	1.2288999947151593	3.2478173185262027	-3.436504054114125	14	-1.9729132419150868	-1.4140053389791696	0.6423886073547415
Si	-5.123331836891009	4.124856910243276	1.1489841624082895	14	-0.532142182332112	0.5640693968661148	1.1315244252178005
Si	1.090659080865389	-4.5491167555042225	4.202099694312641	14	-0.8430762331188998	0.5189943210564707	0.039743117596720945
Si	-0.9240616957126804	4.928491550360479	0.6927059082589316	14	-0.3762498961187656	-0.14246983088951332	-0.36598758634392653
Si	-6.736253298398605	5.1409988852421025	-0.24711292206415858	14	-0.467709768788137	-0.45824038789403165	0.3058792577273767
Si	5.465527716261475	4.466102680240203	2.3932064020206067	14	0.17245174713829212	-0.2900427916184566	-0.21066171463260874
Si	6.248789019811997	-4.316893958622143	-6.648400036325342	14	0.06648981202115739	0.24660499567668284	-0.040565099967572286
Si	0.7344747107183445	0.628868530350607	-5.980678126593015	14	2.1923858773693117	-0.9032167005519515	-1.9448691677461039
Si	-0.6789417873344126	6.31155717842532	-4.900871898571713	14	-0.13464904272668693	0.8107111593488757	0.45971928767418085
Si	2.073052783116404	0.19245531810307803	1.6360232462752533	14	-1.8920954312763405	0.980160369694299	-0.3013679963326449
Si	6.59282833296698	-4.428541505006459	-2.9350637497427186	14	0.32543637034508305	0.15967541058141227	-0.43957596304348073
Si	1.1926199436366953	-5.800894165134979	-2.4335694304069277	14	-0.15901155118775007	-0.05739632672485766	0.2520521394079485
Si	-0.7032125113313206	-3.422752398181387	-3.39096528414047	14	0.7436546757151576	0.01237884367438494	0.9464876317584475
Si	3.291731484571053	5.235498757932871	4.478927771783879	14	0.020580155424593283	-1.1357618638959366	-0.2623720419419589
Si	-3.844326730213048	0.7677880937529044	-5.448698592357889	14	-1.074547702881191	-2.4328644432891453	-1.827411306521523
Si	5.925049638272095	-0.3736367436396854	-5.0749164238140905	14	1.7825673730801601	-3.6330384089970273	-2.4109077180761447
Si	-4.338355904471041	-4.987381711530789	4.7136615720103086	14	1.0627563567724598	-1.0493094759480852	-0.2084315378779123
Si	4.3553027532970034	-1.8666200542294413	-5.645696707465639	14	-1.8241424032174867	-0.9810558856773064	0.23683839500756834
Si	-6.396403607481162	6.124519976749764	-6.128482459137071	14	0.44724351332922635	0.2537716946460636	0.7996062983606241
Si	-3.622026066788732	2.257375386581851	-3.903798590999811	14	1.1863488752909142	1.4782246078921042	3.1234368498961214
Si	2.169144019757894	4.388494256411926	6.542987755829755	14	0.3452246253310707	0.6129782478186315	0.10263363928020304
Si	3.6385726508786123	-0.9350613584599666	-1.559554676695404	14	-0.6067685142494099	-0.7518973822610204	-0.37109277306761257
Si	-1.8621797471571926	0.9387828510061713	-1.644460660711978	14	0.17029998909586017	-0.28724542903013545	-0.3228274697767287
Si	-2.439398891563227	4.287763272829689	-1.6266800424357681	14	0.5165191179647642	0.464478146511243	0.4873938940086587
Si	-3.662999879772328	2.9383032626067207	-0.0959513517337244	14	1.7657263761226583	-1.2421737424440973	0.5845899026472806
Si	-4.816127959448293	-4.648562459933918	-4.735723222463786	14	-0.1635163848191815	0.1831889400657625	-0.3157592441411097
Si	-0.8375117177800866	3.322658514179074	2.5791549944139454	14	-0.386762374441255	0.726018178771602	0.15194229711000287
Si	-5.287648128547775	-1.6749680355967014	-1.4461274064845633	14	-0.3196125596844156	-0.30595253422900087	0.19826075945247054
Si	-2.004660143211627	-2.374521379340723	-6.825790719361405	14	0.7512507492730032	-0.5326229790269796	1.3610066307938933
Si	-2.2378385894635913	-6.071901091444438	-2.0831854364353597	14	0.5776409762985164	1.0202788686677615	2.010361648013576
Si	6.3602454363223355	-1.7458799888403496	0.5490662679688539	14	0.7588473370519127	0.8856277690568185	0.4020825626018894
Si	-3.14657527028094	-4.269452199903238	1.5997958251620874	14	-0.7385633729602005	0.5726147225081589	-0.3778403818698091
Si	-6.217777505259682	-1.3257045058863466	5.272237243709062	14	1.0221822579362672	1.6727374671193949	-1.4028066326467328
Si	6.7291025481135085	0.7591013794805574	-0.6128648659027486	14	0.2650562758961935	-0.21366065187802946	0.6807726386792321
Si	1.696439676439207	-6.247491275667675	2.1606941403293884	14	-0.601630674488158	-0.31044039856531935	1.9322452977347084
Si	-1.8451774983677587	-2.0798475886361953	3.2668499759768705	14	0.11586480436821706	-1.2424251965444078	0.4255474981956888
Si	2.6457055855332916	-3.4071683884568262	-3.7165716444493646	14	0.47220688910360803	-0.7204710190433824	1.7228246556401354
Si	-6.831768375419991	-6.404263477298695	2.2250647428861274	14	-0.19234001812123352	-0.3036390536619316	-0.43057375198604625
Si	-1.3496899200713757	3.1842749454233643	-3.8023640278814845	14	-0.5573562408752081	0.5333197485687398	0.48396738194849737
Si	-4.689875597693777	4.488248815637975	-2.5803557886221924	14	1.4411251007855592	-0.7262179536549775	0.9959580121128848
Si	-5.794416524406063	-3.4756039633332936	5.572277905874901	14	0.06540994778669519	-0.8800682680230623	1.2039069535222053
Si	5.172418974525021	1.0239976898190997	2.656593063354548	14	-0.8355616635997031	-0.7348211291667249	0.6860277208430827
Si	2.028264682647789	6.61101060097836	-6.121123958988955	14	-1.4569219718725492	-0.8692452001778989	0.09483624817578996
Si	-6.540566777426046	-2.0846618454618775	-3.5591997382137643	14	-0.21920421205880075	0.1937245583361333	0.024148078277362775
Si	-3.9059397995879874	-6.891108661293508	-0.6020743380175676	14	2.5502096901007034	-1.3298484338611465	-0.39946132072799834
Si	3.7589969364759157	5.921864140372478	-0.5247678439902101	14	-0.21747540084153316	-0.9484992645609315	-1.283999969571202
Si	0.04172725248680911	-2.201994813097466	5.737443201971869	14	0.6794454341129716	-0.7257363856285137	-0.48044059678085027
Si	-3.928725804563857	3.0672688375722585	6.6000137082292465	14	0.8371716897511797	0.33197880494273185	-0.256990461396357
Si	5.804874652510414	-6.3000589160067895	-0.1674837845682543	14	-1.9699999224768274	-0.235546928805258	-0.04107803547894182
Si	5.250588322983448	-6.1062185988169215	3.8700253882684366	14	-2.7045045485786416	-3.2547563112332165	-1.3361232163949681
Si	1.5363933369670149	1.048398603730166	3.7654108672468403	14	0.2542000407924003	1.8641043218769522	-1.0048946599846553
Si	-1.8835585930608831	-5.395078352712815	3.205513906419289	14	0.5714903781516582	-0.5492030087944865	1.2250959466866096
Si	2.351688284395903	6.555733902425484	-3.782781525793361	14	-1.7291930264076103	-1.5316907430245834	-0.5583312040126083
Si	2.687105978235618	-2.7265327472392693	6.228076358469052	14	-0.3476206383789167	-0.07490786794985421	0.05817228631047835
Si	-1.9940870601830722	-6.463546978209655	1.0101684739375014	14	0.7827555312029056	-0.26176166153895575	-0.7248539822826389
Si	1.2937248769723653	3.605206637878754	3.5263060099025014	14	0.3512294418062765	-0.5503852030206907	1.0533013740681474
Si	5.477856978132079	-6.629536348763263	6.570871942444098	14	-1.9135718740155374	2.478405660493332	2.08943342102941
Si	-5.755869229822523	-4.3114550672083185	2.084430550614384	14	0.8544009236120239	0.9667260872859932	-0.21751216764761128
Si	0.8892594386598213	-0.2721537055533218	-1.6504507817623448	14	0.2017173534448776	-0.0861849929945557	0.3657795839235265
Si	5.066758779192899	4.364010242555652	6.768897726874245	14	-0.889908402304333	-0.048782866791829575	0.17144053141587784
Si	0.04266074187130558	-3.1228017609561904	2.1748931509671596	14	1.5386982905746471	-0.4403303253444122	1.2627032470938835
Si	4.489488389820653	4.238807710108923	-3.195032233330462	14	-0.02383131810192053	-0.40468195008055907	-0.08137419783002663
Si	-1.916363681430591	-0.03263611848111955	-6.520862395418285	14	0.47463684074168	0.40207304951220474	-0.1092604061323527
Si	-3.2213818409566417	-2.689464631680422	5.1818466633088	14	-0.9279623037057165	-2.049710358054186	-0.4164498991308768
Si	5.253667175953383	-2.0884096529907317	2.6617189449747576	14	0.6862542352217877	0.18749682702967058	0.6615045182995104
Si	3.0812434783579694	3.0089977709937425	-4.79243755006875	14	1.4750606056851299	-0.5407273601066184	-1.2256523338778895
Si	-3.0955699089117252	-0.4415363238695652	4.5271797549685555	14	3.750228103936717	23.447518155029147	11.972886456065588
Si	-5.864145688429591	-6.191459752612499	-0.07357392148845839	14	-0.18211730336832477	0.9446456919070934	0.7236566185350459
Si	-4.878313033446077	0.6999314484947151	3.4033485609754592	14	-0.5612342390295875	0.3233905418418412	-0.9995688724245007
Si	-3.879435072064088	-5.846482795075758	-6.71242577410947	14	0.013188227629167559	-0.3414805817638711	-0.2946214159725763
Si	4.836968040707222	3.50135940635124	0.22801793965458483	14	0.3884551901840405	0.6451659153215654	0.07316517276385784
H	8.092118929397978	2.1460394649920636	5.2439749523440256	1	0.5665651688003824	0.01327513098898856	0.04284644171813968
H	-3.215344629937324	-6.167316448531576	1.9584247186973163	1	-1.3233849321968265	0.17050259219508784	1.0126372865457496
H	-1.4572586441450945	1.570859039241784	0.8843787018779733	1	-0.03798936665784794	0.09271611472879585	0.12438467606759175
H	-1.846268877648149	-4.648411495033458	-4.084777806669747	1	-2.040781680608908	-1.0597836448013045	1.1765797035164793
H	6.338636680570238	6.313378452224449	5.952306420300122	1	2.504582340868292	-1.573007377077235	-1.1317751079865148
H	6.499307654630573	4.110966754401859	5.004518305231642	1	-0.02399124085283374	-0.3212989476639007	-0.2753990612675532
H	-3.1975432366748127	-1.3327209112600247	4.0490780702086475	1	-3.9655931415314725	-21.556084269151683	-12.161498371472607
H	-0.8667255035177479	-1.6464232044179596	1.9053266237079614	1	-0.1514545584307708	-2.779615533848788	3.291897470245948
H	0.6075603194003428	-0.9319631155028173	-6.040769081971574	1	0.09488175673995657	-1.0623159264311186	0.07554113119020668
H	-4.7721362334545825	2.5551751202252633	-4.993503407494401	1	0.01887679814999518	-1.4663214187019467	0.36620278785922294
H	5.176677846716899	0.3268847144660022	-3.7351403272059587	1	147.63541467694336	247.0773786865009	186.27131970613277
H	2.5659947330912667	3.9947736410146986	-3.496500829554781	1	0.9031130850075495	1.1408523953192975	0.12753068053732494
H	-0.8098269710342412	2.532648110078624	-5.311006138146488	1	-0.5223786669893816	0.2714171904582399	-0.44559852014539564
H	3.6378746113388707	-5.462462713282409	0.42455762006460657	1	0.5389113884189979	0.2858287499987339	0.018416570297688676
H	-2.287978326403563	-0.8456236574314155	-5.16219352626725	1	0.10525513826462603	0.03799502308955227	0.2765619722038562
H	5.093839666336903	0.18610786728831946	-3.839572028348098	1	-147.5318544113058	-251.02367799659945	-183.9574599010288
H	-0.690362489804083	-4.234713652808372	-4.659879287472079	1	2.4760456429199684	0.20751853837872775	-1.023638017768535
