72
config_type=liquid dft_energy=-6919.883271166268 dft_virial="-121.33280366250439 -5.579036219829269 0.27739631762162253 -5.579036219829269 -141.5879198267823 0.08728046130773794 0.27739631762162253 0.08728046130773794 -106.73190589759807" pbc="T T T" Lattice="9.799987616100001 0.0 0.0 0.0 9.799987616100001 0.0 0.0 0.0 9.799987616100001" Properties=species:S:1:pos:R:3:Z:I:1:dft_force:R:3
Si	31.8696773274086	24.708836176311944	-9.569874106886358	14	5.2089583341809265	5.46938739183245	0.2879339710348711
Si	24.260212343222115	4.722937431789922	11.164136092273505	14	-2.5401895784470225	3.21050270357336	-1.667215504223313
Si	3.9925247547867566	-7.6711657062174465	7.316406154514627	14	1.6287311997913363	-3.2034226508532684	0.4223246176768832
Si	28.926300046851043	6.55008632288607	38.94097599165695	14	-0.2233483196138154	-0.5088798498375402	0.35286286501616665
Si	19.559540483295972	8.811717664942012	-5.988311832780753	14	-2.303438858130871	-5.751796828865918	0.30314180189301504
Si	22.54777230717242	13.382500489004366	2.684383207839264	14	-0.37368419011978976	0.08711239068353312	-0.07035752575425615
Si	1.0630242566935992	-9.450676857511732	0.2786822478390357	14	-0.4467652877396788	-0.7083199753003626	-1.0328816556155314
Si	16.09226566476933	4.864380653053093	6.483456207084206	14	-0.09336686148532533	-4.35656055872383	0.43223905690190617
Si	22.915761842156975	10.51747410943753	-0.1680403876532667	14	1.944298382365031	-0.8000978936978365	-0.49469300490202717
Si	25.58732666619438	2.5003982403346026	5.904463138737402	14	-0.01251074137730854	0.26587645849332076	-0.6175375888828502
Si	19.384218704843946	-8.608407121858402	4.434896195777511	14	-1.1683395680759368	2.441731157096208	2.7239809284892957
Si	9.17673780367889	10.876114456236326	17.930723741574457	14	0.7329889595155874	0.0016524493892591705	0.9621675175533706
Si	8.227736402898614	18.501181020707637	-1.234876839529529	14	-0.13401886481271863	2.0053770461294045	1.3263959536372518
Si	25.73905007446684	23.803209520720525	12.974850404137454	14	7.249719188836741	14.304286855884666	14.989928653819195
Si	7.894576023901678	-3.01821978598171	-12.00337763175346	14	-0.055889916117782906	-1.8779373827204129	-0.08422375385634674
Si	22.058164925872063	-10.413535440781175	22.282525842355057	14	-0.18245900326537245	1.241026515250247	0.28134191410454346
Si	12.713612134255076	28.280520062900518	-2.624622883356286	14	-0.7019917137758822	-0.5168014253289165	1.4131075090013736
Si	0.8005707883468252	23.72740661650999	30.588946345823338	14	-7.994924241059949	-0.7366931509503247	8.961408387335315
Si	35.870894671210834	1.868034439430518	3.1994705569414803	14	1.9192342192620993	-1.9290841237435867	1.724585348563373
Si	18.156878055791196	-4.663872906427687	12.90241869566686	14	0.7674104033206659	-4.608559476251652	2.571904162571049
Si	11.324855889177545	7.6086417852267285	-9.52179536764177	14	-0.6323612966061638	1.461553560996264	-1.8402534633745988
Si	10.90794481601342	3.3858369214368538	-14.420799376942544	14	0.3046214730047602	-1.0337504321032094	0.03872495988994231
Si	31.643875812746035	18.129036290973858	5.067514796359615	14	-0.4391607295342769	-0.5189894359563624	-1.8948082044996288
Si	17.93289933882523	-20.680276867060783	-4.280017191492666	14	1.487265899750405	-0.8981925036458501	0.4021422122453168
Si	18.940573265463097	12.354177988459377	-7.1693965402855095	14	-0.5717454317994168	0.6242705423847219	-0.6934697851922514
Si	50.627774823459916	-8.121710336880028	-7.681445893226735	14	-0.42690324203100294	-0.4497817085012765	0.5207233893842703
Si	10.737170231815261	29.427775213154497	6.624752428533137	14	-1.0666870625859022	-0.3740924816446293	-1.445266894345786
Si	6.762207054836555	-4.629592549746569	29.865325060238128	14	0.3347609980096641	1.6775068674882696	-1.2913170782018113
Si	6.183556986056314	1.8000519253376321	9.842568562291955	14	0.06756093449753109	-1.4971772536490437	1.1795349319714574
Si	20.00622391883781	27.314358883804452	17.076341221227626	14	0.16269954465897044	-1.400118542034518	0.1381511452832606
Si	28.328902601761204	23.1023438063799	-1.6536793103035625	14	1.1766303542912864	0.3183249501400855	-2.076589207292078
Si	27.472295484225516	16.528972712917977	-7.900201216793319	14	-0.6745523635781979	3.3287689203105955	-3.3534579591473177
Si	22.55349549994022	23.594440384534746	7.194376708718949	14	-1.645204528688057	1.0976794232254994	-0.3928903468612959
Si	24.0526388055255	14.256394784694852	8.852936412855328	14	-1.0804077661268725	1.7030310013329752	0.47701819848920113
Si	1.664126097102325	2.013574055517219	-12.366947372323155	14	-0.613661647612727	1.613325393823541	0.923488837559191
Si	6.094181098997482	3.2646796745390096	18.029899616249388	14	0.6437569496061243	1.060483756779981	-1.1289008693491214
Si	6.0804905162977905	7.315524155629177	28.750272669290652	14	-0.6067715995757942	-0.20446843613743604	-1.037456680422203
Si	-0.3434993659319211	24.803014057302665	-13.905124028583364	14	3.2284251074285164	-1.7933716718564865	1.330254154280666
Si	9.27184668349314	18.43787310070763	11.228845410502613	14	0.5291116204912535	-1.4243740925142627	0.14102744080491025
Si	24.250059556051834	-11.05750242702272	24.907295725525586	14	-1.7529333273811976	-1.3931696156857536	-0.46165970085929664
Si	17.15084072708522	9.458830447208328	2.858362387987887	14	0.21804901443845823	-0.5696803200062739	0.4535974859069083
Si	4.742978406464847	-0.24887068551085953	2.8478274013005795	14	0.769512281919887	-0.025487624149159924	-0.3944031852316711
Si	18.23804155322774	0.8311663496842894	20.428593585104107	14	-0.1952561657753455	1.3864801138637923	-0.4149661142506194
Si	24.504114435011612	-0.5664686841734283	-1.8708666358515706	14	0.778472583960603	0.06682714103916082	1.2028877673732985
Si	27.866813585686856	-6.953032413697254	15.53092237411912	14	1.1971464891934078	0.6911642750516747	-0.6194391783776317
Si	4.032440104347132	-4.1542245504524065	-6.362161760359737	14	0.37239555213333153	0.35215683949525395	1.1390747331009474
Si	41.81744875675938	15.869188546664045	26.21002767930899	14	-0.6446830617424416	2.2805449650286764	-0.367906145133821
Si	31.147026240597384	25.227608320757813	-15.21749917018101	14	2.137724178262963	-0.9800693525659657	2.024564176691542
Si	6.169121604297799	-22.472694602045475	-6.342689184966545	14	-0.49554352654193207	0.8051064068614849	1.47714448654711
Si	12.30554064992067	-22.416432873141446	-7.688795883938811	14	0.9943356446558713	-1.0573416089682282	1.0334046184376495
Si	3.9843417651273128	13.257031247555437	-14.593426158800147	14	-0.15825975999213873	0.598938470107431	-0.35735021513142107
Si	12.086011127332416	12.528137568632769	0.048392338848301804	14	0.8095037682905342	-1.7612187142753748	-1.177178771056074
Si	8.05513902100386	13.12311441678143	20.004440321091682	14	0.5123822095046459	-0.5342908550481597	2.324671045864654
Si	-3.5058769697464625	9.906376281660382	-4.589618400260497	14	0.7803551472760154	2.293859948150127	-0.490958988645576
Si	30.121408536634437	14.697178627691796	-1.5400092539444186	14	0.3611623929896047	0.8932855491423475	-1.6222170473522093
Si	17.484216705809708	6.191563575938669	-4.462473360929216	14	-1.7541093509546333	2.480975223150288	-3.057065822940755
Si	3.428702067269675	6.832257366316437	-10.767285593759535	14	1.028867131768652	1.0612527743812372	-0.7755245546005212
Si	-4.872171643207893	-17.038150669487685	31.161598822182523	14	-4.786549384249542	-4.93280079684393	-2.38447521272183
Si	12.684084771567766	-8.671675841907945	-14.431696963171648	14	0.010958822206067156	-0.2455582987008506	-0.13390625039969614
Si	26.237114845079887	-8.883120374712917	-2.2766841230342716	14	-0.852089757039743	-2.7647193209554457	0.42012580840709246
Si	5.758090523703332	16.641300170973715	-3.348714568347067	14	-2.607774681334563	3.739060507978654	0.7467207188094342
Si	6.243052710873657	9.338123999740825	0.6436827866006803	14	-0.3516688437054899	-0.09606755051360885	0.11267689088176544
Si	14.833251455741344	17.13827714296138	11.264919164917478	14	-1.3240125390054747	-0.11173355233980313	0.038232336110601936
Si	29.7219610414022	-3.2435215012758496	-16.469035988657907	14	-0.6877357061072572	1.524684995248244	-1.5196921658270484
H	-4.0545684763842855	-16.22054750266408	31.97920198900613	1	-5.006688450202748	-12.451365556597699	-6.363504950656396
H	26.996946104907824	22.065893196106117	-1.7381444235679666	1	0.5249615993940023	0.4762574084249694	0.8924491685817033
H	27.37202593093263	-7.911710322249667	-2.5424470471990026	1	1.741638718820319	-0.4664008190696497	-1.7780298864111632
H	20.197215877487984	-9.629981350930944	3.6350770664808403	1	3.1627773323997075	3.2455255289128213	-1.3664599451779271
H	24.683240568656213	2.0878560016497336	4.638188118884651	1	-0.5105695802539415	-0.07731699363483296	-0.9821444916698571
H	21.402992633790266	12.620117312401197	3.56697009254523	1	-0.4181103189466285	-0.08550185031099235	0.40530030091005464
H	25.635677845094694	4.095205105033206	11.583066942885308	1	2.246418684114351	1.0363495624713468	-4.055222387212898
H	11.340241869734822	13.984289308544978	0.20513628077649007	1	0.501532916385217	-2.6991743901394427	-6.731812445330693
