/home/davis/Dropbox/GAP aSi:H project/Iterative_Training/Si:H_LAMMPS_inputs/round6/GAP_medAnneal_amorph_20.xyz (written by ASE) 

72 	 atoms 
2  atom types
0.0      11.105996452100001  xlo xhi
0.0      11.105996452100001  ylo yhi
0.0      11.105996452100001  zlo zhi


Atoms 

     1   2      10.828340987799276      7.8699234316895872      6.5578387988455891
     2   2      10.912825413410046      4.5429056275322157      1.6389341084293014
     3   2      10.042812748142596      5.5365313651104717      7.4643191140631506
     4   2      4.8456861876065274      4.1819263142499636     0.28757978273032264
     5   2      1.1551535711768897      2.6460591846950856     0.59698618028795747
     6   2      3.7069950349705851      7.7513491499690961     0.73140760834594976
     7   2      1.7418122853640394     0.31139437092256067       3.327285458671867
     8   2      4.6563400540946738      2.7465173650029113      4.9311346137093395
     9   2      10.089832205321853        2.50535287324485      8.0292500567914136
    10   2      2.7707795248521689      10.958844220308967      7.2117043399629752
    11   2      3.9003493226020005      5.7943459667495212      1.9693574936728901
    12   2      1.9084921907168013      8.4005490619769567      7.0039233629402817
    13   2      9.6592216260838697      9.8087027853309099      9.6943398974650545
    14   2      5.0960964214109614      10.317812768691626      6.7366819915126905
    15   2      5.8176530109038982      8.9417886930735975      8.5489529395681423
    16   2      9.4271873740090797      9.4979858801919264      7.3810419102667257
    17   2     0.66778468647080458      5.5471076055318065      8.9853341945626362
    18   2      1.0899835839959668      2.9652255319348257      9.2583051495598667
    19   2      7.3091850026219927      6.6956020212360166      10.219184856599107
    20   2      10.085594157075732     0.53778233440110268      6.3744054978448332
    21   2      10.486836039295781      8.0897288710709692      4.2547971993707723
    22   2      10.506345943263184      4.3562915691475785      5.3748724807537043
    23   2       8.193835371213309      8.5423182172876579      3.3989979883627219
    24   2      6.3278102897300483      1.2390782545664738      6.4276098844482634
    25   2      5.6540694573619819      10.649852076418995      3.0045674137667451
    26   2      2.6677480851663917       5.877935249046252       3.929477019496924
    27   2      7.6050254255133876      8.1979201567083919      7.1536777297000427
    28   2      4.0418097312113339      1.3609121462456559      3.1392798189317825
    29   2      2.1488526083317305     0.41923359647245168      9.4250938936778592
    30   2      8.0162016215598406      6.2141926142261292      7.9866618921965449
    31   2      6.6701270865741913      7.9115509275913478       4.857901673104192
    32   2      3.8769923014635896       5.031240733929633      7.3889782553313959
    33   2      6.3347293255197057      2.8959030126804635      8.0004933001779914
    34   2      8.1155047782366481       2.696471523790458      9.5444178301588671
    35   2      1.3589996936566044     0.89417709234792742      5.4562727711497265
    36   2      8.5348538770722016      3.5086974683183394      1.8015236752887549
    37   2      4.7347483890465005      7.0142830364308013      9.7004193199229345
    38   2      7.2646888278366548       7.776027784685307      1.3537721011266011
    39   2      1.2562014798963215      8.4333250787063925      0.7006473299725684
    40   2      3.8056873618425269      2.3558594974017129      1.0961585180233344
    41   2      4.7905204820296561      9.2992640644752118      4.7633374451134962
    42   2      8.9688506746284293      1.2611591967125388      1.4858101823459726
    43   2      8.2902665172076038      1.1145467163490765      5.0783923524666683
    44   2       5.907484973806354       6.136160772554029      3.1966822721941064
    45   2      5.4634450236584922      9.1316490342211818      1.1194844423716801
    46   2     0.92607018235942307      3.1307071002704068      6.2501893699266757
    47   2      1.2321381173835564      9.0454242989663687      3.0056891194084074
    48   2      10.910847435441926      6.3533529709702323   0.0025976925701461902
    49   2      2.8897725026389041      4.2005788352912656      5.5079989496253816
    50   2      2.8231220861309159      8.1529797420649679       4.719829704012394
    51   2    0.036784170849000417     0.65902205527009761      1.6052796073805027
    52   2      8.3944685289194307      3.2979833976326458      4.2259393781896355
    53   2      8.1193030290232659     0.50698984863801022      10.532036334256183
    54   2      4.1455786090615305      1.0586735587982066      10.251367813118001
    55   2      9.1815715988730169      8.0711129998179576    0.017253165488337351
    56   2      5.8295908464902615      10.606637533624228      10.488096569893093
    57   2       7.108880582410853      4.5076740749872179      10.945822439468879
    58   2      0.1817585167357782       5.821131408992696      3.6147852782277345
    59   2      6.3403933837102775      4.2517108429567338      4.3162855487278238
    60   2      6.3341651408999393      5.0190219166330321      6.8659757810087481
    61   2      0.5302635748030311      10.482484709885849      10.726391272167932
    62   2      7.9512315423150559      10.975070081125484      3.1790503922267526
    63   2      2.7960201229888564      6.8281065543063777         8.5598834612763
    64   2      4.0679488044609968      3.3794914161942535      9.3928876145664137
    65   1      4.2547971993707723      3.5255774723258866      3.8018891110559085
    66   1       10.55806545814097       2.550278850092885     0.01355375807014284
    67   1     0.86520043700475324      3.1338700880599646      7.8493562368599417
    68   1      4.9170177816190748      2.7987144377281359      8.8590890010926806
    69   1      7.1047202761398962      6.2057353979278549      1.9976777846257452
    70   1      2.6526828009791181      3.5577148942593282      9.7730314353264092
    71   1      1.7182908954781368      6.7277094569790377      6.4254286667450708
    72   1       2.483876097305779      2.4462545343242903      8.4543376239937658
