/home/davis/Dropbox/GAP aSi:H project/Iterative_Training/Si:H_LAMMPS_inputs/round6/GAP_medAnneal_amorph_18.xyz (written by ASE) 

72 	 atoms 
2  atom types
0.0      11.105996452100001  xlo xhi
0.0      11.105996452100001  ylo yhi
0.0      11.105996452100001  zlo zhi


Atoms 

     1   2      10.987457709568158      8.1088811619526151      6.6540689263040997
     2   2      10.977096925477994      4.6501684518662421      1.5006155862162671
     3   2      10.316113551234455      5.7413226078882591      7.3486723730074344
     4   2      4.8239006649660876      4.4216170402788313     0.44718850014203265
     5   2        1.34281936742554      2.7721344564193249     0.64493076697167306
     6   2      3.7397899318939909      7.9992516497746458      0.5060935947243258
     7   2      1.6521402488104935    0.044619451345956962      3.4807514494459206
     8   2      4.8616910390936487       2.803460030012118      4.5725963984472591
     9   2      9.7651606156408057      2.7898140921714232      8.5511630328621102
    10   2      2.3008614923712685      10.745143747177304      6.9145534094902334
    11   2      4.1902335995961337      5.9850803498178857      2.3995393814478221
    12   2      2.0546515464250183      8.4089907298801982      7.0686946448485743
    13   2      9.5254598942151336      9.4048432197471001      9.9958454891466655
    14   2      4.6074647849082719      10.638238535929034      6.4689164170525588
    15   2      5.3767116337661722      9.1562332679675507      8.2439000926197306
    16   2      9.3963748974523735      9.6192433706552443      7.6022811337900738
    17   2     0.70003872136699341      5.5577338229371769      9.1566230884430198
    18   2     0.92962299062444975      2.8573107856090609      9.2242985884235367
    19   2      6.4302408950077652      5.8492273588172186      9.9481152481944761
    20   2      9.7057313180259737     0.90203014243920732       6.911735818190337
    21   2      10.639803370829135      7.8980682478984985      4.0008985720807333
    22   2      10.527744977227092      4.4044271789702707      5.2853870249405537
    23   2      8.2647093981720303      8.9465809305426784      3.9188452490933283
    24   2      5.8880961252002786      1.4771619429087224      6.1974414397774273
    25   2      5.4926138127402879      10.481571796977486      3.0939951183983445
    26   2       2.492347751399441      5.7664610308575881      3.6917509442404328
    27   2      7.4957146554335932      8.2860284689614812      7.3909118093137058
    28   2       3.852690160027104      1.0527562838885278      3.0326489257958795
    29   2       2.000163306631725      0.6352674394587009      9.0646032442394997
    30   2      8.1069964743546929      6.2017283544079378      8.3270651258519912
    31   2      6.5070199802800701      7.7598574538510494      5.1673225084572145
    32   2      4.0565096281153341      4.9378304189703099      7.0822017577336176
    33   2      6.6246780172932613      2.8680447311800155      7.9390360476110038
    34   2      7.9728238206172284      2.5443038240016551      9.8020414086589405
    35   2     0.48559303587339436     0.56795843736110363      5.5988870927904326
    36   2      8.9685685823185466        3.67605706065397      1.8437642221946722
    37   2      4.5250916092230469      7.2460651823861273      9.3796103958079282
    38   2      7.5309773047686557      7.9019042590730537      1.6741001355952307
    39   2      1.4066421972368228      8.6385250221536189     0.58843234182054993
    40   2      3.6484908668602127      2.3456442018650714     0.85646890259411224
    41   2      4.8071050665315767      9.0734158524242403      4.7657752113347316
    42   2      9.0286298111315038      1.3803021054513773      1.7297311824234451
    43   2      8.0389711354859354       1.319301309338573      5.2564470193856714
    44   2      6.5274350229583185      6.2298087558374258       2.982079992150533
    45   2      5.6028741455167363      9.3096137425689243     0.96999217712818808
    46   2      1.3249498191341109        2.88034129045178      6.2917246860578846
    47   2      1.4895073685648768      8.9657687606129706      2.9836814768389255
    48   2      0.2168867835137705      6.5966653624421303     0.12537670454740213
    49   2      3.0905133885106109      4.0239557313149383      5.2233411545616066
    50   2      2.6278531247111583      7.9556117473157641      4.8299734238260958
    51   2     0.13252452386397368     0.88302889310930943      1.6492826759233681
    52   2      8.6988805598725563      3.6102573634742132      4.0617394418446278
    53   2       8.238816878043604     0.30179990058759149      10.744545133968536
    54   2      4.1470257203992391        1.06202312732816      10.148050949323407
    55   2       8.811199944391225      7.3722781684663721       10.86179002791371
    56   2      5.9425421622070536      10.764067254532037      10.095750590831177
    57   2      7.2455443111525248      4.0997430511040687     0.23271949205588427
    58   2     0.29966088567091703      5.6540716785612712      3.6038380975248998
    59   2      6.6234852332743053      4.4674370498412603      4.5757982572243989
    60   2      6.7282558720044818        4.89734795130276      6.8405419385337947
    61   2     0.53651069780733729      10.476195384095025      10.590494967781101
    62   2       7.929117282179635      11.097328221869137      3.3097346524786131
    63   2      2.6418888830273222      6.3370926815647133       8.095452901642382
    64   2       4.526656444123148      3.4645955564070503       9.250794164159311
    65   1      9.5502184921057989       8.298099576505269     0.78494406424329788
    66   1     0.49593160797065428      7.0902902549496822       8.871931975389888
    67   1    0.044950410040229538      1.6607140780715146      9.9596654845046597
    68   1       1.364751489219147      3.0158133457741418      7.8144934033971554
    69   1      9.5364148491154843       4.115462478482371      7.6607819701015103
    70   1        3.60764745430797      9.4088458208684376      10.586141417171877
    71   1      3.9134921588034159      7.2729261454051768      1.6668712425045591
    72   1      6.5180437923584229      7.4402601939489683      3.7628248791352918
