/home/davis/Dropbox/GAP aSi:H project/Iterative_Training/Si:H_LAMMPS_inputs/round6/GAP_medAnneal_amorph_19.xyz (written by ASE) 

72 	 atoms 
2  atom types
0.0      11.105996452100001  xlo xhi
0.0      11.105996452100001  ylo yhi
0.0      11.105996452100001  zlo zhi


Atoms 

     1   2      10.683592093640476      7.9167129947422836      6.5056350625224919
     2   2      10.720884919126981      4.4417411058500358      1.4982222439808395
     3   2      10.184681857421367      5.8079996787877342      7.3302997230767248
     4   2       5.032846661016606      4.0222909424467685     0.86197192383612775
     5   2      1.1736905898550898      2.8168149907457689     0.73510146276591826
     6   2      3.5926488060994086       7.833782298035163     0.79072029299803503
     7   2      1.6416173171721287     0.33671048983512258      3.2976335587444052
     8   2      4.7561363170139543      2.7654353193594181      4.7800764029661007
     9   2      10.027765233549648      2.3707970626297872        8.18004394481909
    10   2      2.2163404169722067      10.534572943845843      7.1304439851222501
    11   2      4.0989967281424873      6.0618527714923189      1.9644730764332567
    12   2       2.078046327951367       8.322399496742463      6.8061333403258963
    13   2      9.5826946469310297      9.9475721649679674      9.9287741553731426
    14   2      4.6499241199442958       10.76469252213229      6.7429946398960627
    15   2      5.7049637967033755      9.3564121904187818      8.5883148121936745
    16   2      9.5713931849413729      9.7390304271883057      7.5129211757368317
    17   2     0.75364403444234429      5.4198462133864833      9.1290180236616791
    18   2      1.1458611839454176      2.8121349238408535      9.1750868075446359
    19   2      7.0810078631150182      6.4700792148810944      10.297963021232787
    20   2      10.219253713777109     0.75199146217027202      6.6030901813896703
    21   2      10.689198400649495      7.8257215658102277      4.0345675109249202
    22   2      10.224301389164589      4.4467399148531266      5.1844657245806758
    23   2      8.6603993927656742      8.6609646879850857      3.1165180792032037
    24   2      6.0786039459410199      1.4902703505211361      6.0368109706921249
    25   2      5.7699338759481593      10.733289206564333      3.1317510639369037
    26   2      2.8089574982559076      5.8982836557457894      3.8191267281492127
    27   2      7.6189756676568701       8.528199163998103      6.9611463964057281
    28   2      3.9214929186475089      1.0218283049687196      3.0572620351330237
    29   2      2.0510776367667325     0.34409819867505953      9.1163294227151557
    30   2      7.7803857776931107      6.3058315227513422      7.8000256218190049
    31   2      6.9548448540188073      7.8304316189055641      4.7564761605053887
    32   2      3.9354675939831862      4.8939306361944492      7.3418632865826519
    33   2      6.1455364547588918      2.7498758183300263      8.0713695483360031
    34   2      7.9662779463083613      2.5300215125642547      9.4917320935897482
    35   2      1.1939390425865586     0.65426313579037276      5.5781499762150712
    36   2      8.5097332236971965      3.4049585766585642      1.9334162679546043
    37   2      4.7866789178568743      7.4958023928055644       9.986299885196086
    38   2      7.2305956399279987      7.5786442415410686      1.4567902136166353
    39   2      1.1121633695104558      8.3629774759795019     0.77522742794735566
    40   2      3.2650141365649419      2.4300564384989025      1.1960702833057164
    41   2      4.9941400421817477      9.1564165169090099      4.6815184586512295
    42   2      8.7656520317418725      1.0094751051150488      1.4792820776314282
    43   2      8.3052807138111984      1.1406546928086732      5.2830858624756782
    44   2      6.1303068018241271       6.278585181655405       3.246030656829368
    45   2      5.4036359009649981       9.176806015795421      1.1981326668468715
    46   2     0.99467303304368981      3.1933404778616694      6.2536899800083772
    47   2       1.338066000944041      9.1908928616952643      3.0431551984395662
    48   2      11.001289117549602       6.389636261379243    0.092867231732814998
    49   2      3.0262685308341486      4.0772745096818248      5.4317351825884561
    50   2      2.7528344557848659      8.1157735433507874      4.5923250905447697
    51   2     0.35684455080313471     0.95337538523655596      1.4401167811430977
    52   2      8.6077125455969128      3.4138244936262754      4.3800906089447835
    53   2      8.0577413800896291     0.50859910752391957       10.47979927994373
    54   2      4.1123750114686874       1.283053558118209      10.425515390485156
    55   2      8.9958682321974521      7.6991842846335823      10.783650458076025
    56   2      5.8261135590011079      10.700033410788164      10.410618917443953
    57   2      7.2464661088580478      4.1656016100650213     0.12185721427173163
    58   2     0.39883410218923443      5.5635478120798494      3.5453883487971427
    59   2      6.4046115869952542      4.3186899969597041      4.6763364007066803
    60   2      6.2904086254783103      4.9905361463330413      6.8408451322369368
    61   2     0.67793889902695958      10.486551725786608      10.874749615173666
    62   2      8.2248866266937348      10.946903052923668      3.3166725684622405
    63   2      2.7827795540186626      6.6341203354768377      8.3055983453097273
    64   2      4.2193757342864444      3.2417070924105649      9.1872734174515251
    65   1      3.9976689483124628      6.5684550208541506        9.05574621206895
    66   1     0.89767214943140328      3.3188593391636587      7.9742698213552918
    67   1      3.5667573965706278      7.2486950823459848      9.5205243893918183
    68   1      5.5935895324827811      3.5986227215909934      2.2558089071636793
    69   1      3.6941465076751503      2.3587848168671961       8.183525674706825
    70   1      9.8673335618008355      3.7290848619138122      7.2188554910784832
    71   1       8.470064825569585      5.8490752066658249      10.486653900953966
    72   1      4.4621705863236736      10.141065277555036      10.368336167751519
