/home/davis/Dropbox/GAP aSi:H project/Iterative_Training/Si:H_LAMMPS_inputs/round6/GAP_medAnneal_amorph_16.xyz (written by ASE) 

72 	 atoms 
2  atom types
0.0      11.105996452100001  xlo xhi
0.0      11.105996452100001  ylo yhi
0.0      11.105996452100001  zlo zhi


Atoms 

     1   2       10.66433984879076      7.8554956316986644      6.6946146981514261
     2   2      10.825570041684475      4.8420878447560467      1.5897267699489819
     3   2      10.138114414297712      5.4800995759380609      7.5007856534136224
     4   2      4.8618009884585236      4.2935482421914397      0.2718392539587613
     5   2      1.1663117658123145      3.0743797074646455     0.64666108121891031
     6   2      3.9847815500294459       7.896163569506963     0.19542333477044202
     7   2      1.5867270403072697     0.23400556644503745      3.4164788267783268
     8   2      4.3838644265392075      2.4561466453641758       4.715408406824813
     9   2      9.8913780441196337      2.2849443782561187      8.4523718626217459
    10   2      2.2135494800637936      10.603533407615867      7.1236260139003056
    11   2      4.2110084765594324      6.2057820431129533      1.7943147729916968
    12   2       1.896887535024002      8.2982317378630484      6.7533620875841001
    13   2      9.5186252639985103      9.8058985212267551      10.090363071952263
    14   2       4.465818906158189      10.581310308715215       7.064943039247054
    15   2      5.6382645138109986      8.9557156126245303      8.5001942833444879
    16   2      9.5662100163971768      9.5690953542754329      7.7778358409077093
    17   2     0.90554852211523251      5.2954890393133836      9.0124628120961798
    18   2     0.82634832961637184      2.9702587695269176      9.3198279275059193
    19   2      7.3113195751400859      6.5385476830082903      10.089938822887792
    20   2      9.7449832412866311     0.43763290079464573      6.6833421117525447
    21   2      10.664997323780725      7.8330981686537138      4.2160639261444288
    22   2      10.386385633185471      4.3357488075101296      5.2879558419199242
    23   2      8.4108576478837964      8.7511598169715263      3.4453677447495297
    24   2      5.7432161802833432      1.3685053160199567      6.5778362560572399
    25   2      5.6736582139041962      10.525886944020654      3.0981787472618509
    26   2      2.7344884602456414      5.7856977273122707      3.7972723483307704
    27   2      7.6090402432308215      8.5174585548292772      7.2873761573890041
    28   2      3.9035189739894305      1.0659402122768156      3.0198581496819963
    29   2      2.0518272915272493     0.49708552100202752      9.1838627659410861
    30   2      7.8555722630741824      6.2705144540336644      7.7308341533227765
    31   2      6.7120433383837064       7.736158368021913      4.8781712272289193
    32   2      3.8612384454962858       5.062423040168194      7.2061913233241537
    33   2      6.0778176413922136      2.9629576874593071      8.1720254153806753
    34   2       8.014236970787465      2.9812137244272696      9.5224723811695178
    35   2      1.0787865183729597      0.7096509612962858      5.5726414019748294
    36   2      8.8843606960194332       3.756051331899156      1.7688176263369655
    37   2      4.8146693607151025       7.079105405922772      9.3323854776943094
    38   2      7.4907913672063779      7.5244114396661752      1.7183997342433674
    39   2      1.6750652466869183       8.302088850430863     0.67393296610668707
    40   2      3.5846302766609921      2.4985815472080048      1.2620909898148702
    41   2      4.8731990726173144       9.302849080129949      4.9493862082787201
    42   2      9.1205674709612783      1.1639439673687269      1.3977052018918181
    43   2       8.047007434518676      1.2086211698962348      5.1051722417116174
    44   2      6.1329555819779538      6.0263835506232457      3.0214885099611646
    45   2      5.8301350403164136      9.3223700900938056      1.0486659453952194
    46   2      1.0473376682195481      2.9291887946470521      6.2902931231152079
    47   2      1.5412779710263409      8.9202785991451705      3.2102571316575084
    48   2     0.15303285691242155      6.4326464538392907      11.064213472247911
    49   2      2.8528550598324784      4.1027327853489739      5.3478649185814877
    50   2      3.0160743366907661      7.9320459334440523      4.7649000588143062
    51   2     0.39670397206972163     0.92451312165683852       1.205613666057006
    52   2       8.350576520341086      3.4504087565391379      4.2512055201181633
    53   2      8.2418210500838978      0.8702836515808795      10.337949050858928
    54   2      4.1453553785328436      1.2792497543333647      10.413516471918307
    55   2      9.1458080690979653      7.7999123406551938    0.021460116944392833
    56   2      5.9657636901887496      10.930475062971722      10.236808962368944
    57   2      7.2579130594012282      4.2534022862163887     0.12066776205171173
    58   2      0.2272120284152879      5.7339304566497429      3.6414740983017757
    59   2      6.1698596975886355      4.2856885285022885       4.549159414134393
    60   2      6.3074363392386701      5.0052005040483944      6.6307752093454644
    61   2     0.81150738655743071      10.117377297722351      10.817170576567753
    62   2      7.9803903360000437      11.048476275275284      3.1973086503940049
    63   2      2.6582791125913312      6.6589277997518916       8.355025582519799
    64   2      4.1259498709320894      3.3726267997872106      9.3713119952589192
    65   1      2.9793290368293475      10.271079846220834      9.3606135888766122
    66   1      6.7218577074484278      1.1441897314793765      5.7851002247031484
    67   1      4.5344306416396174       1.757264058227846       7.113215252826107
    68   1      2.8858909568788951      3.8860159235809206      8.6878523053956211
    69   1      3.7977932195643738      3.8688982512492989      8.2166259865326641
    70   1      9.8452603938522874      3.3107630677500777      7.5052247201955256
    71   1      1.0280421099836694      3.0454574715040867       7.893116084080507
    72   1      2.0896054490587126      2.2166269516806705      8.5887446142563704
