/home/davis/Dropbox/GAP aSi:H project/Iterative_Training/Si:H_LAMMPS_inputs/round6/GAP_medAnneal_amorph_17.xyz (written by ASE) 

72 	 atoms 
2  atom types
0.0      11.105996452100001  xlo xhi
0.0      11.105996452100001  ylo yhi
0.0      11.105996452100001  zlo zhi


Atoms 

     1   2      10.547586950488414      7.9699995657194584       6.742289409121355
     2   2      10.837306858735055      4.6229298849678218      1.6198384581295606
     3   2      10.221782549169253      5.7603382950135451      7.6635129346290807
     4   2      4.8485881844794605      4.2109773797693668      0.1807589770550892
     5   2      1.2318149328868004      3.1031753350656506     0.24824900689485568
     6   2       3.589932279367225      7.8738205258446285     0.64297277979716794
     7   2      1.5429916262788999     0.32892185452326489      3.2425422633437626
     8   2      4.8453907681009012       2.670496819288287      4.7071555408612582
     9   2      9.7125937132337263      2.7005352078922815      7.8320553155868611
    10   2      2.3644100040701845      10.844334733289944      7.1525138212718637
    11   2      3.9205444665504992      5.7205055281384434      1.7160308252001344
    12   2      1.8194054401762811      8.6336883606987289       6.797573948860264
    13   2      9.6877595945671864      9.7301100908379787      10.066461856987699
    14   2      4.6198013257672654      10.530233831032007      6.6532748475577748
    15   2      5.5196702412968941      9.2118454346017966      8.5116590034819914
    16   2      9.2716134651084179      9.7515080142022388      7.5818694229107599
    17   2     0.99624008914308126      5.4531242211555551      9.0309154252013446
    18   2      1.5360270559037879      3.0315716441400262      8.7944920833286861
    19   2      6.5053718504065774       6.040990157157049      10.392702723967426
    20   2      10.011281713615439     0.59944837970138798      6.5660594574194322
    21   2      10.416497321366052       7.893591420728657      4.2016483427496025
    22   2      10.615005901950886      4.6961883693648092      5.5151567643387605
    23   2      8.2424385434866352      8.5817267350982895      3.3754554970835602
    24   2      5.9328066457171431      1.3450894331003491      6.2028633872453414
    25   2      5.4520480500993473      10.586907730927072      2.7773353945578436
    26   2      2.9311967588055912      5.7003792413679486      3.8420073020398293
    27   2      7.4406266918318869      8.1689590497602502      7.2774851569487637
    28   2      3.7528439201237891      1.3896822300548208      2.8443001107654258
    29   2      2.0386677963311559     0.37057600481651115      9.3744805360467041
    30   2      8.0123622785863482      6.1374857179307645      8.4148580278058418
    31   2      6.6269980599521059      7.7577384297279881      5.0374312163520338
    32   2      4.0803408753022499       5.389627907639964       7.560704725471993
    33   2        6.19121986056496      2.7802385020304228      8.0299386285714434
    34   2      8.2877976541963019      2.4532735240820176      9.6239078891651282
    35   2     0.96590183863487966     0.74507797937883968      5.6451391256148478
    36   2      8.6962817567027653      3.3628357533150393      2.0075632320677594
    37   2      4.4357405359669668      7.3559112614949136      9.6651022512052567
    38   2      7.3137762215552913      7.3320011617331868      1.3949253709798575
    39   2       1.264046755790085      8.3334599586091098      1.0395312633133671
    40   2      3.5436091681655162      2.3287819674518477     0.79840342134359787
    41   2      4.9518406334946343      9.2857947119781041      4.6814573756707434
    42   2      8.8077759656850425      1.1117157978534362      1.6006284160663633
    43   2        8.08635042695024      1.0397411666463117      5.4002263600542033
    44   2      6.0459278831796528      6.1760512906106824      3.0592255753057556
    45   2      5.5452251391331764      9.0130536511074322      1.0862097664015433
    46   2      1.6893764337150943      3.0202390853603034      6.3750874060269931
    47   2      1.0481328575655184      9.1292046044020765      3.2515303462724474
    48   2     0.13037995594907317      6.5281047145443818      11.045930780888463
    49   2      3.5563921700818835      4.4040906672777718        5.56122221642278
    50   2       2.976769104647139      8.1491226294971533      4.4609522585128785
    51   2     0.41849393710874183     0.95169504797335336      1.2933010610445617
    52   2       8.904564724765093      3.4284433167561743      4.4716750980873812
    53   2      8.0567907067933309     0.50869239789411724      10.633534035831923
    54   2      4.1238952615884505      1.1386111894614868       10.04071593601244
    55   2      9.2672377025062911      7.7701005143788207      11.047752164306608
    56   2      5.8038538103121633      10.413197729820132      10.365951710313253
    57   2       7.269628775058548      3.9728270554484055    0.095932486753594601
    58   2     0.64868903617106377      5.7225179346955652      3.7139907021357632
    59   2      6.6267404008344171      4.3573644084048517       4.623803926888602
    60   2      6.4459536587881967      4.8917682986852258      6.9709652078690301
    61   2     0.83606052351373328      10.286652674445969      11.002632943120307
    62   2      7.7798604640609268    0.011720158055901131       3.344236541056707
    63   2      2.5806426443929267      7.0284220805139697      8.0019126465245698
    64   2      3.9567722269772498      3.3704244806907591      9.0006049396842727
    65   1      8.7682641621074051      1.6626687334470844      8.6582192856621276
    66   1      9.3396499099736285      3.9276556360787795      8.8353299428827032
    67   1      1.9631703430494252     0.82108630849736697      1.0117618297845361
    68   1      2.8832410661254237      10.127023966240646      9.5142639391917694
    69   1      7.3665674650907036      1.4834357203045134      1.5444598390098676
    70   1     0.59452842327310773      3.4905225051244781      5.9480174184579386
    71   1      2.9184970518626154      2.1592844707991876      6.7776520124244879
    72   1      9.8713639279133023      8.4462169193879912      1.1968954588421075
