
     Program PWSCF v.6.2 (svn rev. 14038) starts on  1Oct2020 at  7:54:57 

     This program is part of the open-source Quantum ESPRESSO suite
     for quantum simulation of materials; please cite
         "P. Giannozzi et al., J. Phys.:Condens. Matter 21 395502 (2009);
         "P. Giannozzi et al., J. Phys.:Condens. Matter 29 465901 (2017);
          URL http://www.quantum-espresso.org", 
     in publications or presentations arising from this work. More details at
     http://www.quantum-espresso.org/quote

     Parallel version (MPI), running on     8 processors

     MPI processes distributed on     1 nodes
     R & G space division:  proc/nbgrp/npool/nimage =       8
     Waiting for input...
     Reading input from standard input

     Current dimensions of program PWSCF are:
     Max number of different atomic species (ntypx) = 10
     Max number of k-points (npk) =  40000
     Max angular momentum in pseudopotentials (lmaxx) =  3

     Subspace diagonalization in iterative solution of the eigenvalue problem:
     a serial algorithm will be used


     Parallelization info
     --------------------
     sticks:   dense  smooth     PW     G-vecs:    dense   smooth      PW
     Min        2386    2386    623               248152   248152   33108
     Max        2387    2387    625               248157   248157   33111
     Sum       19089   19089   4989              1985227  1985227  264875



     bravais-lattice index     =            1
     lattice parameter (alat)  =      37.7945  a.u.
     unit-cell volume          =   53986.6767 (a.u.)^3
     number of atoms/cell      =            2
     number of atomic types    =            2
     number of electrons       =         5.00
     number of Kohn-Sham states=            7
     kinetic-energy cutoff     =      42.0000  Ry
     charge density cutoff     =     168.0000  Ry
     convergence threshold     =      1.0E-08
     mixing beta               =       0.3000
     number of iterations used =            8  plain     mixing
     Exchange-correlation      = SLA-PW-PBX-PBC ( 1  4  3  4 0 0)

     celldm(1)=  37.794523  celldm(2)=   0.000000  celldm(3)=   0.000000
     celldm(4)=   0.000000  celldm(5)=   0.000000  celldm(6)=   0.000000

     crystal axes: (cart. coord. in units of alat)
               a(1) = (   1.000000   0.000000   0.000000 )  
               a(2) = (   0.000000   1.000000   0.000000 )  
               a(3) = (   0.000000   0.000000   1.000000 )  

     reciprocal axes: (cart. coord. in units 2 pi/alat)
               b(1) = (  1.000000  0.000000  0.000000 )  
               b(2) = (  0.000000  1.000000  0.000000 )  
               b(3) = (  0.000000  0.000000  1.000000 )  


     PseudoPot. # 1 for Si read from file:
     ./Si.pbe-hgh.UPF
     MD5 check sum: 9a9f0f6e09139bfdb36b03ff6bc35900
     Pseudo is Norm-conserving, Zval =  4.0
     Generated in analytical, separable form
     Using radial grid of 1141 points,  3 beta functions with: 
                l(1) =   0
                l(2) =   0
                l(3) =   1

     PseudoPot. # 2 for H  read from file:
     ./H.pbe-hgh.UPF
     MD5 check sum: 5f350582108a937bec95f27f5610ab08
     Pseudo is Norm-conserving, Zval =  1.0
     Generated in analytical, separable form
     Using radial grid of  929 points,  0 beta functions with: 

     atomic species   valence    mass     pseudopotential
        Si             4.00    28.08000     Si( 1.00)
        H              1.00     1.00784     H ( 1.00)

      8 Sym. Ops. (no inversion) found


                                    s                        frac. trans.

      isym =  1     identity                                     

 cryst.   s( 1) = (     1          0          0      )
                  (     0          1          0      )
                  (     0          0          1      )

 cart.    s( 1) = (  1.0000000  0.0000000  0.0000000 )
                  (  0.0000000  1.0000000  0.0000000 )
                  (  0.0000000  0.0000000  1.0000000 )


      isym =  2     180 deg rotation - cart. axis [1,0,0]        

 cryst.   s( 2) = (     1          0          0      )
                  (     0         -1          0      )
                  (     0          0         -1      )

 cart.    s( 2) = (  1.0000000  0.0000000  0.0000000 )
                  (  0.0000000 -1.0000000  0.0000000 )
                  (  0.0000000  0.0000000 -1.0000000 )


      isym =  3      90 deg rotation - cart. axis [-1,0,0]       

 cryst.   s( 3) = (     1          0          0      )
                  (     0          0         -1      )
                  (     0          1          0      )

 cart.    s( 3) = (  1.0000000  0.0000000  0.0000000 )
                  (  0.0000000  0.0000000  1.0000000 )
                  (  0.0000000 -1.0000000  0.0000000 )


      isym =  4      90 deg rotation - cart. axis [1,0,0]        

 cryst.   s( 4) = (     1          0          0      )
                  (     0          0          1      )
                  (     0         -1          0      )

 cart.    s( 4) = (  1.0000000  0.0000000  0.0000000 )
                  (  0.0000000  0.0000000 -1.0000000 )
                  (  0.0000000  1.0000000  0.0000000 )


      isym =  5     inv. 180 deg rotation - cart. axis [0,0,1]   

 cryst.   s( 5) = (     1          0          0      )
                  (     0          1          0      )
                  (     0          0         -1      )

 cart.    s( 5) = (  1.0000000  0.0000000  0.0000000 )
                  (  0.0000000  1.0000000  0.0000000 )
                  (  0.0000000  0.0000000 -1.0000000 )


      isym =  6     inv. 180 deg rotation - cart. axis [0,1,0]   

 cryst.   s( 6) = (     1          0          0      )
                  (     0         -1          0      )
                  (     0          0          1      )

 cart.    s( 6) = (  1.0000000  0.0000000  0.0000000 )
                  (  0.0000000 -1.0000000  0.0000000 )
                  (  0.0000000  0.0000000  1.0000000 )


      isym =  7     inv. 180 deg rotation - cart. axis [0,1,1]   

 cryst.   s( 7) = (     1          0          0      )
                  (     0          0         -1      )
                  (     0         -1          0      )

 cart.    s( 7) = (  1.0000000  0.0000000  0.0000000 )
                  (  0.0000000  0.0000000 -1.0000000 )
                  (  0.0000000 -1.0000000  0.0000000 )


      isym =  8     inv. 180 deg rotation - cart. axis [0,1,-1]  

 cryst.   s( 8) = (     1          0          0      )
                  (     0          0          1      )
                  (     0          1          0      )

 cart.    s( 8) = (  1.0000000  0.0000000  0.0000000 )
                  (  0.0000000  0.0000000  1.0000000 )
                  (  0.0000000  1.0000000  0.0000000 )


     point group C_4v (4mm) 
     there are  5 classes
     the character table:

       E     2C4   C2    2s_v  2s_d 
A_1    1.00  1.00  1.00  1.00  1.00
A_2    1.00  1.00  1.00 -1.00 -1.00
B_1    1.00 -1.00  1.00  1.00 -1.00
B_2    1.00 -1.00  1.00 -1.00  1.00
E      2.00  0.00 -2.00  0.00  0.00

     the symmetry operations in each class and the name of the first element:

     E        1
          identity                                               
     2C4      3    4
           90 deg rotation - cart. axis [-1,0,0]                 
     C2       2
          180 deg rotation - cart. axis [1,0,0]                  
     2s_v     5    6
          inv. 180 deg rotation - cart. axis [0,0,1]             
     2s_d     7    8
          inv. 180 deg rotation - cart. axis [0,1,1]             

   Cartesian axes

     site n.     atom                  positions (alat units)
         1           Si  tau(   1) = (   0.0000000   0.0000000   0.0000000  )
         2           H   tau(   2) = (   0.0475000   0.0000000   0.0000000  )

   Crystallographic axes

     site n.     atom                  positions (cryst. coord.)
         1           Si  tau(   1) = (  0.0000000  0.0000000  0.0000000  )
         2           H   tau(   2) = (  0.0475000  0.0000000  0.0000000  )

     number of k points=     6  Marzari-Vanderbilt smearing, width (Ry)=  0.0500
                       cart. coord. in units 2pi/alat
        k(    1) = (   0.0000000   0.0000000   0.0000000), wk =   0.2500000
        k(    2) = (   0.0000000   0.0000000  -0.5000000), wk =   0.5000000
        k(    3) = (   0.0000000  -0.5000000  -0.5000000), wk =   0.2500000
        k(    4) = (  -0.5000000  -0.5000000  -0.5000000), wk =   0.2500000
        k(    5) = (  -0.5000000   0.0000000   0.0000000), wk =   0.2500000
        k(    6) = (  -0.5000000   0.5000000   0.0000000), wk =   0.5000000

                       cryst. coord.
        k(    1) = (   0.0000000   0.0000000   0.0000000), wk =   0.2500000
        k(    2) = (   0.0000000   0.0000000  -0.5000000), wk =   0.5000000
        k(    3) = (   0.0000000  -0.5000000  -0.5000000), wk =   0.2500000
        k(    4) = (  -0.5000000  -0.5000000  -0.5000000), wk =   0.2500000
        k(    5) = (  -0.5000000   0.0000000   0.0000000), wk =   0.2500000
        k(    6) = (  -0.5000000   0.5000000   0.0000000), wk =   0.5000000

     Dense  grid:  1985227 G-vectors     FFT dimensions: ( 160, 160, 160)

     Dynamical RAM for                 wfc:       3.31 MB

     Dynamical RAM for     wfc (w. buffer):      23.19 MB

     Dynamical RAM for           str. fact:       7.57 MB

     Dynamical RAM for           local pot:       0.00 MB

     Dynamical RAM for          nlocal pot:       2.37 MB

     Dynamical RAM for                qrad:       2.14 MB

     Dynamical RAM for          rho,v,vnew:      23.08 MB

     Dynamical RAM for               rhoin:       7.69 MB

     Dynamical RAM for            rho*nmix:      60.58 MB

     Dynamical RAM for           G-vectors:      16.09 MB

     Dynamical RAM for          h,s,v(r/c):       0.04 MB

     Dynamical RAM for          <psi|beta>:       0.00 MB

     Dynamical RAM for                 psi:      13.25 MB

     Dynamical RAM for                hpsi:      13.25 MB

     Dynamical RAM for      wfcinit/wfcrot:       6.63 MB

     Estimated static dynamical RAM per process >     173.61 MB

     Estimated max dynamical RAM per process >     200.15 MB

     Estimated total dynamical RAM >       1.56 GB

     Initial potential from superposition of free atoms
     Check: negative starting charge=   -0.012369

     starting charge    4.99943, renormalised to    5.00000

     negative rho (up, down):  1.237E-02 0.000E+00
     Starting wfc are    5 randomized atomic wfcs +    2 random wfc

     total cpu time spent up to now is        5.5 secs

     Self-consistent Calculation

     iteration #  1     ecut=    42.00 Ry     beta= 0.30
     Davidson diagonalization with overlap
     ethr =  1.00E-02,  avg # of iterations =  5.0

     negative rho (up, down):  8.580E-03 0.000E+00

     total cpu time spent up to now is       12.7 secs

     total energy              =      -8.30787530 Ry
     Harris-Foulkes estimate   =      -8.39539331 Ry
     estimated scf accuracy    <       0.31342732 Ry

     iteration #  2     ecut=    42.00 Ry     beta= 0.30
     Davidson diagonalization with overlap
     ethr =  6.27E-03,  avg # of iterations =  1.0

     negative rho (up, down):  2.181E-03 0.000E+00

     total cpu time spent up to now is       16.7 secs

     total energy              =      -8.25384166 Ry
     Harris-Foulkes estimate   =      -8.31579868 Ry
     estimated scf accuracy    <       0.11182261 Ry

     iteration #  3     ecut=    42.00 Ry     beta= 0.30
     Davidson diagonalization with overlap
     ethr =  2.24E-03,  avg # of iterations =  2.0

     negative rho (up, down):  1.902E-03 0.000E+00

     total cpu time spent up to now is       21.4 secs

     total energy              =      -8.27227013 Ry
     Harris-Foulkes estimate   =      -8.27423933 Ry
     estimated scf accuracy    <       0.00491964 Ry

     iteration #  4     ecut=    42.00 Ry     beta= 0.30
     Davidson diagonalization with overlap
     ethr =  9.84E-05,  avg # of iterations = 12.3

     negative rho (up, down):  2.423E-04 0.000E+00

     total cpu time spent up to now is       31.6 secs

     total energy              =      -8.27237735 Ry
     Harris-Foulkes estimate   =      -8.27281097 Ry
     estimated scf accuracy    <       0.00138401 Ry

     iteration #  5     ecut=    42.00 Ry     beta= 0.30
     Davidson diagonalization with overlap
     ethr =  2.77E-05,  avg # of iterations =  5.7

     negative rho (up, down):  2.863E-04 0.000E+00

     total cpu time spent up to now is       37.7 secs

     total energy              =      -8.27262723 Ry
     Harris-Foulkes estimate   =      -8.27256043 Ry
     estimated scf accuracy    <       0.00005438 Ry

     iteration #  6     ecut=    42.00 Ry     beta= 0.30
     Davidson diagonalization with overlap
     c_bands:  1 eigenvalues not converged
     c_bands:  1 eigenvalues not converged
     ethr =  1.09E-06,  avg # of iterations = 15.5

     negative rho (up, down):  2.948E-05 0.000E+00

     total cpu time spent up to now is       47.9 secs

     total energy              =      -8.27249148 Ry
     Harris-Foulkes estimate   =      -8.27269565 Ry
     estimated scf accuracy    <       0.00034041 Ry

     iteration #  7     ecut=    42.00 Ry     beta= 0.30
     Davidson diagonalization with overlap
     ethr =  1.09E-06,  avg # of iterations =  4.2

     negative rho (up, down):  1.148E-05 0.000E+00

     total cpu time spent up to now is       53.6 secs

     total energy              =      -8.27255310 Ry
     Harris-Foulkes estimate   =      -8.27255395 Ry
     estimated scf accuracy    <       0.00000376 Ry

     iteration #  8     ecut=    42.00 Ry     beta= 0.30
     Davidson diagonalization with overlap
     ethr =  7.52E-08,  avg # of iterations =  2.0

     negative rho (up, down):  1.523E-06 0.000E+00

     total cpu time spent up to now is       57.9 secs

     total energy              =      -8.27255285 Ry
     Harris-Foulkes estimate   =      -8.27255336 Ry
     estimated scf accuracy    <       0.00000119 Ry

     iteration #  9     ecut=    42.00 Ry     beta= 0.30
     Davidson diagonalization with overlap
     ethr =  2.38E-08,  avg # of iterations =  2.5

     negative rho (up, down):  1.043E-06 0.000E+00

     total cpu time spent up to now is       62.7 secs

     total energy              =      -8.27255313 Ry
     Harris-Foulkes estimate   =      -8.27255317 Ry
     estimated scf accuracy    <       0.00000004 Ry

     iteration # 10     ecut=    42.00 Ry     beta= 0.30
     Davidson diagonalization with overlap
     ethr =  7.92E-10,  avg # of iterations =  2.0

     total cpu time spent up to now is       67.1 secs

     End of self-consistent calculation

          k = 0.0000 0.0000 0.0000 (248049 PWs)   bands (ev):

   -13.9707  -6.4483  -3.9870  -3.9870  -0.3957   0.0879   0.2648

     occupation numbers 
     1.0000   1.0002   0.2499   0.2499   0.0000   0.0000   0.0000

          k = 0.0000 0.0000-0.5000 (247982 PWs)   bands (ev):

   -13.9707  -6.4483  -3.9870  -3.9870  -0.3895   0.0686   0.1929

     occupation numbers 
     1.0000   1.0002   0.2499   0.2499   0.0000   0.0000   0.0000

          k = 0.0000-0.5000-0.5000 (248312 PWs)   bands (ev):

   -13.9708  -6.4484  -3.9870  -3.9870  -0.3842   0.1365   0.1365

     occupation numbers 
     1.0000   1.0002   0.2499   0.2499   0.0000   0.0000   0.0000

          k =-0.5000-0.5000-0.5000 (248296 PWs)   bands (ev):

   -13.9708  -6.4484  -3.9870  -3.9870  -0.3813   0.1869   0.1900

     occupation numbers 
     1.0000   1.0002   0.2499   0.2499   0.0000   0.0000   0.0000

          k =-0.5000 0.0000 0.0000 (247982 PWs)   bands (ev):

   -13.9707  -6.4483  -3.9870  -3.9870  -0.3914   0.0695   0.2106

     occupation numbers 
     1.0000   1.0002   0.2499   0.2499   0.0000   0.0000   0.0000

          k =-0.5000 0.5000 0.0000 (248312 PWs)   bands (ev):

   -13.9708  -6.4484  -3.9870  -3.9870  -0.3861   0.1332   0.1347

     occupation numbers 
     1.0000   1.0002   0.2499   0.2499   0.0000   0.0000   0.0000

     the Fermi energy is    -4.1541 ev

!    total energy              =      -8.27255314 Ry
     Harris-Foulkes estimate   =      -8.27255314 Ry
     estimated scf accuracy    <          6.7E-09 Ry

     The total energy is the sum of the following terms:

     one-electron contribution =     -16.18274696 Ry
     hartree contribution      =       8.41269185 Ry
     xc contribution           =      -3.05235784 Ry
     ewald contribution        =       2.58044123 Ry
     smearing contrib. (-TS)   =      -0.03058141 Ry

     convergence has been achieved in  10 iterations

     Forces acting on atoms (cartesian axes, Ry/au):

     atom    1 type  1   force =    -1.39270235    0.00000000    0.00000000
     atom    2 type  2   force =     1.39270235    0.00000000    0.00000000
     The non-local contrib.  to forces
     atom    1 type  1   force =    -1.45800592    0.00000000    0.00000000
     atom    2 type  2   force =     0.00000000    0.00000000    0.00000000
     The ionic contribution  to forces
     atom    1 type  1   force =    -2.48112545   -0.00000000   -0.00000000
     atom    2 type  2   force =     2.48112545    0.00000000   -0.00000000
     The local contribution  to forces
     atom    1 type  1   force =     2.54639918    0.00000000   -0.00000000
     atom    2 type  2   force =    -1.08843797    0.00000000   -0.00000000
     The core correction contribution to forces
     atom    1 type  1   force =     0.00000000    0.00000000    0.00000000
     atom    2 type  2   force =     0.00000000    0.00000000    0.00000000
     The Hubbard contrib.    to forces
     atom    1 type  1   force =     0.00000000    0.00000000    0.00000000
     atom    2 type  2   force =     0.00000000    0.00000000    0.00000000
     The SCF correction term to forces
     atom    1 type  1   force =     0.00000516   -0.00000000    0.00000000
     atom    2 type  2   force =    -0.00000983    0.00000000    0.00000000

     Total force =     1.969579     Total SCF correction =     0.000011


     Computing stress (Cartesian axis) and pressure

          total   stress  (Ry/bohr**3)                   (kbar)     P=    2.20
   0.00004580   0.00000000   0.00000000          6.74      0.00      0.00
   0.00000000  -0.00000045   0.00000000          0.00     -0.07      0.00
   0.00000000   0.00000000  -0.00000045          0.00      0.00     -0.07

     kinetic stress (kbar)     10.52      0.00      0.00
                                0.00      8.08      0.00
                                0.00      0.00      8.08

     local   stress (kbar)    -31.29      0.00     -0.00
                                0.00    -17.54      0.00
                               -0.00      0.00    -17.54

     nonloc. stress (kbar)     10.85      0.00      0.00
                                0.00      6.65      0.00
                                0.00      0.00      6.65

     hartree stress (kbar)      8.82      0.00      0.00
                                0.00      7.05      0.00
                                0.00      0.00      7.05

     exc-cor stress (kbar)     -2.61      0.00     -0.00
                                0.00     -2.60     -0.00
                               -0.00     -0.00     -2.60

     corecor stress (kbar)      0.00      0.00      0.00
                                0.00      0.00      0.00
                                0.00      0.00      0.00

     ewald   stress (kbar)     10.44      0.00     -0.00
                                0.00     -1.71     -0.00
                               -0.00     -0.00     -1.71

     hubbard stress (kbar)      0.00      0.00      0.00
                                0.00      0.00      0.00
                                0.00      0.00      0.00

     london  stress (kbar)      0.00      0.00      0.00
                                0.00      0.00      0.00
                                0.00      0.00      0.00

     DFT-D3  stress (kbar)      0.00      0.00      0.00
                                0.00      0.00      0.00
                                0.00      0.00      0.00

     XDM     stress (kbar)      0.00      0.00      0.00
                                0.00      0.00      0.00
                                0.00      0.00      0.00

     dft-nl  stress (kbar)      0.00      0.00      0.00
                                0.00      0.00      0.00
                                0.00      0.00      0.00

     TS-vdW  stress (kbar)      0.00      0.00      0.00
                                0.00      0.00      0.00
                                0.00      0.00      0.00



     Writing output data file SiH1.save

     init_run     :      3.12s CPU      3.26s WALL (       1 calls)
     electrons    :     60.12s CPU     62.11s WALL (       1 calls)
     forces       :      0.39s CPU      0.40s WALL (       1 calls)
     stress       :      1.81s CPU      1.91s WALL (       1 calls)

     Called by init_run:
     wfcinit      :      1.41s CPU      1.42s WALL (       1 calls)
     wfcinit:atom :      0.03s CPU      0.03s WALL (       6 calls)
     wfcinit:wfcr :      1.30s CPU      1.32s WALL (       6 calls)
     potinit      :      0.61s CPU      0.66s WALL (       1 calls)

     Called by electrons:
     c_bands      :     47.66s CPU     49.09s WALL (      10 calls)
     sum_band     :      7.97s CPU      8.00s WALL (      10 calls)
     v_of_rho     :      3.79s CPU      3.84s WALL (      11 calls)
     v_h          :      0.35s CPU      0.36s WALL (      11 calls)
     v_xc         :      3.44s CPU      3.48s WALL (      11 calls)
     mix_rho      :      0.82s CPU      0.90s WALL (      10 calls)

     Called by c_bands:
     init_us_2    :      0.81s CPU      0.81s WALL (     138 calls)
     cegterg      :     47.09s CPU     47.28s WALL (      60 calls)

     Called by sum_band:

     Called by *egterg:
     h_psi        :     44.86s CPU     45.02s WALL (     379 calls)
     g_psi        :      0.22s CPU      0.22s WALL (     313 calls)
     cdiaghg      :      0.06s CPU      0.06s WALL (     373 calls)
     cegterg:over :      1.22s CPU      1.22s WALL (     313 calls)
     cegterg:upda :      1.02s CPU      1.03s WALL (     313 calls)
     cegterg:last :      0.37s CPU      0.37s WALL (      80 calls)

     Called by h_psi:
     h_psi:pot    :     44.64s CPU     44.80s WALL (     379 calls)
     h_psi:calbec :      0.40s CPU      0.41s WALL (     379 calls)
     vloc_psi     :     44.03s CPU     44.18s WALL (     379 calls)
     add_vuspsi   :      0.21s CPU      0.21s WALL (     379 calls)

     General routines
     calbec       :      0.43s CPU      0.44s WALL (     409 calls)
     fft          :      3.20s CPU      3.23s WALL (     128 calls)
     fftw         :     44.94s CPU     45.08s WALL (    3404 calls)

     Parallel routines
     fft_scatt_xy :      6.41s CPU      6.43s WALL (    3532 calls)
     fft_scatt_yz :     10.11s CPU     10.14s WALL (    3532 calls)

     PWSCF        :  1m 5.93s CPU     1m11.14s WALL


   This run was terminated on:   7:56: 8   1Oct2020            

=------------------------------------------------------------------------------=
   JOB DONE.
=------------------------------------------------------------------------------=
