
     Program PWSCF v.6.2 (svn rev. 14038) starts on  1Oct2020 at  8:18:52 

     This program is part of the open-source Quantum ESPRESSO suite
     for quantum simulation of materials; please cite
         "P. Giannozzi et al., J. Phys.:Condens. Matter 21 395502 (2009);
         "P. Giannozzi et al., J. Phys.:Condens. Matter 29 465901 (2017);
          URL http://www.quantum-espresso.org", 
     in publications or presentations arising from this work. More details at
     http://www.quantum-espresso.org/quote

     Parallel version (MPI), running on     8 processors

     MPI processes distributed on     1 nodes
     R & G space division:  proc/nbgrp/npool/nimage =       8
     Waiting for input...
     Reading input from standard input

     Current dimensions of program PWSCF are:
     Max number of different atomic species (ntypx) = 10
     Max number of k-points (npk) =  40000
     Max angular momentum in pseudopotentials (lmaxx) =  3

     Subspace diagonalization in iterative solution of the eigenvalue problem:
     a serial algorithm will be used


     Parallelization info
     --------------------
     sticks:   dense  smooth     PW     G-vecs:    dense   smooth      PW
     Min        2386    2386    623               248152   248152   33108
     Max        2387    2387    625               248157   248157   33111
     Sum       19089   19089   4989              1985227  1985227  264875



     bravais-lattice index     =            1
     lattice parameter (alat)  =      37.7945  a.u.
     unit-cell volume          =   53986.6767 (a.u.)^3
     number of atoms/cell      =            2
     number of atomic types    =            2
     number of electrons       =         5.00
     number of Kohn-Sham states=            7
     kinetic-energy cutoff     =      42.0000  Ry
     charge density cutoff     =     168.0000  Ry
     convergence threshold     =      1.0E-08
     mixing beta               =       0.3000
     number of iterations used =            8  plain     mixing
     Exchange-correlation      = SLA-PW-PBX-PBC ( 1  4  3  4 0 0)

     celldm(1)=  37.794523  celldm(2)=   0.000000  celldm(3)=   0.000000
     celldm(4)=   0.000000  celldm(5)=   0.000000  celldm(6)=   0.000000

     crystal axes: (cart. coord. in units of alat)
               a(1) = (   1.000000   0.000000   0.000000 )  
               a(2) = (   0.000000   1.000000   0.000000 )  
               a(3) = (   0.000000   0.000000   1.000000 )  

     reciprocal axes: (cart. coord. in units 2 pi/alat)
               b(1) = (  1.000000  0.000000  0.000000 )  
               b(2) = (  0.000000  1.000000  0.000000 )  
               b(3) = (  0.000000  0.000000  1.000000 )  


     PseudoPot. # 1 for Si read from file:
     ./Si.pbe-hgh.UPF
     MD5 check sum: 9a9f0f6e09139bfdb36b03ff6bc35900
     Pseudo is Norm-conserving, Zval =  4.0
     Generated in analytical, separable form
     Using radial grid of 1141 points,  3 beta functions with: 
                l(1) =   0
                l(2) =   0
                l(3) =   1

     PseudoPot. # 2 for H  read from file:
     ./H.pbe-hgh.UPF
     MD5 check sum: 5f350582108a937bec95f27f5610ab08
     Pseudo is Norm-conserving, Zval =  1.0
     Generated in analytical, separable form
     Using radial grid of  929 points,  0 beta functions with: 

     atomic species   valence    mass     pseudopotential
        Si             4.00    28.08000     Si( 1.00)
        H              1.00     1.00784     H ( 1.00)

      8 Sym. Ops. (no inversion) found


                                    s                        frac. trans.

      isym =  1     identity                                     

 cryst.   s( 1) = (     1          0          0      )
                  (     0          1          0      )
                  (     0          0          1      )

 cart.    s( 1) = (  1.0000000  0.0000000  0.0000000 )
                  (  0.0000000  1.0000000  0.0000000 )
                  (  0.0000000  0.0000000  1.0000000 )


      isym =  2     180 deg rotation - cart. axis [1,0,0]        

 cryst.   s( 2) = (     1          0          0      )
                  (     0         -1          0      )
                  (     0          0         -1      )

 cart.    s( 2) = (  1.0000000  0.0000000  0.0000000 )
                  (  0.0000000 -1.0000000  0.0000000 )
                  (  0.0000000  0.0000000 -1.0000000 )


      isym =  3      90 deg rotation - cart. axis [-1,0,0]       

 cryst.   s( 3) = (     1          0          0      )
                  (     0          0         -1      )
                  (     0          1          0      )

 cart.    s( 3) = (  1.0000000  0.0000000  0.0000000 )
                  (  0.0000000  0.0000000  1.0000000 )
                  (  0.0000000 -1.0000000  0.0000000 )


      isym =  4      90 deg rotation - cart. axis [1,0,0]        

 cryst.   s( 4) = (     1          0          0      )
                  (     0          0          1      )
                  (     0         -1          0      )

 cart.    s( 4) = (  1.0000000  0.0000000  0.0000000 )
                  (  0.0000000  0.0000000 -1.0000000 )
                  (  0.0000000  1.0000000  0.0000000 )


      isym =  5     inv. 180 deg rotation - cart. axis [0,0,1]   

 cryst.   s( 5) = (     1          0          0      )
                  (     0          1          0      )
                  (     0          0         -1      )

 cart.    s( 5) = (  1.0000000  0.0000000  0.0000000 )
                  (  0.0000000  1.0000000  0.0000000 )
                  (  0.0000000  0.0000000 -1.0000000 )


      isym =  6     inv. 180 deg rotation - cart. axis [0,1,0]   

 cryst.   s( 6) = (     1          0          0      )
                  (     0         -1          0      )
                  (     0          0          1      )

 cart.    s( 6) = (  1.0000000  0.0000000  0.0000000 )
                  (  0.0000000 -1.0000000  0.0000000 )
                  (  0.0000000  0.0000000  1.0000000 )


      isym =  7     inv. 180 deg rotation - cart. axis [0,1,1]   

 cryst.   s( 7) = (     1          0          0      )
                  (     0          0         -1      )
                  (     0         -1          0      )

 cart.    s( 7) = (  1.0000000  0.0000000  0.0000000 )
                  (  0.0000000  0.0000000 -1.0000000 )
                  (  0.0000000 -1.0000000  0.0000000 )


      isym =  8     inv. 180 deg rotation - cart. axis [0,1,-1]  

 cryst.   s( 8) = (     1          0          0      )
                  (     0          0          1      )
                  (     0          1          0      )

 cart.    s( 8) = (  1.0000000  0.0000000  0.0000000 )
                  (  0.0000000  0.0000000  1.0000000 )
                  (  0.0000000  1.0000000  0.0000000 )


     point group C_4v (4mm) 
     there are  5 classes
     the character table:

       E     2C4   C2    2s_v  2s_d 
A_1    1.00  1.00  1.00  1.00  1.00
A_2    1.00  1.00  1.00 -1.00 -1.00
B_1    1.00 -1.00  1.00  1.00 -1.00
B_2    1.00 -1.00  1.00 -1.00  1.00
E      2.00  0.00 -2.00  0.00  0.00

     the symmetry operations in each class and the name of the first element:

     E        1
          identity                                               
     2C4      3    4
           90 deg rotation - cart. axis [-1,0,0]                 
     C2       2
          180 deg rotation - cart. axis [1,0,0]                  
     2s_v     5    6
          inv. 180 deg rotation - cart. axis [0,0,1]             
     2s_d     7    8
          inv. 180 deg rotation - cart. axis [0,1,1]             

   Cartesian axes

     site n.     atom                  positions (alat units)
         1           Si  tau(   1) = (   0.0000000   0.0000000   0.0000000  )
         2           H   tau(   2) = (   0.0615000   0.0000000   0.0000000  )

   Crystallographic axes

     site n.     atom                  positions (cryst. coord.)
         1           Si  tau(   1) = (  0.0000000  0.0000000  0.0000000  )
         2           H   tau(   2) = (  0.0615000  0.0000000  0.0000000  )

     number of k points=     6  Marzari-Vanderbilt smearing, width (Ry)=  0.0500
                       cart. coord. in units 2pi/alat
        k(    1) = (   0.0000000   0.0000000   0.0000000), wk =   0.2500000
        k(    2) = (   0.0000000   0.0000000  -0.5000000), wk =   0.5000000
        k(    3) = (   0.0000000  -0.5000000  -0.5000000), wk =   0.2500000
        k(    4) = (  -0.5000000  -0.5000000  -0.5000000), wk =   0.2500000
        k(    5) = (  -0.5000000   0.0000000   0.0000000), wk =   0.2500000
        k(    6) = (  -0.5000000   0.5000000   0.0000000), wk =   0.5000000

                       cryst. coord.
        k(    1) = (   0.0000000   0.0000000   0.0000000), wk =   0.2500000
        k(    2) = (   0.0000000   0.0000000  -0.5000000), wk =   0.5000000
        k(    3) = (   0.0000000  -0.5000000  -0.5000000), wk =   0.2500000
        k(    4) = (  -0.5000000  -0.5000000  -0.5000000), wk =   0.2500000
        k(    5) = (  -0.5000000   0.0000000   0.0000000), wk =   0.2500000
        k(    6) = (  -0.5000000   0.5000000   0.0000000), wk =   0.5000000

     Dense  grid:  1985227 G-vectors     FFT dimensions: ( 160, 160, 160)

     Dynamical RAM for                 wfc:       3.31 MB

     Dynamical RAM for     wfc (w. buffer):      23.19 MB

     Dynamical RAM for           str. fact:       7.57 MB

     Dynamical RAM for           local pot:       0.00 MB

     Dynamical RAM for          nlocal pot:       2.37 MB

     Dynamical RAM for                qrad:       2.14 MB

     Dynamical RAM for          rho,v,vnew:      23.08 MB

     Dynamical RAM for               rhoin:       7.69 MB

     Dynamical RAM for            rho*nmix:      60.58 MB

     Dynamical RAM for           G-vectors:      16.09 MB

     Dynamical RAM for          h,s,v(r/c):       0.04 MB

     Dynamical RAM for          <psi|beta>:       0.00 MB

     Dynamical RAM for                 psi:      13.25 MB

     Dynamical RAM for                hpsi:      13.25 MB

     Dynamical RAM for      wfcinit/wfcrot:       6.63 MB

     Estimated static dynamical RAM per process >     173.61 MB

     Estimated max dynamical RAM per process >     200.15 MB

     Estimated total dynamical RAM >       1.56 GB

     Initial potential from superposition of free atoms
     Check: negative starting charge=   -0.012393

     starting charge    4.99943, renormalised to    5.00000

     negative rho (up, down):  1.239E-02 0.000E+00
     Starting wfc are    5 randomized atomic wfcs +    2 random wfc

     total cpu time spent up to now is        3.8 secs

     Self-consistent Calculation

     iteration #  1     ecut=    42.00 Ry     beta= 0.30
     Davidson diagonalization with overlap
     ethr =  1.00E-02,  avg # of iterations =  5.8

     negative rho (up, down):  8.587E-03 0.000E+00

     total cpu time spent up to now is       11.5 secs

     total energy              =      -8.70138575 Ry
     Harris-Foulkes estimate   =      -8.74810723 Ry
     estimated scf accuracy    <       0.17121986 Ry

     iteration #  2     ecut=    42.00 Ry     beta= 0.30
     Davidson diagonalization with overlap
     ethr =  3.42E-03,  avg # of iterations =  1.0

     negative rho (up, down):  2.054E-03 0.000E+00

     total cpu time spent up to now is       16.0 secs

     total energy              =      -8.67273459 Ry
     Harris-Foulkes estimate   =      -8.70595572 Ry
     estimated scf accuracy    <       0.06241588 Ry

     iteration #  3     ecut=    42.00 Ry     beta= 0.30
     Davidson diagonalization with overlap
     ethr =  1.25E-03,  avg # of iterations =  3.8

     negative rho (up, down):  1.732E-03 0.000E+00

     total cpu time spent up to now is       21.6 secs

     total energy              =      -8.68170666 Ry
     Harris-Foulkes estimate   =      -8.68223659 Ry
     estimated scf accuracy    <       0.00157530 Ry

     iteration #  4     ecut=    42.00 Ry     beta= 0.30
     Davidson diagonalization with overlap
     ethr =  3.15E-05,  avg # of iterations = 13.7

     negative rho (up, down):  3.590E-04 0.000E+00

     total cpu time spent up to now is       33.0 secs

     total energy              =      -8.68171923 Ry
     Harris-Foulkes estimate   =      -8.68188593 Ry
     estimated scf accuracy    <       0.00056445 Ry

     iteration #  5     ecut=    42.00 Ry     beta= 0.30
     Davidson diagonalization with overlap
     ethr =  1.13E-05,  avg # of iterations =  6.2

     negative rho (up, down):  2.982E-04 0.000E+00

     total cpu time spent up to now is       39.6 secs

     total energy              =      -8.68181156 Ry
     Harris-Foulkes estimate   =      -8.68181630 Ry
     estimated scf accuracy    <       0.00003112 Ry

     iteration #  6     ecut=    42.00 Ry     beta= 0.30
     Davidson diagonalization with overlap
     c_bands:  1 eigenvalues not converged
     c_bands:  1 eigenvalues not converged
     ethr =  6.22E-07,  avg # of iterations = 11.2

     negative rho (up, down):  1.786E-06 0.000E+00

     total cpu time spent up to now is       48.3 secs

     total energy              =      -8.68180967 Ry
     Harris-Foulkes estimate   =      -8.68181355 Ry
     estimated scf accuracy    <       0.00001651 Ry

     iteration #  7     ecut=    42.00 Ry     beta= 0.30
     Davidson diagonalization with overlap
     ethr =  3.30E-07,  avg # of iterations =  6.5

     negative rho (up, down):  4.390E-06 0.000E+00

     total cpu time spent up to now is       57.5 secs

     total energy              =      -8.68181366 Ry
     Harris-Foulkes estimate   =      -8.68181385 Ry
     estimated scf accuracy    <       0.00000153 Ry

     iteration #  8     ecut=    42.00 Ry     beta= 0.30
     Davidson diagonalization with overlap
     ethr =  3.06E-08,  avg # of iterations =  1.0

     negative rho (up, down):  2.219E-08 0.000E+00

     total cpu time spent up to now is       62.0 secs

     total energy              =      -8.68181332 Ry
     Harris-Foulkes estimate   =      -8.68181372 Ry
     estimated scf accuracy    <       0.00000099 Ry

     iteration #  9     ecut=    42.00 Ry     beta= 0.30
     Davidson diagonalization with overlap
     ethr =  1.98E-08,  avg # of iterations =  2.0

     negative rho (up, down):  2.795E-07 0.000E+00

     total cpu time spent up to now is       67.2 secs

     total energy              =      -8.68181358 Ry
     Harris-Foulkes estimate   =      -8.68181356 Ry
     estimated scf accuracy    <       0.00000004 Ry

     iteration # 10     ecut=    42.00 Ry     beta= 0.30
     Davidson diagonalization with overlap
     ethr =  7.88E-10,  avg # of iterations =  2.0

     negative rho (up, down):  1.965E-07 0.000E+00

     total cpu time spent up to now is       72.3 secs

     total energy              =      -8.68181357 Ry
     Harris-Foulkes estimate   =      -8.68181358 Ry
     estimated scf accuracy    <       0.00000001 Ry

     iteration # 11     ecut=    42.00 Ry     beta= 0.30
     Davidson diagonalization with overlap
     ethr =  2.85E-10,  avg # of iterations =  1.0

     total cpu time spent up to now is       76.6 secs

     End of self-consistent calculation

          k = 0.0000 0.0000 0.0000 (248049 PWs)   bands (ev):

   -12.8926  -6.6150  -3.9747  -3.9747  -0.3514   0.1145   0.2527

     occupation numbers 
     1.0000   1.0001   0.2500   0.2500   0.0000   0.0000   0.0000

          k = 0.0000 0.0000-0.5000 (247982 PWs)   bands (ev):

   -12.8926  -6.6150  -3.9747  -3.9747  -0.3434   0.0752   0.2200

     occupation numbers 
     1.0000   1.0001   0.2500   0.2500   0.0000   0.0000   0.0000

          k = 0.0000-0.5000-0.5000 (248312 PWs)   bands (ev):

   -12.8927  -6.6151  -3.9747  -3.9747  -0.3366   0.1419   0.1427

     occupation numbers 
     1.0000   1.0001   0.2500   0.2500   0.0000   0.0000   0.0000

          k =-0.5000-0.5000-0.5000 (248296 PWs)   bands (ev):

   -12.8927  -6.6151  -3.9747  -3.9747  -0.3320   0.1816   0.1955

     occupation numbers 
     1.0000   1.0001   0.2500   0.2500   0.0000   0.0000   0.0000

          k =-0.5000 0.0000 0.0000 (247982 PWs)   bands (ev):

   -12.8926  -6.6150  -3.9747  -3.9747  -0.3449   0.0728   0.2357

     occupation numbers 
     1.0000   1.0001   0.2500   0.2500   0.0000   0.0000   0.0000

          k =-0.5000 0.5000 0.0000 (248312 PWs)   bands (ev):

   -12.8927  -6.6151  -3.9747  -3.9747  -0.3381   0.1338   0.1396

     occupation numbers 
     1.0000   1.0001   0.2500   0.2500   0.0000   0.0000   0.0000

     the Fermi energy is    -4.1417 ev

!    total energy              =      -8.68181356 Ry
     Harris-Foulkes estimate   =      -8.68181357 Ry
     estimated scf accuracy    <          9.1E-09 Ry

     The total energy is the sum of the following terms:

     one-electron contribution =     -15.21623385 Ry
     hartree contribution      =       7.90158800 Ry
     xc contribution           =      -2.90321395 Ry
     ewald contribution        =       1.56669766 Ry
     smearing contrib. (-TS)   =      -0.03065142 Ry

     convergence has been achieved in  11 iterations

     Forces acting on atoms (cartesian axes, Ry/au):

     atom    1 type  1   force =    -0.34964948    0.00000000    0.00000000
     atom    2 type  2   force =     0.34964948    0.00000000    0.00000000
     The non-local contrib.  to forces
     atom    1 type  1   force =    -0.28566259    0.00000000    0.00000000
     atom    2 type  2   force =     0.00000000    0.00000000    0.00000000
     The ionic contribution  to forces
     atom    1 type  1   force =    -1.47929199   -0.00000000   -0.00000000
     atom    2 type  2   force =     1.47929199    0.00000000   -0.00000000
     The local contribution  to forces
     atom    1 type  1   force =     1.41538231   -0.00000000   -0.00000000
     atom    2 type  2   force =    -1.12965562    0.00000000   -0.00000000
     The core correction contribution to forces
     atom    1 type  1   force =     0.00000000    0.00000000    0.00000000
     atom    2 type  2   force =     0.00000000    0.00000000    0.00000000
     The Hubbard contrib.    to forces
     atom    1 type  1   force =     0.00000000    0.00000000    0.00000000
     atom    2 type  2   force =     0.00000000    0.00000000    0.00000000
     The SCF correction term to forces
     atom    1 type  1   force =    -0.00008048   -0.00000000    0.00000000
     atom    2 type  2   force =     0.00000983    0.00000000   -0.00000000

     Total force =     0.494479     Total SCF correction =     0.000081


     Computing stress (Cartesian axis) and pressure

          total   stress  (Ry/bohr**3)                   (kbar)     P=    0.69
   0.00001478   0.00000000   0.00000000          2.17      0.00      0.00
   0.00000000  -0.00000031   0.00000000          0.00     -0.04      0.00
   0.00000000   0.00000000  -0.00000031          0.00      0.00     -0.04

     kinetic stress (kbar)      8.55      0.00      0.00
                                0.00      7.43      0.00
                                0.00      0.00      7.43

     local   stress (kbar)    -28.67      0.00     -0.00
                                0.00    -16.05      0.00
                               -0.00      0.00    -16.05

     nonloc. stress (kbar)      8.38      0.00      0.00
                                0.00      6.34      0.00
                                0.00      0.00      6.34

     hartree stress (kbar)      8.68      0.00      0.00
                                0.00      6.43     -0.00
                                0.00     -0.00      6.43

     exc-cor stress (kbar)     -2.45     -0.00     -0.00
                               -0.00     -2.48     -0.00
                               -0.00     -0.00     -2.48

     corecor stress (kbar)      0.00      0.00      0.00
                                0.00      0.00      0.00
                                0.00      0.00      0.00

     ewald   stress (kbar)      7.68     -0.00     -0.00
                               -0.00     -1.71     -0.00
                               -0.00     -0.00     -1.71

     hubbard stress (kbar)      0.00      0.00      0.00
                                0.00      0.00      0.00
                                0.00      0.00      0.00

     london  stress (kbar)      0.00      0.00      0.00
                                0.00      0.00      0.00
                                0.00      0.00      0.00

     DFT-D3  stress (kbar)      0.00      0.00      0.00
                                0.00      0.00      0.00
                                0.00      0.00      0.00

     XDM     stress (kbar)      0.00      0.00      0.00
                                0.00      0.00      0.00
                                0.00      0.00      0.00

     dft-nl  stress (kbar)      0.00      0.00      0.00
                                0.00      0.00      0.00
                                0.00      0.00      0.00

     TS-vdW  stress (kbar)      0.00      0.00      0.00
                                0.00      0.00      0.00
                                0.00      0.00      0.00



     Writing output data file SiH19.save

     init_run     :      3.43s CPU      3.58s WALL (       1 calls)
     electrons    :     70.50s CPU     73.68s WALL (       1 calls)
     forces       :      0.47s CPU      0.47s WALL (       1 calls)
     stress       :      1.86s CPU      1.95s WALL (       1 calls)

     Called by init_run:
     wfcinit      :      1.59s CPU      1.60s WALL (       1 calls)
     wfcinit:atom :      0.03s CPU      0.03s WALL (       6 calls)
     wfcinit:wfcr :      1.48s CPU      1.49s WALL (       6 calls)
     potinit      :      0.64s CPU      0.69s WALL (       1 calls)

     Called by electrons:
     c_bands      :     55.20s CPU     55.79s WALL (      11 calls)
     sum_band     :      9.86s CPU      9.88s WALL (      11 calls)
     v_of_rho     :      4.48s CPU      4.53s WALL (      12 calls)
     v_h          :      0.43s CPU      0.44s WALL (      12 calls)
     v_xc         :      4.06s CPU      4.09s WALL (      12 calls)
     mix_rho      :      1.10s CPU      1.19s WALL (      11 calls)

     Called by c_bands:
     init_us_2    :      0.87s CPU      0.88s WALL (     150 calls)
     cegterg      :     54.53s CPU     54.67s WALL (      66 calls)

     Called by sum_band:

     Called by *egterg:
     h_psi        :     52.11s CPU     52.23s WALL (     397 calls)
     g_psi        :      0.22s CPU      0.22s WALL (     325 calls)
     cdiaghg      :      0.06s CPU      0.06s WALL (     391 calls)
     cegterg:over :      1.36s CPU      1.37s WALL (     325 calls)
     cegterg:upda :      1.14s CPU      1.15s WALL (     325 calls)
     cegterg:last :      0.34s CPU      0.35s WALL (      79 calls)

     Called by h_psi:
     h_psi:pot    :     51.86s CPU     51.97s WALL (     397 calls)
     h_psi:calbec :      0.36s CPU      0.37s WALL (     397 calls)
     vloc_psi     :     51.27s CPU     51.38s WALL (     397 calls)
     add_vuspsi   :      0.22s CPU      0.22s WALL (     397 calls)

     General routines
     calbec       :      0.40s CPU      0.41s WALL (     427 calls)
     fft          :      3.90s CPU      3.93s WALL (     139 calls)
     fftw         :     52.20s CPU     52.30s WALL (    3482 calls)

     Parallel routines
     fft_scatt_xy :      8.57s CPU      8.58s WALL (    3621 calls)
     fft_scatt_yz :      9.87s CPU      9.91s WALL (    3621 calls)

     PWSCF        :  1m16.73s CPU     1m21.43s WALL


   This run was terminated on:   8:20:14   1Oct2020            

=------------------------------------------------------------------------------=
   JOB DONE.
=------------------------------------------------------------------------------=
