
     Program PWSCF v.6.2 (svn rev. 14038) starts on  1Oct2020 at  7:39: 6 

     This program is part of the open-source Quantum ESPRESSO suite
     for quantum simulation of materials; please cite
         "P. Giannozzi et al., J. Phys.:Condens. Matter 21 395502 (2009);
         "P. Giannozzi et al., J. Phys.:Condens. Matter 29 465901 (2017);
          URL http://www.quantum-espresso.org", 
     in publications or presentations arising from this work. More details at
     http://www.quantum-espresso.org/quote

     Parallel version (MPI), running on     8 processors

     MPI processes distributed on     1 nodes
     R & G space division:  proc/nbgrp/npool/nimage =       8
     Waiting for input...
     Reading input from standard input

     Current dimensions of program PWSCF are:
     Max number of different atomic species (ntypx) = 10
     Max number of k-points (npk) =  40000
     Max angular momentum in pseudopotentials (lmaxx) =  3

     Subspace diagonalization in iterative solution of the eigenvalue problem:
     a serial algorithm will be used


     Parallelization info
     --------------------
     sticks:   dense  smooth     PW     G-vecs:    dense   smooth      PW
     Min        2386    2386    623               248152   248152   33108
     Max        2387    2387    625               248157   248157   33111
     Sum       19089   19089   4989              1985227  1985227  264875



     bravais-lattice index     =            1
     lattice parameter (alat)  =      37.7945  a.u.
     unit-cell volume          =   53986.6767 (a.u.)^3
     number of atoms/cell      =            2
     number of atomic types    =            2
     number of electrons       =         5.00
     number of Kohn-Sham states=            7
     kinetic-energy cutoff     =      42.0000  Ry
     charge density cutoff     =     168.0000  Ry
     convergence threshold     =      1.0E-08
     mixing beta               =       0.3000
     number of iterations used =            8  plain     mixing
     Exchange-correlation      = SLA-PW-PBX-PBC ( 1  4  3  4 0 0)

     celldm(1)=  37.794523  celldm(2)=   0.000000  celldm(3)=   0.000000
     celldm(4)=   0.000000  celldm(5)=   0.000000  celldm(6)=   0.000000

     crystal axes: (cart. coord. in units of alat)
               a(1) = (   1.000000   0.000000   0.000000 )  
               a(2) = (   0.000000   1.000000   0.000000 )  
               a(3) = (   0.000000   0.000000   1.000000 )  

     reciprocal axes: (cart. coord. in units 2 pi/alat)
               b(1) = (  1.000000  0.000000  0.000000 )  
               b(2) = (  0.000000  1.000000  0.000000 )  
               b(3) = (  0.000000  0.000000  1.000000 )  


     PseudoPot. # 1 for Si read from file:
     ./Si.pbe-hgh.UPF
     MD5 check sum: 9a9f0f6e09139bfdb36b03ff6bc35900
     Pseudo is Norm-conserving, Zval =  4.0
     Generated in analytical, separable form
     Using radial grid of 1141 points,  3 beta functions with: 
                l(1) =   0
                l(2) =   0
                l(3) =   1

     PseudoPot. # 2 for H  read from file:
     ./H.pbe-hgh.UPF
     MD5 check sum: 5f350582108a937bec95f27f5610ab08
     Pseudo is Norm-conserving, Zval =  1.0
     Generated in analytical, separable form
     Using radial grid of  929 points,  0 beta functions with: 

     atomic species   valence    mass     pseudopotential
        Si             4.00    28.08000     Si( 1.00)
        H              1.00     1.00784     H ( 1.00)

      8 Sym. Ops. (no inversion) found


                                    s                        frac. trans.

      isym =  1     identity                                     

 cryst.   s( 1) = (     1          0          0      )
                  (     0          1          0      )
                  (     0          0          1      )

 cart.    s( 1) = (  1.0000000  0.0000000  0.0000000 )
                  (  0.0000000  1.0000000  0.0000000 )
                  (  0.0000000  0.0000000  1.0000000 )


      isym =  2     180 deg rotation - cart. axis [1,0,0]        

 cryst.   s( 2) = (     1          0          0      )
                  (     0         -1          0      )
                  (     0          0         -1      )

 cart.    s( 2) = (  1.0000000  0.0000000  0.0000000 )
                  (  0.0000000 -1.0000000  0.0000000 )
                  (  0.0000000  0.0000000 -1.0000000 )


      isym =  3      90 deg rotation - cart. axis [-1,0,0]       

 cryst.   s( 3) = (     1          0          0      )
                  (     0          0         -1      )
                  (     0          1          0      )

 cart.    s( 3) = (  1.0000000  0.0000000  0.0000000 )
                  (  0.0000000  0.0000000  1.0000000 )
                  (  0.0000000 -1.0000000  0.0000000 )


      isym =  4      90 deg rotation - cart. axis [1,0,0]        

 cryst.   s( 4) = (     1          0          0      )
                  (     0          0          1      )
                  (     0         -1          0      )

 cart.    s( 4) = (  1.0000000  0.0000000  0.0000000 )
                  (  0.0000000  0.0000000 -1.0000000 )
                  (  0.0000000  1.0000000  0.0000000 )


      isym =  5     inv. 180 deg rotation - cart. axis [0,0,1]   

 cryst.   s( 5) = (     1          0          0      )
                  (     0          1          0      )
                  (     0          0         -1      )

 cart.    s( 5) = (  1.0000000  0.0000000  0.0000000 )
                  (  0.0000000  1.0000000  0.0000000 )
                  (  0.0000000  0.0000000 -1.0000000 )


      isym =  6     inv. 180 deg rotation - cart. axis [0,1,0]   

 cryst.   s( 6) = (     1          0          0      )
                  (     0         -1          0      )
                  (     0          0          1      )

 cart.    s( 6) = (  1.0000000  0.0000000  0.0000000 )
                  (  0.0000000 -1.0000000  0.0000000 )
                  (  0.0000000  0.0000000  1.0000000 )


      isym =  7     inv. 180 deg rotation - cart. axis [0,1,1]   

 cryst.   s( 7) = (     1          0          0      )
                  (     0          0         -1      )
                  (     0         -1          0      )

 cart.    s( 7) = (  1.0000000  0.0000000  0.0000000 )
                  (  0.0000000  0.0000000 -1.0000000 )
                  (  0.0000000 -1.0000000  0.0000000 )


      isym =  8     inv. 180 deg rotation - cart. axis [0,1,-1]  

 cryst.   s( 8) = (     1          0          0      )
                  (     0          0          1      )
                  (     0          1          0      )

 cart.    s( 8) = (  1.0000000  0.0000000  0.0000000 )
                  (  0.0000000  0.0000000  1.0000000 )
                  (  0.0000000  1.0000000  0.0000000 )


     point group C_4v (4mm) 
     there are  5 classes
     the character table:

       E     2C4   C2    2s_v  2s_d 
A_1    1.00  1.00  1.00  1.00  1.00
A_2    1.00  1.00  1.00 -1.00 -1.00
B_1    1.00 -1.00  1.00  1.00 -1.00
B_2    1.00 -1.00  1.00 -1.00  1.00
E      2.00  0.00 -2.00  0.00  0.00

     the symmetry operations in each class and the name of the first element:

     E        1
          identity                                               
     2C4      3    4
           90 deg rotation - cart. axis [-1,0,0]                 
     C2       2
          180 deg rotation - cart. axis [1,0,0]                  
     2s_v     5    6
          inv. 180 deg rotation - cart. axis [0,0,1]             
     2s_d     7    8
          inv. 180 deg rotation - cart. axis [0,1,1]             

   Cartesian axes

     site n.     atom                  positions (alat units)
         1           Si  tau(   1) = (   0.0000000   0.0000000   0.0000000  )
         2           H   tau(   2) = (   0.0610000   0.0000000   0.0000000  )

   Crystallographic axes

     site n.     atom                  positions (cryst. coord.)
         1           Si  tau(   1) = (  0.0000000  0.0000000  0.0000000  )
         2           H   tau(   2) = (  0.0610000  0.0000000  0.0000000  )

     number of k points=     6  Marzari-Vanderbilt smearing, width (Ry)=  0.0500
                       cart. coord. in units 2pi/alat
        k(    1) = (   0.0000000   0.0000000   0.0000000), wk =   0.2500000
        k(    2) = (   0.0000000   0.0000000  -0.5000000), wk =   0.5000000
        k(    3) = (   0.0000000  -0.5000000  -0.5000000), wk =   0.2500000
        k(    4) = (  -0.5000000  -0.5000000  -0.5000000), wk =   0.2500000
        k(    5) = (  -0.5000000   0.0000000   0.0000000), wk =   0.2500000
        k(    6) = (  -0.5000000   0.5000000   0.0000000), wk =   0.5000000

                       cryst. coord.
        k(    1) = (   0.0000000   0.0000000   0.0000000), wk =   0.2500000
        k(    2) = (   0.0000000   0.0000000  -0.5000000), wk =   0.5000000
        k(    3) = (   0.0000000  -0.5000000  -0.5000000), wk =   0.2500000
        k(    4) = (  -0.5000000  -0.5000000  -0.5000000), wk =   0.2500000
        k(    5) = (  -0.5000000   0.0000000   0.0000000), wk =   0.2500000
        k(    6) = (  -0.5000000   0.5000000   0.0000000), wk =   0.5000000

     Dense  grid:  1985227 G-vectors     FFT dimensions: ( 160, 160, 160)

     Dynamical RAM for                 wfc:       3.31 MB

     Dynamical RAM for     wfc (w. buffer):      23.19 MB

     Dynamical RAM for           str. fact:       7.57 MB

     Dynamical RAM for           local pot:       0.00 MB

     Dynamical RAM for          nlocal pot:       2.37 MB

     Dynamical RAM for                qrad:       2.14 MB

     Dynamical RAM for          rho,v,vnew:      23.08 MB

     Dynamical RAM for               rhoin:       7.69 MB

     Dynamical RAM for            rho*nmix:      60.58 MB

     Dynamical RAM for           G-vectors:      16.09 MB

     Dynamical RAM for          h,s,v(r/c):       0.04 MB

     Dynamical RAM for          <psi|beta>:       0.00 MB

     Dynamical RAM for                 psi:      13.25 MB

     Dynamical RAM for                hpsi:      13.25 MB

     Dynamical RAM for      wfcinit/wfcrot:       6.63 MB

     Estimated static dynamical RAM per process >     173.61 MB

     Estimated max dynamical RAM per process >     200.15 MB

     Estimated total dynamical RAM >       1.56 GB

     Initial potential from superposition of free atoms
     Check: negative starting charge=   -0.012395

     starting charge    4.99943, renormalised to    5.00000

     negative rho (up, down):  1.240E-02 0.000E+00
     Starting wfc are    5 randomized atomic wfcs +    2 random wfc

     total cpu time spent up to now is        3.5 secs

     Self-consistent Calculation

     iteration #  1     ecut=    42.00 Ry     beta= 0.30
     Davidson diagonalization with overlap
     ethr =  1.00E-02,  avg # of iterations =  5.8

     negative rho (up, down):  8.587E-03 0.000E+00

     total cpu time spent up to now is       10.3 secs

     total energy              =      -8.69505347 Ry
     Harris-Foulkes estimate   =      -8.74270440 Ry
     estimated scf accuracy    <       0.17470283 Ry

     iteration #  2     ecut=    42.00 Ry     beta= 0.30
     Davidson diagonalization with overlap
     ethr =  3.49E-03,  avg # of iterations =  1.0

     negative rho (up, down):  2.047E-03 0.000E+00

     total cpu time spent up to now is       14.3 secs

     total energy              =      -8.66571079 Ry
     Harris-Foulkes estimate   =      -8.69970353 Ry
     estimated scf accuracy    <       0.06375500 Ry

     iteration #  3     ecut=    42.00 Ry     beta= 0.30
     Davidson diagonalization with overlap
     ethr =  1.28E-03,  avg # of iterations =  3.8

     negative rho (up, down):  1.759E-03 0.000E+00

     total cpu time spent up to now is       19.2 secs

     total energy              =      -8.67494355 Ry
     Harris-Foulkes estimate   =      -8.67545411 Ry
     estimated scf accuracy    <       0.00160947 Ry

     iteration #  4     ecut=    42.00 Ry     beta= 0.30
     Davidson diagonalization with overlap
     ethr =  3.22E-05,  avg # of iterations = 13.8

     negative rho (up, down):  3.492E-04 0.000E+00

     total cpu time spent up to now is       29.2 secs

     total energy              =      -8.67490380 Ry
     Harris-Foulkes estimate   =      -8.67511459 Ry
     estimated scf accuracy    <       0.00064532 Ry

     iteration #  5     ecut=    42.00 Ry     beta= 0.30
     Davidson diagonalization with overlap
     ethr =  1.29E-05,  avg # of iterations =  6.2

     negative rho (up, down):  3.069E-04 0.000E+00

     total cpu time spent up to now is       34.8 secs

     total energy              =      -8.67501467 Ry
     Harris-Foulkes estimate   =      -8.67501998 Ry
     estimated scf accuracy    <       0.00003213 Ry

     iteration #  6     ecut=    42.00 Ry     beta= 0.30
     Davidson diagonalization with overlap
     c_bands:  1 eigenvalues not converged
     ethr =  6.43E-07,  avg # of iterations =  9.3

     negative rho (up, down):  2.448E-06 0.000E+00

     total cpu time spent up to now is       42.2 secs

     total energy              =      -8.67501219 Ry
     Harris-Foulkes estimate   =      -8.67501694 Ry
     estimated scf accuracy    <       0.00001808 Ry

     iteration #  7     ecut=    42.00 Ry     beta= 0.30
     Davidson diagonalization with overlap
     ethr =  3.62E-07,  avg # of iterations =  8.7

     negative rho (up, down):  4.695E-06 0.000E+00

     total cpu time spent up to now is       49.2 secs

     total energy              =      -8.67501652 Ry
     Harris-Foulkes estimate   =      -8.67501677 Ry
     estimated scf accuracy    <       0.00000183 Ry

     iteration #  8     ecut=    42.00 Ry     beta= 0.30
     Davidson diagonalization with overlap
     ethr =  3.66E-08,  avg # of iterations =  1.0

     total cpu time spent up to now is       53.4 secs

     total energy              =      -8.67501619 Ry
     Harris-Foulkes estimate   =      -8.67501659 Ry
     estimated scf accuracy    <       0.00000109 Ry

     iteration #  9     ecut=    42.00 Ry     beta= 0.30
     Davidson diagonalization with overlap
     ethr =  2.19E-08,  avg # of iterations =  2.0

     negative rho (up, down):  2.969E-07 0.000E+00

     total cpu time spent up to now is       58.0 secs

     total energy              =      -8.67501646 Ry
     Harris-Foulkes estimate   =      -8.67501643 Ry
     estimated scf accuracy    <       0.00000003 Ry

     iteration # 10     ecut=    42.00 Ry     beta= 0.30
     Davidson diagonalization with overlap
     ethr =  6.79E-10,  avg # of iterations =  2.0

     negative rho (up, down):  1.909E-07 0.000E+00

     total cpu time spent up to now is       62.5 secs

     total energy              =      -8.67501647 Ry
     Harris-Foulkes estimate   =      -8.67501647 Ry
     estimated scf accuracy    <       0.00000003 Ry

     iteration # 11     ecut=    42.00 Ry     beta= 0.30
     Davidson diagonalization with overlap
     ethr =  5.03E-10,  avg # of iterations =  1.0

     negative rho (up, down):  8.253E-08 0.000E+00

     total cpu time spent up to now is       66.5 secs

     total energy              =      -8.67501644 Ry
     Harris-Foulkes estimate   =      -8.67501647 Ry
     estimated scf accuracy    <       0.00000002 Ry

     iteration # 12     ecut=    42.00 Ry     beta= 0.30
     Davidson diagonalization with overlap
     ethr =  4.94E-10,  avg # of iterations =  2.0

     total cpu time spent up to now is       71.0 secs

     End of self-consistent calculation

          k = 0.0000 0.0000 0.0000 (248049 PWs)   bands (ev):

   -12.9320  -6.6104  -3.9740  -3.9740  -0.3522   0.1146   0.2536

     occupation numbers 
     1.0000   1.0001   0.2500   0.2500   0.0000   0.0000   0.0000

          k = 0.0000 0.0000-0.5000 (247982 PWs)   bands (ev):

   -12.9320  -6.6104  -3.9740  -3.9740  -0.3443   0.0756   0.2197

     occupation numbers 
     1.0000   1.0001   0.2500   0.2500   0.0000   0.0000   0.0000

          k = 0.0000-0.5000-0.5000 (248312 PWs)   bands (ev):

   -12.9320  -6.6105  -3.9740  -3.9740  -0.3375   0.1422   0.1422

     occupation numbers 
     1.0000   1.0001   0.2500   0.2500   0.0000   0.0000   0.0000

          k =-0.5000-0.5000-0.5000 (248296 PWs)   bands (ev):

   -12.9320  -6.6105  -3.9740  -3.9740  -0.3330   0.1821   0.1955

     occupation numbers 
     1.0000   1.0001   0.2500   0.2500   0.0000   0.0000   0.0000

          k =-0.5000 0.0000 0.0000 (247982 PWs)   bands (ev):

   -12.9319  -6.6104  -3.9740  -3.9740  -0.3458   0.0734   0.2358

     occupation numbers 
     1.0000   1.0001   0.2500   0.2500   0.0000   0.0000   0.0000

          k =-0.5000 0.5000 0.0000 (248312 PWs)   bands (ev):

   -12.9320  -6.6105  -3.9740  -3.9740  -0.3390   0.1343   0.1395

     occupation numbers 
     1.0000   1.0001   0.2500   0.2500   0.0000   0.0000   0.0000

     the Fermi energy is    -4.1410 ev

!    total energy              =      -8.67501644 Ry
     Harris-Foulkes estimate   =      -8.67501644 Ry
     estimated scf accuracy    <          1.1E-09 Ry

     The total energy is the sum of the following terms:

     one-electron contribution =     -15.25027040 Ry
     hartree contribution      =       7.91923308 Ry
     xc contribution           =      -2.90821017 Ry
     ewald contribution        =       1.59488171 Ry
     smearing contrib. (-TS)   =      -0.03065066 Ry

     convergence has been achieved in  12 iterations

     Forces acting on atoms (cartesian axes, Ry/au):

     atom    1 type  1   force =    -0.36985608    0.00000000    0.00000000
     atom    2 type  2   force =     0.36985608    0.00000000    0.00000000
     The non-local contrib.  to forces
     atom    1 type  1   force =    -0.31178071    0.00000000    0.00000000
     atom    2 type  2   force =     0.00000000    0.00000000    0.00000000
     The ionic contribution  to forces
     atom    1 type  1   force =    -1.50367821   -0.00000000   -0.00000000
     atom    2 type  2   force =     1.50367821    0.00000000   -0.00000000
     The local contribution  to forces
     atom    1 type  1   force =     1.44563037    0.00000000   -0.00000000
     atom    2 type  2   force =    -1.13382567   -0.00000000   -0.00000000
     The core correction contribution to forces
     atom    1 type  1   force =     0.00000000    0.00000000    0.00000000
     atom    2 type  2   force =     0.00000000    0.00000000    0.00000000
     The Hubbard contrib.    to forces
     atom    1 type  1   force =     0.00000000    0.00000000    0.00000000
     atom    2 type  2   force =     0.00000000    0.00000000    0.00000000
     The SCF correction term to forces
     atom    1 type  1   force =    -0.00002836    0.00000000   -0.00000000
     atom    2 type  2   force =     0.00000272    0.00000000    0.00000000

     Total force =     0.523055     Total SCF correction =     0.000028


     Computing stress (Cartesian axis) and pressure

          total   stress  (Ry/bohr**3)                   (kbar)     P=    0.73
   0.00001552   0.00000000   0.00000000          2.28      0.00      0.00
   0.00000000  -0.00000031   0.00000000          0.00     -0.05      0.00
   0.00000000   0.00000000  -0.00000031          0.00      0.00     -0.05

     kinetic stress (kbar)      8.61      0.00      0.00
                                0.00      7.45      0.00
                                0.00      0.00      7.45

     local   stress (kbar)    -28.75     -0.00     -0.00
                               -0.00    -16.10      0.00
                               -0.00      0.00    -16.10

     nonloc. stress (kbar)      8.44      0.00      0.00
                                0.00      6.34      0.00
                                0.00      0.00      6.34

     hartree stress (kbar)      8.68      0.00      0.00
                                0.00      6.45      0.00
                                0.00      0.00      6.45

     exc-cor stress (kbar)     -2.46     -0.00      0.00
                               -0.00     -2.48      0.00
                                0.00      0.00     -2.48

     corecor stress (kbar)      0.00      0.00      0.00
                                0.00      0.00      0.00
                                0.00      0.00      0.00

     ewald   stress (kbar)      7.76     -0.00     -0.00
                               -0.00     -1.71     -0.00
                               -0.00     -0.00     -1.71

     hubbard stress (kbar)      0.00      0.00      0.00
                                0.00      0.00      0.00
                                0.00      0.00      0.00

     london  stress (kbar)      0.00      0.00      0.00
                                0.00      0.00      0.00
                                0.00      0.00      0.00

     DFT-D3  stress (kbar)      0.00      0.00      0.00
                                0.00      0.00      0.00
                                0.00      0.00      0.00

     XDM     stress (kbar)      0.00      0.00      0.00
                                0.00      0.00      0.00
                                0.00      0.00      0.00

     dft-nl  stress (kbar)      0.00      0.00      0.00
                                0.00      0.00      0.00
                                0.00      0.00      0.00

     TS-vdW  stress (kbar)      0.00      0.00      0.00
                                0.00      0.00      0.00
                                0.00      0.00      0.00



     Writing output data file SiH18.save

     init_run     :      3.11s CPU      3.26s WALL (       1 calls)
     electrons    :     66.95s CPU     68.76s WALL (       1 calls)
     forces       :      0.48s CPU      0.49s WALL (       1 calls)
     stress       :      1.84s CPU      1.94s WALL (       1 calls)

     Called by init_run:
     wfcinit      :      1.39s CPU      1.41s WALL (       1 calls)
     wfcinit:atom :      0.03s CPU      0.03s WALL (       6 calls)
     wfcinit:wfcr :      1.29s CPU      1.31s WALL (       6 calls)
     potinit      :      0.60s CPU      0.65s WALL (       1 calls)

     Called by electrons:
     c_bands      :     52.12s CPU     52.31s WALL (      12 calls)
     sum_band     :      9.52s CPU      9.56s WALL (      12 calls)
     v_of_rho     :      4.41s CPU      4.46s WALL (      13 calls)
     v_h          :      0.41s CPU      0.42s WALL (      13 calls)
     v_xc         :      4.00s CPU      4.04s WALL (      13 calls)
     mix_rho      :      1.02s CPU      1.12s WALL (      12 calls)

     Called by c_bands:
     init_us_2    :      0.96s CPU      0.97s WALL (     162 calls)
     cegterg      :     51.44s CPU     51.58s WALL (      72 calls)

     Called by sum_band:

     Called by *egterg:
     h_psi        :     48.90s CPU     49.01s WALL (     418 calls)
     g_psi        :      0.23s CPU      0.23s WALL (     340 calls)
     cdiaghg      :      0.06s CPU      0.07s WALL (     412 calls)
     cegterg:over :      1.33s CPU      1.33s WALL (     340 calls)
     cegterg:upda :      1.13s CPU      1.14s WALL (     340 calls)
     cegterg:last :      0.35s CPU      0.35s WALL (      86 calls)

     Called by h_psi:
     h_psi:pot    :     48.66s CPU     48.78s WALL (     418 calls)
     h_psi:calbec :      0.41s CPU      0.41s WALL (     418 calls)
     vloc_psi     :     48.02s CPU     48.13s WALL (     418 calls)
     add_vuspsi   :      0.23s CPU      0.23s WALL (     418 calls)

     General routines
     calbec       :      0.45s CPU      0.46s WALL (     448 calls)
     fft          :      3.75s CPU      3.78s WALL (     150 calls)
     fftw         :     49.63s CPU     49.74s WALL (    3752 calls)

     Parallel routines
     fft_scatt_xy :      7.26s CPU      7.27s WALL (    3902 calls)
     fft_scatt_yz :     10.29s CPU     10.32s WALL (    3902 calls)

     PWSCF        :  1m12.89s CPU     1m18.30s WALL


   This run was terminated on:   7:40:24   1Oct2020            

=------------------------------------------------------------------------------=
   JOB DONE.
=------------------------------------------------------------------------------=
