
     Program PWSCF v.6.2 (svn rev. 14038) starts on  1Oct2020 at  8: 6:53 

     This program is part of the open-source Quantum ESPRESSO suite
     for quantum simulation of materials; please cite
         "P. Giannozzi et al., J. Phys.:Condens. Matter 21 395502 (2009);
         "P. Giannozzi et al., J. Phys.:Condens. Matter 29 465901 (2017);
          URL http://www.quantum-espresso.org", 
     in publications or presentations arising from this work. More details at
     http://www.quantum-espresso.org/quote

     Parallel version (MPI), running on     8 processors

     MPI processes distributed on     1 nodes
     R & G space division:  proc/nbgrp/npool/nimage =       8
     Waiting for input...
     Reading input from standard input

     Current dimensions of program PWSCF are:
     Max number of different atomic species (ntypx) = 10
     Max number of k-points (npk) =  40000
     Max angular momentum in pseudopotentials (lmaxx) =  3

     Subspace diagonalization in iterative solution of the eigenvalue problem:
     a serial algorithm will be used


     Parallelization info
     --------------------
     sticks:   dense  smooth     PW     G-vecs:    dense   smooth      PW
     Min        2386    2386    623               248152   248152   33108
     Max        2387    2387    625               248157   248157   33111
     Sum       19089   19089   4989              1985227  1985227  264875



     bravais-lattice index     =            1
     lattice parameter (alat)  =      37.7945  a.u.
     unit-cell volume          =   53986.6767 (a.u.)^3
     number of atoms/cell      =            2
     number of atomic types    =            2
     number of electrons       =         5.00
     number of Kohn-Sham states=            7
     kinetic-energy cutoff     =      42.0000  Ry
     charge density cutoff     =     168.0000  Ry
     convergence threshold     =      1.0E-08
     mixing beta               =       0.3000
     number of iterations used =            8  plain     mixing
     Exchange-correlation      = SLA-PW-PBX-PBC ( 1  4  3  4 0 0)

     celldm(1)=  37.794523  celldm(2)=   0.000000  celldm(3)=   0.000000
     celldm(4)=   0.000000  celldm(5)=   0.000000  celldm(6)=   0.000000

     crystal axes: (cart. coord. in units of alat)
               a(1) = (   1.000000   0.000000   0.000000 )  
               a(2) = (   0.000000   1.000000   0.000000 )  
               a(3) = (   0.000000   0.000000   1.000000 )  

     reciprocal axes: (cart. coord. in units 2 pi/alat)
               b(1) = (  1.000000  0.000000  0.000000 )  
               b(2) = (  0.000000  1.000000  0.000000 )  
               b(3) = (  0.000000  0.000000  1.000000 )  


     PseudoPot. # 1 for Si read from file:
     ./Si.pbe-hgh.UPF
     MD5 check sum: 9a9f0f6e09139bfdb36b03ff6bc35900
     Pseudo is Norm-conserving, Zval =  4.0
     Generated in analytical, separable form
     Using radial grid of 1141 points,  3 beta functions with: 
                l(1) =   0
                l(2) =   0
                l(3) =   1

     PseudoPot. # 2 for H  read from file:
     ./H.pbe-hgh.UPF
     MD5 check sum: 5f350582108a937bec95f27f5610ab08
     Pseudo is Norm-conserving, Zval =  1.0
     Generated in analytical, separable form
     Using radial grid of  929 points,  0 beta functions with: 

     atomic species   valence    mass     pseudopotential
        Si             4.00    28.08000     Si( 1.00)
        H              1.00     1.00784     H ( 1.00)

      8 Sym. Ops. (no inversion) found


                                    s                        frac. trans.

      isym =  1     identity                                     

 cryst.   s( 1) = (     1          0          0      )
                  (     0          1          0      )
                  (     0          0          1      )

 cart.    s( 1) = (  1.0000000  0.0000000  0.0000000 )
                  (  0.0000000  1.0000000  0.0000000 )
                  (  0.0000000  0.0000000  1.0000000 )


      isym =  2     180 deg rotation - cart. axis [1,0,0]        

 cryst.   s( 2) = (     1          0          0      )
                  (     0         -1          0      )
                  (     0          0         -1      )

 cart.    s( 2) = (  1.0000000  0.0000000  0.0000000 )
                  (  0.0000000 -1.0000000  0.0000000 )
                  (  0.0000000  0.0000000 -1.0000000 )


      isym =  3      90 deg rotation - cart. axis [-1,0,0]       

 cryst.   s( 3) = (     1          0          0      )
                  (     0          0         -1      )
                  (     0          1          0      )

 cart.    s( 3) = (  1.0000000  0.0000000  0.0000000 )
                  (  0.0000000  0.0000000  1.0000000 )
                  (  0.0000000 -1.0000000  0.0000000 )


      isym =  4      90 deg rotation - cart. axis [1,0,0]        

 cryst.   s( 4) = (     1          0          0      )
                  (     0          0          1      )
                  (     0         -1          0      )

 cart.    s( 4) = (  1.0000000  0.0000000  0.0000000 )
                  (  0.0000000  0.0000000 -1.0000000 )
                  (  0.0000000  1.0000000  0.0000000 )


      isym =  5     inv. 180 deg rotation - cart. axis [0,0,1]   

 cryst.   s( 5) = (     1          0          0      )
                  (     0          1          0      )
                  (     0          0         -1      )

 cart.    s( 5) = (  1.0000000  0.0000000  0.0000000 )
                  (  0.0000000  1.0000000  0.0000000 )
                  (  0.0000000  0.0000000 -1.0000000 )


      isym =  6     inv. 180 deg rotation - cart. axis [0,1,0]   

 cryst.   s( 6) = (     1          0          0      )
                  (     0         -1          0      )
                  (     0          0          1      )

 cart.    s( 6) = (  1.0000000  0.0000000  0.0000000 )
                  (  0.0000000 -1.0000000  0.0000000 )
                  (  0.0000000  0.0000000  1.0000000 )


      isym =  7     inv. 180 deg rotation - cart. axis [0,1,1]   

 cryst.   s( 7) = (     1          0          0      )
                  (     0          0         -1      )
                  (     0         -1          0      )

 cart.    s( 7) = (  1.0000000  0.0000000  0.0000000 )
                  (  0.0000000  0.0000000 -1.0000000 )
                  (  0.0000000 -1.0000000  0.0000000 )


      isym =  8     inv. 180 deg rotation - cart. axis [0,1,-1]  

 cryst.   s( 8) = (     1          0          0      )
                  (     0          0          1      )
                  (     0          1          0      )

 cart.    s( 8) = (  1.0000000  0.0000000  0.0000000 )
                  (  0.0000000  0.0000000  1.0000000 )
                  (  0.0000000  1.0000000  0.0000000 )


     point group C_4v (4mm) 
     there are  5 classes
     the character table:

       E     2C4   C2    2s_v  2s_d 
A_1    1.00  1.00  1.00  1.00  1.00
A_2    1.00  1.00  1.00 -1.00 -1.00
B_1    1.00 -1.00  1.00  1.00 -1.00
B_2    1.00 -1.00  1.00 -1.00  1.00
E      2.00  0.00 -2.00  0.00  0.00

     the symmetry operations in each class and the name of the first element:

     E        1
          identity                                               
     2C4      3    4
           90 deg rotation - cart. axis [-1,0,0]                 
     C2       2
          180 deg rotation - cart. axis [1,0,0]                  
     2s_v     5    6
          inv. 180 deg rotation - cart. axis [0,0,1]             
     2s_d     7    8
          inv. 180 deg rotation - cart. axis [0,1,1]             

   Cartesian axes

     site n.     atom                  positions (alat units)
         1           Si  tau(   1) = (   0.0000000   0.0000000   0.0000000  )
         2           H   tau(   2) = (   0.0555000   0.0000000   0.0000000  )

   Crystallographic axes

     site n.     atom                  positions (cryst. coord.)
         1           Si  tau(   1) = (  0.0000000  0.0000000  0.0000000  )
         2           H   tau(   2) = (  0.0555000  0.0000000  0.0000000  )

     number of k points=     6  Marzari-Vanderbilt smearing, width (Ry)=  0.0500
                       cart. coord. in units 2pi/alat
        k(    1) = (   0.0000000   0.0000000   0.0000000), wk =   0.2500000
        k(    2) = (   0.0000000   0.0000000  -0.5000000), wk =   0.5000000
        k(    3) = (   0.0000000  -0.5000000  -0.5000000), wk =   0.2500000
        k(    4) = (  -0.5000000  -0.5000000  -0.5000000), wk =   0.2500000
        k(    5) = (  -0.5000000   0.0000000   0.0000000), wk =   0.2500000
        k(    6) = (  -0.5000000   0.5000000   0.0000000), wk =   0.5000000

                       cryst. coord.
        k(    1) = (   0.0000000   0.0000000   0.0000000), wk =   0.2500000
        k(    2) = (   0.0000000   0.0000000  -0.5000000), wk =   0.5000000
        k(    3) = (   0.0000000  -0.5000000  -0.5000000), wk =   0.2500000
        k(    4) = (  -0.5000000  -0.5000000  -0.5000000), wk =   0.2500000
        k(    5) = (  -0.5000000   0.0000000   0.0000000), wk =   0.2500000
        k(    6) = (  -0.5000000   0.5000000   0.0000000), wk =   0.5000000

     Dense  grid:  1985227 G-vectors     FFT dimensions: ( 160, 160, 160)

     Dynamical RAM for                 wfc:       3.31 MB

     Dynamical RAM for     wfc (w. buffer):      23.19 MB

     Dynamical RAM for           str. fact:       7.57 MB

     Dynamical RAM for           local pot:       0.00 MB

     Dynamical RAM for          nlocal pot:       2.37 MB

     Dynamical RAM for                qrad:       2.14 MB

     Dynamical RAM for          rho,v,vnew:      23.08 MB

     Dynamical RAM for               rhoin:       7.69 MB

     Dynamical RAM for            rho*nmix:      60.58 MB

     Dynamical RAM for           G-vectors:      16.09 MB

     Dynamical RAM for          h,s,v(r/c):       0.04 MB

     Dynamical RAM for          <psi|beta>:       0.00 MB

     Dynamical RAM for                 psi:      13.25 MB

     Dynamical RAM for                hpsi:      13.25 MB

     Dynamical RAM for      wfcinit/wfcrot:       6.63 MB

     Estimated static dynamical RAM per process >     173.61 MB

     Estimated max dynamical RAM per process >     200.15 MB

     Estimated total dynamical RAM >       1.56 GB

     Initial potential from superposition of free atoms
     Check: negative starting charge=   -0.012406

     starting charge    4.99943, renormalised to    5.00000

     negative rho (up, down):  1.241E-02 0.000E+00
     Starting wfc are    5 randomized atomic wfcs +    2 random wfc

     total cpu time spent up to now is        3.7 secs

     Self-consistent Calculation

     iteration #  1     ecut=    42.00 Ry     beta= 0.30
     Davidson diagonalization with overlap
     ethr =  1.00E-02,  avg # of iterations =  5.5

     negative rho (up, down):  8.587E-03 0.000E+00

     total cpu time spent up to now is       11.6 secs

     total energy              =      -8.59641123 Ry
     Harris-Foulkes estimate   =      -8.65611511 Ry
     estimated scf accuracy    <       0.21941009 Ry

     iteration #  2     ecut=    42.00 Ry     beta= 0.30
     Davidson diagonalization with overlap
     ethr =  4.39E-03,  avg # of iterations =  1.0

     negative rho (up, down):  1.984E-03 0.000E+00

     total cpu time spent up to now is       16.0 secs

     total energy              =      -8.55809572 Ry
     Harris-Foulkes estimate   =      -8.60211621 Ry
     estimated scf accuracy    <       0.08085566 Ry

     iteration #  3     ecut=    42.00 Ry     beta= 0.30
     Davidson diagonalization with overlap
     ethr =  1.62E-03,  avg # of iterations =  2.0

     negative rho (up, down):  1.935E-03 0.000E+00

     total cpu time spent up to now is       20.9 secs

     total energy              =      -8.57099201 Ry
     Harris-Foulkes estimate   =      -8.57121210 Ry
     estimated scf accuracy    <       0.00223586 Ry

     iteration #  4     ecut=    42.00 Ry     beta= 0.30
     Davidson diagonalization with overlap
     ethr =  4.47E-05,  avg # of iterations = 13.0

     negative rho (up, down):  2.185E-03 0.000E+00

     total cpu time spent up to now is       32.1 secs

     total energy              =      -8.57137559 Ry
     Harris-Foulkes estimate   =      -8.57119674 Ry
     estimated scf accuracy    <       0.00216164 Ry

     iteration #  5     ecut=    42.00 Ry     beta= 0.30
     Davidson diagonalization with overlap
     ethr =  4.32E-05,  avg # of iterations =  1.0

     negative rho (up, down):  3.440E-04 0.000E+00

     total cpu time spent up to now is       36.5 secs

     total energy              =      -8.56991626 Ry
     Harris-Foulkes estimate   =      -8.57138507 Ry
     estimated scf accuracy    <       0.00275681 Ry

     iteration #  6     ecut=    42.00 Ry     beta= 0.30
     Davidson diagonalization with overlap
     ethr =  4.32E-05,  avg # of iterations =  4.2

     negative rho (up, down):  2.864E-04 0.000E+00

     total cpu time spent up to now is       42.8 secs

     total energy              =      -8.57049359 Ry
     Harris-Foulkes estimate   =      -8.57103596 Ry
     estimated scf accuracy    <       0.00149922 Ry

     iteration #  7     ecut=    42.00 Ry     beta= 0.30
     Davidson diagonalization with overlap
     ethr =  3.00E-05,  avg # of iterations =  1.0

     negative rho (up, down):  1.720E-04 0.000E+00

     total cpu time spent up to now is       47.3 secs

     total energy              =      -8.57050715 Ry
     Harris-Foulkes estimate   =      -8.57058658 Ry
     estimated scf accuracy    <       0.00025341 Ry

     iteration #  8     ecut=    42.00 Ry     beta= 0.30
     Davidson diagonalization with overlap
     c_bands:  1 eigenvalues not converged
     ethr =  5.07E-06,  avg # of iterations = 10.2

     negative rho (up, down):  5.591E-08 0.000E+00

     total cpu time spent up to now is       55.3 secs

     total energy              =      -8.57048345 Ry
     Harris-Foulkes estimate   =      -8.57052850 Ry
     estimated scf accuracy    <       0.00005573 Ry

     iteration #  9     ecut=    42.00 Ry     beta= 0.30
     Davidson diagonalization with overlap
     ethr =  1.11E-06,  avg # of iterations =  4.3

     negative rho (up, down):  1.538E-06 0.000E+00

     total cpu time spent up to now is       62.4 secs

     total energy              =      -8.57051065 Ry
     Harris-Foulkes estimate   =      -8.57051863 Ry
     estimated scf accuracy    <       0.00004980 Ry

     iteration # 10     ecut=    42.00 Ry     beta= 0.30
     Davidson diagonalization with overlap
     ethr =  9.96E-07,  avg # of iterations =  1.0

     negative rho (up, down):  5.367E-06 0.000E+00

     total cpu time spent up to now is       66.9 secs

     total energy              =      -8.57050095 Ry
     Harris-Foulkes estimate   =      -8.57051165 Ry
     estimated scf accuracy    <       0.00002233 Ry

     iteration # 11     ecut=    42.00 Ry     beta= 0.30
     Davidson diagonalization with overlap
     ethr =  4.47E-07,  avg # of iterations =  5.8

     total cpu time spent up to now is       74.1 secs

     total energy              =      -8.57050631 Ry
     Harris-Foulkes estimate   =      -8.57051133 Ry
     estimated scf accuracy    <       0.00001033 Ry

     iteration # 12     ecut=    42.00 Ry     beta= 0.30
     Davidson diagonalization with overlap
     ethr =  2.07E-07,  avg # of iterations =  2.0

     negative rho (up, down):  2.965E-07 0.000E+00

     total cpu time spent up to now is       79.3 secs

     total energy              =      -8.57050680 Ry
     Harris-Foulkes estimate   =      -8.57050732 Ry
     estimated scf accuracy    <       0.00000061 Ry

     iteration # 13     ecut=    42.00 Ry     beta= 0.30
     Davidson diagonalization with overlap
     ethr =  1.22E-08,  avg # of iterations =  2.0

     total cpu time spent up to now is       84.7 secs

     End of self-consistent calculation

          k = 0.0000 0.0000 0.0000 (248049 PWs)   bands (ev):

   -13.3748  -6.5530  -3.9729  -3.9729  -0.3663   0.1040   0.2596

     occupation numbers 
     1.0000   1.0001   0.2500   0.2500   0.0000   0.0000   0.0000

          k = 0.0000 0.0000-0.5000 (247982 PWs)   bands (ev):

   -13.3747  -6.5530  -3.9729  -3.9729  -0.3590   0.0731   0.2087

     occupation numbers 
     1.0000   1.0001   0.2500   0.2500   0.0000   0.0000   0.0000

          k = 0.0000-0.5000-0.5000 (248312 PWs)   bands (ev):

   -13.3749  -6.5530  -3.9729  -3.9729  -0.3527   0.1399   0.1407

     occupation numbers 
     1.0000   1.0001   0.2500   0.2500   0.0000   0.0000   0.0000

          k =-0.5000-0.5000-0.5000 (248296 PWs)   bands (ev):

   -13.3748  -6.5530  -3.9729  -3.9729  -0.3489   0.1851   0.1932

     occupation numbers 
     1.0000   1.0001   0.2500   0.2500   0.0000   0.0000   0.0000

          k =-0.5000 0.0000 0.0000 (247982 PWs)   bands (ev):

   -13.3747  -6.5529  -3.9729  -3.9729  -0.3608   0.0725   0.2268

     occupation numbers 
     1.0000   1.0001   0.2500   0.2500   0.0000   0.0000   0.0000

          k =-0.5000 0.5000 0.0000 (248312 PWs)   bands (ev):

   -13.3748  -6.5530  -3.9729  -3.9729  -0.3545   0.1352   0.1374

     occupation numbers 
     1.0000   1.0001   0.2500   0.2500   0.0000   0.0000   0.0000

     the Fermi energy is    -4.1399 ev

!    total energy              =      -8.57050691 Ry
     Harris-Foulkes estimate   =      -8.57050690 Ry
     estimated scf accuracy    <          4.3E-09 Ry

     The total energy is the sum of the following terms:

     one-electron contribution =     -15.63100979 Ry
     hartree contribution      =       8.11801791 Ry
     xc contribution           =      -2.96534820 Ry
     ewald contribution        =       1.93847009 Ry
     smearing contrib. (-TS)   =      -0.03063692 Ry

     convergence has been achieved in  13 iterations

     Forces acting on atoms (cartesian axes, Ry/au):

     atom    1 type  1   force =    -0.65746277    0.00000000    0.00000000
     atom    2 type  2   force =     0.65746277    0.00000000    0.00000000
     The non-local contrib.  to forces
     atom    1 type  1   force =    -0.66535309    0.00000000    0.00000000
     atom    2 type  2   force =     0.00000000    0.00000000    0.00000000
     The ionic contribution  to forces
     atom    1 type  1   force =    -1.81690550   -0.00000000   -0.00000000
     atom    2 type  2   force =     1.81690550    0.00000000   -0.00000000
     The local contribution  to forces
     atom    1 type  1   force =     1.82483893   -0.00000000   -0.00000000
     atom    2 type  2   force =    -1.15946148   -0.00000000   -0.00000000
     The core correction contribution to forces
     atom    1 type  1   force =     0.00000000    0.00000000    0.00000000
     atom    2 type  2   force =     0.00000000    0.00000000    0.00000000
     The Hubbard contrib.    to forces
     atom    1 type  1   force =     0.00000000    0.00000000    0.00000000
     atom    2 type  2   force =     0.00000000    0.00000000    0.00000000
     The SCF correction term to forces
     atom    1 type  1   force =    -0.00005600    0.00000000   -0.00000000
     atom    2 type  2   force =     0.00000586    0.00000000    0.00000000

     Total force =     0.929793     Total SCF correction =     0.000056


     Computing stress (Cartesian axis) and pressure

          total   stress  (Ry/bohr**3)                   (kbar)     P=    1.20
   0.00002522   0.00000000   0.00000000          3.71      0.00      0.00
   0.00000000  -0.00000036   0.00000000          0.00     -0.05      0.00
   0.00000000   0.00000000  -0.00000036          0.00      0.00     -0.05

     kinetic stress (kbar)      9.30      0.00      0.00
                                0.00      7.69      0.00
                                0.00      0.00      7.69

     local   stress (kbar)    -29.71     -0.00     -0.00
                               -0.00    -16.62     -0.00
                               -0.00     -0.00    -16.62

     nonloc. stress (kbar)      9.20      0.00      0.00
                                0.00      6.43      0.00
                                0.00      0.00      6.43

     hartree stress (kbar)      8.74     -0.00      0.00
                               -0.00      6.69      0.00
                                0.00      0.00      6.69

     exc-cor stress (kbar)     -2.51     -0.00     -0.00
                               -0.00     -2.53      0.00
                               -0.00      0.00     -2.53

     corecor stress (kbar)      0.00      0.00      0.00
                                0.00      0.00      0.00
                                0.00      0.00      0.00

     ewald   stress (kbar)      8.70     -0.00     -0.00
                               -0.00     -1.71     -0.00
                               -0.00     -0.00     -1.71

     hubbard stress (kbar)      0.00      0.00      0.00
                                0.00      0.00      0.00
                                0.00      0.00      0.00

     london  stress (kbar)      0.00      0.00      0.00
                                0.00      0.00      0.00
                                0.00      0.00      0.00

     DFT-D3  stress (kbar)      0.00      0.00      0.00
                                0.00      0.00      0.00
                                0.00      0.00      0.00

     XDM     stress (kbar)      0.00      0.00      0.00
                                0.00      0.00      0.00
                                0.00      0.00      0.00

     dft-nl  stress (kbar)      0.00      0.00      0.00
                                0.00      0.00      0.00
                                0.00      0.00      0.00

     TS-vdW  stress (kbar)      0.00      0.00      0.00
                                0.00      0.00      0.00
                                0.00      0.00      0.00



     Writing output data file SiH11.save

     init_run     :      3.43s CPU      3.56s WALL (       1 calls)
     electrons    :     79.46s CPU     81.31s WALL (       1 calls)
     forces       :      0.41s CPU      0.42s WALL (       1 calls)
     stress       :      1.88s CPU      1.97s WALL (       1 calls)

     Called by init_run:
     wfcinit      :      1.58s CPU      1.60s WALL (       1 calls)
     wfcinit:atom :      0.04s CPU      0.04s WALL (       6 calls)
     wfcinit:wfcr :      1.47s CPU      1.48s WALL (       6 calls)
     potinit      :      0.65s CPU      0.69s WALL (       1 calls)

     Called by electrons:
     c_bands      :     61.12s CPU     62.24s WALL (      13 calls)
     sum_band     :     11.75s CPU     11.78s WALL (      13 calls)
     v_of_rho     :      5.28s CPU      5.33s WALL (      14 calls)
     v_h          :      0.51s CPU      0.52s WALL (      14 calls)
     v_xc         :      4.77s CPU      4.81s WALL (      14 calls)
     mix_rho      :      1.41s CPU      1.49s WALL (      13 calls)

     Called by c_bands:
     init_us_2    :      1.04s CPU      1.05s WALL (     174 calls)
     cegterg      :     60.34s CPU     60.52s WALL (      78 calls)

     Called by sum_band:

     Called by *egterg:
     h_psi        :     57.74s CPU     57.90s WALL (     402 calls)
     g_psi        :      0.24s CPU      0.24s WALL (     318 calls)
     cdiaghg      :      0.06s CPU      0.06s WALL (     396 calls)
     cegterg:over :      1.35s CPU      1.36s WALL (     318 calls)
     cegterg:upda :      1.10s CPU      1.10s WALL (     318 calls)
     cegterg:last :      0.39s CPU      0.40s WALL (      94 calls)

     Called by h_psi:
     h_psi:pot    :     57.45s CPU     57.60s WALL (     402 calls)
     h_psi:calbec :      0.39s CPU      0.39s WALL (     402 calls)
     vloc_psi     :     56.82s CPU     56.97s WALL (     402 calls)
     add_vuspsi   :      0.24s CPU      0.24s WALL (     402 calls)

     General routines
     calbec       :      0.43s CPU      0.44s WALL (     432 calls)
     fft          :      4.58s CPU      4.61s WALL (     161 calls)
     fftw         :     58.29s CPU     58.41s WALL (    3942 calls)

     Parallel routines
     fft_scatt_xy :      9.73s CPU      9.76s WALL (    4103 calls)
     fft_scatt_yz :     11.61s CPU     11.65s WALL (    4103 calls)

     PWSCF        :  1m25.68s CPU     1m31.57s WALL


   This run was terminated on:   8: 8:24   1Oct2020            

=------------------------------------------------------------------------------=
   JOB DONE.
=------------------------------------------------------------------------------=
