
     Program PWSCF v.6.2 (svn rev. 14038) starts on  1Oct2020 at  7:53:22 

     This program is part of the open-source Quantum ESPRESSO suite
     for quantum simulation of materials; please cite
         "P. Giannozzi et al., J. Phys.:Condens. Matter 21 395502 (2009);
         "P. Giannozzi et al., J. Phys.:Condens. Matter 29 465901 (2017);
          URL http://www.quantum-espresso.org", 
     in publications or presentations arising from this work. More details at
     http://www.quantum-espresso.org/quote

     Parallel version (MPI), running on     8 processors

     MPI processes distributed on     1 nodes
     R & G space division:  proc/nbgrp/npool/nimage =       8
     Waiting for input...
     Reading input from standard input

     Current dimensions of program PWSCF are:
     Max number of different atomic species (ntypx) = 10
     Max number of k-points (npk) =  40000
     Max angular momentum in pseudopotentials (lmaxx) =  3

     Subspace diagonalization in iterative solution of the eigenvalue problem:
     a serial algorithm will be used


     Parallelization info
     --------------------
     sticks:   dense  smooth     PW     G-vecs:    dense   smooth      PW
     Min        2386    2386    623               248152   248152   33108
     Max        2387    2387    625               248157   248157   33111
     Sum       19089   19089   4989              1985227  1985227  264875



     bravais-lattice index     =            1
     lattice parameter (alat)  =      37.7945  a.u.
     unit-cell volume          =   53986.6767 (a.u.)^3
     number of atoms/cell      =            2
     number of atomic types    =            2
     number of electrons       =         5.00
     number of Kohn-Sham states=            7
     kinetic-energy cutoff     =      42.0000  Ry
     charge density cutoff     =     168.0000  Ry
     convergence threshold     =      1.0E-08
     mixing beta               =       0.3000
     number of iterations used =            8  plain     mixing
     Exchange-correlation      = SLA-PW-PBX-PBC ( 1  4  3  4 0 0)

     celldm(1)=  37.794523  celldm(2)=   0.000000  celldm(3)=   0.000000
     celldm(4)=   0.000000  celldm(5)=   0.000000  celldm(6)=   0.000000

     crystal axes: (cart. coord. in units of alat)
               a(1) = (   1.000000   0.000000   0.000000 )  
               a(2) = (   0.000000   1.000000   0.000000 )  
               a(3) = (   0.000000   0.000000   1.000000 )  

     reciprocal axes: (cart. coord. in units 2 pi/alat)
               b(1) = (  1.000000  0.000000  0.000000 )  
               b(2) = (  0.000000  1.000000  0.000000 )  
               b(3) = (  0.000000  0.000000  1.000000 )  


     PseudoPot. # 1 for Si read from file:
     ./Si.pbe-hgh.UPF
     MD5 check sum: 9a9f0f6e09139bfdb36b03ff6bc35900
     Pseudo is Norm-conserving, Zval =  4.0
     Generated in analytical, separable form
     Using radial grid of 1141 points,  3 beta functions with: 
                l(1) =   0
                l(2) =   0
                l(3) =   1

     PseudoPot. # 2 for H  read from file:
     ./H.pbe-hgh.UPF
     MD5 check sum: 5f350582108a937bec95f27f5610ab08
     Pseudo is Norm-conserving, Zval =  1.0
     Generated in analytical, separable form
     Using radial grid of  929 points,  0 beta functions with: 

     atomic species   valence    mass     pseudopotential
        Si             4.00    28.08000     Si( 1.00)
        H              1.00     1.00784     H ( 1.00)

      8 Sym. Ops. (no inversion) found


                                    s                        frac. trans.

      isym =  1     identity                                     

 cryst.   s( 1) = (     1          0          0      )
                  (     0          1          0      )
                  (     0          0          1      )

 cart.    s( 1) = (  1.0000000  0.0000000  0.0000000 )
                  (  0.0000000  1.0000000  0.0000000 )
                  (  0.0000000  0.0000000  1.0000000 )


      isym =  2     180 deg rotation - cart. axis [1,0,0]        

 cryst.   s( 2) = (     1          0          0      )
                  (     0         -1          0      )
                  (     0          0         -1      )

 cart.    s( 2) = (  1.0000000  0.0000000  0.0000000 )
                  (  0.0000000 -1.0000000  0.0000000 )
                  (  0.0000000  0.0000000 -1.0000000 )


      isym =  3      90 deg rotation - cart. axis [-1,0,0]       

 cryst.   s( 3) = (     1          0          0      )
                  (     0          0         -1      )
                  (     0          1          0      )

 cart.    s( 3) = (  1.0000000  0.0000000  0.0000000 )
                  (  0.0000000  0.0000000  1.0000000 )
                  (  0.0000000 -1.0000000  0.0000000 )


      isym =  4      90 deg rotation - cart. axis [1,0,0]        

 cryst.   s( 4) = (     1          0          0      )
                  (     0          0          1      )
                  (     0         -1          0      )

 cart.    s( 4) = (  1.0000000  0.0000000  0.0000000 )
                  (  0.0000000  0.0000000 -1.0000000 )
                  (  0.0000000  1.0000000  0.0000000 )


      isym =  5     inv. 180 deg rotation - cart. axis [0,0,1]   

 cryst.   s( 5) = (     1          0          0      )
                  (     0          1          0      )
                  (     0          0         -1      )

 cart.    s( 5) = (  1.0000000  0.0000000  0.0000000 )
                  (  0.0000000  1.0000000  0.0000000 )
                  (  0.0000000  0.0000000 -1.0000000 )


      isym =  6     inv. 180 deg rotation - cart. axis [0,1,0]   

 cryst.   s( 6) = (     1          0          0      )
                  (     0         -1          0      )
                  (     0          0          1      )

 cart.    s( 6) = (  1.0000000  0.0000000  0.0000000 )
                  (  0.0000000 -1.0000000  0.0000000 )
                  (  0.0000000  0.0000000  1.0000000 )


      isym =  7     inv. 180 deg rotation - cart. axis [0,1,1]   

 cryst.   s( 7) = (     1          0          0      )
                  (     0          0         -1      )
                  (     0         -1          0      )

 cart.    s( 7) = (  1.0000000  0.0000000  0.0000000 )
                  (  0.0000000  0.0000000 -1.0000000 )
                  (  0.0000000 -1.0000000  0.0000000 )


      isym =  8     inv. 180 deg rotation - cart. axis [0,1,-1]  

 cryst.   s( 8) = (     1          0          0      )
                  (     0          0          1      )
                  (     0          1          0      )

 cart.    s( 8) = (  1.0000000  0.0000000  0.0000000 )
                  (  0.0000000  0.0000000  1.0000000 )
                  (  0.0000000  1.0000000  0.0000000 )


     point group C_4v (4mm) 
     there are  5 classes
     the character table:

       E     2C4   C2    2s_v  2s_d 
A_1    1.00  1.00  1.00  1.00  1.00
A_2    1.00  1.00  1.00 -1.00 -1.00
B_1    1.00 -1.00  1.00  1.00 -1.00
B_2    1.00 -1.00  1.00 -1.00  1.00
E      2.00  0.00 -2.00  0.00  0.00

     the symmetry operations in each class and the name of the first element:

     E        1
          identity                                               
     2C4      3    4
           90 deg rotation - cart. axis [-1,0,0]                 
     C2       2
          180 deg rotation - cart. axis [1,0,0]                  
     2s_v     5    6
          inv. 180 deg rotation - cart. axis [0,0,1]             
     2s_d     7    8
          inv. 180 deg rotation - cart. axis [0,1,1]             

   Cartesian axes

     site n.     atom                  positions (alat units)
         1           Si  tau(   1) = (   0.0000000   0.0000000   0.0000000  )
         2           H   tau(   2) = (   0.0585000   0.0000000   0.0000000  )

   Crystallographic axes

     site n.     atom                  positions (cryst. coord.)
         1           Si  tau(   1) = (  0.0000000  0.0000000  0.0000000  )
         2           H   tau(   2) = (  0.0585000  0.0000000  0.0000000  )

     number of k points=     6  Marzari-Vanderbilt smearing, width (Ry)=  0.0500
                       cart. coord. in units 2pi/alat
        k(    1) = (   0.0000000   0.0000000   0.0000000), wk =   0.2500000
        k(    2) = (   0.0000000   0.0000000  -0.5000000), wk =   0.5000000
        k(    3) = (   0.0000000  -0.5000000  -0.5000000), wk =   0.2500000
        k(    4) = (  -0.5000000  -0.5000000  -0.5000000), wk =   0.2500000
        k(    5) = (  -0.5000000   0.0000000   0.0000000), wk =   0.2500000
        k(    6) = (  -0.5000000   0.5000000   0.0000000), wk =   0.5000000

                       cryst. coord.
        k(    1) = (   0.0000000   0.0000000   0.0000000), wk =   0.2500000
        k(    2) = (   0.0000000   0.0000000  -0.5000000), wk =   0.5000000
        k(    3) = (   0.0000000  -0.5000000  -0.5000000), wk =   0.2500000
        k(    4) = (  -0.5000000  -0.5000000  -0.5000000), wk =   0.2500000
        k(    5) = (  -0.5000000   0.0000000   0.0000000), wk =   0.2500000
        k(    6) = (  -0.5000000   0.5000000   0.0000000), wk =   0.5000000

     Dense  grid:  1985227 G-vectors     FFT dimensions: ( 160, 160, 160)

     Dynamical RAM for                 wfc:       3.31 MB

     Dynamical RAM for     wfc (w. buffer):      23.19 MB

     Dynamical RAM for           str. fact:       7.57 MB

     Dynamical RAM for           local pot:       0.00 MB

     Dynamical RAM for          nlocal pot:       2.37 MB

     Dynamical RAM for                qrad:       2.14 MB

     Dynamical RAM for          rho,v,vnew:      23.08 MB

     Dynamical RAM for               rhoin:       7.69 MB

     Dynamical RAM for            rho*nmix:      60.58 MB

     Dynamical RAM for           G-vectors:      16.09 MB

     Dynamical RAM for          h,s,v(r/c):       0.04 MB

     Dynamical RAM for          <psi|beta>:       0.00 MB

     Dynamical RAM for                 psi:      13.25 MB

     Dynamical RAM for                hpsi:      13.25 MB

     Dynamical RAM for      wfcinit/wfcrot:       6.63 MB

     Estimated static dynamical RAM per process >     173.61 MB

     Estimated max dynamical RAM per process >     200.15 MB

     Estimated total dynamical RAM >       1.56 GB

     Initial potential from superposition of free atoms
     Check: negative starting charge=   -0.012412

     starting charge    4.99943, renormalised to    5.00000

     negative rho (up, down):  1.241E-02 0.000E+00
     Starting wfc are    5 randomized atomic wfcs +    2 random wfc

     total cpu time spent up to now is        3.5 secs

     Self-consistent Calculation

     iteration #  1     ecut=    42.00 Ry     beta= 0.30
     Davidson diagonalization with overlap
     ethr =  1.00E-02,  avg # of iterations =  5.5

     negative rho (up, down):  8.597E-03 0.000E+00

     total cpu time spent up to now is       11.1 secs

     total energy              =      -8.65737020 Ry
     Harris-Foulkes estimate   =      -8.71007936 Ry
     estimated scf accuracy    <       0.19354820 Ry

     iteration #  2     ecut=    42.00 Ry     beta= 0.30
     Davidson diagonalization with overlap
     ethr =  3.87E-03,  avg # of iterations =  1.0

     negative rho (up, down):  2.018E-03 0.000E+00

     total cpu time spent up to now is       15.0 secs

     total energy              =      -8.62427936 Ry
     Harris-Foulkes estimate   =      -8.66246123 Ry
     estimated scf accuracy    <       0.07096704 Ry

     iteration #  3     ecut=    42.00 Ry     beta= 0.30
     Davidson diagonalization with overlap
     ethr =  1.42E-03,  avg # of iterations =  2.5

     negative rho (up, down):  1.862E-03 0.000E+00

     total cpu time spent up to now is       19.5 secs

     total energy              =      -8.63496268 Ry
     Harris-Foulkes estimate   =      -8.63537168 Ry
     estimated scf accuracy    <       0.00182261 Ry

     iteration #  4     ecut=    42.00 Ry     beta= 0.30
     Davidson diagonalization with overlap
     ethr =  3.65E-05,  avg # of iterations = 15.7

     negative rho (up, down):  4.486E-04 0.000E+00

     total cpu time spent up to now is       29.9 secs

     total energy              =      -8.63467226 Ry
     Harris-Foulkes estimate   =      -8.63512526 Ry
     estimated scf accuracy    <       0.00113294 Ry

     iteration #  5     ecut=    42.00 Ry     beta= 0.30
     Davidson diagonalization with overlap
     ethr =  2.27E-05,  avg # of iterations =  2.0

     negative rho (up, down):  3.107E-04 0.000E+00

     total cpu time spent up to now is       34.5 secs

     total energy              =      -8.63484008 Ry
     Harris-Foulkes estimate   =      -8.63483986 Ry
     estimated scf accuracy    <       0.00003134 Ry

     iteration #  6     ecut=    42.00 Ry     beta= 0.30
     Davidson diagonalization with overlap
     c_bands:  1 eigenvalues not converged
     ethr =  6.27E-07,  avg # of iterations = 14.7

     negative rho (up, down):  1.927E-05 0.000E+00

     total cpu time spent up to now is       44.0 secs

     total energy              =      -8.63483818 Ry
     Harris-Foulkes estimate   =      -8.63484935 Ry
     estimated scf accuracy    <       0.00003012 Ry

     iteration #  7     ecut=    42.00 Ry     beta= 0.30
     Davidson diagonalization with overlap
     ethr =  6.02E-07,  avg # of iterations =  4.3

     negative rho (up, down):  8.224E-06 0.000E+00

     total cpu time spent up to now is       49.4 secs

     total energy              =      -8.63484038 Ry
     Harris-Foulkes estimate   =      -8.63484195 Ry
     estimated scf accuracy    <       0.00000459 Ry

     iteration #  8     ecut=    42.00 Ry     beta= 0.30
     Davidson diagonalization with overlap
     ethr =  9.17E-08,  avg # of iterations =  2.0

     negative rho (up, down):  3.237E-06 0.000E+00

     total cpu time spent up to now is       54.2 secs

     total energy              =      -8.63484083 Ry
     Harris-Foulkes estimate   =      -8.63484129 Ry
     estimated scf accuracy    <       0.00000235 Ry

     iteration #  9     ecut=    42.00 Ry     beta= 0.30
     Davidson diagonalization with overlap
     ethr =  4.70E-08,  avg # of iterations =  1.0

     negative rho (up, down):  2.140E-06 0.000E+00

     total cpu time spent up to now is       58.2 secs

     total energy              =      -8.63484101 Ry
     Harris-Foulkes estimate   =      -8.63484099 Ry
     estimated scf accuracy    <       0.00000022 Ry

     iteration # 10     ecut=    42.00 Ry     beta= 0.30
     Davidson diagonalization with overlap
     ethr =  4.46E-09,  avg # of iterations =  2.0

     negative rho (up, down):  6.178E-07 0.000E+00

     total cpu time spent up to now is       62.7 secs

     total energy              =      -8.63484109 Ry
     Harris-Foulkes estimate   =      -8.63484105 Ry
     estimated scf accuracy    <       0.00000003 Ry

     iteration # 11     ecut=    42.00 Ry     beta= 0.30
     Davidson diagonalization with overlap
     ethr =  5.44E-10,  avg # of iterations =  2.0

     total cpu time spent up to now is       67.4 secs

     End of self-consistent calculation

          k = 0.0000 0.0000 0.0000 (248049 PWs)   bands (ev):

   -13.1325  -6.5861  -3.9725  -3.9725  -0.3579   0.1074   0.2560

     occupation numbers 
     1.0000   1.0001   0.2500   0.2500   0.0000   0.0000   0.0000

          k = 0.0000 0.0000-0.5000 (247982 PWs)   bands (ev):

   -13.1325  -6.5861  -3.9725  -3.9725  -0.3502   0.0732   0.2136

     occupation numbers 
     1.0000   1.0001   0.2500   0.2500   0.0000   0.0000   0.0000

          k = 0.0000-0.5000-0.5000 (248312 PWs)   bands (ev):

   -13.1326  -6.5862  -3.9725  -3.9725  -0.3435   0.1405   0.1406

     occupation numbers 
     1.0000   1.0001   0.2500   0.2500   0.0000   0.0000   0.0000

          k =-0.5000-0.5000-0.5000 (248296 PWs)   bands (ev):

   -13.1326  -6.5862  -3.9725  -3.9725  -0.3393   0.1830   0.1940

     occupation numbers 
     1.0000   1.0001   0.2500   0.2500   0.0000   0.0000   0.0000

          k =-0.5000 0.0000 0.0000 (247982 PWs)   bands (ev):

   -13.1325  -6.5861  -3.9725  -3.9725  -0.3519   0.0713   0.2303

     occupation numbers 
     1.0000   1.0001   0.2500   0.2500   0.0000   0.0000   0.0000

          k =-0.5000 0.5000 0.0000 (248312 PWs)   bands (ev):

   -13.1326  -6.5861  -3.9725  -3.9725  -0.3451   0.1337   0.1376

     occupation numbers 
     1.0000   1.0001   0.2500   0.2500   0.0000   0.0000   0.0000

     the Fermi energy is    -4.1395 ev

!    total energy              =      -8.63484108 Ry
     Harris-Foulkes estimate   =      -8.63484110 Ry
     estimated scf accuracy    <          1.9E-09 Ry

     The total energy is the sum of the following terms:

     one-electron contribution =     -15.42222277 Ry
     hartree contribution      =       8.00873742 Ry
     xc contribution           =      -2.93374904 Ry
     ewald contribution        =       1.74303908 Ry
     smearing contrib. (-TS)   =      -0.03064577 Ry

     convergence has been achieved in  11 iterations

     Forces acting on atoms (cartesian axes, Ry/au):

     atom    1 type  1   force =    -0.48449912    0.00000000    0.00000000
     atom    2 type  2   force =     0.48449912    0.00000000    0.00000000
     The non-local contrib.  to forces
     atom    1 type  1   force =    -0.45663480    0.00000000    0.00000000
     atom    2 type  2   force =     0.00000000    0.00000000    0.00000000
     The ionic contribution  to forces
     atom    1 type  1   force =    -1.63513068    0.00000000   -0.00000000
     atom    2 type  2   force =     1.63513068   -0.00000000   -0.00000000
     The local contribution  to forces
     atom    1 type  1   force =     1.60726102    0.00000000   -0.00000000
     atom    2 type  2   force =    -1.15064115    0.00000000   -0.00000000
     The core correction contribution to forces
     atom    1 type  1   force =     0.00000000    0.00000000    0.00000000
     atom    2 type  2   force =     0.00000000    0.00000000    0.00000000
     The Hubbard contrib.    to forces
     atom    1 type  1   force =     0.00000000    0.00000000    0.00000000
     atom    2 type  2   force =     0.00000000    0.00000000    0.00000000
     The SCF correction term to forces
     atom    1 type  1   force =     0.00000893    0.00000000   -0.00000000
     atom    2 type  2   force =     0.00001319    0.00000000    0.00000000

     Total force =     0.685185     Total SCF correction =     0.000016


     Computing stress (Cartesian axis) and pressure

          total   stress  (Ry/bohr**3)                   (kbar)     P=    0.93
   0.00001955   0.00000000   0.00000000          2.88      0.00      0.00
   0.00000000  -0.00000033   0.00000000          0.00     -0.05      0.00
   0.00000000   0.00000000  -0.00000033          0.00      0.00     -0.05

     kinetic stress (kbar)      8.91      0.00      0.00
                                0.00      7.56      0.00
                                0.00      0.00      7.56

     local   stress (kbar)    -29.17      0.00      0.00
                                0.00    -16.33      0.00
                                0.00      0.00    -16.33

     nonloc. stress (kbar)      8.75      0.00      0.00
                                0.00      6.37      0.00
                                0.00      0.00      6.37

     hartree stress (kbar)      8.71     -0.00     -0.00
                               -0.00      6.56     -0.00
                               -0.00     -0.00      6.56

     exc-cor stress (kbar)     -2.48      0.00     -0.00
                                0.00     -2.50      0.00
                               -0.00      0.00     -2.50

     corecor stress (kbar)      0.00      0.00      0.00
                                0.00      0.00      0.00
                                0.00      0.00      0.00

     ewald   stress (kbar)      8.16     -0.00     -0.00
                               -0.00     -1.71     -0.00
                               -0.00     -0.00     -1.71

     hubbard stress (kbar)      0.00      0.00      0.00
                                0.00      0.00      0.00
                                0.00      0.00      0.00

     london  stress (kbar)      0.00      0.00      0.00
                                0.00      0.00      0.00
                                0.00      0.00      0.00

     DFT-D3  stress (kbar)      0.00      0.00      0.00
                                0.00      0.00      0.00
                                0.00      0.00      0.00

     XDM     stress (kbar)      0.00      0.00      0.00
                                0.00      0.00      0.00
                                0.00      0.00      0.00

     dft-nl  stress (kbar)      0.00      0.00      0.00
                                0.00      0.00      0.00
                                0.00      0.00      0.00

     TS-vdW  stress (kbar)      0.00      0.00      0.00
                                0.00      0.00      0.00
                                0.00      0.00      0.00



     Writing output data file SiH15.save

     init_run     :      3.14s CPU      3.28s WALL (       1 calls)
     electrons    :     62.90s CPU     64.30s WALL (       1 calls)
     forces       :      0.39s CPU      0.40s WALL (       1 calls)
     stress       :      1.79s CPU      1.90s WALL (       1 calls)

     Called by init_run:
     wfcinit      :      1.40s CPU      1.41s WALL (       1 calls)
     wfcinit:atom :      0.03s CPU      0.03s WALL (       6 calls)
     wfcinit:wfcr :      1.29s CPU      1.31s WALL (       6 calls)
     potinit      :      0.61s CPU      0.66s WALL (       1 calls)

     Called by electrons:
     c_bands      :     49.20s CPU     50.15s WALL (      11 calls)
     sum_band     :      8.76s CPU      8.78s WALL (      11 calls)
     v_of_rho     :      4.17s CPU      4.22s WALL (      12 calls)
     v_h          :      0.39s CPU      0.40s WALL (      12 calls)
     v_xc         :      3.79s CPU      3.82s WALL (      12 calls)
     mix_rho      :      0.90s CPU      0.99s WALL (      11 calls)

     Called by c_bands:
     init_us_2    :      0.87s CPU      0.87s WALL (     150 calls)
     cegterg      :     48.57s CPU     48.70s WALL (      66 calls)

     Called by sum_band:

     Called by *egterg:
     h_psi        :     46.29s CPU     46.40s WALL (     388 calls)
     g_psi        :      0.22s CPU      0.22s WALL (     316 calls)
     cdiaghg      :      0.06s CPU      0.06s WALL (     382 calls)
     cegterg:over :      1.24s CPU      1.24s WALL (     316 calls)
     cegterg:upda :      1.06s CPU      1.07s WALL (     316 calls)
     cegterg:last :      0.33s CPU      0.34s WALL (      79 calls)

     Called by h_psi:
     h_psi:pot    :     46.06s CPU     46.17s WALL (     388 calls)
     h_psi:calbec :      0.37s CPU      0.38s WALL (     388 calls)
     vloc_psi     :     45.47s CPU     45.57s WALL (     388 calls)
     add_vuspsi   :      0.22s CPU      0.22s WALL (     388 calls)

     General routines
     calbec       :      0.40s CPU      0.41s WALL (     418 calls)
     fft          :      3.52s CPU      3.54s WALL (     139 calls)
     fftw         :     46.73s CPU     46.82s WALL (    3542 calls)

     Parallel routines
     fft_scatt_xy :      6.85s CPU      6.88s WALL (    3681 calls)
     fft_scatt_yz :      9.50s CPU      9.53s WALL (    3681 calls)

     PWSCF        :  1m 8.70s CPU     1m11.72s WALL


   This run was terminated on:   7:54:34   1Oct2020            

=------------------------------------------------------------------------------=
   JOB DONE.
=------------------------------------------------------------------------------=
