
     Program PWSCF v.6.2 (svn rev. 14038) starts on  1Oct2020 at  7:47:22 

     This program is part of the open-source Quantum ESPRESSO suite
     for quantum simulation of materials; please cite
         "P. Giannozzi et al., J. Phys.:Condens. Matter 21 395502 (2009);
         "P. Giannozzi et al., J. Phys.:Condens. Matter 29 465901 (2017);
          URL http://www.quantum-espresso.org", 
     in publications or presentations arising from this work. More details at
     http://www.quantum-espresso.org/quote

     Parallel version (MPI), running on     8 processors

     MPI processes distributed on     1 nodes
     R & G space division:  proc/nbgrp/npool/nimage =       8
     Waiting for input...
     Reading input from standard input

     Current dimensions of program PWSCF are:
     Max number of different atomic species (ntypx) = 10
     Max number of k-points (npk) =  40000
     Max angular momentum in pseudopotentials (lmaxx) =  3

     Subspace diagonalization in iterative solution of the eigenvalue problem:
     a serial algorithm will be used


     Parallelization info
     --------------------
     sticks:   dense  smooth     PW     G-vecs:    dense   smooth      PW
     Min        2386    2386    623               248152   248152   33108
     Max        2387    2387    625               248157   248157   33111
     Sum       19089   19089   4989              1985227  1985227  264875



     bravais-lattice index     =            1
     lattice parameter (alat)  =      37.7945  a.u.
     unit-cell volume          =   53986.6767 (a.u.)^3
     number of atoms/cell      =            2
     number of atomic types    =            2
     number of electrons       =         5.00
     number of Kohn-Sham states=            7
     kinetic-energy cutoff     =      42.0000  Ry
     charge density cutoff     =     168.0000  Ry
     convergence threshold     =      1.0E-08
     mixing beta               =       0.3000
     number of iterations used =            8  plain     mixing
     Exchange-correlation      = SLA-PW-PBX-PBC ( 1  4  3  4 0 0)

     celldm(1)=  37.794523  celldm(2)=   0.000000  celldm(3)=   0.000000
     celldm(4)=   0.000000  celldm(5)=   0.000000  celldm(6)=   0.000000

     crystal axes: (cart. coord. in units of alat)
               a(1) = (   1.000000   0.000000   0.000000 )  
               a(2) = (   0.000000   1.000000   0.000000 )  
               a(3) = (   0.000000   0.000000   1.000000 )  

     reciprocal axes: (cart. coord. in units 2 pi/alat)
               b(1) = (  1.000000  0.000000  0.000000 )  
               b(2) = (  0.000000  1.000000  0.000000 )  
               b(3) = (  0.000000  0.000000  1.000000 )  


     PseudoPot. # 1 for Si read from file:
     ./Si.pbe-hgh.UPF
     MD5 check sum: 9a9f0f6e09139bfdb36b03ff6bc35900
     Pseudo is Norm-conserving, Zval =  4.0
     Generated in analytical, separable form
     Using radial grid of 1141 points,  3 beta functions with: 
                l(1) =   0
                l(2) =   0
                l(3) =   1

     PseudoPot. # 2 for H  read from file:
     ./H.pbe-hgh.UPF
     MD5 check sum: 5f350582108a937bec95f27f5610ab08
     Pseudo is Norm-conserving, Zval =  1.0
     Generated in analytical, separable form
     Using radial grid of  929 points,  0 beta functions with: 

     atomic species   valence    mass     pseudopotential
        Si             4.00    28.08000     Si( 1.00)
        H              1.00     1.00784     H ( 1.00)

      8 Sym. Ops. (no inversion) found


                                    s                        frac. trans.

      isym =  1     identity                                     

 cryst.   s( 1) = (     1          0          0      )
                  (     0          1          0      )
                  (     0          0          1      )

 cart.    s( 1) = (  1.0000000  0.0000000  0.0000000 )
                  (  0.0000000  1.0000000  0.0000000 )
                  (  0.0000000  0.0000000  1.0000000 )


      isym =  2     180 deg rotation - cart. axis [1,0,0]        

 cryst.   s( 2) = (     1          0          0      )
                  (     0         -1          0      )
                  (     0          0         -1      )

 cart.    s( 2) = (  1.0000000  0.0000000  0.0000000 )
                  (  0.0000000 -1.0000000  0.0000000 )
                  (  0.0000000  0.0000000 -1.0000000 )


      isym =  3      90 deg rotation - cart. axis [-1,0,0]       

 cryst.   s( 3) = (     1          0          0      )
                  (     0          0         -1      )
                  (     0          1          0      )

 cart.    s( 3) = (  1.0000000  0.0000000  0.0000000 )
                  (  0.0000000  0.0000000  1.0000000 )
                  (  0.0000000 -1.0000000  0.0000000 )


      isym =  4      90 deg rotation - cart. axis [1,0,0]        

 cryst.   s( 4) = (     1          0          0      )
                  (     0          0          1      )
                  (     0         -1          0      )

 cart.    s( 4) = (  1.0000000  0.0000000  0.0000000 )
                  (  0.0000000  0.0000000 -1.0000000 )
                  (  0.0000000  1.0000000  0.0000000 )


      isym =  5     inv. 180 deg rotation - cart. axis [0,0,1]   

 cryst.   s( 5) = (     1          0          0      )
                  (     0          1          0      )
                  (     0          0         -1      )

 cart.    s( 5) = (  1.0000000  0.0000000  0.0000000 )
                  (  0.0000000  1.0000000  0.0000000 )
                  (  0.0000000  0.0000000 -1.0000000 )


      isym =  6     inv. 180 deg rotation - cart. axis [0,1,0]   

 cryst.   s( 6) = (     1          0          0      )
                  (     0         -1          0      )
                  (     0          0          1      )

 cart.    s( 6) = (  1.0000000  0.0000000  0.0000000 )
                  (  0.0000000 -1.0000000  0.0000000 )
                  (  0.0000000  0.0000000  1.0000000 )


      isym =  7     inv. 180 deg rotation - cart. axis [0,1,1]   

 cryst.   s( 7) = (     1          0          0      )
                  (     0          0         -1      )
                  (     0         -1          0      )

 cart.    s( 7) = (  1.0000000  0.0000000  0.0000000 )
                  (  0.0000000  0.0000000 -1.0000000 )
                  (  0.0000000 -1.0000000  0.0000000 )


      isym =  8     inv. 180 deg rotation - cart. axis [0,1,-1]  

 cryst.   s( 8) = (     1          0          0      )
                  (     0          0          1      )
                  (     0          1          0      )

 cart.    s( 8) = (  1.0000000  0.0000000  0.0000000 )
                  (  0.0000000  0.0000000  1.0000000 )
                  (  0.0000000  1.0000000  0.0000000 )


     point group C_4v (4mm) 
     there are  5 classes
     the character table:

       E     2C4   C2    2s_v  2s_d 
A_1    1.00  1.00  1.00  1.00  1.00
A_2    1.00  1.00  1.00 -1.00 -1.00
B_1    1.00 -1.00  1.00  1.00 -1.00
B_2    1.00 -1.00  1.00 -1.00  1.00
E      2.00  0.00 -2.00  0.00  0.00

     the symmetry operations in each class and the name of the first element:

     E        1
          identity                                               
     2C4      3    4
           90 deg rotation - cart. axis [-1,0,0]                 
     C2       2
          180 deg rotation - cart. axis [1,0,0]                  
     2s_v     5    6
          inv. 180 deg rotation - cart. axis [0,0,1]             
     2s_d     7    8
          inv. 180 deg rotation - cart. axis [0,1,1]             

   Cartesian axes

     site n.     atom                  positions (alat units)
         1           Si  tau(   1) = (   0.0000000   0.0000000   0.0000000  )
         2           H   tau(   2) = (   0.0590000   0.0000000   0.0000000  )

   Crystallographic axes

     site n.     atom                  positions (cryst. coord.)
         1           Si  tau(   1) = (  0.0000000  0.0000000  0.0000000  )
         2           H   tau(   2) = (  0.0590000  0.0000000  0.0000000  )

     number of k points=     6  Marzari-Vanderbilt smearing, width (Ry)=  0.0500
                       cart. coord. in units 2pi/alat
        k(    1) = (   0.0000000   0.0000000   0.0000000), wk =   0.2500000
        k(    2) = (   0.0000000   0.0000000  -0.5000000), wk =   0.5000000
        k(    3) = (   0.0000000  -0.5000000  -0.5000000), wk =   0.2500000
        k(    4) = (  -0.5000000  -0.5000000  -0.5000000), wk =   0.2500000
        k(    5) = (  -0.5000000   0.0000000   0.0000000), wk =   0.2500000
        k(    6) = (  -0.5000000   0.5000000   0.0000000), wk =   0.5000000

                       cryst. coord.
        k(    1) = (   0.0000000   0.0000000   0.0000000), wk =   0.2500000
        k(    2) = (   0.0000000   0.0000000  -0.5000000), wk =   0.5000000
        k(    3) = (   0.0000000  -0.5000000  -0.5000000), wk =   0.2500000
        k(    4) = (  -0.5000000  -0.5000000  -0.5000000), wk =   0.2500000
        k(    5) = (  -0.5000000   0.0000000   0.0000000), wk =   0.2500000
        k(    6) = (  -0.5000000   0.5000000   0.0000000), wk =   0.5000000

     Dense  grid:  1985227 G-vectors     FFT dimensions: ( 160, 160, 160)

     Dynamical RAM for                 wfc:       3.31 MB

     Dynamical RAM for     wfc (w. buffer):      23.19 MB

     Dynamical RAM for           str. fact:       7.57 MB

     Dynamical RAM for           local pot:       0.00 MB

     Dynamical RAM for          nlocal pot:       2.37 MB

     Dynamical RAM for                qrad:       2.14 MB

     Dynamical RAM for          rho,v,vnew:      23.08 MB

     Dynamical RAM for               rhoin:       7.69 MB

     Dynamical RAM for            rho*nmix:      60.58 MB

     Dynamical RAM for           G-vectors:      16.09 MB

     Dynamical RAM for          h,s,v(r/c):       0.04 MB

     Dynamical RAM for          <psi|beta>:       0.00 MB

     Dynamical RAM for                 psi:      13.25 MB

     Dynamical RAM for                hpsi:      13.25 MB

     Dynamical RAM for      wfcinit/wfcrot:       6.63 MB

     Estimated static dynamical RAM per process >     173.61 MB

     Estimated max dynamical RAM per process >     200.15 MB

     Estimated total dynamical RAM >       1.56 GB

     Initial potential from superposition of free atoms
     Check: negative starting charge=   -0.012411

     starting charge    4.99943, renormalised to    5.00000

     negative rho (up, down):  1.241E-02 0.000E+00
     Starting wfc are    5 randomized atomic wfcs +    2 random wfc

     total cpu time spent up to now is        3.5 secs

     Self-consistent Calculation

     iteration #  1     ecut=    42.00 Ry     beta= 0.30
     Davidson diagonalization with overlap
     ethr =  1.00E-02,  avg # of iterations =  5.7

     negative rho (up, down):  8.597E-03 0.000E+00

     total cpu time spent up to now is       10.4 secs

     total energy              =      -8.66577030 Ry
     Harris-Foulkes estimate   =      -8.71741216 Ry
     estimated scf accuracy    <       0.18958359 Ry

     iteration #  2     ecut=    42.00 Ry     beta= 0.30
     Davidson diagonalization with overlap
     ethr =  3.79E-03,  avg # of iterations =  1.0

     negative rho (up, down):  2.023E-03 0.000E+00

     total cpu time spent up to now is       14.3 secs

     total energy              =      -8.63346161 Ry
     Harris-Foulkes estimate   =      -8.67076621 Ry
     estimated scf accuracy    <       0.06946061 Ry

     iteration #  3     ecut=    42.00 Ry     beta= 0.30
     Davidson diagonalization with overlap
     ethr =  1.39E-03,  avg # of iterations =  2.8

     negative rho (up, down):  1.850E-03 0.000E+00

     total cpu time spent up to now is       19.0 secs

     total energy              =      -8.64384764 Ry
     Harris-Foulkes estimate   =      -8.64427075 Ry
     estimated scf accuracy    <       0.00177739 Ry

     iteration #  4     ecut=    42.00 Ry     beta= 0.30
     Davidson diagonalization with overlap
     ethr =  3.55E-05,  avg # of iterations = 16.2

     negative rho (up, down):  4.120E-04 0.000E+00

     total cpu time spent up to now is       30.0 secs

     total energy              =      -8.64359107 Ry
     Harris-Foulkes estimate   =      -8.64400770 Ry
     estimated scf accuracy    <       0.00104441 Ry

     iteration #  5     ecut=    42.00 Ry     beta= 0.30
     Davidson diagonalization with overlap
     ethr =  2.09E-05,  avg # of iterations =  2.0

     negative rho (up, down):  3.126E-04 0.000E+00

     total cpu time spent up to now is       34.6 secs

     total energy              =      -8.64376037 Ry
     Harris-Foulkes estimate   =      -8.64375971 Ry
     estimated scf accuracy    <       0.00002846 Ry

     iteration #  6     ecut=    42.00 Ry     beta= 0.30
     Davidson diagonalization with overlap
     c_bands:  1 eigenvalues not converged
     ethr =  5.69E-07,  avg # of iterations = 12.2

     negative rho (up, down):  5.604E-06 0.000E+00

     total cpu time spent up to now is       43.3 secs

     total energy              =      -8.64375658 Ry
     Harris-Foulkes estimate   =      -8.64376643 Ry
     estimated scf accuracy    <       0.00002669 Ry

     iteration #  7     ecut=    42.00 Ry     beta= 0.30
     Davidson diagonalization with overlap
     ethr =  5.34E-07,  avg # of iterations =  5.8

     negative rho (up, down):  3.570E-06 0.000E+00

     total cpu time spent up to now is       49.4 secs

     total energy              =      -8.64375990 Ry
     Harris-Foulkes estimate   =      -8.64376051 Ry
     estimated scf accuracy    <       0.00000282 Ry

     iteration #  8     ecut=    42.00 Ry     beta= 0.30
     Davidson diagonalization with overlap
     ethr =  5.63E-08,  avg # of iterations =  2.0

     negative rho (up, down):  2.519E-06 0.000E+00

     total cpu time spent up to now is       54.2 secs

     total energy              =      -8.64376009 Ry
     Harris-Foulkes estimate   =      -8.64376032 Ry
     estimated scf accuracy    <       0.00000170 Ry

     iteration #  9     ecut=    42.00 Ry     beta= 0.30
     Davidson diagonalization with overlap
     ethr =  3.40E-08,  avg # of iterations =  1.0

     negative rho (up, down):  2.455E-06 0.000E+00

     total cpu time spent up to now is       58.2 secs

     total energy              =      -8.64376017 Ry
     Harris-Foulkes estimate   =      -8.64376020 Ry
     estimated scf accuracy    <       0.00000020 Ry

     iteration # 10     ecut=    42.00 Ry     beta= 0.30
     Davidson diagonalization with overlap
     ethr =  4.06E-09,  avg # of iterations =  2.0

     negative rho (up, down):  4.765E-07 0.000E+00

     total cpu time spent up to now is       62.8 secs

     total energy              =      -8.64376023 Ry
     Harris-Foulkes estimate   =      -8.64376020 Ry
     estimated scf accuracy    <       0.00000003 Ry

     iteration # 11     ecut=    42.00 Ry     beta= 0.30
     Davidson diagonalization with overlap
     ethr =  5.35E-10,  avg # of iterations =  2.0

     total cpu time spent up to now is       67.4 secs

     End of self-consistent calculation

          k = 0.0000 0.0000 0.0000 (248049 PWs)   bands (ev):

   -13.0922  -6.5912  -3.9727  -3.9727  -0.3566   0.1090   0.2553

     occupation numbers 
     1.0000   1.0001   0.2500   0.2500   0.0000   0.0000   0.0000

          k = 0.0000 0.0000-0.5000 (247982 PWs)   bands (ev):

   -13.0922  -6.5912  -3.9727  -3.9727  -0.3489   0.0732   0.2145

     occupation numbers 
     1.0000   1.0001   0.2500   0.2500   0.0000   0.0000   0.0000

          k = 0.0000-0.5000-0.5000 (248312 PWs)   bands (ev):

   -13.0923  -6.5913  -3.9727  -3.9727  -0.3421   0.1405   0.1406

     occupation numbers 
     1.0000   1.0001   0.2500   0.2500   0.0000   0.0000   0.0000

          k =-0.5000-0.5000-0.5000 (248296 PWs)   bands (ev):

   -13.0923  -6.5913  -3.9727  -3.9727  -0.3379   0.1828   0.1947

     occupation numbers 
     1.0000   1.0001   0.2500   0.2500   0.0000   0.0000   0.0000

          k =-0.5000 0.0000 0.0000 (247982 PWs)   bands (ev):

   -13.0922  -6.5912  -3.9727  -3.9727  -0.3506   0.0717   0.2314

     occupation numbers 
     1.0000   1.0001   0.2500   0.2500   0.0000   0.0000   0.0000

          k =-0.5000 0.5000 0.0000 (248312 PWs)   bands (ev):

   -13.0923  -6.5913  -3.9727  -3.9727  -0.3438   0.1337   0.1378

     occupation numbers 
     1.0000   1.0001   0.2500   0.2500   0.0000   0.0000   0.0000

     the Fermi energy is    -4.1397 ev

!    total energy              =      -8.64376023 Ry
     Harris-Foulkes estimate   =      -8.64376024 Ry
     estimated scf accuracy    <          1.6E-09 Ry

     The total energy is the sum of the following terms:

     one-electron contribution =     -15.38765126 Ry
     hartree contribution      =       7.99071732 Ry
     xc contribution           =      -2.92858117 Ry
     ewald contribution        =       1.71240178 Ry
     smearing contrib. (-TS)   =      -0.03064690 Ry

     convergence has been achieved in  11 iterations

     Forces acting on atoms (cartesian axes, Ry/au):

     atom    1 type  1   force =    -0.45962552    0.00000000    0.00000000
     atom    2 type  2   force =     0.45962552    0.00000000    0.00000000
     The non-local contrib.  to forces
     atom    1 type  1   force =    -0.42569175    0.00000000    0.00000000
     atom    2 type  2   force =     0.00000000    0.00000000    0.00000000
     The ionic contribution  to forces
     atom    1 type  1   force =    -1.60749854   -0.00000000   -0.00000000
     atom    2 type  2   force =     1.60749854    0.00000000   -0.00000000
     The local contribution  to forces
     atom    1 type  1   force =     1.57356752    0.00000000   -0.00000000
     atom    2 type  2   force =    -1.14788302    0.00000000   -0.00000000
     The core correction contribution to forces
     atom    1 type  1   force =     0.00000000    0.00000000    0.00000000
     atom    2 type  2   force =     0.00000000    0.00000000    0.00000000
     The Hubbard contrib.    to forces
     atom    1 type  1   force =     0.00000000    0.00000000    0.00000000
     atom    2 type  2   force =     0.00000000    0.00000000    0.00000000
     The SCF correction term to forces
     atom    1 type  1   force =     0.00000034    0.00000000    0.00000000
     atom    2 type  2   force =     0.00001307   -0.00000000    0.00000000

     Total force =     0.650009     Total SCF correction =     0.000013


     Computing stress (Cartesian axis) and pressure

          total   stress  (Ry/bohr**3)                   (kbar)     P=    0.88
   0.00001870   0.00000000   0.00000000          2.75      0.00      0.00
   0.00000000  -0.00000032   0.00000000          0.00     -0.05      0.00
   0.00000000   0.00000000  -0.00000032          0.00      0.00     -0.05

     kinetic stress (kbar)      8.84      0.00      0.00
                                0.00      7.53      0.00
                                0.00      0.00      7.53

     local   stress (kbar)    -29.08     -0.00      0.00
                               -0.00    -16.28     -0.00
                                0.00     -0.00    -16.28

     nonloc. stress (kbar)      8.68      0.00      0.00
                                0.00      6.37      0.00
                                0.00      0.00      6.37

     hartree stress (kbar)      8.70      0.00      0.00
                                0.00      6.53      0.00
                                0.00      0.00      6.53

     exc-cor stress (kbar)     -2.48     -0.00      0.00
                               -0.00     -2.50     -0.00
                                0.00     -0.00     -2.50

     corecor stress (kbar)      0.00      0.00      0.00
                                0.00      0.00      0.00
                                0.00      0.00      0.00

     ewald   stress (kbar)      8.08      0.00     -0.00
                                0.00     -1.71     -0.00
                               -0.00     -0.00     -1.71

     hubbard stress (kbar)      0.00      0.00      0.00
                                0.00      0.00      0.00
                                0.00      0.00      0.00

     london  stress (kbar)      0.00      0.00      0.00
                                0.00      0.00      0.00
                                0.00      0.00      0.00

     DFT-D3  stress (kbar)      0.00      0.00      0.00
                                0.00      0.00      0.00
                                0.00      0.00      0.00

     XDM     stress (kbar)      0.00      0.00      0.00
                                0.00      0.00      0.00
                                0.00      0.00      0.00

     dft-nl  stress (kbar)      0.00      0.00      0.00
                                0.00      0.00      0.00
                                0.00      0.00      0.00

     TS-vdW  stress (kbar)      0.00      0.00      0.00
                                0.00      0.00      0.00
                                0.00      0.00      0.00



     Writing output data file SiH16.save

     init_run     :      3.16s CPU      3.30s WALL (       1 calls)
     electrons    :     63.27s CPU     64.40s WALL (       1 calls)
     forces       :      0.40s CPU      0.41s WALL (       1 calls)
     stress       :      1.82s CPU      1.92s WALL (       1 calls)

     Called by init_run:
     wfcinit      :      1.41s CPU      1.42s WALL (       1 calls)
     wfcinit:atom :      0.03s CPU      0.03s WALL (       6 calls)
     wfcinit:wfcr :      1.31s CPU      1.32s WALL (       6 calls)
     potinit      :      0.61s CPU      0.65s WALL (       1 calls)

     Called by electrons:
     c_bands      :     49.57s CPU     49.75s WALL (      11 calls)
     sum_band     :      8.74s CPU      8.78s WALL (      11 calls)
     v_of_rho     :      4.13s CPU      4.18s WALL (      12 calls)
     v_h          :      0.38s CPU      0.39s WALL (      12 calls)
     v_xc         :      3.75s CPU      3.79s WALL (      12 calls)
     mix_rho      :      0.93s CPU      1.02s WALL (      11 calls)

     Called by c_bands:
     init_us_2    :      0.87s CPU      0.88s WALL (     150 calls)
     cegterg      :     48.93s CPU     49.08s WALL (      66 calls)

     Called by sum_band:

     Called by *egterg:
     h_psi        :     46.55s CPU     46.67s WALL (     388 calls)
     g_psi        :      0.22s CPU      0.22s WALL (     316 calls)
     cdiaghg      :      0.06s CPU      0.06s WALL (     382 calls)
     cegterg:over :      1.28s CPU      1.29s WALL (     316 calls)
     cegterg:upda :      1.10s CPU      1.10s WALL (     316 calls)
     cegterg:last :      0.34s CPU      0.34s WALL (      80 calls)

     Called by h_psi:
     h_psi:pot    :     46.32s CPU     46.44s WALL (     388 calls)
     h_psi:calbec :      0.40s CPU      0.40s WALL (     388 calls)
     vloc_psi     :     45.70s CPU     45.81s WALL (     388 calls)
     add_vuspsi   :      0.22s CPU      0.22s WALL (     388 calls)

     General routines
     calbec       :      0.44s CPU      0.44s WALL (     418 calls)
     fft          :      3.51s CPU      3.53s WALL (     139 calls)
     fftw         :     46.96s CPU     47.06s WALL (    3548 calls)

     Parallel routines
     fft_scatt_xy :      6.77s CPU      6.79s WALL (    3687 calls)
     fft_scatt_yz :     10.44s CPU     10.47s WALL (    3687 calls)

     PWSCF        :  1m 9.14s CPU     1m11.68s WALL


   This run was terminated on:   7:48:34   1Oct2020            

=------------------------------------------------------------------------------=
   JOB DONE.
=------------------------------------------------------------------------------=
