
     Program PWSCF v.6.2 (svn rev. 14038) starts on  1Oct2020 at  7:57:53 

     This program is part of the open-source Quantum ESPRESSO suite
     for quantum simulation of materials; please cite
         "P. Giannozzi et al., J. Phys.:Condens. Matter 21 395502 (2009);
         "P. Giannozzi et al., J. Phys.:Condens. Matter 29 465901 (2017);
          URL http://www.quantum-espresso.org", 
     in publications or presentations arising from this work. More details at
     http://www.quantum-espresso.org/quote

     Parallel version (MPI), running on     8 processors

     MPI processes distributed on     1 nodes
     R & G space division:  proc/nbgrp/npool/nimage =       8
     Waiting for input...
     Reading input from standard input

     Current dimensions of program PWSCF are:
     Max number of different atomic species (ntypx) = 10
     Max number of k-points (npk) =  40000
     Max angular momentum in pseudopotentials (lmaxx) =  3

     Subspace diagonalization in iterative solution of the eigenvalue problem:
     a serial algorithm will be used


     Parallelization info
     --------------------
     sticks:   dense  smooth     PW     G-vecs:    dense   smooth      PW
     Min        2386    2386    623               248152   248152   33108
     Max        2387    2387    625               248157   248157   33111
     Sum       19089   19089   4989              1985227  1985227  264875



     bravais-lattice index     =            1
     lattice parameter (alat)  =      37.7945  a.u.
     unit-cell volume          =   53986.6767 (a.u.)^3
     number of atoms/cell      =            2
     number of atomic types    =            2
     number of electrons       =         5.00
     number of Kohn-Sham states=            7
     kinetic-energy cutoff     =      42.0000  Ry
     charge density cutoff     =     168.0000  Ry
     convergence threshold     =      1.0E-08
     mixing beta               =       0.3000
     number of iterations used =            8  plain     mixing
     Exchange-correlation      = SLA-PW-PBX-PBC ( 1  4  3  4 0 0)

     celldm(1)=  37.794523  celldm(2)=   0.000000  celldm(3)=   0.000000
     celldm(4)=   0.000000  celldm(5)=   0.000000  celldm(6)=   0.000000

     crystal axes: (cart. coord. in units of alat)
               a(1) = (   1.000000   0.000000   0.000000 )  
               a(2) = (   0.000000   1.000000   0.000000 )  
               a(3) = (   0.000000   0.000000   1.000000 )  

     reciprocal axes: (cart. coord. in units 2 pi/alat)
               b(1) = (  1.000000  0.000000  0.000000 )  
               b(2) = (  0.000000  1.000000  0.000000 )  
               b(3) = (  0.000000  0.000000  1.000000 )  


     PseudoPot. # 1 for Si read from file:
     ./Si.pbe-hgh.UPF
     MD5 check sum: 9a9f0f6e09139bfdb36b03ff6bc35900
     Pseudo is Norm-conserving, Zval =  4.0
     Generated in analytical, separable form
     Using radial grid of 1141 points,  3 beta functions with: 
                l(1) =   0
                l(2) =   0
                l(3) =   1

     PseudoPot. # 2 for H  read from file:
     ./H.pbe-hgh.UPF
     MD5 check sum: 5f350582108a937bec95f27f5610ab08
     Pseudo is Norm-conserving, Zval =  1.0
     Generated in analytical, separable form
     Using radial grid of  929 points,  0 beta functions with: 

     atomic species   valence    mass     pseudopotential
        Si             4.00    28.08000     Si( 1.00)
        H              1.00     1.00784     H ( 1.00)

      8 Sym. Ops. (no inversion) found


                                    s                        frac. trans.

      isym =  1     identity                                     

 cryst.   s( 1) = (     1          0          0      )
                  (     0          1          0      )
                  (     0          0          1      )

 cart.    s( 1) = (  1.0000000  0.0000000  0.0000000 )
                  (  0.0000000  1.0000000  0.0000000 )
                  (  0.0000000  0.0000000  1.0000000 )


      isym =  2     180 deg rotation - cart. axis [1,0,0]        

 cryst.   s( 2) = (     1          0          0      )
                  (     0         -1          0      )
                  (     0          0         -1      )

 cart.    s( 2) = (  1.0000000  0.0000000  0.0000000 )
                  (  0.0000000 -1.0000000  0.0000000 )
                  (  0.0000000  0.0000000 -1.0000000 )


      isym =  3      90 deg rotation - cart. axis [-1,0,0]       

 cryst.   s( 3) = (     1          0          0      )
                  (     0          0         -1      )
                  (     0          1          0      )

 cart.    s( 3) = (  1.0000000  0.0000000  0.0000000 )
                  (  0.0000000  0.0000000  1.0000000 )
                  (  0.0000000 -1.0000000  0.0000000 )


      isym =  4      90 deg rotation - cart. axis [1,0,0]        

 cryst.   s( 4) = (     1          0          0      )
                  (     0          0          1      )
                  (     0         -1          0      )

 cart.    s( 4) = (  1.0000000  0.0000000  0.0000000 )
                  (  0.0000000  0.0000000 -1.0000000 )
                  (  0.0000000  1.0000000  0.0000000 )


      isym =  5     inv. 180 deg rotation - cart. axis [0,0,1]   

 cryst.   s( 5) = (     1          0          0      )
                  (     0          1          0      )
                  (     0          0         -1      )

 cart.    s( 5) = (  1.0000000  0.0000000  0.0000000 )
                  (  0.0000000  1.0000000  0.0000000 )
                  (  0.0000000  0.0000000 -1.0000000 )


      isym =  6     inv. 180 deg rotation - cart. axis [0,1,0]   

 cryst.   s( 6) = (     1          0          0      )
                  (     0         -1          0      )
                  (     0          0          1      )

 cart.    s( 6) = (  1.0000000  0.0000000  0.0000000 )
                  (  0.0000000 -1.0000000  0.0000000 )
                  (  0.0000000  0.0000000  1.0000000 )


      isym =  7     inv. 180 deg rotation - cart. axis [0,1,1]   

 cryst.   s( 7) = (     1          0          0      )
                  (     0          0         -1      )
                  (     0         -1          0      )

 cart.    s( 7) = (  1.0000000  0.0000000  0.0000000 )
                  (  0.0000000  0.0000000 -1.0000000 )
                  (  0.0000000 -1.0000000  0.0000000 )


      isym =  8     inv. 180 deg rotation - cart. axis [0,1,-1]  

 cryst.   s( 8) = (     1          0          0      )
                  (     0          0          1      )
                  (     0          1          0      )

 cart.    s( 8) = (  1.0000000  0.0000000  0.0000000 )
                  (  0.0000000  0.0000000  1.0000000 )
                  (  0.0000000  1.0000000  0.0000000 )


     point group C_4v (4mm) 
     there are  5 classes
     the character table:

       E     2C4   C2    2s_v  2s_d 
A_1    1.00  1.00  1.00  1.00  1.00
A_2    1.00  1.00  1.00 -1.00 -1.00
B_1    1.00 -1.00  1.00  1.00 -1.00
B_2    1.00 -1.00  1.00 -1.00  1.00
E      2.00  0.00 -2.00  0.00  0.00

     the symmetry operations in each class and the name of the first element:

     E        1
          identity                                               
     2C4      3    4
           90 deg rotation - cart. axis [-1,0,0]                 
     C2       2
          180 deg rotation - cart. axis [1,0,0]                  
     2s_v     5    6
          inv. 180 deg rotation - cart. axis [0,0,1]             
     2s_d     7    8
          inv. 180 deg rotation - cart. axis [0,1,1]             

   Cartesian axes

     site n.     atom                  positions (alat units)
         1           Si  tau(   1) = (   0.0000000   0.0000000   0.0000000  )
         2           H   tau(   2) = (   0.0545000   0.0000000   0.0000000  )

   Crystallographic axes

     site n.     atom                  positions (cryst. coord.)
         1           Si  tau(   1) = (  0.0000000  0.0000000  0.0000000  )
         2           H   tau(   2) = (  0.0545000  0.0000000  0.0000000  )

     number of k points=     6  Marzari-Vanderbilt smearing, width (Ry)=  0.0500
                       cart. coord. in units 2pi/alat
        k(    1) = (   0.0000000   0.0000000   0.0000000), wk =   0.2500000
        k(    2) = (   0.0000000   0.0000000  -0.5000000), wk =   0.5000000
        k(    3) = (   0.0000000  -0.5000000  -0.5000000), wk =   0.2500000
        k(    4) = (  -0.5000000  -0.5000000  -0.5000000), wk =   0.2500000
        k(    5) = (  -0.5000000   0.0000000   0.0000000), wk =   0.2500000
        k(    6) = (  -0.5000000   0.5000000   0.0000000), wk =   0.5000000

                       cryst. coord.
        k(    1) = (   0.0000000   0.0000000   0.0000000), wk =   0.2500000
        k(    2) = (   0.0000000   0.0000000  -0.5000000), wk =   0.5000000
        k(    3) = (   0.0000000  -0.5000000  -0.5000000), wk =   0.2500000
        k(    4) = (  -0.5000000  -0.5000000  -0.5000000), wk =   0.2500000
        k(    5) = (  -0.5000000   0.0000000   0.0000000), wk =   0.2500000
        k(    6) = (  -0.5000000   0.5000000   0.0000000), wk =   0.5000000

     Dense  grid:  1985227 G-vectors     FFT dimensions: ( 160, 160, 160)

     Dynamical RAM for                 wfc:       3.31 MB

     Dynamical RAM for     wfc (w. buffer):      23.19 MB

     Dynamical RAM for           str. fact:       7.57 MB

     Dynamical RAM for           local pot:       0.00 MB

     Dynamical RAM for          nlocal pot:       2.37 MB

     Dynamical RAM for                qrad:       2.14 MB

     Dynamical RAM for          rho,v,vnew:      23.08 MB

     Dynamical RAM for               rhoin:       7.69 MB

     Dynamical RAM for            rho*nmix:      60.58 MB

     Dynamical RAM for           G-vectors:      16.09 MB

     Dynamical RAM for          h,s,v(r/c):       0.04 MB

     Dynamical RAM for          <psi|beta>:       0.00 MB

     Dynamical RAM for                 psi:      13.25 MB

     Dynamical RAM for                hpsi:      13.25 MB

     Dynamical RAM for      wfcinit/wfcrot:       6.63 MB

     Estimated static dynamical RAM per process >     173.61 MB

     Estimated max dynamical RAM per process >     200.15 MB

     Estimated total dynamical RAM >       1.56 GB

     Initial potential from superposition of free atoms
     Check: negative starting charge=   -0.012409

     starting charge    4.99943, renormalised to    5.00000

     negative rho (up, down):  1.241E-02 0.000E+00
     Starting wfc are    5 randomized atomic wfcs +    2 random wfc

     total cpu time spent up to now is        3.8 secs

     Self-consistent Calculation

     iteration #  1     ecut=    42.00 Ry     beta= 0.30
     Davidson diagonalization with overlap
     ethr =  1.00E-02,  avg # of iterations =  5.3

     negative rho (up, down):  8.588E-03 0.000E+00

     total cpu time spent up to now is       11.5 secs

     total energy              =      -8.57150677 Ry
     Harris-Foulkes estimate   =      -8.63377577 Ry
     estimated scf accuracy    <       0.22884764 Ry

     iteration #  2     ecut=    42.00 Ry     beta= 0.30
     Davidson diagonalization with overlap
     ethr =  4.58E-03,  avg # of iterations =  1.0

     negative rho (up, down):  1.977E-03 0.000E+00

     total cpu time spent up to now is       16.0 secs

     total energy              =      -8.53130007 Ry
     Harris-Foulkes estimate   =      -8.57744409 Ry
     estimated scf accuracy    <       0.08443458 Ry

     iteration #  3     ecut=    42.00 Ry     beta= 0.30
     Davidson diagonalization with overlap
     ethr =  1.69E-03,  avg # of iterations =  2.0

     negative rho (up, down):  1.941E-03 0.000E+00

     total cpu time spent up to now is       20.9 secs

     total energy              =      -8.54497627 Ry
     Harris-Foulkes estimate   =      -8.54516624 Ry
     estimated scf accuracy    <       0.00240114 Ry

     iteration #  4     ecut=    42.00 Ry     beta= 0.30
     Davidson diagonalization with overlap
     c_bands:  1 eigenvalues not converged
     ethr =  4.80E-05,  avg # of iterations = 14.8

     negative rho (up, down):  2.191E-03 0.000E+00

     total cpu time spent up to now is       32.6 secs

     total energy              =      -8.54531636 Ry
     Harris-Foulkes estimate   =      -8.54520177 Ry
     estimated scf accuracy    <       0.00245575 Ry

     iteration #  5     ecut=    42.00 Ry     beta= 0.30
     Davidson diagonalization with overlap
     ethr =  4.80E-05,  avg # of iterations =  1.0

     negative rho (up, down):  6.272E-04 0.000E+00

     total cpu time spent up to now is       37.5 secs

     total energy              =      -8.54430247 Ry
     Harris-Foulkes estimate   =      -8.54533099 Ry
     estimated scf accuracy    <       0.00298855 Ry

     iteration #  6     ecut=    42.00 Ry     beta= 0.30
     Davidson diagonalization with overlap
     ethr =  4.80E-05,  avg # of iterations =  5.8

     negative rho (up, down):  3.323E-04 0.000E+00

     total cpu time spent up to now is       45.3 secs

     total energy              =      -8.54431384 Ry
     Harris-Foulkes estimate   =      -8.54671112 Ry
     estimated scf accuracy    <       0.00672669 Ry

     iteration #  7     ecut=    42.00 Ry     beta= 0.30
     Davidson diagonalization with overlap
     ethr =  4.80E-05,  avg # of iterations =  2.0

     negative rho (up, down):  2.341E-04 0.000E+00

     total cpu time spent up to now is       52.7 secs

     total energy              =      -8.54427239 Ry
     Harris-Foulkes estimate   =      -8.54468722 Ry
     estimated scf accuracy    <       0.00081939 Ry

     iteration #  8     ecut=    42.00 Ry     beta= 0.30
     Davidson diagonalization with overlap
     ethr =  1.64E-05,  avg # of iterations =  3.0

     negative rho (up, down):  8.691E-06 0.000E+00

     total cpu time spent up to now is       58.6 secs

     total energy              =      -8.54438740 Ry
     Harris-Foulkes estimate   =      -8.54439650 Ry
     estimated scf accuracy    <       0.00002062 Ry

     iteration #  9     ecut=    42.00 Ry     beta= 0.30
     Davidson diagonalization with overlap
     ethr =  4.12E-07,  avg # of iterations = 10.0

     negative rho (up, down):  5.785E-06 0.000E+00

     total cpu time spent up to now is       68.2 secs

     total energy              =      -8.54439948 Ry
     Harris-Foulkes estimate   =      -8.54440219 Ry
     estimated scf accuracy    <       0.00004217 Ry

     iteration # 10     ecut=    42.00 Ry     beta= 0.30
     Davidson diagonalization with overlap
     ethr =  4.12E-07,  avg # of iterations =  1.0

     negative rho (up, down):  1.145E-06 0.000E+00

     total cpu time spent up to now is       73.3 secs

     total energy              =      -8.54438715 Ry
     Harris-Foulkes estimate   =      -8.54439963 Ry
     estimated scf accuracy    <       0.00002987 Ry

     iteration # 11     ecut=    42.00 Ry     beta= 0.30
     Davidson diagonalization with overlap
     ethr =  4.12E-07,  avg # of iterations =  6.7

     negative rho (up, down):  1.906E-07 0.000E+00

     total cpu time spent up to now is       80.6 secs

     total energy              =      -8.54439557 Ry
     Harris-Foulkes estimate   =      -8.54439888 Ry
     estimated scf accuracy    <       0.00001123 Ry

     iteration # 12     ecut=    42.00 Ry     beta= 0.30
     Davidson diagonalization with overlap
     ethr =  2.25E-07,  avg # of iterations =  1.0

     negative rho (up, down):  2.857E-07 0.000E+00

     total cpu time spent up to now is       87.3 secs

     total energy              =      -8.54439321 Ry
     Harris-Foulkes estimate   =      -8.54439591 Ry
     estimated scf accuracy    <       0.00000436 Ry

     iteration # 13     ecut=    42.00 Ry     beta= 0.30
     Davidson diagonalization with overlap
     ethr =  8.73E-08,  avg # of iterations =  2.0

     total cpu time spent up to now is       92.3 secs

     End of self-consistent calculation

          k = 0.0000 0.0000 0.0000 (248049 PWs)   bands (ev):

   -13.4537  -6.5407  -3.9731  -3.9731  -0.3694   0.1025   0.2605

     occupation numbers 
     1.0000   1.0001   0.2499   0.2499   0.0000   0.0000   0.0000

          k = 0.0000 0.0000-0.5000 (247982 PWs)   bands (ev):

   -13.4537  -6.5407  -3.9731  -3.9731  -0.3623   0.0725   0.2061

     occupation numbers 
     1.0000   1.0001   0.2499   0.2499   0.0000   0.0000   0.0000

          k = 0.0000-0.5000-0.5000 (248312 PWs)   bands (ev):

   -13.4538  -6.5408  -3.9731  -3.9731  -0.3561   0.1397   0.1397

     occupation numbers 
     1.0000   1.0001   0.2499   0.2499   0.0000   0.0000   0.0000

          k =-0.5000-0.5000-0.5000 (248296 PWs)   bands (ev):

   -13.4538  -6.5408  -3.9731  -3.9731  -0.3524   0.1854   0.1933

     occupation numbers 
     1.0000   1.0001   0.2499   0.2499   0.0000   0.0000   0.0000

          k =-0.5000 0.0000 0.0000 (247982 PWs)   bands (ev):

   -13.4537  -6.5407  -3.9731  -3.9731  -0.3641   0.0722   0.2251

     occupation numbers 
     1.0000   1.0001   0.2499   0.2499   0.0000   0.0000   0.0000

          k =-0.5000 0.5000 0.0000 (248312 PWs)   bands (ev):

   -13.4538  -6.5408  -3.9731  -3.9731  -0.3579   0.1351   0.1367

     occupation numbers 
     1.0000   1.0001   0.2499   0.2499   0.0000   0.0000   0.0000

     the Fermi energy is    -4.1402 ev

!    total energy              =      -8.54439403 Ry
     Harris-Foulkes estimate   =      -8.54439404 Ry
     estimated scf accuracy    <          7.3E-09 Ry

     The total energy is the sum of the following terms:

     one-electron contribution =     -15.70075322 Ry
     hartree contribution      =       8.15461168 Ry
     xc contribution           =      -2.97601998 Ry
     ewald contribution        =       2.00840051 Ry
     smearing contrib. (-TS)   =      -0.03063302 Ry

     convergence has been achieved in  13 iterations

     Forces acting on atoms (cartesian axes, Ry/au):

     atom    1 type  1   force =    -0.72529306    0.00000000    0.00000000
     atom    2 type  2   force =     0.72529306    0.00000000    0.00000000
     The non-local contrib.  to forces
     atom    1 type  1   force =    -0.74449845    0.00000000    0.00000000
     atom    2 type  2   force =     0.00000000    0.00000000    0.00000000
     The ionic contribution  to forces
     atom    1 type  1   force =    -1.88426538   -0.00000000   -0.00000000
     atom    2 type  2   force =     1.88426538    0.00000000   -0.00000000
     The local contribution  to forces
     atom    1 type  1   force =     1.90345414   -0.00000000   -0.00000000
     atom    2 type  2   force =    -1.15897644   -0.00000000   -0.00000000
     The core correction contribution to forces
     atom    1 type  1   force =     0.00000000    0.00000000    0.00000000
     atom    2 type  2   force =     0.00000000    0.00000000    0.00000000
     The Hubbard contrib.    to forces
     atom    1 type  1   force =     0.00000000    0.00000000    0.00000000
     atom    2 type  2   force =     0.00000000    0.00000000    0.00000000
     The SCF correction term to forces
     atom    1 type  1   force =     0.00000797    0.00000000    0.00000000
     atom    2 type  2   force =    -0.00000455    0.00000000    0.00000000

     Total force =     1.025719     Total SCF correction =     0.000009


     Computing stress (Cartesian axis) and pressure

          total   stress  (Ry/bohr**3)                   (kbar)     P=    1.30
   0.00002733   0.00000000   0.00000000          4.02      0.00      0.00
   0.00000000  -0.00000037   0.00000000          0.00     -0.05      0.00
   0.00000000   0.00000000  -0.00000037          0.00      0.00     -0.05

     kinetic stress (kbar)      9.44      0.00      0.00
                                0.00      7.74      0.00
                                0.00      0.00      7.74

     local   stress (kbar)    -29.89     -0.00     -0.00
                               -0.00    -16.73      0.00
                               -0.00      0.00    -16.73

     nonloc. stress (kbar)      9.36      0.00      0.00
                                0.00      6.45      0.00
                                0.00      0.00      6.45

     hartree stress (kbar)      8.75     -0.00      0.00
                               -0.00      6.73     -0.00
                                0.00     -0.00      6.73

     exc-cor stress (kbar)     -2.53      0.00     -0.00
                                0.00     -2.54      0.00
                               -0.00      0.00     -2.54

     corecor stress (kbar)      0.00      0.00      0.00
                                0.00      0.00      0.00
                                0.00      0.00      0.00

     ewald   stress (kbar)      8.89     -0.00     -0.00
                               -0.00     -1.71     -0.00
                               -0.00     -0.00     -1.71

     hubbard stress (kbar)      0.00      0.00      0.00
                                0.00      0.00      0.00
                                0.00      0.00      0.00

     london  stress (kbar)      0.00      0.00      0.00
                                0.00      0.00      0.00
                                0.00      0.00      0.00

     DFT-D3  stress (kbar)      0.00      0.00      0.00
                                0.00      0.00      0.00
                                0.00      0.00      0.00

     XDM     stress (kbar)      0.00      0.00      0.00
                                0.00      0.00      0.00
                                0.00      0.00      0.00

     dft-nl  stress (kbar)      0.00      0.00      0.00
                                0.00      0.00      0.00
                                0.00      0.00      0.00

     TS-vdW  stress (kbar)      0.00      0.00      0.00
                                0.00      0.00      0.00
                                0.00      0.00      0.00



     Writing output data file SiH10.save

     init_run     :      3.43s CPU      3.58s WALL (       1 calls)
     electrons    :     83.07s CPU     89.12s WALL (       1 calls)
     forces       :      0.41s CPU      0.42s WALL (       1 calls)
     stress       :      1.90s CPU      1.99s WALL (       1 calls)

     Called by init_run:
     wfcinit      :      1.57s CPU      1.59s WALL (       1 calls)
     wfcinit:atom :      0.03s CPU      0.03s WALL (       6 calls)
     wfcinit:wfcr :      1.47s CPU      1.48s WALL (       6 calls)
     potinit      :      0.66s CPU      0.71s WALL (       1 calls)

     Called by electrons:
     c_bands      :     64.84s CPU     70.19s WALL (      13 calls)
     sum_band     :     11.70s CPU     11.76s WALL (      13 calls)
     v_of_rho     :      5.28s CPU      5.32s WALL (      14 calls)
     v_h          :      0.51s CPU      0.52s WALL (      14 calls)
     v_xc         :      4.77s CPU      4.81s WALL (      14 calls)
     mix_rho      :      1.40s CPU      1.50s WALL (      13 calls)

     Called by c_bands:
     init_us_2    :      1.02s CPU      1.02s WALL (     174 calls)
     cegterg      :     64.05s CPU     64.19s WALL (      78 calls)

     Called by sum_band:

     Called by *egterg:
     h_psi        :     61.28s CPU     61.39s WALL (     418 calls)
     g_psi        :      0.26s CPU      0.26s WALL (     334 calls)
     cdiaghg      :      0.06s CPU      0.06s WALL (     412 calls)
     cegterg:over :      1.42s CPU      1.43s WALL (     334 calls)
     cegterg:upda :      1.17s CPU      1.18s WALL (     334 calls)
     cegterg:last :      0.43s CPU      0.43s WALL (      97 calls)

     Called by h_psi:
     h_psi:pot    :     60.98s CPU     61.09s WALL (     418 calls)
     h_psi:calbec :      0.40s CPU      0.40s WALL (     418 calls)
     vloc_psi     :     60.33s CPU     60.44s WALL (     418 calls)
     add_vuspsi   :      0.24s CPU      0.24s WALL (     418 calls)

     General routines
     calbec       :      0.46s CPU      0.46s WALL (     448 calls)
     fft          :      4.57s CPU      4.60s WALL (     161 calls)
     fftw         :     61.49s CPU     61.60s WALL (    4104 calls)

     Parallel routines
     fft_scatt_xy :     10.06s CPU     10.08s WALL (    4265 calls)
     fft_scatt_yz :     11.72s CPU     11.76s WALL (    4265 calls)

     PWSCF        :  1m29.38s CPU     1m40.27s WALL


   This run was terminated on:   7:59:33   1Oct2020            

=------------------------------------------------------------------------------=
   JOB DONE.
=------------------------------------------------------------------------------=
