
     Program PWSCF v.6.2 (svn rev. 14038) starts on  1Oct2020 at  8:12:52 

     This program is part of the open-source Quantum ESPRESSO suite
     for quantum simulation of materials; please cite
         "P. Giannozzi et al., J. Phys.:Condens. Matter 21 395502 (2009);
         "P. Giannozzi et al., J. Phys.:Condens. Matter 29 465901 (2017);
          URL http://www.quantum-espresso.org", 
     in publications or presentations arising from this work. More details at
     http://www.quantum-espresso.org/quote

     Parallel version (MPI), running on     8 processors

     MPI processes distributed on     1 nodes
     R & G space division:  proc/nbgrp/npool/nimage =       8
     Waiting for input...
     Reading input from standard input

     Current dimensions of program PWSCF are:
     Max number of different atomic species (ntypx) = 10
     Max number of k-points (npk) =  40000
     Max angular momentum in pseudopotentials (lmaxx) =  3

     Subspace diagonalization in iterative solution of the eigenvalue problem:
     a serial algorithm will be used


     Parallelization info
     --------------------
     sticks:   dense  smooth     PW     G-vecs:    dense   smooth      PW
     Min        2386    2386    623               248152   248152   33108
     Max        2387    2387    625               248157   248157   33111
     Sum       19089   19089   4989              1985227  1985227  264875



     bravais-lattice index     =            1
     lattice parameter (alat)  =      37.7945  a.u.
     unit-cell volume          =   53986.6767 (a.u.)^3
     number of atoms/cell      =            2
     number of atomic types    =            2
     number of electrons       =         5.00
     number of Kohn-Sham states=            7
     kinetic-energy cutoff     =      42.0000  Ry
     charge density cutoff     =     168.0000  Ry
     convergence threshold     =      1.0E-08
     mixing beta               =       0.3000
     number of iterations used =            8  plain     mixing
     Exchange-correlation      = SLA-PW-PBX-PBC ( 1  4  3  4 0 0)

     celldm(1)=  37.794523  celldm(2)=   0.000000  celldm(3)=   0.000000
     celldm(4)=   0.000000  celldm(5)=   0.000000  celldm(6)=   0.000000

     crystal axes: (cart. coord. in units of alat)
               a(1) = (   1.000000   0.000000   0.000000 )  
               a(2) = (   0.000000   1.000000   0.000000 )  
               a(3) = (   0.000000   0.000000   1.000000 )  

     reciprocal axes: (cart. coord. in units 2 pi/alat)
               b(1) = (  1.000000  0.000000  0.000000 )  
               b(2) = (  0.000000  1.000000  0.000000 )  
               b(3) = (  0.000000  0.000000  1.000000 )  


     PseudoPot. # 1 for Si read from file:
     ./Si.pbe-hgh.UPF
     MD5 check sum: 9a9f0f6e09139bfdb36b03ff6bc35900
     Pseudo is Norm-conserving, Zval =  4.0
     Generated in analytical, separable form
     Using radial grid of 1141 points,  3 beta functions with: 
                l(1) =   0
                l(2) =   0
                l(3) =   1

     PseudoPot. # 2 for H  read from file:
     ./H.pbe-hgh.UPF
     MD5 check sum: 5f350582108a937bec95f27f5610ab08
     Pseudo is Norm-conserving, Zval =  1.0
     Generated in analytical, separable form
     Using radial grid of  929 points,  0 beta functions with: 

     atomic species   valence    mass     pseudopotential
        Si             4.00    28.08000     Si( 1.00)
        H              1.00     1.00784     H ( 1.00)

      8 Sym. Ops. (no inversion) found


                                    s                        frac. trans.

      isym =  1     identity                                     

 cryst.   s( 1) = (     1          0          0      )
                  (     0          1          0      )
                  (     0          0          1      )

 cart.    s( 1) = (  1.0000000  0.0000000  0.0000000 )
                  (  0.0000000  1.0000000  0.0000000 )
                  (  0.0000000  0.0000000  1.0000000 )


      isym =  2     180 deg rotation - cart. axis [1,0,0]        

 cryst.   s( 2) = (     1          0          0      )
                  (     0         -1          0      )
                  (     0          0         -1      )

 cart.    s( 2) = (  1.0000000  0.0000000  0.0000000 )
                  (  0.0000000 -1.0000000  0.0000000 )
                  (  0.0000000  0.0000000 -1.0000000 )


      isym =  3      90 deg rotation - cart. axis [-1,0,0]       

 cryst.   s( 3) = (     1          0          0      )
                  (     0          0         -1      )
                  (     0          1          0      )

 cart.    s( 3) = (  1.0000000  0.0000000  0.0000000 )
                  (  0.0000000  0.0000000  1.0000000 )
                  (  0.0000000 -1.0000000  0.0000000 )


      isym =  4      90 deg rotation - cart. axis [1,0,0]        

 cryst.   s( 4) = (     1          0          0      )
                  (     0          0          1      )
                  (     0         -1          0      )

 cart.    s( 4) = (  1.0000000  0.0000000  0.0000000 )
                  (  0.0000000  0.0000000 -1.0000000 )
                  (  0.0000000  1.0000000  0.0000000 )


      isym =  5     inv. 180 deg rotation - cart. axis [0,0,1]   

 cryst.   s( 5) = (     1          0          0      )
                  (     0          1          0      )
                  (     0          0         -1      )

 cart.    s( 5) = (  1.0000000  0.0000000  0.0000000 )
                  (  0.0000000  1.0000000  0.0000000 )
                  (  0.0000000  0.0000000 -1.0000000 )


      isym =  6     inv. 180 deg rotation - cart. axis [0,1,0]   

 cryst.   s( 6) = (     1          0          0      )
                  (     0         -1          0      )
                  (     0          0          1      )

 cart.    s( 6) = (  1.0000000  0.0000000  0.0000000 )
                  (  0.0000000 -1.0000000  0.0000000 )
                  (  0.0000000  0.0000000  1.0000000 )


      isym =  7     inv. 180 deg rotation - cart. axis [0,1,1]   

 cryst.   s( 7) = (     1          0          0      )
                  (     0          0         -1      )
                  (     0         -1          0      )

 cart.    s( 7) = (  1.0000000  0.0000000  0.0000000 )
                  (  0.0000000  0.0000000 -1.0000000 )
                  (  0.0000000 -1.0000000  0.0000000 )


      isym =  8     inv. 180 deg rotation - cart. axis [0,1,-1]  

 cryst.   s( 8) = (     1          0          0      )
                  (     0          0          1      )
                  (     0          1          0      )

 cart.    s( 8) = (  1.0000000  0.0000000  0.0000000 )
                  (  0.0000000  0.0000000  1.0000000 )
                  (  0.0000000  1.0000000  0.0000000 )


     point group C_4v (4mm) 
     there are  5 classes
     the character table:

       E     2C4   C2    2s_v  2s_d 
A_1    1.00  1.00  1.00  1.00  1.00
A_2    1.00  1.00  1.00 -1.00 -1.00
B_1    1.00 -1.00  1.00  1.00 -1.00
B_2    1.00 -1.00  1.00 -1.00  1.00
E      2.00  0.00 -2.00  0.00  0.00

     the symmetry operations in each class and the name of the first element:

     E        1
          identity                                               
     2C4      3    4
           90 deg rotation - cart. axis [-1,0,0]                 
     C2       2
          180 deg rotation - cart. axis [1,0,0]                  
     2s_v     5    6
          inv. 180 deg rotation - cart. axis [0,0,1]             
     2s_d     7    8
          inv. 180 deg rotation - cart. axis [0,1,1]             

   Cartesian axes

     site n.     atom                  positions (alat units)
         1           Si  tau(   1) = (   0.0000000   0.0000000   0.0000000  )
         2           H   tau(   2) = (   0.0560000   0.0000000   0.0000000  )

   Crystallographic axes

     site n.     atom                  positions (cryst. coord.)
         1           Si  tau(   1) = (  0.0000000  0.0000000  0.0000000  )
         2           H   tau(   2) = (  0.0560000  0.0000000  0.0000000  )

     number of k points=     6  Marzari-Vanderbilt smearing, width (Ry)=  0.0500
                       cart. coord. in units 2pi/alat
        k(    1) = (   0.0000000   0.0000000   0.0000000), wk =   0.2500000
        k(    2) = (   0.0000000   0.0000000  -0.5000000), wk =   0.5000000
        k(    3) = (   0.0000000  -0.5000000  -0.5000000), wk =   0.2500000
        k(    4) = (  -0.5000000  -0.5000000  -0.5000000), wk =   0.2500000
        k(    5) = (  -0.5000000   0.0000000   0.0000000), wk =   0.2500000
        k(    6) = (  -0.5000000   0.5000000   0.0000000), wk =   0.5000000

                       cryst. coord.
        k(    1) = (   0.0000000   0.0000000   0.0000000), wk =   0.2500000
        k(    2) = (   0.0000000   0.0000000  -0.5000000), wk =   0.5000000
        k(    3) = (   0.0000000  -0.5000000  -0.5000000), wk =   0.2500000
        k(    4) = (  -0.5000000  -0.5000000  -0.5000000), wk =   0.2500000
        k(    5) = (  -0.5000000   0.0000000   0.0000000), wk =   0.2500000
        k(    6) = (  -0.5000000   0.5000000   0.0000000), wk =   0.5000000

     Dense  grid:  1985227 G-vectors     FFT dimensions: ( 160, 160, 160)

     Dynamical RAM for                 wfc:       3.31 MB

     Dynamical RAM for     wfc (w. buffer):      23.19 MB

     Dynamical RAM for           str. fact:       7.57 MB

     Dynamical RAM for           local pot:       0.00 MB

     Dynamical RAM for          nlocal pot:       2.37 MB

     Dynamical RAM for                qrad:       2.14 MB

     Dynamical RAM for          rho,v,vnew:      23.08 MB

     Dynamical RAM for               rhoin:       7.69 MB

     Dynamical RAM for            rho*nmix:      60.58 MB

     Dynamical RAM for           G-vectors:      16.09 MB

     Dynamical RAM for          h,s,v(r/c):       0.04 MB

     Dynamical RAM for          <psi|beta>:       0.00 MB

     Dynamical RAM for                 psi:      13.25 MB

     Dynamical RAM for                hpsi:      13.25 MB

     Dynamical RAM for      wfcinit/wfcrot:       6.63 MB

     Estimated static dynamical RAM per process >     173.61 MB

     Estimated max dynamical RAM per process >     200.15 MB

     Estimated total dynamical RAM >       1.56 GB

     Initial potential from superposition of free atoms
     Check: negative starting charge=   -0.012407

     starting charge    4.99943, renormalised to    5.00000

     negative rho (up, down):  1.241E-02 0.000E+00
     Starting wfc are    5 randomized atomic wfcs +    2 random wfc

     total cpu time spent up to now is        3.8 secs

     Self-consistent Calculation

     iteration #  1     ecut=    42.00 Ry     beta= 0.30
     Davidson diagonalization with overlap
     ethr =  1.00E-02,  avg # of iterations =  5.5

     negative rho (up, down):  8.590E-03 0.000E+00

     total cpu time spent up to now is       11.5 secs

     total energy              =      -8.60793468 Ry
     Harris-Foulkes estimate   =      -8.66640253 Ry
     estimated scf accuracy    <       0.21484817 Ry

     iteration #  2     ecut=    42.00 Ry     beta= 0.30
     Davidson diagonalization with overlap
     ethr =  4.30E-03,  avg # of iterations =  1.0

     negative rho (up, down):  1.993E-03 0.000E+00

     total cpu time spent up to now is       16.0 secs

     total energy              =      -8.57058184 Ry
     Harris-Foulkes estimate   =      -8.61353516 Ry
     estimated scf accuracy    <       0.07908104 Ry

     iteration #  3     ecut=    42.00 Ry     beta= 0.30
     Davidson diagonalization with overlap
     ethr =  1.58E-03,  avg # of iterations =  2.0

     negative rho (up, down):  1.917E-03 0.000E+00

     total cpu time spent up to now is       20.9 secs

     total energy              =      -8.58298915 Ry
     Harris-Foulkes estimate   =      -8.58328904 Ry
     estimated scf accuracy    <       0.00213699 Ry

     iteration #  4     ecut=    42.00 Ry     beta= 0.30
     Davidson diagonalization with overlap
     ethr =  4.27E-05,  avg # of iterations = 13.7

     negative rho (up, down):  1.568E-03 0.000E+00

     total cpu time spent up to now is       32.0 secs

     total energy              =      -8.58295327 Ry
     Harris-Foulkes estimate   =      -8.58317815 Ry
     estimated scf accuracy    <       0.00180346 Ry

     iteration #  5     ecut=    42.00 Ry     beta= 0.30
     Davidson diagonalization with overlap
     ethr =  3.61E-05,  avg # of iterations =  1.0

     negative rho (up, down):  2.908E-04 0.000E+00

     total cpu time spent up to now is       36.5 secs

     total energy              =      -8.58234230 Ry
     Harris-Foulkes estimate   =      -8.58296700 Ry
     estimated scf accuracy    <       0.00117869 Ry

     iteration #  6     ecut=    42.00 Ry     beta= 0.30
     Davidson diagonalization with overlap
     ethr =  2.36E-05,  avg # of iterations =  2.8

     negative rho (up, down):  2.579E-04 0.000E+00

     total cpu time spent up to now is       43.6 secs

     total energy              =      -8.58263673 Ry
     Harris-Foulkes estimate   =      -8.58271316 Ry
     estimated scf accuracy    <       0.00024059 Ry

     iteration #  7     ecut=    42.00 Ry     beta= 0.30
     Davidson diagonalization with overlap
     c_bands:  1 eigenvalues not converged
     c_bands:  1 eigenvalues not converged
     ethr =  4.81E-06,  avg # of iterations = 12.3

     negative rho (up, down):  9.906E-05 0.000E+00

     total cpu time spent up to now is       51.8 secs

     total energy              =      -8.58261516 Ry
     Harris-Foulkes estimate   =      -8.58265135 Ry
     estimated scf accuracy    <       0.00006730 Ry

     iteration #  8     ecut=    42.00 Ry     beta= 0.30
     Davidson diagonalization with overlap
     ethr =  1.35E-06,  avg # of iterations =  3.7

     total cpu time spent up to now is       57.7 secs

     total energy              =      -8.58262586 Ry
     Harris-Foulkes estimate   =      -8.58262976 Ry
     estimated scf accuracy    <       0.00001310 Ry

     iteration #  9     ecut=    42.00 Ry     beta= 0.30
     Davidson diagonalization with overlap
     ethr =  2.62E-07,  avg # of iterations =  6.0

     negative rho (up, down):  1.316E-08 0.000E+00

     total cpu time spent up to now is       64.8 secs

     total energy              =      -8.58262786 Ry
     Harris-Foulkes estimate   =      -8.58262793 Ry
     estimated scf accuracy    <       0.00000312 Ry

     iteration # 10     ecut=    42.00 Ry     beta= 0.30
     Davidson diagonalization with overlap
     ethr =  6.24E-08,  avg # of iterations =  1.0

     negative rho (up, down):  9.602E-07 0.000E+00

     total cpu time spent up to now is       69.3 secs

     total energy              =      -8.58262725 Ry
     Harris-Foulkes estimate   =      -8.58262789 Ry
     estimated scf accuracy    <       0.00000241 Ry

     iteration # 11     ecut=    42.00 Ry     beta= 0.30
     Davidson diagonalization with overlap
     ethr =  4.82E-08,  avg # of iterations =  2.0

     negative rho (up, down):  1.918E-07 0.000E+00

     total cpu time spent up to now is       77.0 secs

     total energy              =      -8.58262764 Ry
     Harris-Foulkes estimate   =      -8.58262792 Ry
     estimated scf accuracy    <       0.00000027 Ry

     iteration # 12     ecut=    42.00 Ry     beta= 0.30
     Davidson diagonalization with overlap
     ethr =  5.34E-09,  avg # of iterations =  2.0

     total cpu time spent up to now is       82.0 secs

     End of self-consistent calculation

          k = 0.0000 0.0000 0.0000 (248049 PWs)   bands (ev):

   -13.3341  -6.5585  -3.9723  -3.9723  -0.3649   0.1057   0.2590

     occupation numbers 
     1.0000   1.0001   0.2500   0.2500   0.0000   0.0000   0.0000

          k = 0.0000 0.0000-0.5000 (247982 PWs)   bands (ev):

   -13.3341  -6.5585  -3.9723  -3.9723  -0.3575   0.0734   0.2096

     occupation numbers 
     1.0000   1.0001   0.2500   0.2500   0.0000   0.0000   0.0000

          k = 0.0000-0.5000-0.5000 (248312 PWs)   bands (ev):

   -13.3343  -6.5586  -3.9723  -3.9723  -0.3512   0.1405   0.1418

     occupation numbers 
     1.0000   1.0001   0.2500   0.2500   0.0000   0.0000   0.0000

          k =-0.5000-0.5000-0.5000 (248296 PWs)   bands (ev):

   -13.3342  -6.5585  -3.9723  -3.9723  -0.3472   0.1849   0.1938

     occupation numbers 
     1.0000   1.0001   0.2500   0.2500   0.0000   0.0000   0.0000

          k =-0.5000 0.0000 0.0000 (247982 PWs)   bands (ev):

   -13.3341  -6.5585  -3.9723  -3.9723  -0.3593   0.0729   0.2284

     occupation numbers 
     1.0000   1.0001   0.2500   0.2500   0.0000   0.0000   0.0000

          k =-0.5000 0.5000 0.0000 (248312 PWs)   bands (ev):

   -13.3342  -6.5585  -3.9723  -3.9723  -0.3529   0.1353   0.1378

     occupation numbers 
     1.0000   1.0001   0.2500   0.2500   0.0000   0.0000   0.0000

     the Fermi energy is    -4.1394 ev

!    total energy              =      -8.58262768 Ry
     Harris-Foulkes estimate   =      -8.58262768 Ry
     estimated scf accuracy    <          2.3E-09 Ry

     The total energy is the sum of the following terms:

     one-electron contribution =     -15.59607229 Ry
     hartree contribution      =       8.09964946 Ry
     xc contribution           =      -2.96000861 Ry
     ewald contribution        =       1.90444244 Ry
     smearing contrib. (-TS)   =      -0.03063868 Ry

     convergence has been achieved in  12 iterations

     Forces acting on atoms (cartesian axes, Ry/au):

     atom    1 type  1   force =    -0.62556831    0.00000000    0.00000000
     atom    2 type  2   force =     0.62556831    0.00000000    0.00000000
     The non-local contrib.  to forces
     atom    1 type  1   force =    -0.62769319    0.00000000    0.00000000
     atom    2 type  2   force =     0.00000000    0.00000000    0.00000000
     The ionic contribution  to forces
     atom    1 type  1   force =    -1.78457018    0.00000000   -0.00000000
     atom    2 type  2   force =     1.78457018   -0.00000000   -0.00000000
     The local contribution  to forces
     atom    1 type  1   force =     1.78672362    0.00000000   -0.00000000
     atom    2 type  2   force =    -1.15899918    0.00000000   -0.00000000
     The core correction contribution to forces
     atom    1 type  1   force =     0.00000000    0.00000000    0.00000000
     atom    2 type  2   force =     0.00000000    0.00000000    0.00000000
     The Hubbard contrib.    to forces
     atom    1 type  1   force =     0.00000000    0.00000000    0.00000000
     atom    2 type  2   force =     0.00000000    0.00000000    0.00000000
     The SCF correction term to forces
     atom    1 type  1   force =    -0.00003214    0.00000000   -0.00000000
     atom    2 type  2   force =    -0.00000627    0.00000000    0.00000000

     Total force =     0.884687     Total SCF correction =     0.000033


     Computing stress (Cartesian axis) and pressure

          total   stress  (Ry/bohr**3)                   (kbar)     P=    1.15
   0.00002421   0.00000000   0.00000000          3.56      0.00      0.00
   0.00000000  -0.00000035   0.00000000          0.00     -0.05      0.00
   0.00000000   0.00000000  -0.00000035          0.00      0.00     -0.05

     kinetic stress (kbar)      9.23      0.00      0.00
                                0.00      7.67      0.00
                                0.00      0.00      7.67

     local   stress (kbar)    -29.61     -0.00      0.00
                               -0.00    -16.57     -0.00
                                0.00     -0.00    -16.57

     nonloc. stress (kbar)      9.12      0.00      0.00
                                0.00      6.42      0.00
                                0.00      0.00      6.42

     hartree stress (kbar)      8.73      0.00     -0.00
                                0.00      6.67      0.00
                               -0.00      0.00      6.67

     exc-cor stress (kbar)     -2.51      0.00      0.00
                                0.00     -2.52      0.00
                                0.00      0.00     -2.52

     corecor stress (kbar)      0.00      0.00      0.00
                                0.00      0.00      0.00
                                0.00      0.00      0.00

     ewald   stress (kbar)      8.60     -0.00     -0.00
                               -0.00     -1.71     -0.00
                               -0.00     -0.00     -1.71

     hubbard stress (kbar)      0.00      0.00      0.00
                                0.00      0.00      0.00
                                0.00      0.00      0.00

     london  stress (kbar)      0.00      0.00      0.00
                                0.00      0.00      0.00
                                0.00      0.00      0.00

     DFT-D3  stress (kbar)      0.00      0.00      0.00
                                0.00      0.00      0.00
                                0.00      0.00      0.00

     XDM     stress (kbar)      0.00      0.00      0.00
                                0.00      0.00      0.00
                                0.00      0.00      0.00

     dft-nl  stress (kbar)      0.00      0.00      0.00
                                0.00      0.00      0.00
                                0.00      0.00      0.00

     TS-vdW  stress (kbar)      0.00      0.00      0.00
                                0.00      0.00      0.00
                                0.00      0.00      0.00



     Writing output data file SiH12.save

     init_run     :      3.47s CPU      3.62s WALL (       1 calls)
     electrons    :     74.41s CPU     78.61s WALL (       1 calls)
     forces       :      0.41s CPU      0.42s WALL (       1 calls)
     stress       :      1.87s CPU      1.96s WALL (       1 calls)

     Called by init_run:
     wfcinit      :      1.58s CPU      1.59s WALL (       1 calls)
     wfcinit:atom :      0.03s CPU      0.03s WALL (       6 calls)
     wfcinit:wfcr :      1.47s CPU      1.48s WALL (       6 calls)
     potinit      :      0.65s CPU      0.70s WALL (       1 calls)

     Called by electrons:
     c_bands      :     57.59s CPU     61.27s WALL (      12 calls)
     sum_band     :     10.79s CPU     10.83s WALL (      12 calls)
     v_of_rho     :      4.90s CPU      4.95s WALL (      13 calls)
     v_h          :      0.47s CPU      0.48s WALL (      13 calls)
     v_xc         :      4.43s CPU      4.47s WALL (      13 calls)
     mix_rho      :      1.26s CPU      1.35s WALL (      12 calls)

     Called by c_bands:
     init_us_2    :      0.94s CPU      0.94s WALL (     162 calls)
     cegterg      :     56.87s CPU     57.01s WALL (      72 calls)

     Called by sum_band:

     Called by *egterg:
     h_psi        :     54.46s CPU     54.58s WALL (     396 calls)
     g_psi        :      0.22s CPU      0.23s WALL (     318 calls)
     cdiaghg      :      0.06s CPU      0.06s WALL (     390 calls)
     cegterg:over :      1.31s CPU      1.31s WALL (     318 calls)
     cegterg:upda :      1.09s CPU      1.10s WALL (     318 calls)
     cegterg:last :      0.36s CPU      0.37s WALL (      86 calls)

     Called by h_psi:
     h_psi:pot    :     54.20s CPU     54.31s WALL (     396 calls)
     h_psi:calbec :      0.37s CPU      0.37s WALL (     396 calls)
     vloc_psi     :     53.60s CPU     53.71s WALL (     396 calls)
     add_vuspsi   :      0.22s CPU      0.22s WALL (     396 calls)

     General routines
     calbec       :      0.41s CPU      0.42s WALL (     426 calls)
     fft          :      4.24s CPU      4.26s WALL (     150 calls)
     fftw         :     54.86s CPU     54.97s WALL (    3680 calls)

     Parallel routines
     fft_scatt_xy :      8.93s CPU      8.95s WALL (    3830 calls)
     fft_scatt_yz :     10.70s CPU     10.72s WALL (    3830 calls)

     PWSCF        :  1m20.66s CPU     1m26.44s WALL


   This run was terminated on:   8:14:19   1Oct2020            

=------------------------------------------------------------------------------=
   JOB DONE.
=------------------------------------------------------------------------------=
