
     Program PWSCF v.6.2 (svn rev. 14038) starts on  1Oct2020 at  8: 5:22 

     This program is part of the open-source Quantum ESPRESSO suite
     for quantum simulation of materials; please cite
         "P. Giannozzi et al., J. Phys.:Condens. Matter 21 395502 (2009);
         "P. Giannozzi et al., J. Phys.:Condens. Matter 29 465901 (2017);
          URL http://www.quantum-espresso.org", 
     in publications or presentations arising from this work. More details at
     http://www.quantum-espresso.org/quote

     Parallel version (MPI), running on     8 processors

     MPI processes distributed on     1 nodes
     R & G space division:  proc/nbgrp/npool/nimage =       8
     Waiting for input...
     Reading input from standard input

     Current dimensions of program PWSCF are:
     Max number of different atomic species (ntypx) = 10
     Max number of k-points (npk) =  40000
     Max angular momentum in pseudopotentials (lmaxx) =  3

     Subspace diagonalization in iterative solution of the eigenvalue problem:
     a serial algorithm will be used


     Parallelization info
     --------------------
     sticks:   dense  smooth     PW     G-vecs:    dense   smooth      PW
     Min        2386    2386    623               248152   248152   33108
     Max        2387    2387    625               248157   248157   33111
     Sum       19089   19089   4989              1985227  1985227  264875



     bravais-lattice index     =            1
     lattice parameter (alat)  =      37.7945  a.u.
     unit-cell volume          =   53986.6767 (a.u.)^3
     number of atoms/cell      =            2
     number of atomic types    =            2
     number of electrons       =         5.00
     number of Kohn-Sham states=            7
     kinetic-energy cutoff     =      42.0000  Ry
     charge density cutoff     =     168.0000  Ry
     convergence threshold     =      1.0E-08
     mixing beta               =       0.3000
     number of iterations used =            8  plain     mixing
     Exchange-correlation      = SLA-PW-PBX-PBC ( 1  4  3  4 0 0)

     celldm(1)=  37.794523  celldm(2)=   0.000000  celldm(3)=   0.000000
     celldm(4)=   0.000000  celldm(5)=   0.000000  celldm(6)=   0.000000

     crystal axes: (cart. coord. in units of alat)
               a(1) = (   1.000000   0.000000   0.000000 )  
               a(2) = (   0.000000   1.000000   0.000000 )  
               a(3) = (   0.000000   0.000000   1.000000 )  

     reciprocal axes: (cart. coord. in units 2 pi/alat)
               b(1) = (  1.000000  0.000000  0.000000 )  
               b(2) = (  0.000000  1.000000  0.000000 )  
               b(3) = (  0.000000  0.000000  1.000000 )  


     PseudoPot. # 1 for Si read from file:
     ./Si.pbe-hgh.UPF
     MD5 check sum: 9a9f0f6e09139bfdb36b03ff6bc35900
     Pseudo is Norm-conserving, Zval =  4.0
     Generated in analytical, separable form
     Using radial grid of 1141 points,  3 beta functions with: 
                l(1) =   0
                l(2) =   0
                l(3) =   1

     PseudoPot. # 2 for H  read from file:
     ./H.pbe-hgh.UPF
     MD5 check sum: 5f350582108a937bec95f27f5610ab08
     Pseudo is Norm-conserving, Zval =  1.0
     Generated in analytical, separable form
     Using radial grid of  929 points,  0 beta functions with: 

     atomic species   valence    mass     pseudopotential
        Si             4.00    28.08000     Si( 1.00)
        H              1.00     1.00784     H ( 1.00)

      8 Sym. Ops. (no inversion) found


                                    s                        frac. trans.

      isym =  1     identity                                     

 cryst.   s( 1) = (     1          0          0      )
                  (     0          1          0      )
                  (     0          0          1      )

 cart.    s( 1) = (  1.0000000  0.0000000  0.0000000 )
                  (  0.0000000  1.0000000  0.0000000 )
                  (  0.0000000  0.0000000  1.0000000 )


      isym =  2     180 deg rotation - cart. axis [1,0,0]        

 cryst.   s( 2) = (     1          0          0      )
                  (     0         -1          0      )
                  (     0          0         -1      )

 cart.    s( 2) = (  1.0000000  0.0000000  0.0000000 )
                  (  0.0000000 -1.0000000  0.0000000 )
                  (  0.0000000  0.0000000 -1.0000000 )


      isym =  3      90 deg rotation - cart. axis [-1,0,0]       

 cryst.   s( 3) = (     1          0          0      )
                  (     0          0         -1      )
                  (     0          1          0      )

 cart.    s( 3) = (  1.0000000  0.0000000  0.0000000 )
                  (  0.0000000  0.0000000  1.0000000 )
                  (  0.0000000 -1.0000000  0.0000000 )


      isym =  4      90 deg rotation - cart. axis [1,0,0]        

 cryst.   s( 4) = (     1          0          0      )
                  (     0          0          1      )
                  (     0         -1          0      )

 cart.    s( 4) = (  1.0000000  0.0000000  0.0000000 )
                  (  0.0000000  0.0000000 -1.0000000 )
                  (  0.0000000  1.0000000  0.0000000 )


      isym =  5     inv. 180 deg rotation - cart. axis [0,0,1]   

 cryst.   s( 5) = (     1          0          0      )
                  (     0          1          0      )
                  (     0          0         -1      )

 cart.    s( 5) = (  1.0000000  0.0000000  0.0000000 )
                  (  0.0000000  1.0000000  0.0000000 )
                  (  0.0000000  0.0000000 -1.0000000 )


      isym =  6     inv. 180 deg rotation - cart. axis [0,1,0]   

 cryst.   s( 6) = (     1          0          0      )
                  (     0         -1          0      )
                  (     0          0          1      )

 cart.    s( 6) = (  1.0000000  0.0000000  0.0000000 )
                  (  0.0000000 -1.0000000  0.0000000 )
                  (  0.0000000  0.0000000  1.0000000 )


      isym =  7     inv. 180 deg rotation - cart. axis [0,1,1]   

 cryst.   s( 7) = (     1          0          0      )
                  (     0          0         -1      )
                  (     0         -1          0      )

 cart.    s( 7) = (  1.0000000  0.0000000  0.0000000 )
                  (  0.0000000  0.0000000 -1.0000000 )
                  (  0.0000000 -1.0000000  0.0000000 )


      isym =  8     inv. 180 deg rotation - cart. axis [0,1,-1]  

 cryst.   s( 8) = (     1          0          0      )
                  (     0          0          1      )
                  (     0          1          0      )

 cart.    s( 8) = (  1.0000000  0.0000000  0.0000000 )
                  (  0.0000000  0.0000000  1.0000000 )
                  (  0.0000000  1.0000000  0.0000000 )


     point group C_4v (4mm) 
     there are  5 classes
     the character table:

       E     2C4   C2    2s_v  2s_d 
A_1    1.00  1.00  1.00  1.00  1.00
A_2    1.00  1.00  1.00 -1.00 -1.00
B_1    1.00 -1.00  1.00  1.00 -1.00
B_2    1.00 -1.00  1.00 -1.00  1.00
E      2.00  0.00 -2.00  0.00  0.00

     the symmetry operations in each class and the name of the first element:

     E        1
          identity                                               
     2C4      3    4
           90 deg rotation - cart. axis [-1,0,0]                 
     C2       2
          180 deg rotation - cart. axis [1,0,0]                  
     2s_v     5    6
          inv. 180 deg rotation - cart. axis [0,0,1]             
     2s_d     7    8
          inv. 180 deg rotation - cart. axis [0,1,1]             

   Cartesian axes

     site n.     atom                  positions (alat units)
         1           Si  tau(   1) = (   0.0000000   0.0000000   0.0000000  )
         2           H   tau(   2) = (   0.0650000   0.0000000   0.0000000  )

   Crystallographic axes

     site n.     atom                  positions (cryst. coord.)
         1           Si  tau(   1) = (  0.0000000  0.0000000  0.0000000  )
         2           H   tau(   2) = (  0.0650000  0.0000000  0.0000000  )

     number of k points=     6  Marzari-Vanderbilt smearing, width (Ry)=  0.0500
                       cart. coord. in units 2pi/alat
        k(    1) = (   0.0000000   0.0000000   0.0000000), wk =   0.2500000
        k(    2) = (   0.0000000   0.0000000  -0.5000000), wk =   0.5000000
        k(    3) = (   0.0000000  -0.5000000  -0.5000000), wk =   0.2500000
        k(    4) = (  -0.5000000  -0.5000000  -0.5000000), wk =   0.2500000
        k(    5) = (  -0.5000000   0.0000000   0.0000000), wk =   0.2500000
        k(    6) = (  -0.5000000   0.5000000   0.0000000), wk =   0.5000000

                       cryst. coord.
        k(    1) = (   0.0000000   0.0000000   0.0000000), wk =   0.2500000
        k(    2) = (   0.0000000   0.0000000  -0.5000000), wk =   0.5000000
        k(    3) = (   0.0000000  -0.5000000  -0.5000000), wk =   0.2500000
        k(    4) = (  -0.5000000  -0.5000000  -0.5000000), wk =   0.2500000
        k(    5) = (  -0.5000000   0.0000000   0.0000000), wk =   0.2500000
        k(    6) = (  -0.5000000   0.5000000   0.0000000), wk =   0.5000000

     Dense  grid:  1985227 G-vectors     FFT dimensions: ( 160, 160, 160)

     Dynamical RAM for                 wfc:       3.31 MB

     Dynamical RAM for     wfc (w. buffer):      23.19 MB

     Dynamical RAM for           str. fact:       7.57 MB

     Dynamical RAM for           local pot:       0.00 MB

     Dynamical RAM for          nlocal pot:       2.37 MB

     Dynamical RAM for                qrad:       2.14 MB

     Dynamical RAM for          rho,v,vnew:      23.08 MB

     Dynamical RAM for               rhoin:       7.69 MB

     Dynamical RAM for            rho*nmix:      60.58 MB

     Dynamical RAM for           G-vectors:      16.09 MB

     Dynamical RAM for          h,s,v(r/c):       0.04 MB

     Dynamical RAM for          <psi|beta>:       0.00 MB

     Dynamical RAM for                 psi:      13.25 MB

     Dynamical RAM for                hpsi:      13.25 MB

     Dynamical RAM for      wfcinit/wfcrot:       6.63 MB

     Estimated static dynamical RAM per process >     173.61 MB

     Estimated max dynamical RAM per process >     200.15 MB

     Estimated total dynamical RAM >       1.56 GB

     Initial potential from superposition of free atoms
     Check: negative starting charge=   -0.012437

     starting charge    4.99943, renormalised to    5.00000

     negative rho (up, down):  1.244E-02 0.000E+00
     Starting wfc are    5 randomized atomic wfcs +    2 random wfc

     total cpu time spent up to now is        3.8 secs

     Self-consistent Calculation

     iteration #  1     ecut=    42.00 Ry     beta= 0.30
     Davidson diagonalization with overlap
     ethr =  1.00E-02,  avg # of iterations =  5.3

     negative rho (up, down):  8.617E-03 0.000E+00

     total cpu time spent up to now is       11.5 secs

     total energy              =      -8.73637216 Ry
     Harris-Foulkes estimate   =      -8.77732065 Ry
     estimated scf accuracy    <       0.14934518 Ry

     iteration #  2     ecut=    42.00 Ry     beta= 0.30
     Davidson diagonalization with overlap
     ethr =  2.99E-03,  avg # of iterations =  1.0

     negative rho (up, down):  2.114E-03 0.000E+00

     total cpu time spent up to now is       16.0 secs

     total energy              =      -8.71199005 Ry
     Harris-Foulkes estimate   =      -8.74043135 Ry
     estimated scf accuracy    <       0.05399395 Ry

     iteration #  3     ecut=    42.00 Ry     beta= 0.30
     Davidson diagonalization with overlap
     ethr =  1.08E-03,  avg # of iterations =  2.7

     negative rho (up, down):  1.577E-03 0.000E+00

     total cpu time spent up to now is       21.1 secs

     total energy              =      -8.71950569 Ry
     Harris-Foulkes estimate   =      -8.72010567 Ry
     estimated scf accuracy    <       0.00145684 Ry

     iteration #  4     ecut=    42.00 Ry     beta= 0.30
     Davidson diagonalization with overlap
     c_bands:  1 eigenvalues not converged
     ethr =  2.91E-05,  avg # of iterations = 16.3

     negative rho (up, down):  4.368E-04 0.000E+00

     total cpu time spent up to now is       36.0 secs

     total energy              =      -8.71970791 Ry
     Harris-Foulkes estimate   =      -8.71975803 Ry
     estimated scf accuracy    <       0.00031701 Ry

     iteration #  5     ecut=    42.00 Ry     beta= 0.30
     Davidson diagonalization with overlap
     ethr =  6.34E-06,  avg # of iterations =  7.3

     negative rho (up, down):  1.631E-04 0.000E+00

     total cpu time spent up to now is       42.6 secs

     total energy              =      -8.71973026 Ry
     Harris-Foulkes estimate   =      -8.71973165 Ry
     estimated scf accuracy    <       0.00002939 Ry

     iteration #  6     ecut=    42.00 Ry     beta= 0.30
     Davidson diagonalization with overlap
     ethr =  5.88E-07,  avg # of iterations =  8.3

     negative rho (up, down):  6.541E-06 0.000E+00

     total cpu time spent up to now is       49.9 secs

     total energy              =      -8.71973096 Ry
     Harris-Foulkes estimate   =      -8.71973167 Ry
     estimated scf accuracy    <       0.00000597 Ry

     iteration #  7     ecut=    42.00 Ry     beta= 0.30
     Davidson diagonalization with overlap
     ethr =  1.19E-07,  avg # of iterations =  6.0

     negative rho (up, down):  4.094E-06 0.000E+00

     total cpu time spent up to now is       56.8 secs

     total energy              =      -8.71973235 Ry
     Harris-Foulkes estimate   =      -8.71973243 Ry
     estimated scf accuracy    <       0.00000047 Ry

     iteration #  8     ecut=    42.00 Ry     beta= 0.30
     Davidson diagonalization with overlap
     ethr =  9.44E-09,  avg # of iterations =  2.0

     negative rho (up, down):  4.014E-07 0.000E+00

     total cpu time spent up to now is       62.0 secs

     total energy              =      -8.71973239 Ry
     Harris-Foulkes estimate   =      -8.71973245 Ry
     estimated scf accuracy    <       0.00000014 Ry

     iteration #  9     ecut=    42.00 Ry     beta= 0.30
     Davidson diagonalization with overlap
     ethr =  2.79E-09,  avg # of iterations =  2.0

     total cpu time spent up to now is       66.5 secs

     End of self-consistent calculation

          k = 0.0000 0.0000 0.0000 (248049 PWs)   bands (ev):

   -12.6214  -6.6426  -3.9799  -3.9799  -0.3471   0.1168   0.2468

     occupation numbers 
     1.0000   1.0000   0.2500   0.2500   0.0000   0.0000   0.0000

          k = 0.0000 0.0000-0.5000 (247982 PWs)   bands (ev):

   -12.6213  -6.6426  -3.9799  -3.9799  -0.3390   0.0745   0.2258

     occupation numbers 
     1.0000   1.0000   0.2500   0.2500   0.0000   0.0000   0.0000

          k = 0.0000-0.5000-0.5000 (248312 PWs)   bands (ev):

   -12.6214  -6.6427  -3.9799  -3.9799  -0.3318   0.1418   0.1429

     occupation numbers 
     1.0000   1.0000   0.2500   0.2500   0.0000   0.0000   0.0000

          k =-0.5000-0.5000-0.5000 (248296 PWs)   bands (ev):

   -12.6214  -6.6427  -3.9799  -3.9799  -0.3268   0.1781   0.1955

     occupation numbers 
     1.0000   1.0000   0.2500   0.2500   0.0000   0.0000   0.0000

          k =-0.5000 0.0000 0.0000 (247982 PWs)   bands (ev):

   -12.6213  -6.6426  -3.9799  -3.9799  -0.3401   0.0707   0.2367

     occupation numbers 
     1.0000   1.0000   0.2500   0.2500   0.0000   0.0000   0.0000

          k =-0.5000 0.5000 0.0000 (248312 PWs)   bands (ev):

   -12.6214  -6.6427  -3.9799  -3.9799  -0.3330   0.1312   0.1395

     occupation numbers 
     1.0000   1.0000   0.2500   0.2500   0.0000   0.0000   0.0000

     the Fermi energy is    -4.1469 ev

!    total energy              =      -8.71973242 Ry
     Harris-Foulkes estimate   =      -8.71973240 Ry
     estimated scf accuracy    <          4.9E-09 Ry

     The total energy is the sum of the following terms:

     one-electron contribution =     -14.98129170 Ry
     hartree contribution      =       7.77978034 Ry
     xc contribution           =      -2.86913415 Ry
     ewald contribution        =       1.38156843 Ry
     smearing contrib. (-TS)   =      -0.03065534 Ry

     convergence has been achieved in   9 iterations

     Forces acting on atoms (cartesian axes, Ry/au):

     atom    1 type  1   force =    -0.22946945    0.00000000    0.00000000
     atom    2 type  2   force =     0.22946945    0.00000000    0.00000000
     The non-local contrib.  to forces
     atom    1 type  1   force =    -0.12571136    0.00000000    0.00000000
     atom    2 type  2   force =     0.00000000    0.00000000    0.00000000
     The ionic contribution  to forces
     atom    1 type  1   force =    -1.32403476    0.00000000   -0.00000000
     atom    2 type  2   force =     1.32403476   -0.00000000   -0.00000000
     The local contribution  to forces
     atom    1 type  1   force =     1.22023010   -0.00000000   -0.00000000
     atom    2 type  2   force =    -1.09455837   -0.00000000   -0.00000000
     The core correction contribution to forces
     atom    1 type  1   force =     0.00000000    0.00000000    0.00000000
     atom    2 type  2   force =     0.00000000    0.00000000    0.00000000
     The Hubbard contrib.    to forces
     atom    1 type  1   force =     0.00000000    0.00000000    0.00000000
     atom    2 type  2   force =     0.00000000    0.00000000    0.00000000
     The SCF correction term to forces
     atom    1 type  1   force =     0.00004554    0.00000000   -0.00000000
     atom    2 type  2   force =    -0.00000799   -0.00000000   -0.00000000

     Total force =     0.324519     Total SCF correction =     0.000046


     Computing stress (Cartesian axis) and pressure

          total   stress  (Ry/bohr**3)                   (kbar)     P=    0.47
   0.00001017   0.00000000   0.00000000          1.50      0.00      0.00
   0.00000000  -0.00000028   0.00000000          0.00     -0.04      0.00
   0.00000000   0.00000000  -0.00000028          0.00      0.00     -0.04

     kinetic stress (kbar)      8.18      0.00      0.00
                                0.00      7.29      0.00
                                0.00      0.00      7.29

     local   stress (kbar)    -28.11     -0.00      0.00
                               -0.00    -15.76     -0.00
                                0.00     -0.00    -15.76

     nonloc. stress (kbar)      8.02      0.00      0.00
                                0.00      6.31      0.00
                                0.00      0.00      6.31

     hartree stress (kbar)      8.64      0.00     -0.00
                                0.00      6.28      0.00
                               -0.00      0.00      6.28

     exc-cor stress (kbar)     -2.42     -0.00      0.00
                               -0.00     -2.45     -0.00
                                0.00     -0.00     -2.45

     corecor stress (kbar)      0.00      0.00      0.00
                                0.00      0.00      0.00
                                0.00      0.00      0.00

     ewald   stress (kbar)      7.18     -0.00     -0.00
                               -0.00     -1.71     -0.00
                               -0.00     -0.00     -1.71

     hubbard stress (kbar)      0.00      0.00      0.00
                                0.00      0.00      0.00
                                0.00      0.00      0.00

     london  stress (kbar)      0.00      0.00      0.00
                                0.00      0.00      0.00
                                0.00      0.00      0.00

     DFT-D3  stress (kbar)      0.00      0.00      0.00
                                0.00      0.00      0.00
                                0.00      0.00      0.00

     XDM     stress (kbar)      0.00      0.00      0.00
                                0.00      0.00      0.00
                                0.00      0.00      0.00

     dft-nl  stress (kbar)      0.00      0.00      0.00
                                0.00      0.00      0.00
                                0.00      0.00      0.00

     TS-vdW  stress (kbar)      0.00      0.00      0.00
                                0.00      0.00      0.00
                                0.00      0.00      0.00



     Writing output data file SiH21.save

     init_run     :      3.40s CPU      3.56s WALL (       1 calls)
     electrons    :     60.25s CPU     63.46s WALL (       1 calls)
     forces       :      0.46s CPU      0.48s WALL (       1 calls)
     stress       :      1.88s CPU      1.97s WALL (       1 calls)

     Called by init_run:
     wfcinit      :      1.57s CPU      1.59s WALL (       1 calls)
     wfcinit:atom :      0.04s CPU      0.04s WALL (       6 calls)
     wfcinit:wfcr :      1.46s CPU      1.47s WALL (       6 calls)
     potinit      :      0.64s CPU      0.69s WALL (       1 calls)

     Called by electrons:
     c_bands      :     47.75s CPU     50.22s WALL (       9 calls)
     sum_band     :      8.07s CPU      8.10s WALL (       9 calls)
     v_of_rho     :      3.79s CPU      3.84s WALL (      10 calls)
     v_h          :      0.37s CPU      0.37s WALL (      10 calls)
     v_xc         :      3.42s CPU      3.46s WALL (      10 calls)
     mix_rho      :      0.79s CPU      0.87s WALL (       9 calls)

     Called by c_bands:
     init_us_2    :      0.73s CPU      0.74s WALL (     126 calls)
     cegterg      :     47.22s CPU     47.36s WALL (      54 calls)

     Called by sum_band:

     Called by *egterg:
     h_psi        :     45.15s CPU     45.27s WALL (     366 calls)
     g_psi        :      0.19s CPU      0.19s WALL (     306 calls)
     cdiaghg      :      0.06s CPU      0.06s WALL (     360 calls)
     cegterg:over :      1.24s CPU      1.25s WALL (     306 calls)
     cegterg:upda :      1.07s CPU      1.08s WALL (     306 calls)
     cegterg:last :      0.33s CPU      0.34s WALL (      70 calls)

     Called by h_psi:
     h_psi:pot    :     44.93s CPU     45.04s WALL (     366 calls)
     h_psi:calbec :      0.31s CPU      0.31s WALL (     366 calls)
     vloc_psi     :     44.43s CPU     44.54s WALL (     366 calls)
     add_vuspsi   :      0.19s CPU      0.19s WALL (     366 calls)

     General routines
     calbec       :      0.35s CPU      0.35s WALL (     396 calls)
     fft          :      3.31s CPU      3.34s WALL (     117 calls)
     fftw         :     44.83s CPU     44.93s WALL (    3014 calls)

     Parallel routines
     fft_scatt_xy :      7.30s CPU      7.32s WALL (    3131 calls)
     fft_scatt_yz :      8.47s CPU      8.50s WALL (    3131 calls)

     PWSCF        :  1m 6.47s CPU     1m11.00s WALL


   This run was terminated on:   8: 6:33   1Oct2020            

=------------------------------------------------------------------------------=
   JOB DONE.
=------------------------------------------------------------------------------=
