
     Program PWSCF v.6.2 (svn rev. 14038) starts on  1Oct2020 at 20:41: 9 

     This program is part of the open-source Quantum ESPRESSO suite
     for quantum simulation of materials; please cite
         "P. Giannozzi et al., J. Phys.:Condens. Matter 21 395502 (2009);
         "P. Giannozzi et al., J. Phys.:Condens. Matter 29 465901 (2017);
          URL http://www.quantum-espresso.org", 
     in publications or presentations arising from this work. More details at
     http://www.quantum-espresso.org/quote

     Parallel version (MPI), running on     8 processors

     MPI processes distributed on     1 nodes
     R & G space division:  proc/nbgrp/npool/nimage =       8
     Waiting for input...
     Reading input from standard input

     Current dimensions of program PWSCF are:
     Max number of different atomic species (ntypx) = 10
     Max number of k-points (npk) =  40000
     Max angular momentum in pseudopotentials (lmaxx) =  3

     Subspace diagonalization in iterative solution of the eigenvalue problem:
     a serial algorithm will be used


     Parallelization info
     --------------------
     sticks:   dense  smooth     PW     G-vecs:    dense   smooth      PW
     Min        2386    2386    623               248152   248152   33108
     Max        2387    2387    625               248157   248157   33111
     Sum       19089   19089   4989              1985227  1985227  264875



     bravais-lattice index     =            1
     lattice parameter (alat)  =      37.7945  a.u.
     unit-cell volume          =   53986.6767 (a.u.)^3
     number of atoms/cell      =            2
     number of atomic types    =            2
     number of electrons       =         5.00
     number of Kohn-Sham states=            7
     kinetic-energy cutoff     =      42.0000  Ry
     charge density cutoff     =     168.0000  Ry
     convergence threshold     =      1.0E-08
     mixing beta               =       0.3000
     number of iterations used =            8  plain     mixing
     Exchange-correlation      = SLA-PW-PBX-PBC ( 1  4  3  4 0 0)

     celldm(1)=  37.794523  celldm(2)=   0.000000  celldm(3)=   0.000000
     celldm(4)=   0.000000  celldm(5)=   0.000000  celldm(6)=   0.000000

     crystal axes: (cart. coord. in units of alat)
               a(1) = (   1.000000   0.000000   0.000000 )  
               a(2) = (   0.000000   1.000000   0.000000 )  
               a(3) = (   0.000000   0.000000   1.000000 )  

     reciprocal axes: (cart. coord. in units 2 pi/alat)
               b(1) = (  1.000000  0.000000  0.000000 )  
               b(2) = (  0.000000  1.000000  0.000000 )  
               b(3) = (  0.000000  0.000000  1.000000 )  


     PseudoPot. # 1 for Si read from file:
     ./Si.pbe-hgh.UPF
     MD5 check sum: 9a9f0f6e09139bfdb36b03ff6bc35900
     Pseudo is Norm-conserving, Zval =  4.0
     Generated in analytical, separable form
     Using radial grid of 1141 points,  3 beta functions with: 
                l(1) =   0
                l(2) =   0
                l(3) =   1

     PseudoPot. # 2 for H  read from file:
     ./H.pbe-hgh.UPF
     MD5 check sum: 5f350582108a937bec95f27f5610ab08
     Pseudo is Norm-conserving, Zval =  1.0
     Generated in analytical, separable form
     Using radial grid of  929 points,  0 beta functions with: 

     atomic species   valence    mass     pseudopotential
        Si             4.00    28.08000     Si( 1.00)
        H              1.00     1.00784     H ( 1.00)

      8 Sym. Ops. (no inversion) found


                                    s                        frac. trans.

      isym =  1     identity                                     

 cryst.   s( 1) = (     1          0          0      )
                  (     0          1          0      )
                  (     0          0          1      )

 cart.    s( 1) = (  1.0000000  0.0000000  0.0000000 )
                  (  0.0000000  1.0000000  0.0000000 )
                  (  0.0000000  0.0000000  1.0000000 )


      isym =  2     180 deg rotation - cart. axis [1,0,0]        

 cryst.   s( 2) = (     1          0          0      )
                  (     0         -1          0      )
                  (     0          0         -1      )

 cart.    s( 2) = (  1.0000000  0.0000000  0.0000000 )
                  (  0.0000000 -1.0000000  0.0000000 )
                  (  0.0000000  0.0000000 -1.0000000 )


      isym =  3      90 deg rotation - cart. axis [-1,0,0]       

 cryst.   s( 3) = (     1          0          0      )
                  (     0          0         -1      )
                  (     0          1          0      )

 cart.    s( 3) = (  1.0000000  0.0000000  0.0000000 )
                  (  0.0000000  0.0000000  1.0000000 )
                  (  0.0000000 -1.0000000  0.0000000 )


      isym =  4      90 deg rotation - cart. axis [1,0,0]        

 cryst.   s( 4) = (     1          0          0      )
                  (     0          0          1      )
                  (     0         -1          0      )

 cart.    s( 4) = (  1.0000000  0.0000000  0.0000000 )
                  (  0.0000000  0.0000000 -1.0000000 )
                  (  0.0000000  1.0000000  0.0000000 )


      isym =  5     inv. 180 deg rotation - cart. axis [0,0,1]   

 cryst.   s( 5) = (     1          0          0      )
                  (     0          1          0      )
                  (     0          0         -1      )

 cart.    s( 5) = (  1.0000000  0.0000000  0.0000000 )
                  (  0.0000000  1.0000000  0.0000000 )
                  (  0.0000000  0.0000000 -1.0000000 )


      isym =  6     inv. 180 deg rotation - cart. axis [0,1,0]   

 cryst.   s( 6) = (     1          0          0      )
                  (     0         -1          0      )
                  (     0          0          1      )

 cart.    s( 6) = (  1.0000000  0.0000000  0.0000000 )
                  (  0.0000000 -1.0000000  0.0000000 )
                  (  0.0000000  0.0000000  1.0000000 )


      isym =  7     inv. 180 deg rotation - cart. axis [0,1,1]   

 cryst.   s( 7) = (     1          0          0      )
                  (     0          0         -1      )
                  (     0         -1          0      )

 cart.    s( 7) = (  1.0000000  0.0000000  0.0000000 )
                  (  0.0000000  0.0000000 -1.0000000 )
                  (  0.0000000 -1.0000000  0.0000000 )


      isym =  8     inv. 180 deg rotation - cart. axis [0,1,-1]  

 cryst.   s( 8) = (     1          0          0      )
                  (     0          0          1      )
                  (     0          1          0      )

 cart.    s( 8) = (  1.0000000  0.0000000  0.0000000 )
                  (  0.0000000  0.0000000  1.0000000 )
                  (  0.0000000  1.0000000  0.0000000 )


     point group C_4v (4mm) 
     there are  5 classes
     the character table:

       E     2C4   C2    2s_v  2s_d 
A_1    1.00  1.00  1.00  1.00  1.00
A_2    1.00  1.00  1.00 -1.00 -1.00
B_1    1.00 -1.00  1.00  1.00 -1.00
B_2    1.00 -1.00  1.00 -1.00  1.00
E      2.00  0.00 -2.00  0.00  0.00

     the symmetry operations in each class and the name of the first element:

     E        1
          identity                                               
     2C4      3    4
           90 deg rotation - cart. axis [-1,0,0]                 
     C2       2
          180 deg rotation - cart. axis [1,0,0]                  
     2s_v     5    6
          inv. 180 deg rotation - cart. axis [0,0,1]             
     2s_d     7    8
          inv. 180 deg rotation - cart. axis [0,1,1]             

   Cartesian axes

     site n.     atom                  positions (alat units)
         1           Si  tau(   1) = (   0.0000000   0.0000000   0.0000000  )
         2           H   tau(   2) = (   0.0315000   0.0000000   0.0000000  )

   Crystallographic axes

     site n.     atom                  positions (cryst. coord.)
         1           Si  tau(   1) = (  0.0000000  0.0000000  0.0000000  )
         2           H   tau(   2) = (  0.0315000  0.0000000  0.0000000  )

     number of k points=     6  Marzari-Vanderbilt smearing, width (Ry)=  0.0500
                       cart. coord. in units 2pi/alat
        k(    1) = (   0.0000000   0.0000000   0.0000000), wk =   0.2500000
        k(    2) = (   0.0000000   0.0000000  -0.5000000), wk =   0.5000000
        k(    3) = (   0.0000000  -0.5000000  -0.5000000), wk =   0.2500000
        k(    4) = (  -0.5000000  -0.5000000  -0.5000000), wk =   0.2500000
        k(    5) = (  -0.5000000   0.0000000   0.0000000), wk =   0.2500000
        k(    6) = (  -0.5000000   0.5000000   0.0000000), wk =   0.5000000

                       cryst. coord.
        k(    1) = (   0.0000000   0.0000000   0.0000000), wk =   0.2500000
        k(    2) = (   0.0000000   0.0000000  -0.5000000), wk =   0.5000000
        k(    3) = (   0.0000000  -0.5000000  -0.5000000), wk =   0.2500000
        k(    4) = (  -0.5000000  -0.5000000  -0.5000000), wk =   0.2500000
        k(    5) = (  -0.5000000   0.0000000   0.0000000), wk =   0.2500000
        k(    6) = (  -0.5000000   0.5000000   0.0000000), wk =   0.5000000

     Dense  grid:  1985227 G-vectors     FFT dimensions: ( 160, 160, 160)

     Dynamical RAM for                 wfc:       3.31 MB

     Dynamical RAM for     wfc (w. buffer):      23.19 MB

     Dynamical RAM for           str. fact:       7.57 MB

     Dynamical RAM for           local pot:       0.00 MB

     Dynamical RAM for          nlocal pot:       2.37 MB

     Dynamical RAM for                qrad:       2.14 MB

     Dynamical RAM for          rho,v,vnew:      23.08 MB

     Dynamical RAM for               rhoin:       7.69 MB

     Dynamical RAM for            rho*nmix:      60.58 MB

     Dynamical RAM for           G-vectors:      16.09 MB

     Dynamical RAM for          h,s,v(r/c):       0.04 MB

     Dynamical RAM for          <psi|beta>:       0.00 MB

     Dynamical RAM for                 psi:      13.25 MB

     Dynamical RAM for                hpsi:      13.25 MB

     Dynamical RAM for      wfcinit/wfcrot:       6.63 MB

     Estimated static dynamical RAM per process >     173.61 MB

     Estimated max dynamical RAM per process >     200.15 MB

     Estimated total dynamical RAM >       1.56 GB

     Initial potential from superposition of free atoms
     Check: negative starting charge=   -0.012354

     starting charge    4.99943, renormalised to    5.00000

     negative rho (up, down):  1.236E-02 0.000E+00
     Starting wfc are    5 randomized atomic wfcs +    2 random wfc

     total cpu time spent up to now is        3.5 secs

     Self-consistent Calculation

     iteration #  1     ecut=    42.00 Ry     beta= 0.30
     Davidson diagonalization with overlap
     ethr =  1.00E-02,  avg # of iterations =  5.0

     negative rho (up, down):  8.588E-03 0.000E+00

     total cpu time spent up to now is       11.1 secs

     total energy              =      -6.51124839 Ry
     Harris-Foulkes estimate   =      -6.65506877 Ry
     estimated scf accuracy    <       0.53336940 Ry

     iteration #  2     ecut=    42.00 Ry     beta= 0.30
     Davidson diagonalization with overlap
     ethr =  1.00E-02,  avg # of iterations =  1.0

     negative rho (up, down):  2.513E-03 0.000E+00

     total cpu time spent up to now is       15.5 secs

     total energy              =      -6.42637635 Ry
     Harris-Foulkes estimate   =      -6.52463685 Ry
     estimated scf accuracy    <       0.17833869 Ry

     iteration #  3     ecut=    42.00 Ry     beta= 0.30
     Davidson diagonalization with overlap
     ethr =  3.57E-03,  avg # of iterations =  2.0

     negative rho (up, down):  2.186E-03 0.000E+00

     total cpu time spent up to now is       20.7 secs

     total energy              =      -6.45843338 Ry
     Harris-Foulkes estimate   =      -6.46415353 Ry
     estimated scf accuracy    <       0.01192171 Ry

     iteration #  4     ecut=    42.00 Ry     beta= 0.30
     Davidson diagonalization with overlap
     ethr =  2.38E-04,  avg # of iterations =  6.0

     negative rho (up, down):  2.410E-04 0.000E+00

     total cpu time spent up to now is       27.8 secs

     total energy              =      -6.45961609 Ry
     Harris-Foulkes estimate   =      -6.46094531 Ry
     estimated scf accuracy    <       0.00323047 Ry

     iteration #  5     ecut=    42.00 Ry     beta= 0.30
     Davidson diagonalization with overlap
     ethr =  6.46E-05,  avg # of iterations =  6.2

     negative rho (up, down):  2.639E-04 0.000E+00

     total cpu time spent up to now is       34.1 secs

     total energy              =      -6.45996387 Ry
     Harris-Foulkes estimate   =      -6.46002166 Ry
     estimated scf accuracy    <       0.00014689 Ry

     iteration #  6     ecut=    42.00 Ry     beta= 0.30
     Davidson diagonalization with overlap
     c_bands:  1 eigenvalues not converged
     ethr =  2.94E-06,  avg # of iterations = 14.3

     negative rho (up, down):  1.131E-08 0.000E+00

     total cpu time spent up to now is       44.9 secs

     total energy              =      -6.45992692 Ry
     Harris-Foulkes estimate   =      -6.46010834 Ry
     estimated scf accuracy    <       0.00032284 Ry

     iteration #  7     ecut=    42.00 Ry     beta= 0.30
     Davidson diagonalization with overlap
     ethr =  2.94E-06,  avg # of iterations =  5.5

     negative rho (up, down):  1.738E-07 0.000E+00

     total cpu time spent up to now is       51.5 secs

     total energy              =      -6.45998389 Ry
     Harris-Foulkes estimate   =      -6.45998391 Ry
     estimated scf accuracy    <       0.00000039 Ry

     iteration #  8     ecut=    42.00 Ry     beta= 0.30
     Davidson diagonalization with overlap
     ethr =  7.88E-09,  avg # of iterations =  3.5

     negative rho (up, down):  2.768E-07 0.000E+00

     total cpu time spent up to now is       57.2 secs

     total energy              =      -6.45998435 Ry
     Harris-Foulkes estimate   =      -6.45998437 Ry
     estimated scf accuracy    <       0.00000059 Ry

     iteration #  9     ecut=    42.00 Ry     beta= 0.30
     Davidson diagonalization with overlap
     ethr =  7.88E-09,  avg # of iterations =  1.0

     negative rho (up, down):  2.050E-06 0.000E+00

     total cpu time spent up to now is       61.2 secs

     total energy              =      -6.45998415 Ry
     Harris-Foulkes estimate   =      -6.45998435 Ry
     estimated scf accuracy    <       0.00000052 Ry

     iteration # 10     ecut=    42.00 Ry     beta= 0.30
     Davidson diagonalization with overlap
     ethr =  7.88E-09,  avg # of iterations =  2.0

     negative rho (up, down):  9.523E-08 0.000E+00

     total cpu time spent up to now is       65.9 secs

     total energy              =      -6.45998425 Ry
     Harris-Foulkes estimate   =      -6.45998429 Ry
     estimated scf accuracy    <       0.00000007 Ry

     iteration # 11     ecut=    42.00 Ry     beta= 0.30
     Davidson diagonalization with overlap
     ethr =  1.31E-09,  avg # of iterations =  1.0

     total cpu time spent up to now is       69.9 secs

     total energy              =      -6.45998426 Ry
     Harris-Foulkes estimate   =      -6.45998426 Ry
     estimated scf accuracy    <       0.00000001 Ry

     iteration # 12     ecut=    42.00 Ry     beta= 0.30
     Davidson diagonalization with overlap
     ethr =  2.85E-10,  avg # of iterations =  3.0

     total cpu time spent up to now is       75.3 secs

     total energy              =      -6.45998427 Ry
     Harris-Foulkes estimate   =      -6.45998427 Ry
     estimated scf accuracy    <       0.00000001 Ry

     iteration # 13     ecut=    42.00 Ry     beta= 0.30
     Davidson diagonalization with overlap
     ethr =  2.41E-10,  avg # of iterations =  2.0

     total cpu time spent up to now is       80.2 secs

     End of self-consistent calculation

          k = 0.0000 0.0000 0.0000 (248049 PWs)   bands (ev):

   -14.2285  -6.1560  -4.1046  -4.1046  -0.4484   0.0747   0.2747

     occupation numbers 
     1.0000   1.0040   0.2480   0.2480   0.0000   0.0000   0.0000

          k = 0.0000 0.0000-0.5000 (247982 PWs)   bands (ev):

   -14.2286  -6.1560  -4.1046  -4.1046  -0.4440   0.0676   0.1777

     occupation numbers 
     1.0000   1.0040   0.2480   0.2480   0.0000   0.0000   0.0000

          k = 0.0000-0.5000-0.5000 (248312 PWs)   bands (ev):

   -14.2288  -6.1561  -4.1046  -4.1046  -0.4402   0.1354   0.1370

     occupation numbers 
     1.0000   1.0039   0.2480   0.2480   0.0000   0.0000   0.0000

          k =-0.5000-0.5000-0.5000 (248296 PWs)   bands (ev):

   -14.2287  -6.1561  -4.1046  -4.1046  -0.4383   0.1873   0.1930

     occupation numbers 
     1.0000   1.0039   0.2480   0.2480   0.0000   0.0000   0.0000

          k =-0.5000 0.0000 0.0000 (247982 PWs)   bands (ev):

   -14.2285  -6.1560  -4.1046  -4.1046  -0.4458   0.0754   0.1914

     occupation numbers 
     1.0000   1.0040   0.2480   0.2480   0.0000   0.0000   0.0000

          k =-0.5000 0.5000 0.0000 (248312 PWs)   bands (ev):

   -14.2287  -6.1561  -4.1046  -4.1046  -0.4419   0.1296   0.1421

     occupation numbers 
     1.0000   1.0039   0.2480   0.2480   0.0000   0.0000   0.0000

     the Fermi energy is    -4.2741 ev

!    total energy              =      -6.45998427 Ry
     Harris-Foulkes estimate   =      -6.45998427 Ry
     estimated scf accuracy    <          6.0E-10 Ry

     The total energy is the sum of the following terms:

     one-electron contribution =     -16.98150753 Ry
     hartree contribution      =       8.89802033 Ry
     xc contribution           =      -3.19046248 Ry
     ewald contribution        =       4.84335963 Ry
     smearing contrib. (-TS)   =      -0.02939421 Ry

     convergence has been achieved in  13 iterations

     Forces acting on atoms (cartesian axes, Ry/au):

     atom    1 type  1   force =    -5.44563411    0.00000000    0.00000000
     atom    2 type  2   force =     5.44563411    0.00000000    0.00000000
     The non-local contrib.  to forces
     atom    1 type  1   force =    -4.54819910    0.00000000    0.00000000
     atom    2 type  2   force =     0.00000000    0.00000000    0.00000000
     The ionic contribution  to forces
     atom    1 type  1   force =    -5.64357264    0.00000000   -0.00000000
     atom    2 type  2   force =     5.64357264   -0.00000000   -0.00000000
     The local contribution  to forces
     atom    1 type  1   force =     4.74608595   -0.00000000   -0.00000000
     atom    2 type  2   force =    -0.19797529   -0.00000000   -0.00000000
     The core correction contribution to forces
     atom    1 type  1   force =     0.00000000    0.00000000    0.00000000
     atom    2 type  2   force =     0.00000000    0.00000000    0.00000000
     The Hubbard contrib.    to forces
     atom    1 type  1   force =     0.00000000    0.00000000    0.00000000
     atom    2 type  2   force =     0.00000000    0.00000000    0.00000000
     The SCF correction term to forces
     atom    1 type  1   force =     0.00001898    0.00000000   -0.00000000
     atom    2 type  2   force =     0.00000407   -0.00000000    0.00000000

     Total force =     7.701290     Total SCF correction =     0.000019


     Computing stress (Cartesian axis) and pressure

          total   stress  (Ry/bohr**3)                   (kbar)     P=    5.80
   0.00011975   0.00000000   0.00000000         17.62      0.00      0.00
   0.00000000  -0.00000071   0.00000000          0.00     -0.10      0.00
   0.00000000   0.00000000  -0.00000071          0.00      0.00     -0.10

     kinetic stress (kbar)     13.36      0.00      0.00
                                0.00      8.80      0.00
                                0.00      0.00      8.80

     local   stress (kbar)    -35.07      0.00      0.00
                                0.00    -19.76      0.00
                                0.00      0.00    -19.76

     nonloc. stress (kbar)     16.56      0.00      0.00
                                0.00      7.61      0.00
                                0.00      0.00      7.61

     hartree stress (kbar)      8.91      0.00      0.00
                                0.00      7.67     -0.00
                                0.00     -0.00      7.67

     exc-cor stress (kbar)     -2.75     -0.00      0.00
                               -0.00     -2.71      0.00
                                0.00      0.00     -2.71

     corecor stress (kbar)      0.00      0.00      0.00
                                0.00      0.00      0.00
                                0.00      0.00      0.00

     ewald   stress (kbar)     16.61      0.00     -0.00
                                0.00     -1.71     -0.00
                               -0.00     -0.00     -1.71

     hubbard stress (kbar)      0.00      0.00      0.00
                                0.00      0.00      0.00
                                0.00      0.00      0.00

     london  stress (kbar)      0.00      0.00      0.00
                                0.00      0.00      0.00
                                0.00      0.00      0.00

     DFT-D3  stress (kbar)      0.00      0.00      0.00
                                0.00      0.00      0.00
                                0.00      0.00      0.00

     XDM     stress (kbar)      0.00      0.00      0.00
                                0.00      0.00      0.00
                                0.00      0.00      0.00

     dft-nl  stress (kbar)      0.00      0.00      0.00
                                0.00      0.00      0.00
                                0.00      0.00      0.00

     TS-vdW  stress (kbar)      0.00      0.00      0.00
                                0.00      0.00      0.00
                                0.00      0.00      0.00



     Writing output data file SiH26.save

     init_run     :      3.16s CPU      3.30s WALL (       1 calls)
     electrons    :     76.03s CPU     76.88s WALL (       1 calls)
     forces       :      0.42s CPU      0.42s WALL (       1 calls)
     stress       :      1.82s CPU      1.92s WALL (       1 calls)

     Called by init_run:
     wfcinit      :      1.41s CPU      1.43s WALL (       1 calls)
     wfcinit:atom :      0.03s CPU      0.03s WALL (       6 calls)
     wfcinit:wfcr :      1.30s CPU      1.32s WALL (       6 calls)
     potinit      :      0.63s CPU      0.67s WALL (       1 calls)

     Called by electrons:
     c_bands      :     59.28s CPU     59.60s WALL (      13 calls)
     sum_band     :     10.69s CPU     10.72s WALL (      13 calls)
     v_of_rho     :      4.95s CPU      4.99s WALL (      14 calls)
     v_h          :      0.46s CPU      0.47s WALL (      14 calls)
     v_xc         :      4.49s CPU      4.52s WALL (      14 calls)
     mix_rho      :      1.21s CPU      1.28s WALL (      13 calls)

     Called by c_bands:
     init_us_2    :      0.99s CPU      1.00s WALL (     174 calls)
     cegterg      :     58.55s CPU     58.78s WALL (      78 calls)

     Called by sum_band:

     Called by *egterg:
     h_psi        :     55.82s CPU     56.02s WALL (     399 calls)
     g_psi        :      0.26s CPU      0.26s WALL (     315 calls)
     cdiaghg      :      0.06s CPU      0.06s WALL (     393 calls)
     cegterg:over :      1.34s CPU      1.35s WALL (     315 calls)
     cegterg:upda :      1.10s CPU      1.11s WALL (     315 calls)
     cegterg:last :      0.43s CPU      0.43s WALL (      99 calls)

     Called by h_psi:
     h_psi:pot    :     55.55s CPU     55.75s WALL (     399 calls)
     h_psi:calbec :      0.43s CPU      0.43s WALL (     399 calls)
     vloc_psi     :     54.89s CPU     55.08s WALL (     399 calls)
     add_vuspsi   :      0.23s CPU      0.23s WALL (     399 calls)

     General routines
     calbec       :      0.47s CPU      0.48s WALL (     429 calls)
     fft          :      4.22s CPU      4.25s WALL (     161 calls)
     fftw         :     56.44s CPU     56.61s WALL (    4132 calls)

     Parallel routines
     fft_scatt_xy :      8.49s CPU      8.52s WALL (    4293 calls)
     fft_scatt_yz :     11.33s CPU     11.41s WALL (    4293 calls)

     PWSCF        :  1m21.91s CPU     1m23.58s WALL


   This run was terminated on:  20:42:32   1Oct2020            

=------------------------------------------------------------------------------=
   JOB DONE.
=------------------------------------------------------------------------------=
