
     Program PWSCF v.6.2 (svn rev. 14038) starts on  1Oct2020 at  7:36:50 

     This program is part of the open-source Quantum ESPRESSO suite
     for quantum simulation of materials; please cite
         "P. Giannozzi et al., J. Phys.:Condens. Matter 21 395502 (2009);
         "P. Giannozzi et al., J. Phys.:Condens. Matter 29 465901 (2017);
          URL http://www.quantum-espresso.org", 
     in publications or presentations arising from this work. More details at
     http://www.quantum-espresso.org/quote

     Parallel version (MPI), running on     8 processors

     MPI processes distributed on     1 nodes
     R & G space division:  proc/nbgrp/npool/nimage =       8
     Waiting for input...
     Reading input from standard input

     Current dimensions of program PWSCF are:
     Max number of different atomic species (ntypx) = 10
     Max number of k-points (npk) =  40000
     Max angular momentum in pseudopotentials (lmaxx) =  3

     Subspace diagonalization in iterative solution of the eigenvalue problem:
     a serial algorithm will be used


     Parallelization info
     --------------------
     sticks:   dense  smooth     PW     G-vecs:    dense   smooth      PW
     Min        2386    2386    623               248152   248152   33108
     Max        2387    2387    625               248157   248157   33111
     Sum       19089   19089   4989              1985227  1985227  264875



     bravais-lattice index     =            1
     lattice parameter (alat)  =      37.7945  a.u.
     unit-cell volume          =   53986.6767 (a.u.)^3
     number of atoms/cell      =            2
     number of atomic types    =            2
     number of electrons       =         5.00
     number of Kohn-Sham states=            7
     kinetic-energy cutoff     =      42.0000  Ry
     charge density cutoff     =     168.0000  Ry
     convergence threshold     =      1.0E-08
     mixing beta               =       0.3000
     number of iterations used =            8  plain     mixing
     Exchange-correlation      = SLA-PW-PBX-PBC ( 1  4  3  4 0 0)

     celldm(1)=  37.794523  celldm(2)=   0.000000  celldm(3)=   0.000000
     celldm(4)=   0.000000  celldm(5)=   0.000000  celldm(6)=   0.000000

     crystal axes: (cart. coord. in units of alat)
               a(1) = (   1.000000   0.000000   0.000000 )  
               a(2) = (   0.000000   1.000000   0.000000 )  
               a(3) = (   0.000000   0.000000   1.000000 )  

     reciprocal axes: (cart. coord. in units 2 pi/alat)
               b(1) = (  1.000000  0.000000  0.000000 )  
               b(2) = (  0.000000  1.000000  0.000000 )  
               b(3) = (  0.000000  0.000000  1.000000 )  


     PseudoPot. # 1 for Si read from file:
     ./Si.pbe-hgh.UPF
     MD5 check sum: 9a9f0f6e09139bfdb36b03ff6bc35900
     Pseudo is Norm-conserving, Zval =  4.0
     Generated in analytical, separable form
     Using radial grid of 1141 points,  3 beta functions with: 
                l(1) =   0
                l(2) =   0
                l(3) =   1

     PseudoPot. # 2 for H  read from file:
     ./H.pbe-hgh.UPF
     MD5 check sum: 5f350582108a937bec95f27f5610ab08
     Pseudo is Norm-conserving, Zval =  1.0
     Generated in analytical, separable form
     Using radial grid of  929 points,  0 beta functions with: 

     atomic species   valence    mass     pseudopotential
        Si             4.00    28.08000     Si( 1.00)
        H              1.00     1.00784     H ( 1.00)

      8 Sym. Ops. (no inversion) found


                                    s                        frac. trans.

      isym =  1     identity                                     

 cryst.   s( 1) = (     1          0          0      )
                  (     0          1          0      )
                  (     0          0          1      )

 cart.    s( 1) = (  1.0000000  0.0000000  0.0000000 )
                  (  0.0000000  1.0000000  0.0000000 )
                  (  0.0000000  0.0000000  1.0000000 )


      isym =  2     180 deg rotation - cart. axis [1,0,0]        

 cryst.   s( 2) = (     1          0          0      )
                  (     0         -1          0      )
                  (     0          0         -1      )

 cart.    s( 2) = (  1.0000000  0.0000000  0.0000000 )
                  (  0.0000000 -1.0000000  0.0000000 )
                  (  0.0000000  0.0000000 -1.0000000 )


      isym =  3      90 deg rotation - cart. axis [-1,0,0]       

 cryst.   s( 3) = (     1          0          0      )
                  (     0          0         -1      )
                  (     0          1          0      )

 cart.    s( 3) = (  1.0000000  0.0000000  0.0000000 )
                  (  0.0000000  0.0000000  1.0000000 )
                  (  0.0000000 -1.0000000  0.0000000 )


      isym =  4      90 deg rotation - cart. axis [1,0,0]        

 cryst.   s( 4) = (     1          0          0      )
                  (     0          0          1      )
                  (     0         -1          0      )

 cart.    s( 4) = (  1.0000000  0.0000000  0.0000000 )
                  (  0.0000000  0.0000000 -1.0000000 )
                  (  0.0000000  1.0000000  0.0000000 )


      isym =  5     inv. 180 deg rotation - cart. axis [0,0,1]   

 cryst.   s( 5) = (     1          0          0      )
                  (     0          1          0      )
                  (     0          0         -1      )

 cart.    s( 5) = (  1.0000000  0.0000000  0.0000000 )
                  (  0.0000000  1.0000000  0.0000000 )
                  (  0.0000000  0.0000000 -1.0000000 )


      isym =  6     inv. 180 deg rotation - cart. axis [0,1,0]   

 cryst.   s( 6) = (     1          0          0      )
                  (     0         -1          0      )
                  (     0          0          1      )

 cart.    s( 6) = (  1.0000000  0.0000000  0.0000000 )
                  (  0.0000000 -1.0000000  0.0000000 )
                  (  0.0000000  0.0000000  1.0000000 )


      isym =  7     inv. 180 deg rotation - cart. axis [0,1,1]   

 cryst.   s( 7) = (     1          0          0      )
                  (     0          0         -1      )
                  (     0         -1          0      )

 cart.    s( 7) = (  1.0000000  0.0000000  0.0000000 )
                  (  0.0000000  0.0000000 -1.0000000 )
                  (  0.0000000 -1.0000000  0.0000000 )


      isym =  8     inv. 180 deg rotation - cart. axis [0,1,-1]  

 cryst.   s( 8) = (     1          0          0      )
                  (     0          0          1      )
                  (     0          1          0      )

 cart.    s( 8) = (  1.0000000  0.0000000  0.0000000 )
                  (  0.0000000  0.0000000  1.0000000 )
                  (  0.0000000  1.0000000  0.0000000 )


     point group C_4v (4mm) 
     there are  5 classes
     the character table:

       E     2C4   C2    2s_v  2s_d 
A_1    1.00  1.00  1.00  1.00  1.00
A_2    1.00  1.00  1.00 -1.00 -1.00
B_1    1.00 -1.00  1.00  1.00 -1.00
B_2    1.00 -1.00  1.00 -1.00  1.00
E      2.00  0.00 -2.00  0.00  0.00

     the symmetry operations in each class and the name of the first element:

     E        1
          identity                                               
     2C4      3    4
           90 deg rotation - cart. axis [-1,0,0]                 
     C2       2
          180 deg rotation - cart. axis [1,0,0]                  
     2s_v     5    6
          inv. 180 deg rotation - cart. axis [0,0,1]             
     2s_d     7    8
          inv. 180 deg rotation - cart. axis [0,1,1]             

   Cartesian axes

     site n.     atom                  positions (alat units)
         1           Si  tau(   1) = (   0.0000000   0.0000000   0.0000000  )
         2           H   tau(   2) = (   0.0670000   0.0000000   0.0000000  )

   Crystallographic axes

     site n.     atom                  positions (cryst. coord.)
         1           Si  tau(   1) = (  0.0000000  0.0000000  0.0000000  )
         2           H   tau(   2) = (  0.0670000  0.0000000  0.0000000  )

     number of k points=     6  Marzari-Vanderbilt smearing, width (Ry)=  0.0500
                       cart. coord. in units 2pi/alat
        k(    1) = (   0.0000000   0.0000000   0.0000000), wk =   0.2500000
        k(    2) = (   0.0000000   0.0000000  -0.5000000), wk =   0.5000000
        k(    3) = (   0.0000000  -0.5000000  -0.5000000), wk =   0.2500000
        k(    4) = (  -0.5000000  -0.5000000  -0.5000000), wk =   0.2500000
        k(    5) = (  -0.5000000   0.0000000   0.0000000), wk =   0.2500000
        k(    6) = (  -0.5000000   0.5000000   0.0000000), wk =   0.5000000

                       cryst. coord.
        k(    1) = (   0.0000000   0.0000000   0.0000000), wk =   0.2500000
        k(    2) = (   0.0000000   0.0000000  -0.5000000), wk =   0.5000000
        k(    3) = (   0.0000000  -0.5000000  -0.5000000), wk =   0.2500000
        k(    4) = (  -0.5000000  -0.5000000  -0.5000000), wk =   0.2500000
        k(    5) = (  -0.5000000   0.0000000   0.0000000), wk =   0.2500000
        k(    6) = (  -0.5000000   0.5000000   0.0000000), wk =   0.5000000

     Dense  grid:  1985227 G-vectors     FFT dimensions: ( 160, 160, 160)

     Dynamical RAM for                 wfc:       3.31 MB

     Dynamical RAM for     wfc (w. buffer):      23.19 MB

     Dynamical RAM for           str. fact:       7.57 MB

     Dynamical RAM for           local pot:       0.00 MB

     Dynamical RAM for          nlocal pot:       2.37 MB

     Dynamical RAM for                qrad:       2.14 MB

     Dynamical RAM for          rho,v,vnew:      23.08 MB

     Dynamical RAM for               rhoin:       7.69 MB

     Dynamical RAM for            rho*nmix:      60.58 MB

     Dynamical RAM for           G-vectors:      16.09 MB

     Dynamical RAM for          h,s,v(r/c):       0.04 MB

     Dynamical RAM for          <psi|beta>:       0.00 MB

     Dynamical RAM for                 psi:      13.25 MB

     Dynamical RAM for                hpsi:      13.25 MB

     Dynamical RAM for      wfcinit/wfcrot:       6.63 MB

     Estimated static dynamical RAM per process >     173.61 MB

     Estimated max dynamical RAM per process >     200.15 MB

     Estimated total dynamical RAM >       1.56 GB

     Initial potential from superposition of free atoms
     Check: negative starting charge=   -0.012440

     starting charge    4.99943, renormalised to    5.00000

     negative rho (up, down):  1.244E-02 0.000E+00
     Starting wfc are    5 randomized atomic wfcs +    2 random wfc

     total cpu time spent up to now is        3.6 secs

     Self-consistent Calculation

     iteration #  1     ecut=    42.00 Ry     beta= 0.30
     Davidson diagonalization with overlap
     ethr =  1.00E-02,  avg # of iterations =  5.2

     negative rho (up, down):  8.618E-03 0.000E+00

     total cpu time spent up to now is       10.5 secs

     total energy              =      -8.75011084 Ry
     Harris-Foulkes estimate   =      -8.78830754 Ry
     estimated scf accuracy    <       0.13871020 Ry

     iteration #  2     ecut=    42.00 Ry     beta= 0.30
     Davidson diagonalization with overlap
     ethr =  2.77E-03,  avg # of iterations =  1.0

     negative rho (up, down):  2.164E-03 0.000E+00

     total cpu time spent up to now is       14.5 secs

     total energy              =      -8.72788875 Ry
     Harris-Foulkes estimate   =      -8.75394767 Ry
     estimated scf accuracy    <       0.04979262 Ry

     iteration #  3     ecut=    42.00 Ry     beta= 0.30
     Davidson diagonalization with overlap
     ethr =  9.96E-04,  avg # of iterations =  2.3

     negative rho (up, down):  1.379E-03 0.000E+00

     total cpu time spent up to now is       18.9 secs

     total energy              =      -8.73465704 Ry
     Harris-Foulkes estimate   =      -8.73530769 Ry
     estimated scf accuracy    <       0.00142613 Ry

     iteration #  4     ecut=    42.00 Ry     beta= 0.30
     Davidson diagonalization with overlap
     c_bands:  1 eigenvalues not converged
     ethr =  2.85E-05,  avg # of iterations = 16.2

     negative rho (up, down):  4.656E-04 0.000E+00

     total cpu time spent up to now is       30.2 secs

     total energy              =      -8.73493286 Ry
     Harris-Foulkes estimate   =      -8.73504723 Ry
     estimated scf accuracy    <       0.00037713 Ry

     iteration #  5     ecut=    42.00 Ry     beta= 0.30
     Davidson diagonalization with overlap
     ethr =  7.54E-06,  avg # of iterations =  5.5

     negative rho (up, down):  7.953E-05 0.000E+00

     total cpu time spent up to now is       35.3 secs

     total energy              =      -8.73495078 Ry
     Harris-Foulkes estimate   =      -8.73496018 Ry
     estimated scf accuracy    <       0.00003745 Ry

     iteration #  6     ecut=    42.00 Ry     beta= 0.30
     Davidson diagonalization with overlap
     ethr =  7.49E-07,  avg # of iterations = 11.0

     negative rho (up, down):  2.628E-05 0.000E+00

     total cpu time spent up to now is       43.3 secs

     total energy              =      -8.73495944 Ry
     Harris-Foulkes estimate   =      -8.73495986 Ry
     estimated scf accuracy    <       0.00000312 Ry

     iteration #  7     ecut=    42.00 Ry     beta= 0.30
     Davidson diagonalization with overlap
     ethr =  6.23E-08,  avg # of iterations =  2.0

     negative rho (up, down):  5.924E-07 0.000E+00

     total cpu time spent up to now is       47.6 secs

     total energy              =      -8.73495983 Ry
     Harris-Foulkes estimate   =      -8.73495973 Ry
     estimated scf accuracy    <       0.00000052 Ry

     iteration #  8     ecut=    42.00 Ry     beta= 0.30
     Davidson diagonalization with overlap
     ethr =  1.04E-08,  avg # of iterations =  7.7

     negative rho (up, down):  1.989E-06 0.000E+00

     total cpu time spent up to now is       54.3 secs

     total energy              =      -8.73495995 Ry
     Harris-Foulkes estimate   =      -8.73495993 Ry
     estimated scf accuracy    <       0.00000008 Ry

     iteration #  9     ecut=    42.00 Ry     beta= 0.30
     Davidson diagonalization with overlap
     ethr =  1.52E-09,  avg # of iterations =  2.0

     negative rho (up, down):  9.996E-08 0.000E+00

     total cpu time spent up to now is       58.8 secs

     total energy              =      -8.73495997 Ry
     Harris-Foulkes estimate   =      -8.73495997 Ry
     estimated scf accuracy    <       0.00000001 Ry

     iteration # 10     ecut=    42.00 Ry     beta= 0.30
     Davidson diagonalization with overlap
     ethr =  2.04E-10,  avg # of iterations =  1.0

     total cpu time spent up to now is       62.7 secs

     End of self-consistent calculation

          k = 0.0000 0.0000 0.0000 (248049 PWs)   bands (ev):

   -12.4740  -6.6551  -3.9848  -3.9848  -0.3472   0.1216   0.2428

     occupation numbers 
     1.0000   1.0000   0.2500   0.2500   0.0000   0.0000   0.0000

          k = 0.0000 0.0000-0.5000 (247982 PWs)   bands (ev):

   -12.4740  -6.6550  -3.9848  -3.9848  -0.3391   0.0767   0.2306

     occupation numbers 
     1.0000   1.0000   0.2500   0.2500   0.0000   0.0000   0.0000

          k = 0.0000-0.5000-0.5000 (248312 PWs)   bands (ev):

   -12.4740  -6.6551  -3.9848  -3.9848  -0.3320   0.1433   0.1439

     occupation numbers 
     1.0000   1.0000   0.2500   0.2500   0.0000   0.0000   0.0000

          k =-0.5000-0.5000-0.5000 (248296 PWs)   bands (ev):

   -12.4740  -6.6551  -3.9848  -3.9848  -0.3269   0.1771   0.1962

     occupation numbers 
     1.0000   1.0000   0.2500   0.2500   0.0000   0.0000   0.0000

          k =-0.5000 0.0000 0.0000 (247982 PWs)   bands (ev):

   -12.4740  -6.6551  -3.9848  -3.9848  -0.3400   0.0723   0.2383

     occupation numbers 
     1.0000   1.0000   0.2500   0.2500   0.0000   0.0000   0.0000

          k =-0.5000 0.5000 0.0000 (248312 PWs)   bands (ev):

   -12.4740  -6.6551  -3.9848  -3.9848  -0.3330   0.1313   0.1407

     occupation numbers 
     1.0000   1.0000   0.2500   0.2500   0.0000   0.0000   0.0000

     the Fermi energy is    -4.1517 ev

!    total energy              =      -8.73495997 Ry
     Harris-Foulkes estimate   =      -8.73495997 Ry
     estimated scf accuracy    <          4.1E-09 Ry

     The total energy is the sum of the following terms:

     one-electron contribution =     -14.85031892 Ry
     hartree contribution      =       7.71204472 Ry
     xc contribution           =      -2.85050802 Ry
     ewald contribution        =       1.28447877 Ry
     smearing contrib. (-TS)   =      -0.03065652 Ry

     convergence has been achieved in  10 iterations

     Forces acting on atoms (cartesian axes, Ry/au):

     atom    1 type  1   force =    -0.17494622    0.00000000    0.00000000
     atom    2 type  2   force =     0.17494622    0.00000000    0.00000000
     The non-local contrib.  to forces
     atom    1 type  1   force =    -0.05057678    0.00000000    0.00000000
     atom    2 type  2   force =     0.00000000    0.00000000    0.00000000
     The ionic contribution  to forces
     atom    1 type  1   force =    -1.24602817    0.00000000   -0.00000000
     atom    2 type  2   force =     1.24602817   -0.00000000   -0.00000000
     The local contribution  to forces
     atom    1 type  1   force =     1.12160183   -0.00000000   -0.00000000
     atom    2 type  2   force =    -1.07108683   -0.00000000   -0.00000000
     The core correction contribution to forces
     atom    1 type  1   force =     0.00000000    0.00000000    0.00000000
     atom    2 type  2   force =     0.00000000    0.00000000    0.00000000
     The Hubbard contrib.    to forces
     atom    1 type  1   force =     0.00000000    0.00000000    0.00000000
     atom    2 type  2   force =     0.00000000    0.00000000    0.00000000
     The SCF correction term to forces
     atom    1 type  1   force =     0.00005420    0.00000000    0.00000000
     atom    2 type  2   force =     0.00000218   -0.00000000    0.00000000

     Total force =     0.247411     Total SCF correction =     0.000054


     Computing stress (Cartesian axis) and pressure

          total   stress  (Ry/bohr**3)                   (kbar)     P=    0.36
   0.00000793   0.00000000   0.00000000          1.17      0.00      0.00
   0.00000000  -0.00000027   0.00000000          0.00     -0.04      0.00
   0.00000000   0.00000000  -0.00000027          0.00      0.00     -0.04

     kinetic stress (kbar)      8.00      0.00      0.00
                                0.00      7.22      0.00
                                0.00      0.00      7.22

     local   stress (kbar)    -27.81      0.00      0.00
                                0.00    -15.61      0.00
                                0.00      0.00    -15.61

     nonloc. stress (kbar)      7.85      0.00      0.00
                                0.00      6.29      0.00
                                0.00      0.00      6.29

     hartree stress (kbar)      8.62     -0.00     -0.00
                               -0.00      6.20      0.00
                               -0.00      0.00      6.20

     exc-cor stress (kbar)     -2.40     -0.00     -0.00
                               -0.00     -2.43      0.00
                               -0.00      0.00     -2.43

     corecor stress (kbar)      0.00      0.00      0.00
                                0.00      0.00      0.00
                                0.00      0.00      0.00

     ewald   stress (kbar)      6.91      0.00     -0.00
                                0.00     -1.71     -0.00
                               -0.00     -0.00     -1.71

     hubbard stress (kbar)      0.00      0.00      0.00
                                0.00      0.00      0.00
                                0.00      0.00      0.00

     london  stress (kbar)      0.00      0.00      0.00
                                0.00      0.00      0.00
                                0.00      0.00      0.00

     DFT-D3  stress (kbar)      0.00      0.00      0.00
                                0.00      0.00      0.00
                                0.00      0.00      0.00

     XDM     stress (kbar)      0.00      0.00      0.00
                                0.00      0.00      0.00
                                0.00      0.00      0.00

     dft-nl  stress (kbar)      0.00      0.00      0.00
                                0.00      0.00      0.00
                                0.00      0.00      0.00

     TS-vdW  stress (kbar)      0.00      0.00      0.00
                                0.00      0.00      0.00
                                0.00      0.00      0.00



     Writing output data file SiH22.save

     init_run     :      3.13s CPU      3.26s WALL (       1 calls)
     electrons    :     58.75s CPU     59.68s WALL (       1 calls)
     forces       :      0.40s CPU      0.40s WALL (       1 calls)
     stress       :      1.82s CPU      1.90s WALL (       1 calls)

     Called by init_run:
     wfcinit      :      1.40s CPU      1.42s WALL (       1 calls)
     wfcinit:atom :      0.03s CPU      0.03s WALL (       6 calls)
     wfcinit:wfcr :      1.30s CPU      1.31s WALL (       6 calls)
     potinit      :      0.62s CPU      0.66s WALL (       1 calls)

     Called by electrons:
     c_bands      :     46.34s CPU     46.66s WALL (      10 calls)
     sum_band     :      7.93s CPU      7.97s WALL (      10 calls)
     v_of_rho     :      3.81s CPU      3.86s WALL (      11 calls)
     v_h          :      0.35s CPU      0.36s WALL (      11 calls)
     v_xc         :      3.46s CPU      3.50s WALL (      11 calls)
     mix_rho      :      0.79s CPU      0.87s WALL (      10 calls)

     Called by c_bands:
     init_us_2    :      0.81s CPU      0.81s WALL (     138 calls)
     cegterg      :     45.76s CPU     45.91s WALL (      60 calls)

     Called by sum_band:

     Called by *egterg:
     h_psi        :     43.56s CPU     43.68s WALL (     389 calls)
     g_psi        :      0.21s CPU      0.21s WALL (     323 calls)
     cdiaghg      :      0.06s CPU      0.06s WALL (     383 calls)
     cegterg:over :      1.22s CPU      1.22s WALL (     323 calls)
     cegterg:upda :      1.03s CPU      1.04s WALL (     323 calls)
     cegterg:last :      0.34s CPU      0.35s WALL (      77 calls)

     Called by h_psi:
     h_psi:pot    :     43.35s CPU     43.47s WALL (     389 calls)
     h_psi:calbec :      0.38s CPU      0.39s WALL (     389 calls)
     vloc_psi     :     42.75s CPU     42.87s WALL (     389 calls)
     add_vuspsi   :      0.21s CPU      0.21s WALL (     389 calls)

     General routines
     calbec       :      0.42s CPU      0.42s WALL (     419 calls)
     fft          :      3.25s CPU      3.28s WALL (     128 calls)
     fftw         :     43.78s CPU     43.88s WALL (    3304 calls)

     Parallel routines
     fft_scatt_xy :      6.33s CPU      6.35s WALL (    3432 calls)
     fft_scatt_yz :      9.19s CPU      9.22s WALL (    3432 calls)

     PWSCF        :  1m 4.59s CPU     1m 7.21s WALL


   This run was terminated on:   7:37:57   1Oct2020            

=------------------------------------------------------------------------------=
   JOB DONE.
=------------------------------------------------------------------------------=
