
     Program PWSCF v.6.2 (svn rev. 14038) starts on  1Oct2020 at  8:15: 7 

     This program is part of the open-source Quantum ESPRESSO suite
     for quantum simulation of materials; please cite
         "P. Giannozzi et al., J. Phys.:Condens. Matter 21 395502 (2009);
         "P. Giannozzi et al., J. Phys.:Condens. Matter 29 465901 (2017);
          URL http://www.quantum-espresso.org", 
     in publications or presentations arising from this work. More details at
     http://www.quantum-espresso.org/quote

     Parallel version (MPI), running on     8 processors

     MPI processes distributed on     1 nodes
     R & G space division:  proc/nbgrp/npool/nimage =       8
     Waiting for input...
     Reading input from standard input

     Current dimensions of program PWSCF are:
     Max number of different atomic species (ntypx) = 10
     Max number of k-points (npk) =  40000
     Max angular momentum in pseudopotentials (lmaxx) =  3

     Subspace diagonalization in iterative solution of the eigenvalue problem:
     a serial algorithm will be used


     Parallelization info
     --------------------
     sticks:   dense  smooth     PW     G-vecs:    dense   smooth      PW
     Min        2386    2386    623               248152   248152   33108
     Max        2387    2387    625               248157   248157   33111
     Sum       19089   19089   4989              1985227  1985227  264875



     bravais-lattice index     =            1
     lattice parameter (alat)  =      37.7945  a.u.
     unit-cell volume          =   53986.6767 (a.u.)^3
     number of atoms/cell      =            2
     number of atomic types    =            2
     number of electrons       =         5.00
     number of Kohn-Sham states=            7
     kinetic-energy cutoff     =      42.0000  Ry
     charge density cutoff     =     168.0000  Ry
     convergence threshold     =      1.0E-08
     mixing beta               =       0.3000
     number of iterations used =            8  plain     mixing
     Exchange-correlation      = SLA-PW-PBX-PBC ( 1  4  3  4 0 0)

     celldm(1)=  37.794523  celldm(2)=   0.000000  celldm(3)=   0.000000
     celldm(4)=   0.000000  celldm(5)=   0.000000  celldm(6)=   0.000000

     crystal axes: (cart. coord. in units of alat)
               a(1) = (   1.000000   0.000000   0.000000 )  
               a(2) = (   0.000000   1.000000   0.000000 )  
               a(3) = (   0.000000   0.000000   1.000000 )  

     reciprocal axes: (cart. coord. in units 2 pi/alat)
               b(1) = (  1.000000  0.000000  0.000000 )  
               b(2) = (  0.000000  1.000000  0.000000 )  
               b(3) = (  0.000000  0.000000  1.000000 )  


     PseudoPot. # 1 for Si read from file:
     ./Si.pbe-hgh.UPF
     MD5 check sum: 9a9f0f6e09139bfdb36b03ff6bc35900
     Pseudo is Norm-conserving, Zval =  4.0
     Generated in analytical, separable form
     Using radial grid of 1141 points,  3 beta functions with: 
                l(1) =   0
                l(2) =   0
                l(3) =   1

     PseudoPot. # 2 for H  read from file:
     ./H.pbe-hgh.UPF
     MD5 check sum: 5f350582108a937bec95f27f5610ab08
     Pseudo is Norm-conserving, Zval =  1.0
     Generated in analytical, separable form
     Using radial grid of  929 points,  0 beta functions with: 

     atomic species   valence    mass     pseudopotential
        Si             4.00    28.08000     Si( 1.00)
        H              1.00     1.00784     H ( 1.00)

      8 Sym. Ops. (no inversion) found


                                    s                        frac. trans.

      isym =  1     identity                                     

 cryst.   s( 1) = (     1          0          0      )
                  (     0          1          0      )
                  (     0          0          1      )

 cart.    s( 1) = (  1.0000000  0.0000000  0.0000000 )
                  (  0.0000000  1.0000000  0.0000000 )
                  (  0.0000000  0.0000000  1.0000000 )


      isym =  2     180 deg rotation - cart. axis [1,0,0]        

 cryst.   s( 2) = (     1          0          0      )
                  (     0         -1          0      )
                  (     0          0         -1      )

 cart.    s( 2) = (  1.0000000  0.0000000  0.0000000 )
                  (  0.0000000 -1.0000000  0.0000000 )
                  (  0.0000000  0.0000000 -1.0000000 )


      isym =  3      90 deg rotation - cart. axis [-1,0,0]       

 cryst.   s( 3) = (     1          0          0      )
                  (     0          0         -1      )
                  (     0          1          0      )

 cart.    s( 3) = (  1.0000000  0.0000000  0.0000000 )
                  (  0.0000000  0.0000000  1.0000000 )
                  (  0.0000000 -1.0000000  0.0000000 )


      isym =  4      90 deg rotation - cart. axis [1,0,0]        

 cryst.   s( 4) = (     1          0          0      )
                  (     0          0          1      )
                  (     0         -1          0      )

 cart.    s( 4) = (  1.0000000  0.0000000  0.0000000 )
                  (  0.0000000  0.0000000 -1.0000000 )
                  (  0.0000000  1.0000000  0.0000000 )


      isym =  5     inv. 180 deg rotation - cart. axis [0,0,1]   

 cryst.   s( 5) = (     1          0          0      )
                  (     0          1          0      )
                  (     0          0         -1      )

 cart.    s( 5) = (  1.0000000  0.0000000  0.0000000 )
                  (  0.0000000  1.0000000  0.0000000 )
                  (  0.0000000  0.0000000 -1.0000000 )


      isym =  6     inv. 180 deg rotation - cart. axis [0,1,0]   

 cryst.   s( 6) = (     1          0          0      )
                  (     0         -1          0      )
                  (     0          0          1      )

 cart.    s( 6) = (  1.0000000  0.0000000  0.0000000 )
                  (  0.0000000 -1.0000000  0.0000000 )
                  (  0.0000000  0.0000000  1.0000000 )


      isym =  7     inv. 180 deg rotation - cart. axis [0,1,1]   

 cryst.   s( 7) = (     1          0          0      )
                  (     0          0         -1      )
                  (     0         -1          0      )

 cart.    s( 7) = (  1.0000000  0.0000000  0.0000000 )
                  (  0.0000000  0.0000000 -1.0000000 )
                  (  0.0000000 -1.0000000  0.0000000 )


      isym =  8     inv. 180 deg rotation - cart. axis [0,1,-1]  

 cryst.   s( 8) = (     1          0          0      )
                  (     0          0          1      )
                  (     0          1          0      )

 cart.    s( 8) = (  1.0000000  0.0000000  0.0000000 )
                  (  0.0000000  0.0000000  1.0000000 )
                  (  0.0000000  1.0000000  0.0000000 )


     point group C_4v (4mm) 
     there are  5 classes
     the character table:

       E     2C4   C2    2s_v  2s_d 
A_1    1.00  1.00  1.00  1.00  1.00
A_2    1.00  1.00  1.00 -1.00 -1.00
B_1    1.00 -1.00  1.00  1.00 -1.00
B_2    1.00 -1.00  1.00 -1.00  1.00
E      2.00  0.00 -2.00  0.00  0.00

     the symmetry operations in each class and the name of the first element:

     E        1
          identity                                               
     2C4      3    4
           90 deg rotation - cart. axis [-1,0,0]                 
     C2       2
          180 deg rotation - cart. axis [1,0,0]                  
     2s_v     5    6
          inv. 180 deg rotation - cart. axis [0,0,1]             
     2s_d     7    8
          inv. 180 deg rotation - cart. axis [0,1,1]             

   Cartesian axes

     site n.     atom                  positions (alat units)
         1           Si  tau(   1) = (   0.0000000   0.0000000   0.0000000  )
         2           H   tau(   2) = (   0.0750000   0.0000000   0.0000000  )

   Crystallographic axes

     site n.     atom                  positions (cryst. coord.)
         1           Si  tau(   1) = (  0.0000000  0.0000000  0.0000000  )
         2           H   tau(   2) = (  0.0750000  0.0000000  0.0000000  )

     number of k points=     6  Marzari-Vanderbilt smearing, width (Ry)=  0.0500
                       cart. coord. in units 2pi/alat
        k(    1) = (   0.0000000   0.0000000   0.0000000), wk =   0.2500000
        k(    2) = (   0.0000000   0.0000000  -0.5000000), wk =   0.5000000
        k(    3) = (   0.0000000  -0.5000000  -0.5000000), wk =   0.2500000
        k(    4) = (  -0.5000000  -0.5000000  -0.5000000), wk =   0.2500000
        k(    5) = (  -0.5000000   0.0000000   0.0000000), wk =   0.2500000
        k(    6) = (  -0.5000000   0.5000000   0.0000000), wk =   0.5000000

                       cryst. coord.
        k(    1) = (   0.0000000   0.0000000   0.0000000), wk =   0.2500000
        k(    2) = (   0.0000000   0.0000000  -0.5000000), wk =   0.5000000
        k(    3) = (   0.0000000  -0.5000000  -0.5000000), wk =   0.2500000
        k(    4) = (  -0.5000000  -0.5000000  -0.5000000), wk =   0.2500000
        k(    5) = (  -0.5000000   0.0000000   0.0000000), wk =   0.2500000
        k(    6) = (  -0.5000000   0.5000000   0.0000000), wk =   0.5000000

     Dense  grid:  1985227 G-vectors     FFT dimensions: ( 160, 160, 160)

     Dynamical RAM for                 wfc:       3.31 MB

     Dynamical RAM for     wfc (w. buffer):      23.19 MB

     Dynamical RAM for           str. fact:       7.57 MB

     Dynamical RAM for           local pot:       0.00 MB

     Dynamical RAM for          nlocal pot:       2.37 MB

     Dynamical RAM for                qrad:       2.14 MB

     Dynamical RAM for          rho,v,vnew:      23.08 MB

     Dynamical RAM for               rhoin:       7.69 MB

     Dynamical RAM for            rho*nmix:      60.58 MB

     Dynamical RAM for           G-vectors:      16.09 MB

     Dynamical RAM for          h,s,v(r/c):       0.04 MB

     Dynamical RAM for          <psi|beta>:       0.00 MB

     Dynamical RAM for                 psi:      13.25 MB

     Dynamical RAM for                hpsi:      13.25 MB

     Dynamical RAM for      wfcinit/wfcrot:       6.63 MB

     Estimated static dynamical RAM per process >     173.61 MB

     Estimated max dynamical RAM per process >     200.15 MB

     Estimated total dynamical RAM >       1.56 GB

     Initial potential from superposition of free atoms
     Check: negative starting charge=   -0.012431

     starting charge    4.99943, renormalised to    5.00000

     negative rho (up, down):  1.243E-02 0.000E+00
     Starting wfc are    5 randomized atomic wfcs +    2 random wfc

     total cpu time spent up to now is        3.8 secs

     Self-consistent Calculation

     iteration #  1     ecut=    42.00 Ry     beta= 0.30
     Davidson diagonalization with overlap
     ethr =  1.00E-02,  avg # of iterations =  5.5

     negative rho (up, down):  8.617E-03 0.000E+00

     total cpu time spent up to now is       11.5 secs

     total energy              =      -8.77342601 Ry
     Harris-Foulkes estimate   =      -8.80411594 Ry
     estimated scf accuracy    <       0.10800879 Ry

     iteration #  2     ecut=    42.00 Ry     beta= 0.30
     Davidson diagonalization with overlap
     ethr =  2.16E-03,  avg # of iterations =  1.0

     negative rho (up, down):  2.535E-03 0.000E+00

     total cpu time spent up to now is       15.9 secs

     total energy              =      -8.75835585 Ry
     Harris-Foulkes estimate   =      -8.77690388 Ry
     estimated scf accuracy    <       0.03670769 Ry

     iteration #  3     ecut=    42.00 Ry     beta= 0.30
     Davidson diagonalization with overlap
     ethr =  7.34E-04,  avg # of iterations =  2.8

     negative rho (up, down):  7.239E-04 0.000E+00

     total cpu time spent up to now is       21.1 secs

     total energy              =      -8.76290913 Ry
     Harris-Foulkes estimate   =      -8.76357768 Ry
     estimated scf accuracy    <       0.00151148 Ry

     iteration #  4     ecut=    42.00 Ry     beta= 0.30
     Davidson diagonalization with overlap
     ethr =  3.02E-05,  avg # of iterations = 14.0

     negative rho (up, down):  5.651E-04 0.000E+00

     total cpu time spent up to now is       33.1 secs

     total energy              =      -8.76312470 Ry
     Harris-Foulkes estimate   =      -8.76366511 Ry
     estimated scf accuracy    <       0.00107615 Ry

     iteration #  5     ecut=    42.00 Ry     beta= 0.30
     Davidson diagonalization with overlap
     ethr =  2.15E-05,  avg # of iterations =  2.0

     negative rho (up, down):  1.715E-06 0.000E+00

     total cpu time spent up to now is       40.3 secs

     total energy              =      -8.76324552 Ry
     Harris-Foulkes estimate   =      -8.76326798 Ry
     estimated scf accuracy    <       0.00005476 Ry

     iteration #  6     ecut=    42.00 Ry     beta= 0.30
     Davidson diagonalization with overlap
     c_bands:  1 eigenvalues not converged
     ethr =  1.10E-06,  avg # of iterations = 14.8

     negative rho (up, down):  1.273E-05 0.000E+00

     total cpu time spent up to now is       52.7 secs

     total energy              =      -8.76326636 Ry
     Harris-Foulkes estimate   =      -8.76327352 Ry
     estimated scf accuracy    <       0.00001752 Ry

     iteration #  7     ecut=    42.00 Ry     beta= 0.30
     Davidson diagonalization with overlap
     ethr =  3.50E-07,  avg # of iterations =  2.5

     negative rho (up, down):  1.675E-06 0.000E+00

     total cpu time spent up to now is       57.6 secs

     total energy              =      -8.76326651 Ry
     Harris-Foulkes estimate   =      -8.76326768 Ry
     estimated scf accuracy    <       0.00000296 Ry

     iteration #  8     ecut=    42.00 Ry     beta= 0.30
     Davidson diagonalization with overlap
     ethr =  5.92E-08,  avg # of iterations =  2.0

     negative rho (up, down):  1.197E-06 0.000E+00

     total cpu time spent up to now is       62.7 secs

     total energy              =      -8.76326676 Ry
     Harris-Foulkes estimate   =      -8.76326688 Ry
     estimated scf accuracy    <       0.00000026 Ry

     iteration #  9     ecut=    42.00 Ry     beta= 0.30
     Davidson diagonalization with overlap
     ethr =  5.23E-09,  avg # of iterations =  2.0

     negative rho (up, down):  2.368E-07 0.000E+00

     total cpu time spent up to now is       68.1 secs

     total energy              =      -8.76326682 Ry
     Harris-Foulkes estimate   =      -8.76326683 Ry
     estimated scf accuracy    <       0.00000003 Ry

     iteration # 10     ecut=    42.00 Ry     beta= 0.30
     Davidson diagonalization with overlap
     ethr =  6.21E-10,  avg # of iterations =  2.0

     total cpu time spent up to now is       73.0 secs

     End of self-consistent calculation

          k = 0.0000 0.0000 0.0000 (248049 PWs)   bands (ev):

   -11.9571  -6.6743  -4.0146  -4.0146  -0.3755   0.1105   0.2100

     occupation numbers 
     1.0000   1.0000   0.2500   0.2500   0.0000   0.0000   0.0000

          k = 0.0000 0.0000-0.5000 (247982 PWs)   bands (ev):

   -11.9571  -6.6742  -4.0146  -4.0146  -0.3690   0.0773   0.2170

     occupation numbers 
     1.0000   1.0000   0.2500   0.2500   0.0000   0.0000   0.0000

          k = 0.0000-0.5000-0.5000 (248312 PWs)   bands (ev):

   -11.9571  -6.6743  -4.0146  -4.0146  -0.3635   0.1434   0.1438

     occupation numbers 
     1.0000   1.0000   0.2500   0.2500   0.0000   0.0000   0.0000

          k =-0.5000-0.5000-0.5000 (248296 PWs)   bands (ev):

   -11.9571  -6.6743  -4.0146  -4.0146  -0.3583   0.1647   0.1977

     occupation numbers 
     1.0000   1.0000   0.2500   0.2500   0.0000   0.0000   0.0000

          k =-0.5000 0.0000 0.0000 (247982 PWs)   bands (ev):

   -11.9571  -6.6742  -4.0146  -4.0146  -0.3687   0.0689   0.1953

     occupation numbers 
     1.0000   1.0000   0.2500   0.2500   0.0000   0.0000   0.0000

          k =-0.5000 0.5000 0.0000 (248312 PWs)   bands (ev):

   -11.9571  -6.6743  -4.0146  -4.0146  -0.3632   0.1235   0.1413

     occupation numbers 
     1.0000   1.0000   0.2500   0.2500   0.0000   0.0000   0.0000

     the Fermi energy is    -4.1816 ev

!    total energy              =      -8.76326683 Ry
     Harris-Foulkes estimate   =      -8.76326683 Ry
     estimated scf accuracy    <          3.7E-10 Ry

     The total energy is the sum of the following terms:

     one-electron contribution =     -14.35339795 Ry
     hartree contribution      =       7.45510615 Ry
     xc contribution           =      -2.78232166 Ry
     ewald contribution        =       0.94800148 Ry
     smearing contrib. (-TS)   =      -0.03065484 Ry

     convergence has been achieved in  10 iterations

     Forces acting on atoms (cartesian axes, Ry/au):

     atom    1 type  1   force =    -0.02844861    0.00000000    0.00000000
     atom    2 type  2   force =     0.02844861    0.00000000    0.00000000
     The non-local contrib.  to forces
     atom    1 type  1   force =     0.16075339    0.00000000    0.00000000
     atom    2 type  2   force =     0.00000000    0.00000000    0.00000000
     The ionic contribution  to forces
     atom    1 type  1   force =    -0.99386806   -0.00000000   -0.00000000
     atom    2 type  2   force =     0.99386806    0.00000000   -0.00000000
     The local contribution  to forces
     atom    1 type  1   force =     0.80467823    0.00000000   -0.00000000
     atom    2 type  2   force =    -0.96542273   -0.00000000   -0.00000000
     The core correction contribution to forces
     atom    1 type  1   force =     0.00000000    0.00000000    0.00000000
     atom    2 type  2   force =     0.00000000    0.00000000    0.00000000
     The Hubbard contrib.    to forces
     atom    1 type  1   force =     0.00000000    0.00000000    0.00000000
     atom    2 type  2   force =     0.00000000    0.00000000    0.00000000
     The SCF correction term to forces
     atom    1 type  1   force =    -0.00001371    0.00000000   -0.00000000
     atom    2 type  2   force =     0.00000173    0.00000000   -0.00000000

     Total force =     0.040232     Total SCF correction =     0.000014


     Computing stress (Cartesian axis) and pressure

          total   stress  (Ry/bohr**3)                   (kbar)     P=    0.04
   0.00000125   0.00000000   0.00000000          0.18      0.00      0.00
   0.00000000  -0.00000024   0.00000000          0.00     -0.03      0.00
   0.00000000   0.00000000  -0.00000024          0.00      0.00     -0.03

     kinetic stress (kbar)      7.37      0.00      0.00
                                0.00      6.96      0.00
                                0.00      0.00      6.96

     local   stress (kbar)    -26.72     -0.00     -0.00
                               -0.00    -15.08     -0.00
                               -0.00     -0.00    -15.08

     nonloc. stress (kbar)      7.34      0.00      0.00
                                0.00      6.27      0.00
                                0.00      0.00      6.27

     hartree stress (kbar)      8.53     -0.00      0.00
                               -0.00      5.89      0.00
                                0.00      0.00      5.89

     exc-cor stress (kbar)     -2.33      0.00      0.00
                                0.00     -2.38      0.00
                                0.00      0.00     -2.38

     corecor stress (kbar)      0.00      0.00      0.00
                                0.00      0.00      0.00
                                0.00      0.00      0.00

     ewald   stress (kbar)      6.00     -0.00     -0.00
                               -0.00     -1.71     -0.00
                               -0.00     -0.00     -1.71

     hubbard stress (kbar)      0.00      0.00      0.00
                                0.00      0.00      0.00
                                0.00      0.00      0.00

     london  stress (kbar)      0.00      0.00      0.00
                                0.00      0.00      0.00
                                0.00      0.00      0.00

     DFT-D3  stress (kbar)      0.00      0.00      0.00
                                0.00      0.00      0.00
                                0.00      0.00      0.00

     XDM     stress (kbar)      0.00      0.00      0.00
                                0.00      0.00      0.00
                                0.00      0.00      0.00

     dft-nl  stress (kbar)      0.00      0.00      0.00
                                0.00      0.00      0.00
                                0.00      0.00      0.00

     TS-vdW  stress (kbar)      0.00      0.00      0.00
                                0.00      0.00      0.00
                                0.00      0.00      0.00



     Writing output data file SiH24.save

     init_run     :      3.46s CPU      3.60s WALL (       1 calls)
     electrons    :     65.21s CPU     69.84s WALL (       1 calls)
     forces       :      0.44s CPU      0.45s WALL (       1 calls)
     stress       :      1.87s CPU      1.96s WALL (       1 calls)

     Called by init_run:
     wfcinit      :      1.59s CPU      1.61s WALL (       1 calls)
     wfcinit:atom :      0.03s CPU      0.03s WALL (       6 calls)
     wfcinit:wfcr :      1.48s CPU      1.50s WALL (       6 calls)
     potinit      :      0.65s CPU      0.70s WALL (       1 calls)

     Called by electrons:
     c_bands      :     51.33s CPU     53.64s WALL (      10 calls)
     sum_band     :      8.97s CPU      9.02s WALL (      10 calls)
     v_of_rho     :      4.11s CPU      4.17s WALL (      11 calls)
     v_h          :      0.39s CPU      0.40s WALL (      11 calls)
     v_xc         :      3.72s CPU      3.76s WALL (      11 calls)
     mix_rho      :      0.93s CPU      1.02s WALL (      10 calls)

     Called by c_bands:
     init_us_2    :      0.82s CPU      0.82s WALL (     138 calls)
     cegterg      :     50.71s CPU     50.89s WALL (      60 calls)

     Called by sum_band:

     Called by *egterg:
     h_psi        :     48.67s CPU     48.82s WALL (     358 calls)
     g_psi        :      0.21s CPU      0.21s WALL (     292 calls)
     cdiaghg      :      0.05s CPU      0.05s WALL (     352 calls)
     cegterg:over :      1.19s CPU      1.20s WALL (     292 calls)
     cegterg:upda :      0.98s CPU      0.99s WALL (     292 calls)
     cegterg:last :      0.35s CPU      0.35s WALL (      77 calls)

     Called by h_psi:
     h_psi:pot    :     48.43s CPU     48.58s WALL (     358 calls)
     h_psi:calbec :      0.33s CPU      0.33s WALL (     358 calls)
     vloc_psi     :     47.90s CPU     48.04s WALL (     358 calls)
     add_vuspsi   :      0.20s CPU      0.20s WALL (     358 calls)

     General routines
     calbec       :      0.37s CPU      0.38s WALL (     388 calls)
     fft          :      3.61s CPU      3.65s WALL (     128 calls)
     fftw         :     48.53s CPU     48.66s WALL (    3270 calls)

     Parallel routines
     fft_scatt_xy :      7.81s CPU      7.83s WALL (    3398 calls)
     fft_scatt_yz :      9.22s CPU      9.26s WALL (    3398 calls)

     PWSCF        :  1m11.47s CPU     1m17.23s WALL


   This run was terminated on:   8:16:24   1Oct2020            

=------------------------------------------------------------------------------=
   JOB DONE.
=------------------------------------------------------------------------------=
