
     Program PWSCF v.6.2 (svn rev. 14038) starts on  1Oct2020 at  7:42:52 

     This program is part of the open-source Quantum ESPRESSO suite
     for quantum simulation of materials; please cite
         "P. Giannozzi et al., J. Phys.:Condens. Matter 21 395502 (2009);
         "P. Giannozzi et al., J. Phys.:Condens. Matter 29 465901 (2017);
          URL http://www.quantum-espresso.org", 
     in publications or presentations arising from this work. More details at
     http://www.quantum-espresso.org/quote

     Parallel version (MPI), running on     8 processors

     MPI processes distributed on     1 nodes
     R & G space division:  proc/nbgrp/npool/nimage =       8
     Waiting for input...
     Reading input from standard input

     Current dimensions of program PWSCF are:
     Max number of different atomic species (ntypx) = 10
     Max number of k-points (npk) =  40000
     Max angular momentum in pseudopotentials (lmaxx) =  3

     Subspace diagonalization in iterative solution of the eigenvalue problem:
     a serial algorithm will be used


     Parallelization info
     --------------------
     sticks:   dense  smooth     PW     G-vecs:    dense   smooth      PW
     Min        2386    2386    623               248152   248152   33108
     Max        2387    2387    625               248157   248157   33111
     Sum       19089   19089   4989              1985227  1985227  264875



     bravais-lattice index     =            1
     lattice parameter (alat)  =      37.7945  a.u.
     unit-cell volume          =   53986.6767 (a.u.)^3
     number of atoms/cell      =            2
     number of atomic types    =            2
     number of electrons       =         5.00
     number of Kohn-Sham states=            7
     kinetic-energy cutoff     =      42.0000  Ry
     charge density cutoff     =     168.0000  Ry
     convergence threshold     =      1.0E-08
     mixing beta               =       0.3000
     number of iterations used =            8  plain     mixing
     Exchange-correlation      = SLA-PW-PBX-PBC ( 1  4  3  4 0 0)

     celldm(1)=  37.794523  celldm(2)=   0.000000  celldm(3)=   0.000000
     celldm(4)=   0.000000  celldm(5)=   0.000000  celldm(6)=   0.000000

     crystal axes: (cart. coord. in units of alat)
               a(1) = (   1.000000   0.000000   0.000000 )  
               a(2) = (   0.000000   1.000000   0.000000 )  
               a(3) = (   0.000000   0.000000   1.000000 )  

     reciprocal axes: (cart. coord. in units 2 pi/alat)
               b(1) = (  1.000000  0.000000  0.000000 )  
               b(2) = (  0.000000  1.000000  0.000000 )  
               b(3) = (  0.000000  0.000000  1.000000 )  


     PseudoPot. # 1 for Si read from file:
     ./Si.pbe-hgh.UPF
     MD5 check sum: 9a9f0f6e09139bfdb36b03ff6bc35900
     Pseudo is Norm-conserving, Zval =  4.0
     Generated in analytical, separable form
     Using radial grid of 1141 points,  3 beta functions with: 
                l(1) =   0
                l(2) =   0
                l(3) =   1

     PseudoPot. # 2 for H  read from file:
     ./H.pbe-hgh.UPF
     MD5 check sum: 5f350582108a937bec95f27f5610ab08
     Pseudo is Norm-conserving, Zval =  1.0
     Generated in analytical, separable form
     Using radial grid of  929 points,  0 beta functions with: 

     atomic species   valence    mass     pseudopotential
        Si             4.00    28.08000     Si( 1.00)
        H              1.00     1.00784     H ( 1.00)

      8 Sym. Ops. (no inversion) found


                                    s                        frac. trans.

      isym =  1     identity                                     

 cryst.   s( 1) = (     1          0          0      )
                  (     0          1          0      )
                  (     0          0          1      )

 cart.    s( 1) = (  1.0000000  0.0000000  0.0000000 )
                  (  0.0000000  1.0000000  0.0000000 )
                  (  0.0000000  0.0000000  1.0000000 )


      isym =  2     180 deg rotation - cart. axis [1,0,0]        

 cryst.   s( 2) = (     1          0          0      )
                  (     0         -1          0      )
                  (     0          0         -1      )

 cart.    s( 2) = (  1.0000000  0.0000000  0.0000000 )
                  (  0.0000000 -1.0000000  0.0000000 )
                  (  0.0000000  0.0000000 -1.0000000 )


      isym =  3      90 deg rotation - cart. axis [-1,0,0]       

 cryst.   s( 3) = (     1          0          0      )
                  (     0          0         -1      )
                  (     0          1          0      )

 cart.    s( 3) = (  1.0000000  0.0000000  0.0000000 )
                  (  0.0000000  0.0000000  1.0000000 )
                  (  0.0000000 -1.0000000  0.0000000 )


      isym =  4      90 deg rotation - cart. axis [1,0,0]        

 cryst.   s( 4) = (     1          0          0      )
                  (     0          0          1      )
                  (     0         -1          0      )

 cart.    s( 4) = (  1.0000000  0.0000000  0.0000000 )
                  (  0.0000000  0.0000000 -1.0000000 )
                  (  0.0000000  1.0000000  0.0000000 )


      isym =  5     inv. 180 deg rotation - cart. axis [0,0,1]   

 cryst.   s( 5) = (     1          0          0      )
                  (     0          1          0      )
                  (     0          0         -1      )

 cart.    s( 5) = (  1.0000000  0.0000000  0.0000000 )
                  (  0.0000000  1.0000000  0.0000000 )
                  (  0.0000000  0.0000000 -1.0000000 )


      isym =  6     inv. 180 deg rotation - cart. axis [0,1,0]   

 cryst.   s( 6) = (     1          0          0      )
                  (     0         -1          0      )
                  (     0          0          1      )

 cart.    s( 6) = (  1.0000000  0.0000000  0.0000000 )
                  (  0.0000000 -1.0000000  0.0000000 )
                  (  0.0000000  0.0000000  1.0000000 )


      isym =  7     inv. 180 deg rotation - cart. axis [0,1,1]   

 cryst.   s( 7) = (     1          0          0      )
                  (     0          0         -1      )
                  (     0         -1          0      )

 cart.    s( 7) = (  1.0000000  0.0000000  0.0000000 )
                  (  0.0000000  0.0000000 -1.0000000 )
                  (  0.0000000 -1.0000000  0.0000000 )


      isym =  8     inv. 180 deg rotation - cart. axis [0,1,-1]  

 cryst.   s( 8) = (     1          0          0      )
                  (     0          0          1      )
                  (     0          1          0      )

 cart.    s( 8) = (  1.0000000  0.0000000  0.0000000 )
                  (  0.0000000  0.0000000  1.0000000 )
                  (  0.0000000  1.0000000  0.0000000 )


     point group C_4v (4mm) 
     there are  5 classes
     the character table:

       E     2C4   C2    2s_v  2s_d 
A_1    1.00  1.00  1.00  1.00  1.00
A_2    1.00  1.00  1.00 -1.00 -1.00
B_1    1.00 -1.00  1.00  1.00 -1.00
B_2    1.00 -1.00  1.00 -1.00  1.00
E      2.00  0.00 -2.00  0.00  0.00

     the symmetry operations in each class and the name of the first element:

     E        1
          identity                                               
     2C4      3    4
           90 deg rotation - cart. axis [-1,0,0]                 
     C2       2
          180 deg rotation - cart. axis [1,0,0]                  
     2s_v     5    6
          inv. 180 deg rotation - cart. axis [0,0,1]             
     2s_d     7    8
          inv. 180 deg rotation - cart. axis [0,1,1]             

   Cartesian axes

     site n.     atom                  positions (alat units)
         1           Si  tau(   1) = (   0.0000000   0.0000000   0.0000000  )
         2           H   tau(   2) = (   0.0790000   0.0000000   0.0000000  )

   Crystallographic axes

     site n.     atom                  positions (cryst. coord.)
         1           Si  tau(   1) = (  0.0000000  0.0000000  0.0000000  )
         2           H   tau(   2) = (  0.0790000  0.0000000  0.0000000  )

     number of k points=     6  Marzari-Vanderbilt smearing, width (Ry)=  0.0500
                       cart. coord. in units 2pi/alat
        k(    1) = (   0.0000000   0.0000000   0.0000000), wk =   0.2500000
        k(    2) = (   0.0000000   0.0000000  -0.5000000), wk =   0.5000000
        k(    3) = (   0.0000000  -0.5000000  -0.5000000), wk =   0.2500000
        k(    4) = (  -0.5000000  -0.5000000  -0.5000000), wk =   0.2500000
        k(    5) = (  -0.5000000   0.0000000   0.0000000), wk =   0.2500000
        k(    6) = (  -0.5000000   0.5000000   0.0000000), wk =   0.5000000

                       cryst. coord.
        k(    1) = (   0.0000000   0.0000000   0.0000000), wk =   0.2500000
        k(    2) = (   0.0000000   0.0000000  -0.5000000), wk =   0.5000000
        k(    3) = (   0.0000000  -0.5000000  -0.5000000), wk =   0.2500000
        k(    4) = (  -0.5000000  -0.5000000  -0.5000000), wk =   0.2500000
        k(    5) = (  -0.5000000   0.0000000   0.0000000), wk =   0.2500000
        k(    6) = (  -0.5000000   0.5000000   0.0000000), wk =   0.5000000

     Dense  grid:  1985227 G-vectors     FFT dimensions: ( 160, 160, 160)

     Dynamical RAM for                 wfc:       3.31 MB

     Dynamical RAM for     wfc (w. buffer):      23.19 MB

     Dynamical RAM for           str. fact:       7.57 MB

     Dynamical RAM for           local pot:       0.00 MB

     Dynamical RAM for          nlocal pot:       2.37 MB

     Dynamical RAM for                qrad:       2.14 MB

     Dynamical RAM for          rho,v,vnew:      23.08 MB

     Dynamical RAM for               rhoin:       7.69 MB

     Dynamical RAM for            rho*nmix:      60.58 MB

     Dynamical RAM for           G-vectors:      16.09 MB

     Dynamical RAM for          h,s,v(r/c):       0.04 MB

     Dynamical RAM for          <psi|beta>:       0.00 MB

     Dynamical RAM for                 psi:      13.25 MB

     Dynamical RAM for                hpsi:      13.25 MB

     Dynamical RAM for      wfcinit/wfcrot:       6.63 MB

     Estimated static dynamical RAM per process >     173.61 MB

     Estimated max dynamical RAM per process >     200.15 MB

     Estimated total dynamical RAM >       1.56 GB

     Initial potential from superposition of free atoms
     Check: negative starting charge=   -0.012468

     starting charge    4.99943, renormalised to    5.00000

     negative rho (up, down):  1.247E-02 0.000E+00
     Starting wfc are    5 randomized atomic wfcs +    2 random wfc

     total cpu time spent up to now is        3.5 secs

     Self-consistent Calculation

     iteration #  1     ecut=    42.00 Ry     beta= 0.30
     Davidson diagonalization with overlap
     ethr =  1.00E-02,  avg # of iterations =  5.5

     negative rho (up, down):  8.643E-03 0.000E+00

     total cpu time spent up to now is       10.2 secs

     total energy              =      -8.77224877 Ry
     Harris-Foulkes estimate   =      -8.80094492 Ry
     estimated scf accuracy    <       0.09851194 Ry

     iteration #  2     ecut=    42.00 Ry     beta= 0.30
     Davidson diagonalization with overlap
     ethr =  1.97E-03,  avg # of iterations =  1.0

     negative rho (up, down):  2.842E-03 0.000E+00

     total cpu time spent up to now is       14.1 secs

     total energy              =      -8.76002490 Ry
     Harris-Foulkes estimate   =      -8.77575772 Ry
     estimated scf accuracy    <       0.03198831 Ry

     iteration #  3     ecut=    42.00 Ry     beta= 0.30
     Davidson diagonalization with overlap
     ethr =  6.40E-04,  avg # of iterations =  2.2

     negative rho (up, down):  7.751E-04 0.000E+00

     total cpu time spent up to now is       18.4 secs

     total energy              =      -8.76372172 Ry
     Harris-Foulkes estimate   =      -8.76444443 Ry
     estimated scf accuracy    <       0.00171257 Ry

     iteration #  4     ecut=    42.00 Ry     beta= 0.30
     Davidson diagonalization with overlap
     ethr =  3.43E-05,  avg # of iterations = 14.0

     negative rho (up, down):  6.181E-04 0.000E+00

     total cpu time spent up to now is       28.9 secs

     total energy              =      -8.76399863 Ry
     Harris-Foulkes estimate   =      -8.76434542 Ry
     estimated scf accuracy    <       0.00074794 Ry

     iteration #  5     ecut=    42.00 Ry     beta= 0.30
     Davidson diagonalization with overlap
     ethr =  1.50E-05,  avg # of iterations =  2.2

     negative rho (up, down):  3.141E-05 0.000E+00

     total cpu time spent up to now is       33.1 secs

     total energy              =      -8.76407081 Ry
     Harris-Foulkes estimate   =      -8.76409055 Ry
     estimated scf accuracy    <       0.00005401 Ry

     iteration #  6     ecut=    42.00 Ry     beta= 0.30
     Davidson diagonalization with overlap
     c_bands:  1 eigenvalues not converged
     ethr =  1.08E-06,  avg # of iterations = 15.3

     negative rho (up, down):  1.845E-05 0.000E+00

     total cpu time spent up to now is       44.4 secs

     total energy              =      -8.76408750 Ry
     Harris-Foulkes estimate   =      -8.76409072 Ry
     estimated scf accuracy    <       0.00000903 Ry

     iteration #  7     ecut=    42.00 Ry     beta= 0.30
     Davidson diagonalization with overlap
     ethr =  1.81E-07,  avg # of iterations =  1.0

     negative rho (up, down):  2.406E-06 0.000E+00

     total cpu time spent up to now is       50.3 secs

     total energy              =      -8.76408694 Ry
     Harris-Foulkes estimate   =      -8.76408810 Ry
     estimated scf accuracy    <       0.00000202 Ry

     iteration #  8     ecut=    42.00 Ry     beta= 0.30
     Davidson diagonalization with overlap
     ethr =  4.04E-08,  avg # of iterations =  2.0

     negative rho (up, down):  1.063E-06 0.000E+00

     total cpu time spent up to now is       54.9 secs

     total energy              =      -8.76408762 Ry
     Harris-Foulkes estimate   =      -8.76408770 Ry
     estimated scf accuracy    <       0.00000027 Ry

     iteration #  9     ecut=    42.00 Ry     beta= 0.30
     Davidson diagonalization with overlap
     ethr =  5.48E-09,  avg # of iterations =  2.0

     total cpu time spent up to now is       59.4 secs

     total energy              =      -8.76408766 Ry
     Harris-Foulkes estimate   =      -8.76408765 Ry
     estimated scf accuracy    <       0.00000002 Ry

     iteration # 10     ecut=    42.00 Ry     beta= 0.30
     Davidson diagonalization with overlap
     ethr =  4.00E-10,  avg # of iterations =  3.2

     total cpu time spent up to now is       64.3 secs

     End of self-consistent calculation

          k = 0.0000 0.0000 0.0000 (248049 PWs)   bands (ev):

   -11.7496  -6.6624  -4.0359  -4.0359  -0.4243   0.0680   0.1864

     occupation numbers 
     1.0000   1.0001   0.2500   0.2500   0.0000   0.0000   0.0000

          k = 0.0000 0.0000-0.5000 (247982 PWs)   bands (ev):

   -11.7496  -6.6624  -4.0359  -4.0359  -0.4200   0.0793   0.1292

     occupation numbers 
     1.0000   1.0001   0.2500   0.2500   0.0000   0.0000   0.0000

          k = 0.0000-0.5000-0.5000 (248312 PWs)   bands (ev):

   -11.7496  -6.6624  -4.0359  -4.0359  -0.4162   0.1454   0.1464

     occupation numbers 
     1.0000   1.0001   0.2500   0.2500   0.0000   0.0000   0.0000

          k =-0.5000-0.5000-0.5000 (248296 PWs)   bands (ev):

   -11.7496  -6.6624  -4.0359  -4.0359  -0.4120   0.1344   0.1984

     occupation numbers 
     1.0000   1.0001   0.2500   0.2500   0.0000   0.0000   0.0000

          k =-0.5000 0.0000 0.0000 (247982 PWs)   bands (ev):

   -11.7496  -6.6624  -4.0359  -4.0359  -0.4190   0.0621   0.1242

     occupation numbers 
     1.0000   1.0001   0.2500   0.2500   0.0000   0.0000   0.0000

          k =-0.5000 0.5000 0.0000 (248312 PWs)   bands (ev):

   -11.7496  -6.6624  -4.0359  -4.0359  -0.4153   0.1070   0.1447

     occupation numbers 
     1.0000   1.0001   0.2500   0.2500   0.0000   0.0000   0.0000

     the Fermi energy is    -4.2029 ev

!    total energy              =      -8.76408767 Ry
     Harris-Foulkes estimate   =      -8.76408766 Ry
     estimated scf accuracy    <          3.1E-09 Ry

     The total energy is the sum of the following terms:

     one-electron contribution =     -14.12186014 Ry
     hartree contribution      =       7.33497948 Ry
     xc contribution           =      -2.75193758 Ry
     ewald contribution        =       0.80537921 Ry
     smearing contrib. (-TS)   =      -0.03064863 Ry

     convergence has been achieved in  10 iterations

     Forces acting on atoms (cartesian axes, Ry/au):

     atom    1 type  1   force =     0.01508620    0.00000000    0.00000000
     atom    2 type  2   force =    -0.01508620    0.00000000    0.00000000
     The non-local contrib.  to forces
     atom    1 type  1   force =     0.22723997    0.00000000    0.00000000
     atom    2 type  2   force =     0.00000000    0.00000000    0.00000000
     The ionic contribution  to forces
     atom    1 type  1   force =    -0.89549579   -0.00000000   -0.00000000
     atom    2 type  2   force =     0.89549579    0.00000000   -0.00000000
     The local contribution  to forces
     atom    1 type  1   force =     0.68338631   -0.00000000   -0.00000000
     atom    2 type  2   force =    -0.91057814    0.00000000   -0.00000000
     The core correction contribution to forces
     atom    1 type  1   force =     0.00000000    0.00000000    0.00000000
     atom    2 type  2   force =     0.00000000    0.00000000    0.00000000
     The Hubbard contrib.    to forces
     atom    1 type  1   force =     0.00000000    0.00000000    0.00000000
     atom    2 type  2   force =     0.00000000    0.00000000    0.00000000
     The SCF correction term to forces
     atom    1 type  1   force =    -0.00004489    0.00000000   -0.00000000
     atom    2 type  2   force =    -0.00000445    0.00000000    0.00000000

     Total force =     0.021335     Total SCF correction =     0.000045


     Computing stress (Cartesian axis) and pressure

          total   stress  (Ry/bohr**3)                   (kbar)     P=   -0.07
  -0.00000106   0.00000000   0.00000000         -0.16      0.00      0.00
   0.00000000  -0.00000022   0.00000000          0.00     -0.03      0.00
   0.00000000   0.00000000  -0.00000022          0.00      0.00     -0.03

     kinetic stress (kbar)      7.12      0.00      0.00
                                0.00      6.86      0.00
                                0.00      0.00      6.86

     local   stress (kbar)    -26.23      0.00      0.00
                                0.00    -14.86     -0.00
                                0.00     -0.00    -14.86

     nonloc. stress (kbar)      7.16      0.00      0.00
                                0.00      6.28      0.00
                                0.00      0.00      6.28

     hartree stress (kbar)      8.48     -0.00     -0.00
                               -0.00      5.75     -0.00
                               -0.00     -0.00      5.75

     exc-cor stress (kbar)     -2.30     -0.00     -0.00
                               -0.00     -2.35      0.00
                               -0.00      0.00     -2.35

     corecor stress (kbar)      0.00      0.00      0.00
                                0.00      0.00      0.00
                                0.00      0.00      0.00

     ewald   stress (kbar)      5.61     -0.00     -0.00
                               -0.00     -1.71     -0.00
                               -0.00     -0.00     -1.71

     hubbard stress (kbar)      0.00      0.00      0.00
                                0.00      0.00      0.00
                                0.00      0.00      0.00

     london  stress (kbar)      0.00      0.00      0.00
                                0.00      0.00      0.00
                                0.00      0.00      0.00

     DFT-D3  stress (kbar)      0.00      0.00      0.00
                                0.00      0.00      0.00
                                0.00      0.00      0.00

     XDM     stress (kbar)      0.00      0.00      0.00
                                0.00      0.00      0.00
                                0.00      0.00      0.00

     dft-nl  stress (kbar)      0.00      0.00      0.00
                                0.00      0.00      0.00
                                0.00      0.00      0.00

     TS-vdW  stress (kbar)      0.00      0.00      0.00
                                0.00      0.00      0.00
                                0.00      0.00      0.00



     Writing output data file SiH25.save

     init_run     :      3.14s CPU      3.29s WALL (       1 calls)
     electrons    :     57.52s CPU     61.23s WALL (       1 calls)
     forces       :      0.40s CPU      0.41s WALL (       1 calls)
     stress       :      1.82s CPU      1.92s WALL (       1 calls)

     Called by init_run:
     wfcinit      :      1.41s CPU      1.43s WALL (       1 calls)
     wfcinit:atom :      0.03s CPU      0.03s WALL (       6 calls)
     wfcinit:wfcr :      1.30s CPU      1.32s WALL (       6 calls)
     potinit      :      0.62s CPU      0.67s WALL (       1 calls)

     Called by electrons:
     c_bands      :     45.07s CPU     48.34s WALL (      10 calls)
     sum_band     :      8.01s CPU      8.04s WALL (      10 calls)
     v_of_rho     :      3.81s CPU      3.85s WALL (      11 calls)
     v_h          :      0.35s CPU      0.36s WALL (      11 calls)
     v_xc         :      3.46s CPU      3.49s WALL (      11 calls)
     mix_rho      :      0.77s CPU      0.87s WALL (      10 calls)

     Called by c_bands:
     init_us_2    :      0.83s CPU      0.83s WALL (     138 calls)
     cegterg      :     44.50s CPU     44.63s WALL (      60 calls)

     Called by sum_band:

     Called by *egterg:
     h_psi        :     42.57s CPU     42.69s WALL (     356 calls)
     g_psi        :      0.20s CPU      0.20s WALL (     290 calls)
     cdiaghg      :      0.05s CPU      0.05s WALL (     350 calls)
     cegterg:over :      1.10s CPU      1.10s WALL (     290 calls)
     cegterg:upda :      0.92s CPU      0.93s WALL (     290 calls)
     cegterg:last :      0.32s CPU      0.32s WALL (      75 calls)

     Called by h_psi:
     h_psi:pot    :     42.36s CPU     42.48s WALL (     356 calls)
     h_psi:calbec :      0.38s CPU      0.38s WALL (     356 calls)
     vloc_psi     :     41.79s CPU     41.89s WALL (     356 calls)
     add_vuspsi   :      0.20s CPU      0.20s WALL (     356 calls)

     General routines
     calbec       :      0.41s CPU      0.42s WALL (     386 calls)
     fft          :      3.26s CPU      3.29s WALL (     128 calls)
     fftw         :     42.92s CPU     43.02s WALL (    3248 calls)

     Parallel routines
     fft_scatt_xy :      6.20s CPU      6.21s WALL (    3376 calls)
     fft_scatt_yz :      9.49s CPU      9.53s WALL (    3376 calls)

     PWSCF        :  1m 3.36s CPU     1m 8.36s WALL


   This run was terminated on:   7:44: 0   1Oct2020            

=------------------------------------------------------------------------------=
   JOB DONE.
=------------------------------------------------------------------------------=
