
     Program PWSCF v.6.2 (svn rev. 14038) starts on  1Oct2020 at  7:41:21 

     This program is part of the open-source Quantum ESPRESSO suite
     for quantum simulation of materials; please cite
         "P. Giannozzi et al., J. Phys.:Condens. Matter 21 395502 (2009);
         "P. Giannozzi et al., J. Phys.:Condens. Matter 29 465901 (2017);
          URL http://www.quantum-espresso.org", 
     in publications or presentations arising from this work. More details at
     http://www.quantum-espresso.org/quote

     Parallel version (MPI), running on     8 processors

     MPI processes distributed on     1 nodes
     R & G space division:  proc/nbgrp/npool/nimage =       8
     Waiting for input...
     Reading input from standard input

     Current dimensions of program PWSCF are:
     Max number of different atomic species (ntypx) = 10
     Max number of k-points (npk) =  40000
     Max angular momentum in pseudopotentials (lmaxx) =  3

     Subspace diagonalization in iterative solution of the eigenvalue problem:
     a serial algorithm will be used


     Parallelization info
     --------------------
     sticks:   dense  smooth     PW     G-vecs:    dense   smooth      PW
     Min        2386    2386    623               248152   248152   33108
     Max        2387    2387    625               248157   248157   33111
     Sum       19089   19089   4989              1985227  1985227  264875



     bravais-lattice index     =            1
     lattice parameter (alat)  =      37.7945  a.u.
     unit-cell volume          =   53986.6767 (a.u.)^3
     number of atoms/cell      =            2
     number of atomic types    =            2
     number of electrons       =         5.00
     number of Kohn-Sham states=            7
     kinetic-energy cutoff     =      42.0000  Ry
     charge density cutoff     =     168.0000  Ry
     convergence threshold     =      1.0E-08
     mixing beta               =       0.3000
     number of iterations used =            8  plain     mixing
     Exchange-correlation      = SLA-PW-PBX-PBC ( 1  4  3  4 0 0)

     celldm(1)=  37.794523  celldm(2)=   0.000000  celldm(3)=   0.000000
     celldm(4)=   0.000000  celldm(5)=   0.000000  celldm(6)=   0.000000

     crystal axes: (cart. coord. in units of alat)
               a(1) = (   1.000000   0.000000   0.000000 )  
               a(2) = (   0.000000   1.000000   0.000000 )  
               a(3) = (   0.000000   0.000000   1.000000 )  

     reciprocal axes: (cart. coord. in units 2 pi/alat)
               b(1) = (  1.000000  0.000000  0.000000 )  
               b(2) = (  0.000000  1.000000  0.000000 )  
               b(3) = (  0.000000  0.000000  1.000000 )  


     PseudoPot. # 1 for Si read from file:
     ./Si.pbe-hgh.UPF
     MD5 check sum: 9a9f0f6e09139bfdb36b03ff6bc35900
     Pseudo is Norm-conserving, Zval =  4.0
     Generated in analytical, separable form
     Using radial grid of 1141 points,  3 beta functions with: 
                l(1) =   0
                l(2) =   0
                l(3) =   1

     PseudoPot. # 2 for H  read from file:
     ./H.pbe-hgh.UPF
     MD5 check sum: 5f350582108a937bec95f27f5610ab08
     Pseudo is Norm-conserving, Zval =  1.0
     Generated in analytical, separable form
     Using radial grid of  929 points,  0 beta functions with: 

     atomic species   valence    mass     pseudopotential
        Si             4.00    28.08000     Si( 1.00)
        H              1.00     1.00784     H ( 1.00)

      8 Sym. Ops. (no inversion) found


                                    s                        frac. trans.

      isym =  1     identity                                     

 cryst.   s( 1) = (     1          0          0      )
                  (     0          1          0      )
                  (     0          0          1      )

 cart.    s( 1) = (  1.0000000  0.0000000  0.0000000 )
                  (  0.0000000  1.0000000  0.0000000 )
                  (  0.0000000  0.0000000  1.0000000 )


      isym =  2     180 deg rotation - cart. axis [1,0,0]        

 cryst.   s( 2) = (     1          0          0      )
                  (     0         -1          0      )
                  (     0          0         -1      )

 cart.    s( 2) = (  1.0000000  0.0000000  0.0000000 )
                  (  0.0000000 -1.0000000  0.0000000 )
                  (  0.0000000  0.0000000 -1.0000000 )


      isym =  3      90 deg rotation - cart. axis [-1,0,0]       

 cryst.   s( 3) = (     1          0          0      )
                  (     0          0         -1      )
                  (     0          1          0      )

 cart.    s( 3) = (  1.0000000  0.0000000  0.0000000 )
                  (  0.0000000  0.0000000  1.0000000 )
                  (  0.0000000 -1.0000000  0.0000000 )


      isym =  4      90 deg rotation - cart. axis [1,0,0]        

 cryst.   s( 4) = (     1          0          0      )
                  (     0          0          1      )
                  (     0         -1          0      )

 cart.    s( 4) = (  1.0000000  0.0000000  0.0000000 )
                  (  0.0000000  0.0000000 -1.0000000 )
                  (  0.0000000  1.0000000  0.0000000 )


      isym =  5     inv. 180 deg rotation - cart. axis [0,0,1]   

 cryst.   s( 5) = (     1          0          0      )
                  (     0          1          0      )
                  (     0          0         -1      )

 cart.    s( 5) = (  1.0000000  0.0000000  0.0000000 )
                  (  0.0000000  1.0000000  0.0000000 )
                  (  0.0000000  0.0000000 -1.0000000 )


      isym =  6     inv. 180 deg rotation - cart. axis [0,1,0]   

 cryst.   s( 6) = (     1          0          0      )
                  (     0         -1          0      )
                  (     0          0          1      )

 cart.    s( 6) = (  1.0000000  0.0000000  0.0000000 )
                  (  0.0000000 -1.0000000  0.0000000 )
                  (  0.0000000  0.0000000  1.0000000 )


      isym =  7     inv. 180 deg rotation - cart. axis [0,1,1]   

 cryst.   s( 7) = (     1          0          0      )
                  (     0          0         -1      )
                  (     0         -1          0      )

 cart.    s( 7) = (  1.0000000  0.0000000  0.0000000 )
                  (  0.0000000  0.0000000 -1.0000000 )
                  (  0.0000000 -1.0000000  0.0000000 )


      isym =  8     inv. 180 deg rotation - cart. axis [0,1,-1]  

 cryst.   s( 8) = (     1          0          0      )
                  (     0          0          1      )
                  (     0          1          0      )

 cart.    s( 8) = (  1.0000000  0.0000000  0.0000000 )
                  (  0.0000000  0.0000000  1.0000000 )
                  (  0.0000000  1.0000000  0.0000000 )


     point group C_4v (4mm) 
     there are  5 classes
     the character table:

       E     2C4   C2    2s_v  2s_d 
A_1    1.00  1.00  1.00  1.00  1.00
A_2    1.00  1.00  1.00 -1.00 -1.00
B_1    1.00 -1.00  1.00  1.00 -1.00
B_2    1.00 -1.00  1.00 -1.00  1.00
E      2.00  0.00 -2.00  0.00  0.00

     the symmetry operations in each class and the name of the first element:

     E        1
          identity                                               
     2C4      3    4
           90 deg rotation - cart. axis [-1,0,0]                 
     C2       2
          180 deg rotation - cart. axis [1,0,0]                  
     2s_v     5    6
          inv. 180 deg rotation - cart. axis [0,0,1]             
     2s_d     7    8
          inv. 180 deg rotation - cart. axis [0,1,1]             

   Cartesian axes

     site n.     atom                  positions (alat units)
         1           Si  tau(   1) = (   0.0000000   0.0000000   0.0000000  )
         2           H   tau(   2) = (   0.0480000   0.0000000   0.0000000  )

   Crystallographic axes

     site n.     atom                  positions (cryst. coord.)
         1           Si  tau(   1) = (  0.0000000  0.0000000  0.0000000  )
         2           H   tau(   2) = (  0.0480000  0.0000000  0.0000000  )

     number of k points=     6  Marzari-Vanderbilt smearing, width (Ry)=  0.0500
                       cart. coord. in units 2pi/alat
        k(    1) = (   0.0000000   0.0000000   0.0000000), wk =   0.2500000
        k(    2) = (   0.0000000   0.0000000  -0.5000000), wk =   0.5000000
        k(    3) = (   0.0000000  -0.5000000  -0.5000000), wk =   0.2500000
        k(    4) = (  -0.5000000  -0.5000000  -0.5000000), wk =   0.2500000
        k(    5) = (  -0.5000000   0.0000000   0.0000000), wk =   0.2500000
        k(    6) = (  -0.5000000   0.5000000   0.0000000), wk =   0.5000000

                       cryst. coord.
        k(    1) = (   0.0000000   0.0000000   0.0000000), wk =   0.2500000
        k(    2) = (   0.0000000   0.0000000  -0.5000000), wk =   0.5000000
        k(    3) = (   0.0000000  -0.5000000  -0.5000000), wk =   0.2500000
        k(    4) = (  -0.5000000  -0.5000000  -0.5000000), wk =   0.2500000
        k(    5) = (  -0.5000000   0.0000000   0.0000000), wk =   0.2500000
        k(    6) = (  -0.5000000   0.5000000   0.0000000), wk =   0.5000000

     Dense  grid:  1985227 G-vectors     FFT dimensions: ( 160, 160, 160)

     Dynamical RAM for                 wfc:       3.31 MB

     Dynamical RAM for     wfc (w. buffer):      23.19 MB

     Dynamical RAM for           str. fact:       7.57 MB

     Dynamical RAM for           local pot:       0.00 MB

     Dynamical RAM for          nlocal pot:       2.37 MB

     Dynamical RAM for                qrad:       2.14 MB

     Dynamical RAM for          rho,v,vnew:      23.08 MB

     Dynamical RAM for               rhoin:       7.69 MB

     Dynamical RAM for            rho*nmix:      60.58 MB

     Dynamical RAM for           G-vectors:      16.09 MB

     Dynamical RAM for          h,s,v(r/c):       0.04 MB

     Dynamical RAM for          <psi|beta>:       0.00 MB

     Dynamical RAM for                 psi:      13.25 MB

     Dynamical RAM for                hpsi:      13.25 MB

     Dynamical RAM for      wfcinit/wfcrot:       6.63 MB

     Estimated static dynamical RAM per process >     173.61 MB

     Estimated max dynamical RAM per process >     200.15 MB

     Estimated total dynamical RAM >       1.56 GB

     Initial potential from superposition of free atoms
     Check: negative starting charge=   -0.012363

     starting charge    4.99943, renormalised to    5.00000

     negative rho (up, down):  1.236E-02 0.000E+00
     Starting wfc are    5 randomized atomic wfcs +    2 random wfc

     total cpu time spent up to now is        3.5 secs

     Self-consistent Calculation

     iteration #  1     ecut=    42.00 Ry     beta= 0.30
     Davidson diagonalization with overlap
     ethr =  1.00E-02,  avg # of iterations =  5.0

     negative rho (up, down):  8.576E-03 0.000E+00

     total cpu time spent up to now is       10.7 secs

     total energy              =      -8.33292506 Ry
     Harris-Foulkes estimate   =      -8.41868538 Ry
     estimated scf accuracy    <       0.30707016 Ry

     iteration #  2     ecut=    42.00 Ry     beta= 0.30
     Davidson diagonalization with overlap
     ethr =  6.14E-03,  avg # of iterations =  1.0

     negative rho (up, down):  2.180E-03 0.000E+00

     total cpu time spent up to now is       14.6 secs

     total energy              =      -8.28008089 Ry
     Harris-Foulkes estimate   =      -8.34068591 Ry
     estimated scf accuracy    <       0.10955288 Ry

     iteration #  3     ecut=    42.00 Ry     beta= 0.30
     Davidson diagonalization with overlap
     ethr =  2.19E-03,  avg # of iterations =  2.0

     negative rho (up, down):  1.883E-03 0.000E+00

     total cpu time spent up to now is       19.3 secs

     total energy              =      -8.29797655 Ry
     Harris-Foulkes estimate   =      -8.29990274 Ry
     estimated scf accuracy    <       0.00473962 Ry

     iteration #  4     ecut=    42.00 Ry     beta= 0.30
     Davidson diagonalization with overlap
     ethr =  9.48E-05,  avg # of iterations = 12.3

     negative rho (up, down):  2.527E-04 0.000E+00

     total cpu time spent up to now is       28.1 secs

     total energy              =      -8.29812594 Ry
     Harris-Foulkes estimate   =      -8.29852091 Ry
     estimated scf accuracy    <       0.00129591 Ry

     iteration #  5     ecut=    42.00 Ry     beta= 0.30
     Davidson diagonalization with overlap
     ethr =  2.59E-05,  avg # of iterations =  6.2

     negative rho (up, down):  2.678E-04 0.000E+00

     total cpu time spent up to now is       34.4 secs

     total energy              =      -8.29836947 Ry
     Harris-Foulkes estimate   =      -8.29829370 Ry
     estimated scf accuracy    <       0.00004998 Ry

     iteration #  6     ecut=    42.00 Ry     beta= 0.30
     Davidson diagonalization with overlap
     c_bands:  2 eigenvalues not converged
     ethr =  1.00E-06,  avg # of iterations = 15.2

     negative rho (up, down):  2.970E-05 0.000E+00

     total cpu time spent up to now is       45.0 secs

     total energy              =      -8.29822543 Ry
     Harris-Foulkes estimate   =      -8.29843595 Ry
     estimated scf accuracy    <       0.00034930 Ry

     iteration #  7     ecut=    42.00 Ry     beta= 0.30
     Davidson diagonalization with overlap
     ethr =  1.00E-06,  avg # of iterations =  4.0

     negative rho (up, down):  1.163E-05 0.000E+00

     total cpu time spent up to now is       50.8 secs

     total energy              =      -8.29828816 Ry
     Harris-Foulkes estimate   =      -8.29828914 Ry
     estimated scf accuracy    <       0.00000365 Ry

     iteration #  8     ecut=    42.00 Ry     beta= 0.30
     Davidson diagonalization with overlap
     ethr =  7.31E-08,  avg # of iterations =  2.0

     negative rho (up, down):  1.951E-06 0.000E+00

     total cpu time spent up to now is       55.1 secs

     total energy              =      -8.29828813 Ry
     Harris-Foulkes estimate   =      -8.29828844 Ry
     estimated scf accuracy    <       0.00000081 Ry

     iteration #  9     ecut=    42.00 Ry     beta= 0.30
     Davidson diagonalization with overlap
     ethr =  1.63E-08,  avg # of iterations =  2.0

     negative rho (up, down):  1.142E-06 0.000E+00

     total cpu time spent up to now is       59.7 secs

     total energy              =      -8.29828834 Ry
     Harris-Foulkes estimate   =      -8.29828835 Ry
     estimated scf accuracy    <       0.00000002 Ry

     iteration # 10     ecut=    42.00 Ry     beta= 0.30
     Davidson diagonalization with overlap
     ethr =  4.85E-10,  avg # of iterations =  2.0

     total cpu time spent up to now is       64.1 secs

     End of self-consistent calculation

          k = 0.0000 0.0000 0.0000 (248049 PWs)   bands (ev):

   -13.9378  -6.4555  -3.9855  -3.9855  -0.3937   0.0884   0.2643

     occupation numbers 
     1.0000   1.0002   0.2499   0.2499   0.0000   0.0000   0.0000

          k = 0.0000 0.0000-0.5000 (247982 PWs)   bands (ev):

   -13.9378  -6.4555  -3.9855  -3.9855  -0.3874   0.0684   0.1934

     occupation numbers 
     1.0000   1.0002   0.2499   0.2499   0.0000   0.0000   0.0000

          k = 0.0000-0.5000-0.5000 (248312 PWs)   bands (ev):

   -13.9380  -6.4555  -3.9855  -3.9855  -0.3821   0.1364   0.1364

     occupation numbers 
     1.0000   1.0002   0.2499   0.2499   0.0000   0.0000   0.0000

          k =-0.5000-0.5000-0.5000 (248296 PWs)   bands (ev):

   -13.9379  -6.4555  -3.9855  -3.9855  -0.3791   0.1867   0.1904

     occupation numbers 
     1.0000   1.0002   0.2499   0.2499   0.0000   0.0000   0.0000

          k =-0.5000 0.0000 0.0000 (247982 PWs)   bands (ev):

   -13.9378  -6.4554  -3.9855  -3.9855  -0.3894   0.0699   0.2112

     occupation numbers 
     1.0000   1.0002   0.2499   0.2499   0.0000   0.0000   0.0000

          k =-0.5000 0.5000 0.0000 (248312 PWs)   bands (ev):

   -13.9379  -6.4555  -3.9855  -3.9855  -0.3839   0.1331   0.1342

     occupation numbers 
     1.0000   1.0002   0.2499   0.2499   0.0000   0.0000   0.0000

     the Fermi energy is    -4.1526 ev

!    total energy              =      -8.29828834 Ry
     Harris-Foulkes estimate   =      -8.29828834 Ry
     estimated scf accuracy    <          6.0E-09 Ry

     The total energy is the sum of the following terms:

     one-electron contribution =     -16.14926181 Ry
     hartree contribution      =       8.39442751 Ry
     xc contribution           =      -3.04691035 Ry
     ewald contribution        =       2.53404349 Ry
     smearing contrib. (-TS)   =      -0.03058718 Ry

     convergence has been achieved in  10 iterations

     Forces acting on atoms (cartesian axes, Ry/au):

     atom    1 type  1   force =    -1.33149415    0.00000000    0.00000000
     atom    2 type  2   force =     1.33149415    0.00000000    0.00000000
     The non-local contrib.  to forces
     atom    1 type  1   force =    -1.39632399    0.00000000    0.00000000
     atom    2 type  2   force =     0.00000000    0.00000000    0.00000000
     The ionic contribution  to forces
     atom    1 type  1   force =    -2.42966934    0.00000000   -0.00000000
     atom    2 type  2   force =     2.42966934   -0.00000000   -0.00000000
     The local contribution  to forces
     atom    1 type  1   force =     2.49446910   -0.00000000   -0.00000000
     atom    2 type  2   force =    -1.09818703   -0.00000000   -0.00000000
     The core correction contribution to forces
     atom    1 type  1   force =     0.00000000    0.00000000    0.00000000
     atom    2 type  2   force =     0.00000000    0.00000000    0.00000000
     The Hubbard contrib.    to forces
     atom    1 type  1   force =     0.00000000    0.00000000    0.00000000
     atom    2 type  2   force =     0.00000000    0.00000000    0.00000000
     The SCF correction term to forces
     atom    1 type  1   force =     0.00001029    0.00000000    0.00000000
     atom    2 type  2   force =    -0.00000794    0.00000000    0.00000000

     Total force =     1.883017     Total SCF correction =     0.000013


     Computing stress (Cartesian axis) and pressure

          total   stress  (Ry/bohr**3)                   (kbar)     P=    2.13
   0.00004425   0.00000000   0.00000000          6.51      0.00      0.00
   0.00000000  -0.00000044   0.00000000          0.00     -0.06      0.00
   0.00000000   0.00000000  -0.00000044          0.00      0.00     -0.06

     kinetic stress (kbar)     10.44      0.00      0.00
                                0.00      8.06      0.00
                                0.00      0.00      8.06

     local   stress (kbar)    -31.19      0.00      0.00
                                0.00    -17.48      0.00
                                0.00      0.00    -17.48

     nonloc. stress (kbar)     10.73      0.00      0.00
                                0.00      6.63      0.00
                                0.00      0.00      6.63

     hartree stress (kbar)      8.81     -0.00     -0.00
                               -0.00      7.03     -0.00
                               -0.00     -0.00      7.03

     exc-cor stress (kbar)     -2.60      0.00      0.00
                                0.00     -2.60      0.00
                                0.00      0.00     -2.60

     corecor stress (kbar)      0.00      0.00      0.00
                                0.00      0.00      0.00
                                0.00      0.00      0.00

     ewald   stress (kbar)     10.32     -0.00     -0.00
                               -0.00     -1.71     -0.00
                               -0.00     -0.00     -1.71

     hubbard stress (kbar)      0.00      0.00      0.00
                                0.00      0.00      0.00
                                0.00      0.00      0.00

     london  stress (kbar)      0.00      0.00      0.00
                                0.00      0.00      0.00
                                0.00      0.00      0.00

     DFT-D3  stress (kbar)      0.00      0.00      0.00
                                0.00      0.00      0.00
                                0.00      0.00      0.00

     XDM     stress (kbar)      0.00      0.00      0.00
                                0.00      0.00      0.00
                                0.00      0.00      0.00

     dft-nl  stress (kbar)      0.00      0.00      0.00
                                0.00      0.00      0.00
                                0.00      0.00      0.00

     TS-vdW  stress (kbar)      0.00      0.00      0.00
                                0.00      0.00      0.00
                                0.00      0.00      0.00



     Writing output data file SiH2.save

     init_run     :      3.12s CPU      3.27s WALL (       1 calls)
     electrons    :     59.78s CPU     61.68s WALL (       1 calls)
     forces       :      0.47s CPU      0.48s WALL (       1 calls)
     stress       :      1.85s CPU      1.95s WALL (       1 calls)

     Called by init_run:
     wfcinit      :      1.40s CPU      1.41s WALL (       1 calls)
     wfcinit:atom :      0.03s CPU      0.03s WALL (       6 calls)
     wfcinit:wfcr :      1.29s CPU      1.31s WALL (       6 calls)
     potinit      :      0.61s CPU      0.66s WALL (       1 calls)

     Called by electrons:
     c_bands      :     47.28s CPU     48.05s WALL (      10 calls)
     sum_band     :      8.01s CPU      8.03s WALL (      10 calls)
     v_of_rho     :      3.83s CPU      3.88s WALL (      11 calls)
     v_h          :      0.35s CPU      0.36s WALL (      11 calls)
     v_xc         :      3.49s CPU      3.53s WALL (      11 calls)
     mix_rho      :      0.79s CPU      0.90s WALL (      10 calls)

     Called by c_bands:
     init_us_2    :      0.79s CPU      0.80s WALL (     138 calls)
     cegterg      :     46.71s CPU     46.85s WALL (      60 calls)

     Called by sum_band:

     Called by *egterg:
     h_psi        :     44.50s CPU     44.61s WALL (     376 calls)
     g_psi        :      0.22s CPU      0.22s WALL (     310 calls)
     cdiaghg      :      0.06s CPU      0.06s WALL (     370 calls)
     cegterg:over :      1.20s CPU      1.21s WALL (     310 calls)
     cegterg:upda :      1.01s CPU      1.02s WALL (     310 calls)
     cegterg:last :      0.37s CPU      0.37s WALL (      80 calls)

     Called by h_psi:
     h_psi:pot    :     44.28s CPU     44.39s WALL (     376 calls)
     h_psi:calbec :      0.38s CPU      0.38s WALL (     376 calls)
     vloc_psi     :     43.70s CPU     43.80s WALL (     376 calls)
     add_vuspsi   :      0.20s CPU      0.20s WALL (     376 calls)

     General routines
     calbec       :      0.42s CPU      0.42s WALL (     406 calls)
     fft          :      3.25s CPU      3.28s WALL (     128 calls)
     fftw         :     44.61s CPU     44.70s WALL (    3408 calls)

     Parallel routines
     fft_scatt_xy :      6.44s CPU      6.45s WALL (    3536 calls)
     fft_scatt_yz :      8.67s CPU      8.70s WALL (    3536 calls)

     PWSCF        :  1m 5.67s CPU     1m 9.24s WALL


   This run was terminated on:   7:42:30   1Oct2020            

=------------------------------------------------------------------------------=
   JOB DONE.
=------------------------------------------------------------------------------=
