
     Program PWSCF v.6.2 (svn rev. 14038) starts on  1Oct2020 at 20:38:53 

     This program is part of the open-source Quantum ESPRESSO suite
     for quantum simulation of materials; please cite
         "P. Giannozzi et al., J. Phys.:Condens. Matter 21 395502 (2009);
         "P. Giannozzi et al., J. Phys.:Condens. Matter 29 465901 (2017);
          URL http://www.quantum-espresso.org", 
     in publications or presentations arising from this work. More details at
     http://www.quantum-espresso.org/quote

     Parallel version (MPI), running on     8 processors

     MPI processes distributed on     1 nodes
     R & G space division:  proc/nbgrp/npool/nimage =       8
     Waiting for input...
     Reading input from standard input

     Current dimensions of program PWSCF are:
     Max number of different atomic species (ntypx) = 10
     Max number of k-points (npk) =  40000
     Max angular momentum in pseudopotentials (lmaxx) =  3

     Subspace diagonalization in iterative solution of the eigenvalue problem:
     a serial algorithm will be used


     Parallelization info
     --------------------
     sticks:   dense  smooth     PW     G-vecs:    dense   smooth      PW
     Min        2386    2386    623               248152   248152   33108
     Max        2387    2387    625               248157   248157   33111
     Sum       19089   19089   4989              1985227  1985227  264875



     bravais-lattice index     =            1
     lattice parameter (alat)  =      37.7945  a.u.
     unit-cell volume          =   53986.6767 (a.u.)^3
     number of atoms/cell      =            2
     number of atomic types    =            2
     number of electrons       =         5.00
     number of Kohn-Sham states=            7
     kinetic-energy cutoff     =      42.0000  Ry
     charge density cutoff     =     168.0000  Ry
     convergence threshold     =      1.0E-08
     mixing beta               =       0.3000
     number of iterations used =            8  plain     mixing
     Exchange-correlation      = SLA-PW-PBX-PBC ( 1  4  3  4 0 0)

     celldm(1)=  37.794523  celldm(2)=   0.000000  celldm(3)=   0.000000
     celldm(4)=   0.000000  celldm(5)=   0.000000  celldm(6)=   0.000000

     crystal axes: (cart. coord. in units of alat)
               a(1) = (   1.000000   0.000000   0.000000 )  
               a(2) = (   0.000000   1.000000   0.000000 )  
               a(3) = (   0.000000   0.000000   1.000000 )  

     reciprocal axes: (cart. coord. in units 2 pi/alat)
               b(1) = (  1.000000  0.000000  0.000000 )  
               b(2) = (  0.000000  1.000000  0.000000 )  
               b(3) = (  0.000000  0.000000  1.000000 )  


     PseudoPot. # 1 for Si read from file:
     ./Si.pbe-hgh.UPF
     MD5 check sum: 9a9f0f6e09139bfdb36b03ff6bc35900
     Pseudo is Norm-conserving, Zval =  4.0
     Generated in analytical, separable form
     Using radial grid of 1141 points,  3 beta functions with: 
                l(1) =   0
                l(2) =   0
                l(3) =   1

     PseudoPot. # 2 for H  read from file:
     ./H.pbe-hgh.UPF
     MD5 check sum: 5f350582108a937bec95f27f5610ab08
     Pseudo is Norm-conserving, Zval =  1.0
     Generated in analytical, separable form
     Using radial grid of  929 points,  0 beta functions with: 

     atomic species   valence    mass     pseudopotential
        Si             4.00    28.08000     Si( 1.00)
        H              1.00     1.00784     H ( 1.00)

      8 Sym. Ops. (no inversion) found


                                    s                        frac. trans.

      isym =  1     identity                                     

 cryst.   s( 1) = (     1          0          0      )
                  (     0          1          0      )
                  (     0          0          1      )

 cart.    s( 1) = (  1.0000000  0.0000000  0.0000000 )
                  (  0.0000000  1.0000000  0.0000000 )
                  (  0.0000000  0.0000000  1.0000000 )


      isym =  2     180 deg rotation - cart. axis [1,0,0]        

 cryst.   s( 2) = (     1          0          0      )
                  (     0         -1          0      )
                  (     0          0         -1      )

 cart.    s( 2) = (  1.0000000  0.0000000  0.0000000 )
                  (  0.0000000 -1.0000000  0.0000000 )
                  (  0.0000000  0.0000000 -1.0000000 )


      isym =  3      90 deg rotation - cart. axis [-1,0,0]       

 cryst.   s( 3) = (     1          0          0      )
                  (     0          0         -1      )
                  (     0          1          0      )

 cart.    s( 3) = (  1.0000000  0.0000000  0.0000000 )
                  (  0.0000000  0.0000000  1.0000000 )
                  (  0.0000000 -1.0000000  0.0000000 )


      isym =  4      90 deg rotation - cart. axis [1,0,0]        

 cryst.   s( 4) = (     1          0          0      )
                  (     0          0          1      )
                  (     0         -1          0      )

 cart.    s( 4) = (  1.0000000  0.0000000  0.0000000 )
                  (  0.0000000  0.0000000 -1.0000000 )
                  (  0.0000000  1.0000000  0.0000000 )


      isym =  5     inv. 180 deg rotation - cart. axis [0,0,1]   

 cryst.   s( 5) = (     1          0          0      )
                  (     0          1          0      )
                  (     0          0         -1      )

 cart.    s( 5) = (  1.0000000  0.0000000  0.0000000 )
                  (  0.0000000  1.0000000  0.0000000 )
                  (  0.0000000  0.0000000 -1.0000000 )


      isym =  6     inv. 180 deg rotation - cart. axis [0,1,0]   

 cryst.   s( 6) = (     1          0          0      )
                  (     0         -1          0      )
                  (     0          0          1      )

 cart.    s( 6) = (  1.0000000  0.0000000  0.0000000 )
                  (  0.0000000 -1.0000000  0.0000000 )
                  (  0.0000000  0.0000000  1.0000000 )


      isym =  7     inv. 180 deg rotation - cart. axis [0,1,1]   

 cryst.   s( 7) = (     1          0          0      )
                  (     0          0         -1      )
                  (     0         -1          0      )

 cart.    s( 7) = (  1.0000000  0.0000000  0.0000000 )
                  (  0.0000000  0.0000000 -1.0000000 )
                  (  0.0000000 -1.0000000  0.0000000 )


      isym =  8     inv. 180 deg rotation - cart. axis [0,1,-1]  

 cryst.   s( 8) = (     1          0          0      )
                  (     0          0          1      )
                  (     0          1          0      )

 cart.    s( 8) = (  1.0000000  0.0000000  0.0000000 )
                  (  0.0000000  0.0000000  1.0000000 )
                  (  0.0000000  1.0000000  0.0000000 )


     point group C_4v (4mm) 
     there are  5 classes
     the character table:

       E     2C4   C2    2s_v  2s_d 
A_1    1.00  1.00  1.00  1.00  1.00
A_2    1.00  1.00  1.00 -1.00 -1.00
B_1    1.00 -1.00  1.00  1.00 -1.00
B_2    1.00 -1.00  1.00 -1.00  1.00
E      2.00  0.00 -2.00  0.00  0.00

     the symmetry operations in each class and the name of the first element:

     E        1
          identity                                               
     2C4      3    4
           90 deg rotation - cart. axis [-1,0,0]                 
     C2       2
          180 deg rotation - cart. axis [1,0,0]                  
     2s_v     5    6
          inv. 180 deg rotation - cart. axis [0,0,1]             
     2s_d     7    8
          inv. 180 deg rotation - cart. axis [0,1,1]             

   Cartesian axes

     site n.     atom                  positions (alat units)
         1           Si  tau(   1) = (   0.0000000   0.0000000   0.0000000  )
         2           H   tau(   2) = (   0.0365000   0.0000000   0.0000000  )

   Crystallographic axes

     site n.     atom                  positions (cryst. coord.)
         1           Si  tau(   1) = (  0.0000000  0.0000000  0.0000000  )
         2           H   tau(   2) = (  0.0365000  0.0000000  0.0000000  )

     number of k points=     6  Marzari-Vanderbilt smearing, width (Ry)=  0.0500
                       cart. coord. in units 2pi/alat
        k(    1) = (   0.0000000   0.0000000   0.0000000), wk =   0.2500000
        k(    2) = (   0.0000000   0.0000000  -0.5000000), wk =   0.5000000
        k(    3) = (   0.0000000  -0.5000000  -0.5000000), wk =   0.2500000
        k(    4) = (  -0.5000000  -0.5000000  -0.5000000), wk =   0.2500000
        k(    5) = (  -0.5000000   0.0000000   0.0000000), wk =   0.2500000
        k(    6) = (  -0.5000000   0.5000000   0.0000000), wk =   0.5000000

                       cryst. coord.
        k(    1) = (   0.0000000   0.0000000   0.0000000), wk =   0.2500000
        k(    2) = (   0.0000000   0.0000000  -0.5000000), wk =   0.5000000
        k(    3) = (   0.0000000  -0.5000000  -0.5000000), wk =   0.2500000
        k(    4) = (  -0.5000000  -0.5000000  -0.5000000), wk =   0.2500000
        k(    5) = (  -0.5000000   0.0000000   0.0000000), wk =   0.2500000
        k(    6) = (  -0.5000000   0.5000000   0.0000000), wk =   0.5000000

     Dense  grid:  1985227 G-vectors     FFT dimensions: ( 160, 160, 160)

     Dynamical RAM for                 wfc:       3.31 MB

     Dynamical RAM for     wfc (w. buffer):      23.19 MB

     Dynamical RAM for           str. fact:       7.57 MB

     Dynamical RAM for           local pot:       0.00 MB

     Dynamical RAM for          nlocal pot:       2.37 MB

     Dynamical RAM for                qrad:       2.14 MB

     Dynamical RAM for          rho,v,vnew:      23.08 MB

     Dynamical RAM for               rhoin:       7.69 MB

     Dynamical RAM for            rho*nmix:      60.58 MB

     Dynamical RAM for           G-vectors:      16.09 MB

     Dynamical RAM for          h,s,v(r/c):       0.04 MB

     Dynamical RAM for          <psi|beta>:       0.00 MB

     Dynamical RAM for                 psi:      13.25 MB

     Dynamical RAM for                hpsi:      13.25 MB

     Dynamical RAM for      wfcinit/wfcrot:       6.63 MB

     Estimated static dynamical RAM per process >     173.61 MB

     Estimated max dynamical RAM per process >     200.15 MB

     Estimated total dynamical RAM >       1.56 GB

     Initial potential from superposition of free atoms
     Check: negative starting charge=   -0.012325

     starting charge    4.99943, renormalised to    5.00000

     negative rho (up, down):  1.233E-02 0.000E+00
     Starting wfc are    5 randomized atomic wfcs +    2 random wfc

     total cpu time spent up to now is        3.5 secs

     Self-consistent Calculation

     iteration #  1     ecut=    42.00 Ry     beta= 0.30
     Davidson diagonalization with overlap
     ethr =  1.00E-02,  avg # of iterations =  5.0

     negative rho (up, down):  8.554E-03 0.000E+00

     total cpu time spent up to now is       10.9 secs

     total energy              =      -7.35115224 Ry
     Harris-Foulkes estimate   =      -7.47993773 Ry
     estimated scf accuracy    <       0.46934242 Ry

     iteration #  2     ecut=    42.00 Ry     beta= 0.30
     Davidson diagonalization with overlap
     ethr =  9.39E-03,  avg # of iterations =  1.0

     negative rho (up, down):  2.316E-03 0.000E+00

     total cpu time spent up to now is       16.8 secs

     total energy              =      -7.27155853 Ry
     Harris-Foulkes estimate   =      -7.36315437 Ry
     estimated scf accuracy    <       0.16341394 Ry

     iteration #  3     ecut=    42.00 Ry     beta= 0.30
     Davidson diagonalization with overlap
     ethr =  3.27E-03,  avg # of iterations =  2.0

     negative rho (up, down):  2.095E-03 0.000E+00

     total cpu time spent up to now is       21.8 secs

     total energy              =      -7.30094195 Ry
     Harris-Foulkes estimate   =      -7.30570233 Ry
     estimated scf accuracy    <       0.00992355 Ry

     iteration #  4     ecut=    42.00 Ry     beta= 0.30
     Davidson diagonalization with overlap
     ethr =  1.98E-04,  avg # of iterations =  7.3

     negative rho (up, down):  2.131E-04 0.000E+00

     total cpu time spent up to now is       29.4 secs

     total energy              =      -7.30189726 Ry
     Harris-Foulkes estimate   =      -7.30279625 Ry
     estimated scf accuracy    <       0.00246987 Ry

     iteration #  5     ecut=    42.00 Ry     beta= 0.30
     Davidson diagonalization with overlap
     ethr =  4.94E-05,  avg # of iterations =  5.8

     negative rho (up, down):  3.074E-04 0.000E+00

     total cpu time spent up to now is       35.9 secs

     total energy              =      -7.30216094 Ry
     Harris-Foulkes estimate   =      -7.30218619 Ry
     estimated scf accuracy    <       0.00012404 Ry

     iteration #  6     ecut=    42.00 Ry     beta= 0.30
     Davidson diagonalization with overlap
     c_bands:  1 eigenvalues not converged
     ethr =  2.48E-06,  avg # of iterations = 13.3

     total cpu time spent up to now is       47.1 secs

     total energy              =      -7.30207239 Ry
     Harris-Foulkes estimate   =      -7.30230286 Ry
     estimated scf accuracy    <       0.00036720 Ry

     iteration #  7     ecut=    42.00 Ry     beta= 0.30
     Davidson diagonalization with overlap
     ethr =  2.48E-06,  avg # of iterations =  8.2

     negative rho (up, down):  4.894E-06 0.000E+00

     total cpu time spent up to now is       54.1 secs

     total energy              =      -7.30215479 Ry
     Harris-Foulkes estimate   =      -7.30216037 Ry
     estimated scf accuracy    <       0.00001090 Ry

     iteration #  8     ecut=    42.00 Ry     beta= 0.30
     Davidson diagonalization with overlap
     ethr =  2.18E-07,  avg # of iterations =  2.0

     negative rho (up, down):  4.592E-06 0.000E+00

     total cpu time spent up to now is       59.0 secs

     total energy              =      -7.30215595 Ry
     Harris-Foulkes estimate   =      -7.30215654 Ry
     estimated scf accuracy    <       0.00000112 Ry

     iteration #  9     ecut=    42.00 Ry     beta= 0.30
     Davidson diagonalization with overlap
     ethr =  2.24E-08,  avg # of iterations =  2.0

     negative rho (up, down):  6.069E-08 0.000E+00

     total cpu time spent up to now is       67.2 secs

     total energy              =      -7.30215618 Ry
     Harris-Foulkes estimate   =      -7.30215659 Ry
     estimated scf accuracy    <       0.00000076 Ry

     iteration # 10     ecut=    42.00 Ry     beta= 0.30
     Davidson diagonalization with overlap
     ethr =  1.51E-08,  avg # of iterations =  2.0

     negative rho (up, down):  1.671E-07 0.000E+00

     total cpu time spent up to now is       72.1 secs

     total energy              =      -7.30215625 Ry
     Harris-Foulkes estimate   =      -7.30215628 Ry
     estimated scf accuracy    <       0.00000004 Ry

     iteration # 11     ecut=    42.00 Ry     beta= 0.30
     Davidson diagonalization with overlap
     ethr =  8.29E-10,  avg # of iterations =  2.0

     total cpu time spent up to now is       76.9 secs

     End of self-consistent calculation

          k = 0.0000 0.0000 0.0000 (248049 PWs)   bands (ev):

   -14.3602  -6.2680  -4.0496  -4.0496  -0.4370   0.0780   0.2721

     occupation numbers 
     1.0000   1.0014   0.2493   0.2493   0.0000   0.0000   0.0000

          k = 0.0000 0.0000-0.5000 (247982 PWs)   bands (ev):

   -14.3602  -6.2680  -4.0496  -4.0496  -0.4323   0.0689   0.1812

     occupation numbers 
     1.0000   1.0014   0.2493   0.2493   0.0000   0.0000   0.0000

          k = 0.0000-0.5000-0.5000 (248312 PWs)   bands (ev):

   -14.3604  -6.2681  -4.0496  -4.0496  -0.4282   0.1364   0.1377

     occupation numbers 
     1.0000   1.0014   0.2493   0.2493   0.0000   0.0000   0.0000

          k =-0.5000-0.5000-0.5000 (248296 PWs)   bands (ev):

   -14.3604  -6.2681  -4.0496  -4.0496  -0.4261   0.1888   0.1911

     occupation numbers 
     1.0000   1.0014   0.2493   0.2493   0.0000   0.0000   0.0000

          k =-0.5000 0.0000 0.0000 (247982 PWs)   bands (ev):

   -14.3602  -6.2680  -4.0496  -4.0496  -0.4341   0.0738   0.1976

     occupation numbers 
     1.0000   1.0014   0.2493   0.2493   0.0000   0.0000   0.0000

          k =-0.5000 0.5000 0.0000 (248312 PWs)   bands (ev):

   -14.3604  -6.2681  -4.0496  -4.0496  -0.4299   0.1317   0.1388

     occupation numbers 
     1.0000   1.0014   0.2493   0.2493   0.0000   0.0000   0.0000

     the Fermi energy is    -4.2174 ev

!    total energy              =      -7.30215626 Ry
     Harris-Foulkes estimate   =      -7.30215626 Ry
     estimated scf accuracy    <          2.5E-09 Ry

     The total energy is the sum of the following terms:

     one-electron contribution =     -16.81415943 Ry
     hartree contribution      =       8.77952196 Ry
     xc contribution           =      -3.16032966 Ry
     ewald contribution        =       3.92300258 Ry
     smearing contrib. (-TS)   =      -0.03019171 Ry

     convergence has been achieved in  11 iterations

     Forces acting on atoms (cartesian axes, Ry/au):

     atom    1 type  1   force =    -3.59322519    0.00000000    0.00000000
     atom    2 type  2   force =     3.59322519    0.00000000    0.00000000
     The non-local contrib.  to forces
     atom    1 type  1   force =    -3.35367245    0.00000000    0.00000000
     atom    2 type  2   force =     0.00000000    0.00000000    0.00000000
     The ionic contribution  to forces
     atom    1 type  1   force =    -4.20298373    0.00000000   -0.00000000
     atom    2 type  2   force =     4.20298373   -0.00000000   -0.00000000
     The local contribution  to forces
     atom    1 type  1   force =     3.96340852   -0.00000000   -0.00000000
     atom    2 type  2   force =    -0.60980609    0.00000000   -0.00000000
     The core correction contribution to forces
     atom    1 type  1   force =     0.00000000    0.00000000    0.00000000
     atom    2 type  2   force =     0.00000000    0.00000000    0.00000000
     The Hubbard contrib.    to forces
     atom    1 type  1   force =     0.00000000    0.00000000    0.00000000
     atom    2 type  2   force =     0.00000000    0.00000000    0.00000000
     The SCF correction term to forces
     atom    1 type  1   force =    -0.00003188    0.00000000    0.00000000
     atom    2 type  2   force =    -0.00000681    0.00000000    0.00000000

     Total force =     5.081588     Total SCF correction =     0.000033


     Computing stress (Cartesian axis) and pressure

          total   stress  (Ry/bohr**3)                   (kbar)     P=    4.42
   0.00009135   0.00000000   0.00000000         13.44      0.00      0.00
   0.00000000  -0.00000058   0.00000000          0.00     -0.09      0.00
   0.00000000   0.00000000  -0.00000058          0.00      0.00     -0.09

     kinetic stress (kbar)     12.52      0.00      0.00
                                0.00      8.61      0.00
                                0.00      0.00      8.61

     local   stress (kbar)    -33.89      0.00      0.00
                                0.00    -19.05     -0.00
                                0.00     -0.00    -19.05

     nonloc. stress (kbar)     14.54      0.00      0.00
                                0.00      7.22      0.00
                                0.00      0.00      7.22

     hartree stress (kbar)      8.89     -0.00     -0.00
                               -0.00      7.52      0.00
                               -0.00      0.00      7.52

     exc-cor stress (kbar)     -2.72      0.00     -0.00
                                0.00     -2.69      0.00
                               -0.00      0.00     -2.69

     corecor stress (kbar)      0.00      0.00      0.00
                                0.00      0.00      0.00
                                0.00      0.00      0.00

     ewald   stress (kbar)     14.10     -0.00     -0.00
                               -0.00     -1.71     -0.00
                               -0.00     -0.00     -1.71

     hubbard stress (kbar)      0.00      0.00      0.00
                                0.00      0.00      0.00
                                0.00      0.00      0.00

     london  stress (kbar)      0.00      0.00      0.00
                                0.00      0.00      0.00
                                0.00      0.00      0.00

     DFT-D3  stress (kbar)      0.00      0.00      0.00
                                0.00      0.00      0.00
                                0.00      0.00      0.00

     XDM     stress (kbar)      0.00      0.00      0.00
                                0.00      0.00      0.00
                                0.00      0.00      0.00

     dft-nl  stress (kbar)      0.00      0.00      0.00
                                0.00      0.00      0.00
                                0.00      0.00      0.00

     TS-vdW  stress (kbar)      0.00      0.00      0.00
                                0.00      0.00      0.00
                                0.00      0.00      0.00



     Writing output data file SiH29.save

     init_run     :      3.20s CPU      3.35s WALL (       1 calls)
     electrons    :     67.94s CPU     73.61s WALL (       1 calls)
     forces       :      0.41s CPU      0.41s WALL (       1 calls)
     stress       :      1.82s CPU      1.91s WALL (       1 calls)

     Called by init_run:
     wfcinit      :      1.43s CPU      1.45s WALL (       1 calls)
     wfcinit:atom :      0.03s CPU      0.03s WALL (       6 calls)
     wfcinit:wfcr :      1.32s CPU      1.34s WALL (       6 calls)
     potinit      :      0.63s CPU      0.68s WALL (       1 calls)

     Called by electrons:
     c_bands      :     53.60s CPU     58.68s WALL (      11 calls)
     sum_band     :      9.20s CPU      9.24s WALL (      11 calls)
     v_of_rho     :      4.32s CPU      4.37s WALL (      12 calls)
     v_h          :      0.40s CPU      0.41s WALL (      12 calls)
     v_xc         :      3.92s CPU      3.95s WALL (      12 calls)
     mix_rho      :      0.95s CPU      1.03s WALL (      11 calls)

     Called by c_bands:
     init_us_2    :      0.90s CPU      0.90s WALL (     150 calls)
     cegterg      :     52.95s CPU     53.11s WALL (      66 calls)

     Called by sum_band:

     Called by *egterg:
     h_psi        :     50.55s CPU     50.69s WALL (     376 calls)
     g_psi        :      0.24s CPU      0.24s WALL (     304 calls)
     cdiaghg      :      0.06s CPU      0.06s WALL (     370 calls)
     cegterg:over :      1.25s CPU      1.25s WALL (     304 calls)
     cegterg:upda :      1.05s CPU      1.05s WALL (     304 calls)
     cegterg:last :      0.42s CPU      0.42s WALL (      89 calls)

     Called by h_psi:
     h_psi:pot    :     50.30s CPU     50.44s WALL (     376 calls)
     h_psi:calbec :      0.41s CPU      0.41s WALL (     376 calls)
     vloc_psi     :     49.67s CPU     49.81s WALL (     376 calls)
     add_vuspsi   :      0.22s CPU      0.23s WALL (     376 calls)

     General routines
     calbec       :      0.44s CPU      0.44s WALL (     406 calls)
     fft          :      3.68s CPU      3.71s WALL (     139 calls)
     fftw         :     50.78s CPU     50.91s WALL (    3676 calls)

     Parallel routines
     fft_scatt_xy :      7.44s CPU      7.47s WALL (    3815 calls)
     fft_scatt_yz :     11.46s CPU     11.50s WALL (    3815 calls)

     PWSCF        :  1m13.86s CPU     1m29.07s WALL


   This run was terminated on:  20:40:22   1Oct2020            

=------------------------------------------------------------------------------=
   JOB DONE.
=------------------------------------------------------------------------------=
