
     Program PWSCF v.6.2 (svn rev. 14038) starts on  1Oct2020 at 20:47:10 

     This program is part of the open-source Quantum ESPRESSO suite
     for quantum simulation of materials; please cite
         "P. Giannozzi et al., J. Phys.:Condens. Matter 21 395502 (2009);
         "P. Giannozzi et al., J. Phys.:Condens. Matter 29 465901 (2017);
          URL http://www.quantum-espresso.org", 
     in publications or presentations arising from this work. More details at
     http://www.quantum-espresso.org/quote

     Parallel version (MPI), running on     8 processors

     MPI processes distributed on     1 nodes
     R & G space division:  proc/nbgrp/npool/nimage =       8
     Waiting for input...
     Reading input from standard input

     Current dimensions of program PWSCF are:
     Max number of different atomic species (ntypx) = 10
     Max number of k-points (npk) =  40000
     Max angular momentum in pseudopotentials (lmaxx) =  3

     Subspace diagonalization in iterative solution of the eigenvalue problem:
     a serial algorithm will be used


     Parallelization info
     --------------------
     sticks:   dense  smooth     PW     G-vecs:    dense   smooth      PW
     Min        2386    2386    623               248152   248152   33108
     Max        2387    2387    625               248157   248157   33111
     Sum       19089   19089   4989              1985227  1985227  264875



     bravais-lattice index     =            1
     lattice parameter (alat)  =      37.7945  a.u.
     unit-cell volume          =   53986.6767 (a.u.)^3
     number of atoms/cell      =            2
     number of atomic types    =            2
     number of electrons       =         5.00
     number of Kohn-Sham states=            7
     kinetic-energy cutoff     =      42.0000  Ry
     charge density cutoff     =     168.0000  Ry
     convergence threshold     =      1.0E-08
     mixing beta               =       0.3000
     number of iterations used =            8  plain     mixing
     Exchange-correlation      = SLA-PW-PBX-PBC ( 1  4  3  4 0 0)

     celldm(1)=  37.794523  celldm(2)=   0.000000  celldm(3)=   0.000000
     celldm(4)=   0.000000  celldm(5)=   0.000000  celldm(6)=   0.000000

     crystal axes: (cart. coord. in units of alat)
               a(1) = (   1.000000   0.000000   0.000000 )  
               a(2) = (   0.000000   1.000000   0.000000 )  
               a(3) = (   0.000000   0.000000   1.000000 )  

     reciprocal axes: (cart. coord. in units 2 pi/alat)
               b(1) = (  1.000000  0.000000  0.000000 )  
               b(2) = (  0.000000  1.000000  0.000000 )  
               b(3) = (  0.000000  0.000000  1.000000 )  


     PseudoPot. # 1 for Si read from file:
     ./Si.pbe-hgh.UPF
     MD5 check sum: 9a9f0f6e09139bfdb36b03ff6bc35900
     Pseudo is Norm-conserving, Zval =  4.0
     Generated in analytical, separable form
     Using radial grid of 1141 points,  3 beta functions with: 
                l(1) =   0
                l(2) =   0
                l(3) =   1

     PseudoPot. # 2 for H  read from file:
     ./H.pbe-hgh.UPF
     MD5 check sum: 5f350582108a937bec95f27f5610ab08
     Pseudo is Norm-conserving, Zval =  1.0
     Generated in analytical, separable form
     Using radial grid of  929 points,  0 beta functions with: 

     atomic species   valence    mass     pseudopotential
        Si             4.00    28.08000     Si( 1.00)
        H              1.00     1.00784     H ( 1.00)

      8 Sym. Ops. (no inversion) found


                                    s                        frac. trans.

      isym =  1     identity                                     

 cryst.   s( 1) = (     1          0          0      )
                  (     0          1          0      )
                  (     0          0          1      )

 cart.    s( 1) = (  1.0000000  0.0000000  0.0000000 )
                  (  0.0000000  1.0000000  0.0000000 )
                  (  0.0000000  0.0000000  1.0000000 )


      isym =  2     180 deg rotation - cart. axis [1,0,0]        

 cryst.   s( 2) = (     1          0          0      )
                  (     0         -1          0      )
                  (     0          0         -1      )

 cart.    s( 2) = (  1.0000000  0.0000000  0.0000000 )
                  (  0.0000000 -1.0000000  0.0000000 )
                  (  0.0000000  0.0000000 -1.0000000 )


      isym =  3      90 deg rotation - cart. axis [-1,0,0]       

 cryst.   s( 3) = (     1          0          0      )
                  (     0          0         -1      )
                  (     0          1          0      )

 cart.    s( 3) = (  1.0000000  0.0000000  0.0000000 )
                  (  0.0000000  0.0000000  1.0000000 )
                  (  0.0000000 -1.0000000  0.0000000 )


      isym =  4      90 deg rotation - cart. axis [1,0,0]        

 cryst.   s( 4) = (     1          0          0      )
                  (     0          0          1      )
                  (     0         -1          0      )

 cart.    s( 4) = (  1.0000000  0.0000000  0.0000000 )
                  (  0.0000000  0.0000000 -1.0000000 )
                  (  0.0000000  1.0000000  0.0000000 )


      isym =  5     inv. 180 deg rotation - cart. axis [0,0,1]   

 cryst.   s( 5) = (     1          0          0      )
                  (     0          1          0      )
                  (     0          0         -1      )

 cart.    s( 5) = (  1.0000000  0.0000000  0.0000000 )
                  (  0.0000000  1.0000000  0.0000000 )
                  (  0.0000000  0.0000000 -1.0000000 )


      isym =  6     inv. 180 deg rotation - cart. axis [0,1,0]   

 cryst.   s( 6) = (     1          0          0      )
                  (     0         -1          0      )
                  (     0          0          1      )

 cart.    s( 6) = (  1.0000000  0.0000000  0.0000000 )
                  (  0.0000000 -1.0000000  0.0000000 )
                  (  0.0000000  0.0000000  1.0000000 )


      isym =  7     inv. 180 deg rotation - cart. axis [0,1,1]   

 cryst.   s( 7) = (     1          0          0      )
                  (     0          0         -1      )
                  (     0         -1          0      )

 cart.    s( 7) = (  1.0000000  0.0000000  0.0000000 )
                  (  0.0000000  0.0000000 -1.0000000 )
                  (  0.0000000 -1.0000000  0.0000000 )


      isym =  8     inv. 180 deg rotation - cart. axis [0,1,-1]  

 cryst.   s( 8) = (     1          0          0      )
                  (     0          0          1      )
                  (     0          1          0      )

 cart.    s( 8) = (  1.0000000  0.0000000  0.0000000 )
                  (  0.0000000  0.0000000  1.0000000 )
                  (  0.0000000  1.0000000  0.0000000 )


     point group C_4v (4mm) 
     there are  5 classes
     the character table:

       E     2C4   C2    2s_v  2s_d 
A_1    1.00  1.00  1.00  1.00  1.00
A_2    1.00  1.00  1.00 -1.00 -1.00
B_1    1.00 -1.00  1.00  1.00 -1.00
B_2    1.00 -1.00  1.00 -1.00  1.00
E      2.00  0.00 -2.00  0.00  0.00

     the symmetry operations in each class and the name of the first element:

     E        1
          identity                                               
     2C4      3    4
           90 deg rotation - cart. axis [-1,0,0]                 
     C2       2
          180 deg rotation - cart. axis [1,0,0]                  
     2s_v     5    6
          inv. 180 deg rotation - cart. axis [0,0,1]             
     2s_d     7    8
          inv. 180 deg rotation - cart. axis [0,1,1]             

   Cartesian axes

     site n.     atom                  positions (alat units)
         1           Si  tau(   1) = (   0.0000000   0.0000000   0.0000000  )
         2           H   tau(   2) = (   0.0440000   0.0000000   0.0000000  )

   Crystallographic axes

     site n.     atom                  positions (cryst. coord.)
         1           Si  tau(   1) = (  0.0000000  0.0000000  0.0000000  )
         2           H   tau(   2) = (  0.0440000  0.0000000  0.0000000  )

     number of k points=     6  Marzari-Vanderbilt smearing, width (Ry)=  0.0500
                       cart. coord. in units 2pi/alat
        k(    1) = (   0.0000000   0.0000000   0.0000000), wk =   0.2500000
        k(    2) = (   0.0000000   0.0000000  -0.5000000), wk =   0.5000000
        k(    3) = (   0.0000000  -0.5000000  -0.5000000), wk =   0.2500000
        k(    4) = (  -0.5000000  -0.5000000  -0.5000000), wk =   0.2500000
        k(    5) = (  -0.5000000   0.0000000   0.0000000), wk =   0.2500000
        k(    6) = (  -0.5000000   0.5000000   0.0000000), wk =   0.5000000

                       cryst. coord.
        k(    1) = (   0.0000000   0.0000000   0.0000000), wk =   0.2500000
        k(    2) = (   0.0000000   0.0000000  -0.5000000), wk =   0.5000000
        k(    3) = (   0.0000000  -0.5000000  -0.5000000), wk =   0.2500000
        k(    4) = (  -0.5000000  -0.5000000  -0.5000000), wk =   0.2500000
        k(    5) = (  -0.5000000   0.0000000   0.0000000), wk =   0.2500000
        k(    6) = (  -0.5000000   0.5000000   0.0000000), wk =   0.5000000

     Dense  grid:  1985227 G-vectors     FFT dimensions: ( 160, 160, 160)

     Dynamical RAM for                 wfc:       3.31 MB

     Dynamical RAM for     wfc (w. buffer):      23.19 MB

     Dynamical RAM for           str. fact:       7.57 MB

     Dynamical RAM for           local pot:       0.00 MB

     Dynamical RAM for          nlocal pot:       2.37 MB

     Dynamical RAM for                qrad:       2.14 MB

     Dynamical RAM for          rho,v,vnew:      23.08 MB

     Dynamical RAM for               rhoin:       7.69 MB

     Dynamical RAM for            rho*nmix:      60.58 MB

     Dynamical RAM for           G-vectors:      16.09 MB

     Dynamical RAM for          h,s,v(r/c):       0.04 MB

     Dynamical RAM for          <psi|beta>:       0.00 MB

     Dynamical RAM for                 psi:      13.25 MB

     Dynamical RAM for                hpsi:      13.25 MB

     Dynamical RAM for      wfcinit/wfcrot:       6.63 MB

     Estimated static dynamical RAM per process >     173.61 MB

     Estimated max dynamical RAM per process >     200.15 MB

     Estimated total dynamical RAM >       1.56 GB

     Initial potential from superposition of free atoms
     Check: negative starting charge=   -0.012379

     starting charge    4.99943, renormalised to    5.00000

     negative rho (up, down):  1.238E-02 0.000E+00
     Starting wfc are    5 randomized atomic wfcs +    2 random wfc

     total cpu time spent up to now is        3.5 secs

     Self-consistent Calculation

     iteration #  1     ecut=    42.00 Ry     beta= 0.30
     Davidson diagonalization with overlap
     ethr =  1.00E-02,  avg # of iterations =  5.0

     negative rho (up, down):  8.589E-03 0.000E+00

     total cpu time spent up to now is       11.2 secs

     total energy              =      -8.09669204 Ry
     Harris-Foulkes estimate   =      -8.19705121 Ry
     estimated scf accuracy    <       0.36042709 Ry

     iteration #  2     ecut=    42.00 Ry     beta= 0.30
     Davidson diagonalization with overlap
     ethr =  7.21E-03,  avg # of iterations =  1.0

     negative rho (up, down):  2.196E-03 0.000E+00

     total cpu time spent up to now is       15.3 secs

     total energy              =      -8.03402733 Ry
     Harris-Foulkes estimate   =      -8.10580968 Ry
     estimated scf accuracy    <       0.12839065 Ry

     iteration #  3     ecut=    42.00 Ry     beta= 0.30
     Davidson diagonalization with overlap
     ethr =  2.57E-03,  avg # of iterations =  2.0

     negative rho (up, down):  1.981E-03 0.000E+00

     total cpu time spent up to now is       20.1 secs

     total energy              =      -8.05617907 Ry
     Harris-Foulkes estimate   =      -8.05875830 Ry
     estimated scf accuracy    <       0.00634746 Ry

     iteration #  4     ecut=    42.00 Ry     beta= 0.30
     Davidson diagonalization with overlap
     ethr =  1.27E-04,  avg # of iterations = 10.3

     negative rho (up, down):  1.993E-04 0.000E+00

     total cpu time spent up to now is       28.5 secs

     total energy              =      -8.05630092 Ry
     Harris-Foulkes estimate   =      -8.05688550 Ry
     estimated scf accuracy    <       0.00180126 Ry

     iteration #  5     ecut=    42.00 Ry     beta= 0.30
     Davidson diagonalization with overlap
     ethr =  3.60E-05,  avg # of iterations =  4.0

     negative rho (up, down):  2.832E-04 0.000E+00

     total cpu time spent up to now is       34.3 secs

     total energy              =      -8.05651439 Ry
     Harris-Foulkes estimate   =      -8.05653759 Ry
     estimated scf accuracy    <       0.00009168 Ry

     iteration #  6     ecut=    42.00 Ry     beta= 0.30
     Davidson diagonalization with overlap
     c_bands:  1 eigenvalues not converged
     ethr =  1.83E-06,  avg # of iterations = 15.8

     negative rho (up, down):  3.108E-05 0.000E+00

     total cpu time spent up to now is       45.2 secs

     total energy              =      -8.05649048 Ry
     Harris-Foulkes estimate   =      -8.05655999 Ry
     estimated scf accuracy    <       0.00012778 Ry

     iteration #  7     ecut=    42.00 Ry     beta= 0.30
     Davidson diagonalization with overlap
     ethr =  1.83E-06,  avg # of iterations =  4.3

     negative rho (up, down):  1.566E-05 0.000E+00

     total cpu time spent up to now is       52.9 secs

     total energy              =      -8.05651543 Ry
     Harris-Foulkes estimate   =      -8.05651592 Ry
     estimated scf accuracy    <       0.00000439 Ry

     iteration #  8     ecut=    42.00 Ry     beta= 0.30
     Davidson diagonalization with overlap
     ethr =  8.77E-08,  avg # of iterations =  2.0

     negative rho (up, down):  7.880E-08 0.000E+00

     total cpu time spent up to now is       57.3 secs

     total energy              =      -8.05651452 Ry
     Harris-Foulkes estimate   =      -8.05651580 Ry
     estimated scf accuracy    <       0.00000305 Ry

     iteration #  9     ecut=    42.00 Ry     beta= 0.30
     Davidson diagonalization with overlap
     ethr =  6.11E-08,  avg # of iterations =  3.5

     negative rho (up, down):  1.558E-06 0.000E+00

     total cpu time spent up to now is       62.4 secs

     total energy              =      -8.05651484 Ry
     Harris-Foulkes estimate   =      -8.05651493 Ry
     estimated scf accuracy    <       0.00000022 Ry

     iteration # 10     ecut=    42.00 Ry     beta= 0.30
     Davidson diagonalization with overlap
     ethr =  4.46E-09,  avg # of iterations =  2.5

     total cpu time spent up to now is       69.6 secs

     End of self-consistent calculation

          k = 0.0000 0.0000 0.0000 (248049 PWs)   bands (ev):

   -14.1727  -6.3965  -4.0006  -4.0006  -0.4098   0.0816   0.2665

     occupation numbers 
     1.0000   1.0004   0.2498   0.2498   0.0000   0.0000   0.0000

          k = 0.0000 0.0000-0.5000 (247982 PWs)   bands (ev):

   -14.1726  -6.3965  -4.0006  -4.0006  -0.4041   0.0660   0.1851

     occupation numbers 
     1.0000   1.0004   0.2498   0.2498   0.0000   0.0000   0.0000

          k = 0.0000-0.5000-0.5000 (248312 PWs)   bands (ev):

   -14.1728  -6.3965  -4.0006  -4.0006  -0.3992   0.1343   0.1362

     occupation numbers 
     1.0000   1.0004   0.2498   0.2498   0.0000   0.0000   0.0000

          k =-0.5000-0.5000-0.5000 (248296 PWs)   bands (ev):

   -14.1728  -6.3965  -4.0006  -4.0006  -0.3966   0.1875   0.1889

     occupation numbers 
     1.0000   1.0004   0.2498   0.2498   0.0000   0.0000   0.0000

          k =-0.5000 0.0000 0.0000 (247982 PWs)   bands (ev):

   -14.1726  -6.3965  -4.0006  -4.0006  -0.4060   0.0684   0.2038

     occupation numbers 
     1.0000   1.0004   0.2498   0.2498   0.0000   0.0000   0.0000

          k =-0.5000 0.5000 0.0000 (248312 PWs)   bands (ev):

   -14.1728  -6.3965  -4.0006  -4.0006  -0.4010   0.1309   0.1347

     occupation numbers 
     1.0000   1.0004   0.2498   0.2498   0.0000   0.0000   0.0000

     the Fermi energy is    -4.1678 ev

!    total energy              =      -8.05651490 Ry
     Harris-Foulkes estimate   =      -8.05651488 Ry
     estimated scf accuracy    <          7.9E-09 Ry

     The total energy is the sum of the following terms:

     one-electron contribution =     -16.40915229 Ry
     hartree contribution      =       8.53826150 Ry
     xc contribution           =      -3.08986973 Ry
     ewald contribution        =       2.93477114 Ry
     smearing contrib. (-TS)   =      -0.03052553 Ry

     convergence has been achieved in  10 iterations

     Forces acting on atoms (cartesian axes, Ry/au):

     atom    1 type  1   force =    -1.89728809    0.00000000    0.00000000
     atom    2 type  2   force =     1.89728809    0.00000000    0.00000000
     The non-local contrib.  to forces
     atom    1 type  1   force =    -1.94429845    0.00000000    0.00000000
     atom    2 type  2   force =     0.00000000    0.00000000    0.00000000
     The ionic contribution  to forces
     atom    1 type  1   force =    -2.89181843    0.00000000   -0.00000000
     atom    2 type  2   force =     2.89181843   -0.00000000   -0.00000000
     The local contribution  to forces
     atom    1 type  1   force =     2.93873730   -0.00000000   -0.00000000
     atom    2 type  2   force =    -0.99457571   -0.00000000   -0.00000000
     The core correction contribution to forces
     atom    1 type  1   force =     0.00000000    0.00000000    0.00000000
     atom    2 type  2   force =     0.00000000    0.00000000    0.00000000
     The Hubbard contrib.    to forces
     atom    1 type  1   force =     0.00000000    0.00000000    0.00000000
     atom    2 type  2   force =     0.00000000    0.00000000    0.00000000
     The SCF correction term to forces
     atom    1 type  1   force =     0.00005030   -0.00000000    0.00000000
     atom    2 type  2   force =     0.00000417    0.00000000   -0.00000000

     Total force =     2.683171     Total SCF correction =     0.000050


     Computing stress (Cartesian axis) and pressure

          total   stress  (Ry/bohr**3)                   (kbar)     P=    2.79
   0.00005788   0.00000000   0.00000000          8.51      0.00      0.00
   0.00000000  -0.00000048   0.00000000          0.00     -0.07      0.00
   0.00000000   0.00000000  -0.00000048          0.00      0.00     -0.07

     kinetic stress (kbar)     11.14      0.00      0.00
                                0.00      8.26      0.00
                                0.00      0.00      8.26

     local   stress (kbar)    -32.07      0.00      0.00
                                0.00    -18.00      0.00
                                0.00      0.00    -18.00

     nonloc. stress (kbar)     11.85      0.00      0.00
                                0.00      6.80      0.00
                                0.00      0.00      6.80

     hartree stress (kbar)      8.84      0.00     -0.00
                                0.00      7.21     -0.00
                               -0.00     -0.00      7.21

     exc-cor stress (kbar)     -2.65     -0.00      0.00
                               -0.00     -2.63     -0.00
                                0.00     -0.00     -2.63

     corecor stress (kbar)      0.00      0.00      0.00
                                0.00      0.00      0.00
                                0.00      0.00      0.00

     ewald   stress (kbar)     11.41     -0.00     -0.00
                               -0.00     -1.71     -0.00
                               -0.00     -0.00     -1.71

     hubbard stress (kbar)      0.00      0.00      0.00
                                0.00      0.00      0.00
                                0.00      0.00      0.00

     london  stress (kbar)      0.00      0.00      0.00
                                0.00      0.00      0.00
                                0.00      0.00      0.00

     DFT-D3  stress (kbar)      0.00      0.00      0.00
                                0.00      0.00      0.00
                                0.00      0.00      0.00

     XDM     stress (kbar)      0.00      0.00      0.00
                                0.00      0.00      0.00
                                0.00      0.00      0.00

     dft-nl  stress (kbar)      0.00      0.00      0.00
                                0.00      0.00      0.00
                                0.00      0.00      0.00

     TS-vdW  stress (kbar)      0.00      0.00      0.00
                                0.00      0.00      0.00
                                0.00      0.00      0.00



     Writing output data file SiH34.save

     init_run     :      3.12s CPU      3.28s WALL (       1 calls)
     electrons    :     61.41s CPU     66.36s WALL (       1 calls)
     forces       :      0.42s CPU      0.42s WALL (       1 calls)
     stress       :      1.85s CPU      1.94s WALL (       1 calls)

     Called by init_run:
     wfcinit      :      1.39s CPU      1.41s WALL (       1 calls)
     wfcinit:atom :      0.03s CPU      0.03s WALL (       6 calls)
     wfcinit:wfcr :      1.29s CPU      1.30s WALL (       6 calls)
     potinit      :      0.61s CPU      0.66s WALL (       1 calls)

     Called by electrons:
     c_bands      :     48.67s CPU     53.35s WALL (      10 calls)
     sum_band     :      8.18s CPU      8.21s WALL (      10 calls)
     v_of_rho     :      3.88s CPU      3.93s WALL (      11 calls)
     v_h          :      0.36s CPU      0.37s WALL (      11 calls)
     v_xc         :      3.52s CPU      3.56s WALL (      11 calls)
     mix_rho      :      0.81s CPU      0.90s WALL (      10 calls)

     Called by c_bands:
     init_us_2    :      0.82s CPU      0.83s WALL (     138 calls)
     cegterg      :     48.08s CPU     48.25s WALL (      60 calls)

     Called by sum_band:

     Called by *egterg:
     h_psi        :     45.85s CPU     45.98s WALL (     369 calls)
     g_psi        :      0.22s CPU      0.22s WALL (     303 calls)
     cdiaghg      :      0.06s CPU      0.06s WALL (     363 calls)
     cegterg:over :      1.21s CPU      1.21s WALL (     303 calls)
     cegterg:upda :      0.99s CPU      1.00s WALL (     303 calls)
     cegterg:last :      0.38s CPU      0.38s WALL (      81 calls)

     Called by h_psi:
     h_psi:pot    :     45.63s CPU     45.75s WALL (     369 calls)
     h_psi:calbec :      0.38s CPU      0.38s WALL (     369 calls)
     vloc_psi     :     45.03s CPU     45.16s WALL (     369 calls)
     add_vuspsi   :      0.21s CPU      0.21s WALL (     369 calls)

     General routines
     calbec       :      0.43s CPU      0.44s WALL (     399 calls)
     fft          :      3.30s CPU      3.33s WALL (     128 calls)
     fftw         :     45.90s CPU     46.01s WALL (    3366 calls)

     Parallel routines
     fft_scatt_xy :      6.89s CPU      6.90s WALL (    3494 calls)
     fft_scatt_yz :      9.13s CPU      9.18s WALL (    3494 calls)

     PWSCF        :  1m 7.29s CPU     1m13.05s WALL


   This run was terminated on:  20:48:23   1Oct2020            

=------------------------------------------------------------------------------=
   JOB DONE.
=------------------------------------------------------------------------------=
