
     Program PWSCF v.6.2 (svn rev. 14038) starts on  1Oct2020 at 20:50:56 

     This program is part of the open-source Quantum ESPRESSO suite
     for quantum simulation of materials; please cite
         "P. Giannozzi et al., J. Phys.:Condens. Matter 21 395502 (2009);
         "P. Giannozzi et al., J. Phys.:Condens. Matter 29 465901 (2017);
          URL http://www.quantum-espresso.org", 
     in publications or presentations arising from this work. More details at
     http://www.quantum-espresso.org/quote

     Parallel version (MPI), running on     8 processors

     MPI processes distributed on     1 nodes
     R & G space division:  proc/nbgrp/npool/nimage =       8
     Waiting for input...
     Reading input from standard input

     Current dimensions of program PWSCF are:
     Max number of different atomic species (ntypx) = 10
     Max number of k-points (npk) =  40000
     Max angular momentum in pseudopotentials (lmaxx) =  3

     Subspace diagonalization in iterative solution of the eigenvalue problem:
     a serial algorithm will be used


     Parallelization info
     --------------------
     sticks:   dense  smooth     PW     G-vecs:    dense   smooth      PW
     Min        2386    2386    623               248152   248152   33108
     Max        2387    2387    625               248157   248157   33111
     Sum       19089   19089   4989              1985227  1985227  264875



     bravais-lattice index     =            1
     lattice parameter (alat)  =      37.7945  a.u.
     unit-cell volume          =   53986.6767 (a.u.)^3
     number of atoms/cell      =            2
     number of atomic types    =            2
     number of electrons       =         5.00
     number of Kohn-Sham states=            7
     kinetic-energy cutoff     =      42.0000  Ry
     charge density cutoff     =     168.0000  Ry
     convergence threshold     =      1.0E-08
     mixing beta               =       0.3000
     number of iterations used =            8  plain     mixing
     Exchange-correlation      = SLA-PW-PBX-PBC ( 1  4  3  4 0 0)

     celldm(1)=  37.794523  celldm(2)=   0.000000  celldm(3)=   0.000000
     celldm(4)=   0.000000  celldm(5)=   0.000000  celldm(6)=   0.000000

     crystal axes: (cart. coord. in units of alat)
               a(1) = (   1.000000   0.000000   0.000000 )  
               a(2) = (   0.000000   1.000000   0.000000 )  
               a(3) = (   0.000000   0.000000   1.000000 )  

     reciprocal axes: (cart. coord. in units 2 pi/alat)
               b(1) = (  1.000000  0.000000  0.000000 )  
               b(2) = (  0.000000  1.000000  0.000000 )  
               b(3) = (  0.000000  0.000000  1.000000 )  


     PseudoPot. # 1 for Si read from file:
     ./Si.pbe-hgh.UPF
     MD5 check sum: 9a9f0f6e09139bfdb36b03ff6bc35900
     Pseudo is Norm-conserving, Zval =  4.0
     Generated in analytical, separable form
     Using radial grid of 1141 points,  3 beta functions with: 
                l(1) =   0
                l(2) =   0
                l(3) =   1

     PseudoPot. # 2 for H  read from file:
     ./H.pbe-hgh.UPF
     MD5 check sum: 5f350582108a937bec95f27f5610ab08
     Pseudo is Norm-conserving, Zval =  1.0
     Generated in analytical, separable form
     Using radial grid of  929 points,  0 beta functions with: 

     atomic species   valence    mass     pseudopotential
        Si             4.00    28.08000     Si( 1.00)
        H              1.00     1.00784     H ( 1.00)

      8 Sym. Ops. (no inversion) found


                                    s                        frac. trans.

      isym =  1     identity                                     

 cryst.   s( 1) = (     1          0          0      )
                  (     0          1          0      )
                  (     0          0          1      )

 cart.    s( 1) = (  1.0000000  0.0000000  0.0000000 )
                  (  0.0000000  1.0000000  0.0000000 )
                  (  0.0000000  0.0000000  1.0000000 )


      isym =  2     180 deg rotation - cart. axis [1,0,0]        

 cryst.   s( 2) = (     1          0          0      )
                  (     0         -1          0      )
                  (     0          0         -1      )

 cart.    s( 2) = (  1.0000000  0.0000000  0.0000000 )
                  (  0.0000000 -1.0000000  0.0000000 )
                  (  0.0000000  0.0000000 -1.0000000 )


      isym =  3      90 deg rotation - cart. axis [-1,0,0]       

 cryst.   s( 3) = (     1          0          0      )
                  (     0          0         -1      )
                  (     0          1          0      )

 cart.    s( 3) = (  1.0000000  0.0000000  0.0000000 )
                  (  0.0000000  0.0000000  1.0000000 )
                  (  0.0000000 -1.0000000  0.0000000 )


      isym =  4      90 deg rotation - cart. axis [1,0,0]        

 cryst.   s( 4) = (     1          0          0      )
                  (     0          0          1      )
                  (     0         -1          0      )

 cart.    s( 4) = (  1.0000000  0.0000000  0.0000000 )
                  (  0.0000000  0.0000000 -1.0000000 )
                  (  0.0000000  1.0000000  0.0000000 )


      isym =  5     inv. 180 deg rotation - cart. axis [0,0,1]   

 cryst.   s( 5) = (     1          0          0      )
                  (     0          1          0      )
                  (     0          0         -1      )

 cart.    s( 5) = (  1.0000000  0.0000000  0.0000000 )
                  (  0.0000000  1.0000000  0.0000000 )
                  (  0.0000000  0.0000000 -1.0000000 )


      isym =  6     inv. 180 deg rotation - cart. axis [0,1,0]   

 cryst.   s( 6) = (     1          0          0      )
                  (     0         -1          0      )
                  (     0          0          1      )

 cart.    s( 6) = (  1.0000000  0.0000000  0.0000000 )
                  (  0.0000000 -1.0000000  0.0000000 )
                  (  0.0000000  0.0000000  1.0000000 )


      isym =  7     inv. 180 deg rotation - cart. axis [0,1,1]   

 cryst.   s( 7) = (     1          0          0      )
                  (     0          0         -1      )
                  (     0         -1          0      )

 cart.    s( 7) = (  1.0000000  0.0000000  0.0000000 )
                  (  0.0000000  0.0000000 -1.0000000 )
                  (  0.0000000 -1.0000000  0.0000000 )


      isym =  8     inv. 180 deg rotation - cart. axis [0,1,-1]  

 cryst.   s( 8) = (     1          0          0      )
                  (     0          0          1      )
                  (     0          1          0      )

 cart.    s( 8) = (  1.0000000  0.0000000  0.0000000 )
                  (  0.0000000  0.0000000  1.0000000 )
                  (  0.0000000  1.0000000  0.0000000 )


     point group C_4v (4mm) 
     there are  5 classes
     the character table:

       E     2C4   C2    2s_v  2s_d 
A_1    1.00  1.00  1.00  1.00  1.00
A_2    1.00  1.00  1.00 -1.00 -1.00
B_1    1.00 -1.00  1.00  1.00 -1.00
B_2    1.00 -1.00  1.00 -1.00  1.00
E      2.00  0.00 -2.00  0.00  0.00

     the symmetry operations in each class and the name of the first element:

     E        1
          identity                                               
     2C4      3    4
           90 deg rotation - cart. axis [-1,0,0]                 
     C2       2
          180 deg rotation - cart. axis [1,0,0]                  
     2s_v     5    6
          inv. 180 deg rotation - cart. axis [0,0,1]             
     2s_d     7    8
          inv. 180 deg rotation - cart. axis [0,1,1]             

   Cartesian axes

     site n.     atom                  positions (alat units)
         1           Si  tau(   1) = (   0.0000000   0.0000000   0.0000000  )
         2           H   tau(   2) = (   0.0425000   0.0000000   0.0000000  )

   Crystallographic axes

     site n.     atom                  positions (cryst. coord.)
         1           Si  tau(   1) = (  0.0000000  0.0000000  0.0000000  )
         2           H   tau(   2) = (  0.0425000  0.0000000  0.0000000  )

     number of k points=     6  Marzari-Vanderbilt smearing, width (Ry)=  0.0500
                       cart. coord. in units 2pi/alat
        k(    1) = (   0.0000000   0.0000000   0.0000000), wk =   0.2500000
        k(    2) = (   0.0000000   0.0000000  -0.5000000), wk =   0.5000000
        k(    3) = (   0.0000000  -0.5000000  -0.5000000), wk =   0.2500000
        k(    4) = (  -0.5000000  -0.5000000  -0.5000000), wk =   0.2500000
        k(    5) = (  -0.5000000   0.0000000   0.0000000), wk =   0.2500000
        k(    6) = (  -0.5000000   0.5000000   0.0000000), wk =   0.5000000

                       cryst. coord.
        k(    1) = (   0.0000000   0.0000000   0.0000000), wk =   0.2500000
        k(    2) = (   0.0000000   0.0000000  -0.5000000), wk =   0.5000000
        k(    3) = (   0.0000000  -0.5000000  -0.5000000), wk =   0.2500000
        k(    4) = (  -0.5000000  -0.5000000  -0.5000000), wk =   0.2500000
        k(    5) = (  -0.5000000   0.0000000   0.0000000), wk =   0.2500000
        k(    6) = (  -0.5000000   0.5000000   0.0000000), wk =   0.5000000

     Dense  grid:  1985227 G-vectors     FFT dimensions: ( 160, 160, 160)

     Dynamical RAM for                 wfc:       3.31 MB

     Dynamical RAM for     wfc (w. buffer):      23.19 MB

     Dynamical RAM for           str. fact:       7.57 MB

     Dynamical RAM for           local pot:       0.00 MB

     Dynamical RAM for          nlocal pot:       2.37 MB

     Dynamical RAM for                qrad:       2.14 MB

     Dynamical RAM for          rho,v,vnew:      23.08 MB

     Dynamical RAM for               rhoin:       7.69 MB

     Dynamical RAM for            rho*nmix:      60.58 MB

     Dynamical RAM for           G-vectors:      16.09 MB

     Dynamical RAM for          h,s,v(r/c):       0.04 MB

     Dynamical RAM for          <psi|beta>:       0.00 MB

     Dynamical RAM for                 psi:      13.25 MB

     Dynamical RAM for                hpsi:      13.25 MB

     Dynamical RAM for      wfcinit/wfcrot:       6.63 MB

     Estimated static dynamical RAM per process >     173.61 MB

     Estimated max dynamical RAM per process >     200.15 MB

     Estimated total dynamical RAM >       1.56 GB

     Initial potential from superposition of free atoms
     Check: negative starting charge=   -0.012382

     starting charge    4.99943, renormalised to    5.00000

     negative rho (up, down):  1.238E-02 0.000E+00
     Starting wfc are    5 randomized atomic wfcs +    2 random wfc

     total cpu time spent up to now is        3.1 secs

     Self-consistent Calculation

     iteration #  1     ecut=    42.00 Ry     beta= 0.30
     Davidson diagonalization with overlap
     ethr =  1.00E-02,  avg # of iterations =  5.0

     negative rho (up, down):  8.591E-03 0.000E+00

     total cpu time spent up to now is       11.7 secs

     total energy              =      -7.98385787 Ry
     Harris-Foulkes estimate   =      -8.08993456 Ry
     estimated scf accuracy    <       0.38169715 Ry

     iteration #  2     ecut=    42.00 Ry     beta= 0.30
     Davidson diagonalization with overlap
     ethr =  7.63E-03,  avg # of iterations =  1.0

     negative rho (up, down):  2.211E-03 0.000E+00

     total cpu time spent up to now is       15.2 secs

     total energy              =      -7.91747606 Ry
     Harris-Foulkes estimate   =      -7.99352248 Ry
     estimated scf accuracy    <       0.13568176 Ry

     iteration #  3     ecut=    42.00 Ry     beta= 0.30
     Davidson diagonalization with overlap
     ethr =  2.71E-03,  avg # of iterations =  2.0

     negative rho (up, down):  1.999E-03 0.000E+00

     total cpu time spent up to now is       23.6 secs

     total energy              =      -7.94112832 Ry
     Harris-Foulkes estimate   =      -7.94414027 Ry
     estimated scf accuracy    <       0.00702237 Ry

     iteration #  4     ecut=    42.00 Ry     beta= 0.30
     Davidson diagonalization with overlap
     ethr =  1.40E-04,  avg # of iterations =  9.7

     negative rho (up, down):  2.012E-04 0.000E+00

     total cpu time spent up to now is       30.7 secs

     total energy              =      -7.94143965 Ry
     Harris-Foulkes estimate   =      -7.94202729 Ry
     estimated scf accuracy    <       0.00184901 Ry

     iteration #  5     ecut=    42.00 Ry     beta= 0.30
     Davidson diagonalization with overlap
     ethr =  3.70E-05,  avg # of iterations =  5.2

     negative rho (up, down):  2.845E-04 0.000E+00

     total cpu time spent up to now is       40.2 secs

     total energy              =      -7.94163808 Ry
     Harris-Foulkes estimate   =      -7.94166101 Ry
     estimated scf accuracy    <       0.00009941 Ry

     iteration #  6     ecut=    42.00 Ry     beta= 0.30
     Davidson diagonalization with overlap
     c_bands:  1 eigenvalues not converged
     ethr =  1.99E-06,  avg # of iterations = 15.0

     negative rho (up, down):  5.648E-05 0.000E+00

     total cpu time spent up to now is       49.6 secs

     total energy              =      -7.94159643 Ry
     Harris-Foulkes estimate   =      -7.94172333 Ry
     estimated scf accuracy    <       0.00020658 Ry

     iteration #  7     ecut=    42.00 Ry     beta= 0.30
     Davidson diagonalization with overlap
     ethr =  1.99E-06,  avg # of iterations =  2.0

     negative rho (up, down):  9.577E-06 0.000E+00

     total cpu time spent up to now is       53.9 secs

     total energy              =      -7.94164222 Ry
     Harris-Foulkes estimate   =      -7.94164238 Ry
     estimated scf accuracy    <       0.00000417 Ry

     iteration #  8     ecut=    42.00 Ry     beta= 0.30
     Davidson diagonalization with overlap
     ethr =  8.34E-08,  avg # of iterations =  5.3

     negative rho (up, down):  2.059E-06 0.000E+00

     total cpu time spent up to now is       58.9 secs

     total energy              =      -7.94164163 Ry
     Harris-Foulkes estimate   =      -7.94164266 Ry
     estimated scf accuracy    <       0.00000213 Ry

     iteration #  9     ecut=    42.00 Ry     beta= 0.30
     Davidson diagonalization with overlap
     ethr =  4.25E-08,  avg # of iterations =  2.8

     negative rho (up, down):  1.317E-06 0.000E+00

     total cpu time spent up to now is       63.2 secs

     total energy              =      -7.94164192 Ry
     Harris-Foulkes estimate   =      -7.94164198 Ry
     estimated scf accuracy    <       0.00000010 Ry

     iteration # 10     ecut=    42.00 Ry     beta= 0.30
     Davidson diagonalization with overlap
     ethr =  1.97E-09,  avg # of iterations =  2.0

     negative rho (up, down):  1.200E-07 0.000E+00

     total cpu time spent up to now is       68.9 secs

     total energy              =      -7.94164194 Ry
     Harris-Foulkes estimate   =      -7.94164193 Ry
     estimated scf accuracy    <       0.00000001 Ry

     iteration # 11     ecut=    42.00 Ry     beta= 0.30
     Davidson diagonalization with overlap
     ethr =  2.73E-10,  avg # of iterations =  2.0

     total cpu time spent up to now is       72.7 secs

     End of self-consistent calculation

          k = 0.0000 0.0000 0.0000 (248049 PWs)   bands (ev):

   -14.2413  -6.3732  -4.0082  -4.0082  -0.4157   0.0842   0.2689

     occupation numbers 
     1.0000   1.0005   0.2497   0.2497   0.0000   0.0000   0.0000

          k = 0.0000 0.0000-0.5000 (247982 PWs)   bands (ev):

   -14.2413  -6.3732  -4.0082  -4.0082  -0.4103   0.0705   0.1873

     occupation numbers 
     1.0000   1.0005   0.2497   0.2497   0.0000   0.0000   0.0000

          k = 0.0000-0.5000-0.5000 (248312 PWs)   bands (ev):

   -14.2415  -6.3733  -4.0082  -4.0082  -0.4056   0.1371   0.1376

     occupation numbers 
     1.0000   1.0005   0.2497   0.2497   0.0000   0.0000   0.0000

          k =-0.5000-0.5000-0.5000 (248296 PWs)   bands (ev):

   -14.2415  -6.3733  -4.0082  -4.0082  -0.4031   0.1890   0.1900

     occupation numbers 
     1.0000   1.0005   0.2497   0.2497   0.0000   0.0000   0.0000

          k =-0.5000 0.0000 0.0000 (247982 PWs)   bands (ev):

   -14.2413  -6.3732  -4.0082  -4.0082  -0.4121   0.0732   0.2053

     occupation numbers 
     1.0000   1.0005   0.2497   0.2497   0.0000   0.0000   0.0000

          k =-0.5000 0.5000 0.0000 (248312 PWs)   bands (ev):

   -14.2415  -6.3733  -4.0082  -4.0082  -0.4074   0.1330   0.1375

     occupation numbers 
     1.0000   1.0005   0.2497   0.2497   0.0000   0.0000   0.0000

     the Fermi energy is    -4.1755 ev

!    total energy              =      -7.94164194 Ry
     Harris-Foulkes estimate   =      -7.94164194 Ry
     estimated scf accuracy    <          3.4E-10 Ry

     The total energy is the sum of the following terms:

     one-electron contribution =     -16.50068121 Ry
     hartree contribution      =       8.59044086 Ry
     xc contribution           =      -3.10541460 Ry
     ewald contribution        =       3.10450278 Ry
     smearing contrib. (-TS)   =      -0.03048976 Ry

     convergence has been achieved in  11 iterations

     Forces acting on atoms (cartesian axes, Ry/au):

     atom    1 type  1   force =    -2.16059797    0.00000000    0.00000000
     atom    2 type  2   force =     2.16059797    0.00000000    0.00000000
     The non-local contrib.  to forces
     atom    1 type  1   force =    -2.18461917    0.00000000    0.00000000
     atom    2 type  2   force =     0.00000000    0.00000000    0.00000000
     The ionic contribution  to forces
     atom    1 type  1   force =    -3.09965941   -0.00000000   -0.00000000
     atom    2 type  2   force =     3.09965941    0.00000000   -0.00000000
     The local contribution  to forces
     atom    1 type  1   force =     3.12364880   -0.00000000   -0.00000000
     atom    2 type  2   force =    -0.93910319   -0.00000000   -0.00000000
     The core correction contribution to forces
     atom    1 type  1   force =     0.00000000    0.00000000    0.00000000
     atom    2 type  2   force =     0.00000000    0.00000000    0.00000000
     The Hubbard contrib.    to forces
     atom    1 type  1   force =     0.00000000    0.00000000    0.00000000
     atom    2 type  2   force =     0.00000000    0.00000000    0.00000000
     The SCF correction term to forces
     atom    1 type  1   force =    -0.00000860   -0.00000000    0.00000000
     atom    2 type  2   force =     0.00000133    0.00000000    0.00000000

     Total force =     3.055547     Total SCF correction =     0.000009


     Computing stress (Cartesian axis) and pressure

          total   stress  (Ry/bohr**3)                   (kbar)     P=    3.08
   0.00006372   0.00000000   0.00000000          9.37      0.00      0.00
   0.00000000  -0.00000050   0.00000000          0.00     -0.07      0.00
   0.00000000   0.00000000  -0.00000050          0.00      0.00     -0.07

     kinetic stress (kbar)     11.41      0.00      0.00
                                0.00      8.33      0.00
                                0.00      0.00      8.33

     local   stress (kbar)    -32.42     -0.00      0.00
                               -0.00    -18.20      0.00
                                0.00      0.00    -18.20

     nonloc. stress (kbar)     12.33      0.00      0.00
                                0.00      6.87      0.00
                                0.00      0.00      6.87

     hartree stress (kbar)      8.85      0.00      0.00
                                0.00      7.28     -0.00
                                0.00     -0.00      7.28

     exc-cor stress (kbar)     -2.66     -0.00     -0.00
                               -0.00     -2.64      0.00
                               -0.00      0.00     -2.64

     corecor stress (kbar)      0.00      0.00      0.00
                                0.00      0.00      0.00
                                0.00      0.00      0.00

     ewald   stress (kbar)     11.87     -0.00     -0.00
                               -0.00     -1.71     -0.00
                               -0.00     -0.00     -1.71

     hubbard stress (kbar)      0.00      0.00      0.00
                                0.00      0.00      0.00
                                0.00      0.00      0.00

     london  stress (kbar)      0.00      0.00      0.00
                                0.00      0.00      0.00
                                0.00      0.00      0.00

     DFT-D3  stress (kbar)      0.00      0.00      0.00
                                0.00      0.00      0.00
                                0.00      0.00      0.00

     XDM     stress (kbar)      0.00      0.00      0.00
                                0.00      0.00      0.00
                                0.00      0.00      0.00

     dft-nl  stress (kbar)      0.00      0.00      0.00
                                0.00      0.00      0.00
                                0.00      0.00      0.00

     TS-vdW  stress (kbar)      0.00      0.00      0.00
                                0.00      0.00      0.00
                                0.00      0.00      0.00



     Writing output data file SiH33.save

     init_run     :      2.88s CPU      2.96s WALL (       1 calls)
     electrons    :     57.43s CPU     69.78s WALL (       1 calls)
     forces       :      0.37s CPU      0.38s WALL (       1 calls)
     stress       :      1.74s CPU      1.79s WALL (       1 calls)

     Called by init_run:
     wfcinit      :      1.25s CPU      1.27s WALL (       1 calls)
     wfcinit:atom :      0.03s CPU      0.03s WALL (       6 calls)
     wfcinit:wfcr :      1.15s CPU      1.16s WALL (       6 calls)
     potinit      :      0.59s CPU      0.62s WALL (       1 calls)

     Called by electrons:
     c_bands      :     44.86s CPU     55.49s WALL (      11 calls)
     sum_band     :      7.83s CPU      7.86s WALL (      11 calls)
     v_of_rho     :      3.95s CPU      3.98s WALL (      12 calls)
     v_h          :      0.39s CPU      0.40s WALL (      12 calls)
     v_xc         :      3.56s CPU      3.59s WALL (      12 calls)
     mix_rho      :      0.95s CPU      1.00s WALL (      11 calls)

     Called by c_bands:
     init_us_2    :      0.89s CPU      0.89s WALL (     150 calls)
     cegterg      :     44.18s CPU     44.39s WALL (      66 calls)

     Called by sum_band:

     Called by *egterg:
     h_psi        :     42.07s CPU     42.27s WALL (     384 calls)
     g_psi        :      0.14s CPU      0.14s WALL (     312 calls)
     cdiaghg      :      0.05s CPU      0.06s WALL (     378 calls)
     cegterg:over :      1.08s CPU      1.09s WALL (     312 calls)
     cegterg:upda :      0.92s CPU      0.92s WALL (     312 calls)
     cegterg:last :      0.40s CPU      0.40s WALL (      88 calls)

     Called by h_psi:
     h_psi:pot    :     41.79s CPU     41.98s WALL (     384 calls)
     h_psi:calbec :      0.33s CPU      0.34s WALL (     384 calls)
     vloc_psi     :     41.20s CPU     41.39s WALL (     384 calls)
     add_vuspsi   :      0.25s CPU      0.25s WALL (     384 calls)

     General routines
     calbec       :      0.36s CPU      0.37s WALL (     414 calls)
     fft          :      3.43s CPU      3.45s WALL (     139 calls)
     fftw         :     41.69s CPU     41.88s WALL (    3594 calls)

     Parallel routines
     fft_scatt_xy :      7.02s CPU      7.04s WALL (    3733 calls)
     fft_scatt_yz :     10.12s CPU     10.19s WALL (    3733 calls)

     PWSCF        :  1m 2.82s CPU     1m15.89s WALL


   This run was terminated on:  20:52:11   1Oct2020            

=------------------------------------------------------------------------------=
   JOB DONE.
=------------------------------------------------------------------------------=
