
     Program PWSCF v.6.2 (svn rev. 14038) starts on  1Oct2020 at 20:55:27 

     This program is part of the open-source Quantum ESPRESSO suite
     for quantum simulation of materials; please cite
         "P. Giannozzi et al., J. Phys.:Condens. Matter 21 395502 (2009);
         "P. Giannozzi et al., J. Phys.:Condens. Matter 29 465901 (2017);
          URL http://www.quantum-espresso.org", 
     in publications or presentations arising from this work. More details at
     http://www.quantum-espresso.org/quote

     Parallel version (MPI), running on     8 processors

     MPI processes distributed on     1 nodes
     R & G space division:  proc/nbgrp/npool/nimage =       8
     Waiting for input...
     Reading input from standard input

     Current dimensions of program PWSCF are:
     Max number of different atomic species (ntypx) = 10
     Max number of k-points (npk) =  40000
     Max angular momentum in pseudopotentials (lmaxx) =  3

     Subspace diagonalization in iterative solution of the eigenvalue problem:
     a serial algorithm will be used


     Parallelization info
     --------------------
     sticks:   dense  smooth     PW     G-vecs:    dense   smooth      PW
     Min        2386    2386    623               248152   248152   33108
     Max        2387    2387    625               248157   248157   33111
     Sum       19089   19089   4989              1985227  1985227  264875



     bravais-lattice index     =            1
     lattice parameter (alat)  =      37.7945  a.u.
     unit-cell volume          =   53986.6767 (a.u.)^3
     number of atoms/cell      =            2
     number of atomic types    =            2
     number of electrons       =         5.00
     number of Kohn-Sham states=            7
     kinetic-energy cutoff     =      42.0000  Ry
     charge density cutoff     =     168.0000  Ry
     convergence threshold     =      1.0E-08
     mixing beta               =       0.3000
     number of iterations used =            8  plain     mixing
     Exchange-correlation      = SLA-PW-PBX-PBC ( 1  4  3  4 0 0)

     celldm(1)=  37.794523  celldm(2)=   0.000000  celldm(3)=   0.000000
     celldm(4)=   0.000000  celldm(5)=   0.000000  celldm(6)=   0.000000

     crystal axes: (cart. coord. in units of alat)
               a(1) = (   1.000000   0.000000   0.000000 )  
               a(2) = (   0.000000   1.000000   0.000000 )  
               a(3) = (   0.000000   0.000000   1.000000 )  

     reciprocal axes: (cart. coord. in units 2 pi/alat)
               b(1) = (  1.000000  0.000000  0.000000 )  
               b(2) = (  0.000000  1.000000  0.000000 )  
               b(3) = (  0.000000  0.000000  1.000000 )  


     PseudoPot. # 1 for Si read from file:
     ./Si.pbe-hgh.UPF
     MD5 check sum: 9a9f0f6e09139bfdb36b03ff6bc35900
     Pseudo is Norm-conserving, Zval =  4.0
     Generated in analytical, separable form
     Using radial grid of 1141 points,  3 beta functions with: 
                l(1) =   0
                l(2) =   0
                l(3) =   1

     PseudoPot. # 2 for H  read from file:
     ./H.pbe-hgh.UPF
     MD5 check sum: 5f350582108a937bec95f27f5610ab08
     Pseudo is Norm-conserving, Zval =  1.0
     Generated in analytical, separable form
     Using radial grid of  929 points,  0 beta functions with: 

     atomic species   valence    mass     pseudopotential
        Si             4.00    28.08000     Si( 1.00)
        H              1.00     1.00784     H ( 1.00)

      8 Sym. Ops. (no inversion) found


                                    s                        frac. trans.

      isym =  1     identity                                     

 cryst.   s( 1) = (     1          0          0      )
                  (     0          1          0      )
                  (     0          0          1      )

 cart.    s( 1) = (  1.0000000  0.0000000  0.0000000 )
                  (  0.0000000  1.0000000  0.0000000 )
                  (  0.0000000  0.0000000  1.0000000 )


      isym =  2     180 deg rotation - cart. axis [1,0,0]        

 cryst.   s( 2) = (     1          0          0      )
                  (     0         -1          0      )
                  (     0          0         -1      )

 cart.    s( 2) = (  1.0000000  0.0000000  0.0000000 )
                  (  0.0000000 -1.0000000  0.0000000 )
                  (  0.0000000  0.0000000 -1.0000000 )


      isym =  3      90 deg rotation - cart. axis [-1,0,0]       

 cryst.   s( 3) = (     1          0          0      )
                  (     0          0         -1      )
                  (     0          1          0      )

 cart.    s( 3) = (  1.0000000  0.0000000  0.0000000 )
                  (  0.0000000  0.0000000  1.0000000 )
                  (  0.0000000 -1.0000000  0.0000000 )


      isym =  4      90 deg rotation - cart. axis [1,0,0]        

 cryst.   s( 4) = (     1          0          0      )
                  (     0          0          1      )
                  (     0         -1          0      )

 cart.    s( 4) = (  1.0000000  0.0000000  0.0000000 )
                  (  0.0000000  0.0000000 -1.0000000 )
                  (  0.0000000  1.0000000  0.0000000 )


      isym =  5     inv. 180 deg rotation - cart. axis [0,0,1]   

 cryst.   s( 5) = (     1          0          0      )
                  (     0          1          0      )
                  (     0          0         -1      )

 cart.    s( 5) = (  1.0000000  0.0000000  0.0000000 )
                  (  0.0000000  1.0000000  0.0000000 )
                  (  0.0000000  0.0000000 -1.0000000 )


      isym =  6     inv. 180 deg rotation - cart. axis [0,1,0]   

 cryst.   s( 6) = (     1          0          0      )
                  (     0         -1          0      )
                  (     0          0          1      )

 cart.    s( 6) = (  1.0000000  0.0000000  0.0000000 )
                  (  0.0000000 -1.0000000  0.0000000 )
                  (  0.0000000  0.0000000  1.0000000 )


      isym =  7     inv. 180 deg rotation - cart. axis [0,1,1]   

 cryst.   s( 7) = (     1          0          0      )
                  (     0          0         -1      )
                  (     0         -1          0      )

 cart.    s( 7) = (  1.0000000  0.0000000  0.0000000 )
                  (  0.0000000  0.0000000 -1.0000000 )
                  (  0.0000000 -1.0000000  0.0000000 )


      isym =  8     inv. 180 deg rotation - cart. axis [0,1,-1]  

 cryst.   s( 8) = (     1          0          0      )
                  (     0          0          1      )
                  (     0          1          0      )

 cart.    s( 8) = (  1.0000000  0.0000000  0.0000000 )
                  (  0.0000000  0.0000000  1.0000000 )
                  (  0.0000000  1.0000000  0.0000000 )


     point group C_4v (4mm) 
     there are  5 classes
     the character table:

       E     2C4   C2    2s_v  2s_d 
A_1    1.00  1.00  1.00  1.00  1.00
A_2    1.00  1.00  1.00 -1.00 -1.00
B_1    1.00 -1.00  1.00  1.00 -1.00
B_2    1.00 -1.00  1.00 -1.00  1.00
E      2.00  0.00 -2.00  0.00  0.00

     the symmetry operations in each class and the name of the first element:

     E        1
          identity                                               
     2C4      3    4
           90 deg rotation - cart. axis [-1,0,0]                 
     C2       2
          180 deg rotation - cart. axis [1,0,0]                  
     2s_v     5    6
          inv. 180 deg rotation - cart. axis [0,0,1]             
     2s_d     7    8
          inv. 180 deg rotation - cart. axis [0,1,1]             

   Cartesian axes

     site n.     atom                  positions (alat units)
         1           Si  tau(   1) = (   0.0000000   0.0000000   0.0000000  )
         2           H   tau(   2) = (   0.0395000   0.0000000   0.0000000  )

   Crystallographic axes

     site n.     atom                  positions (cryst. coord.)
         1           Si  tau(   1) = (  0.0000000  0.0000000  0.0000000  )
         2           H   tau(   2) = (  0.0395000  0.0000000  0.0000000  )

     number of k points=     6  Marzari-Vanderbilt smearing, width (Ry)=  0.0500
                       cart. coord. in units 2pi/alat
        k(    1) = (   0.0000000   0.0000000   0.0000000), wk =   0.2500000
        k(    2) = (   0.0000000   0.0000000  -0.5000000), wk =   0.5000000
        k(    3) = (   0.0000000  -0.5000000  -0.5000000), wk =   0.2500000
        k(    4) = (  -0.5000000  -0.5000000  -0.5000000), wk =   0.2500000
        k(    5) = (  -0.5000000   0.0000000   0.0000000), wk =   0.2500000
        k(    6) = (  -0.5000000   0.5000000   0.0000000), wk =   0.5000000

                       cryst. coord.
        k(    1) = (   0.0000000   0.0000000   0.0000000), wk =   0.2500000
        k(    2) = (   0.0000000   0.0000000  -0.5000000), wk =   0.5000000
        k(    3) = (   0.0000000  -0.5000000  -0.5000000), wk =   0.2500000
        k(    4) = (  -0.5000000  -0.5000000  -0.5000000), wk =   0.2500000
        k(    5) = (  -0.5000000   0.0000000   0.0000000), wk =   0.2500000
        k(    6) = (  -0.5000000   0.5000000   0.0000000), wk =   0.5000000

     Dense  grid:  1985227 G-vectors     FFT dimensions: ( 160, 160, 160)

     Dynamical RAM for                 wfc:       3.31 MB

     Dynamical RAM for     wfc (w. buffer):      23.19 MB

     Dynamical RAM for           str. fact:       7.57 MB

     Dynamical RAM for           local pot:       0.00 MB

     Dynamical RAM for          nlocal pot:       2.37 MB

     Dynamical RAM for                qrad:       2.14 MB

     Dynamical RAM for          rho,v,vnew:      23.08 MB

     Dynamical RAM for               rhoin:       7.69 MB

     Dynamical RAM for            rho*nmix:      60.58 MB

     Dynamical RAM for           G-vectors:      16.09 MB

     Dynamical RAM for          h,s,v(r/c):       0.04 MB

     Dynamical RAM for          <psi|beta>:       0.00 MB

     Dynamical RAM for                 psi:      13.25 MB

     Dynamical RAM for                hpsi:      13.25 MB

     Dynamical RAM for      wfcinit/wfcrot:       6.63 MB

     Estimated static dynamical RAM per process >     173.61 MB

     Estimated max dynamical RAM per process >     200.15 MB

     Estimated total dynamical RAM >       1.56 GB

     Initial potential from superposition of free atoms
     Check: negative starting charge=   -0.012373

     starting charge    4.99943, renormalised to    5.00000

     negative rho (up, down):  1.237E-02 0.000E+00
     Starting wfc are    5 randomized atomic wfcs +    2 random wfc

     total cpu time spent up to now is        3.7 secs

     Self-consistent Calculation

     iteration #  1     ecut=    42.00 Ry     beta= 0.30
     Davidson diagonalization with overlap
     ethr =  1.00E-02,  avg # of iterations =  5.0

     negative rho (up, down):  8.586E-03 0.000E+00

     total cpu time spent up to now is       11.5 secs

     total energy              =      -7.70830784 Ry
     Harris-Foulkes estimate   =      -7.82592820 Ry
     estimated scf accuracy    <       0.42548084 Ry

     iteration #  2     ecut=    42.00 Ry     beta= 0.30
     Davidson diagonalization with overlap
     ethr =  8.51E-03,  avg # of iterations =  1.0

     negative rho (up, down):  2.254E-03 0.000E+00

     total cpu time spent up to now is       15.8 secs

     total energy              =      -7.63478062 Ry
     Harris-Foulkes estimate   =      -7.71911934 Ry
     estimated scf accuracy    <       0.15012884 Ry

     iteration #  3     ecut=    42.00 Ry     beta= 0.30
     Davidson diagonalization with overlap
     ethr =  3.00E-03,  avg # of iterations =  2.0

     negative rho (up, down):  2.046E-03 0.000E+00

     total cpu time spent up to now is       21.1 secs

     total energy              =      -7.66142303 Ry
     Harris-Foulkes estimate   =      -7.66534765 Ry
     estimated scf accuracy    <       0.00847188 Ry

     iteration #  4     ecut=    42.00 Ry     beta= 0.30
     Davidson diagonalization with overlap
     ethr =  1.69E-04,  avg # of iterations =  8.7

     negative rho (up, down):  2.073E-04 0.000E+00

     total cpu time spent up to now is       29.7 secs

     total energy              =      -7.66210236 Ry
     Harris-Foulkes estimate   =      -7.66279929 Ry
     estimated scf accuracy    <       0.00207940 Ry

     iteration #  5     ecut=    42.00 Ry     beta= 0.30
     Davidson diagonalization with overlap
     ethr =  4.16E-05,  avg # of iterations =  5.8

     negative rho (up, down):  3.161E-04 0.000E+00

     total cpu time spent up to now is       36.3 secs

     total energy              =      -7.66233372 Ry
     Harris-Foulkes estimate   =      -7.66233664 Ry
     estimated scf accuracy    <       0.00010811 Ry

     iteration #  6     ecut=    42.00 Ry     beta= 0.30
     Davidson diagonalization with overlap
     c_bands:  1 eigenvalues not converged
     ethr =  2.16E-06,  avg # of iterations = 15.0

     negative rho (up, down):  9.928E-06 0.000E+00

     total cpu time spent up to now is       48.9 secs

     total energy              =      -7.66222502 Ry
     Harris-Foulkes estimate   =      -7.66247203 Ry
     estimated scf accuracy    <       0.00038840 Ry

     iteration #  7     ecut=    42.00 Ry     beta= 0.30
     Davidson diagonalization with overlap
     ethr =  2.16E-06,  avg # of iterations =  4.8

     negative rho (up, down):  7.221E-06 0.000E+00

     total cpu time spent up to now is       55.8 secs

     total energy              =      -7.66231110 Ry
     Harris-Foulkes estimate   =      -7.66231773 Ry
     estimated scf accuracy    <       0.00001199 Ry

     iteration #  8     ecut=    42.00 Ry     beta= 0.30
     Davidson diagonalization with overlap
     ethr =  2.40E-07,  avg # of iterations =  2.0

     negative rho (up, down):  8.898E-07 0.000E+00

     total cpu time spent up to now is       61.0 secs

     total energy              =      -7.66231312 Ry
     Harris-Foulkes estimate   =      -7.66231356 Ry
     estimated scf accuracy    <       0.00000103 Ry

     iteration #  9     ecut=    42.00 Ry     beta= 0.30
     Davidson diagonalization with overlap
     ethr =  2.07E-08,  avg # of iterations =  2.0

     negative rho (up, down):  2.376E-08 0.000E+00

     total cpu time spent up to now is       66.0 secs

     total energy              =      -7.66231329 Ry
     Harris-Foulkes estimate   =      -7.66231344 Ry
     estimated scf accuracy    <       0.00000028 Ry

     iteration # 10     ecut=    42.00 Ry     beta= 0.30
     Davidson diagonalization with overlap
     ethr =  5.52E-09,  avg # of iterations =  1.0

     negative rho (up, down):  5.546E-08 0.000E+00

     total cpu time spent up to now is       70.7 secs

     total energy              =      -7.66231326 Ry
     Harris-Foulkes estimate   =      -7.66231331 Ry
     estimated scf accuracy    <       0.00000006 Ry

     iteration # 11     ecut=    42.00 Ry     beta= 0.30
     Davidson diagonalization with overlap
     ethr =  1.12E-09,  avg # of iterations =  3.0

     total cpu time spent up to now is       76.1 secs

     End of self-consistent calculation

          k = 0.0000 0.0000 0.0000 (248049 PWs)   bands (ev):

   -14.3341  -6.3230  -4.0261  -4.0261  -0.4270   0.0811   0.2706

     occupation numbers 
     1.0000   1.0008   0.2496   0.2496   0.0000   0.0000   0.0000

          k = 0.0000 0.0000-0.5000 (247982 PWs)   bands (ev):

   -14.3341  -6.3230  -4.0261  -4.0261  -0.4220   0.0698   0.1837

     occupation numbers 
     1.0000   1.0008   0.2496   0.2496   0.0000   0.0000   0.0000

          k = 0.0000-0.5000-0.5000 (248312 PWs)   bands (ev):

   -14.3343  -6.3230  -4.0261  -4.0261  -0.4176   0.1369   0.1377

     occupation numbers 
     1.0000   1.0008   0.2496   0.2496   0.0000   0.0000   0.0000

          k =-0.5000-0.5000-0.5000 (248296 PWs)   bands (ev):

   -14.3343  -6.3230  -4.0261  -4.0261  -0.4154   0.1894   0.1899

     occupation numbers 
     1.0000   1.0008   0.2496   0.2496   0.0000   0.0000   0.0000

          k =-0.5000 0.0000 0.0000 (247982 PWs)   bands (ev):

   -14.3341  -6.3230  -4.0261  -4.0261  -0.4239   0.0738   0.2010

     occupation numbers 
     1.0000   1.0008   0.2496   0.2496   0.0000   0.0000   0.0000

          k =-0.5000 0.5000 0.0000 (248312 PWs)   bands (ev):

   -14.3343  -6.3230  -4.0261  -4.0261  -0.4194   0.1325   0.1391

     occupation numbers 
     1.0000   1.0008   0.2496   0.2496   0.0000   0.0000   0.0000

     the Fermi energy is    -4.1936 ev

!    total energy              =      -7.66231327 Ry
     Harris-Foulkes estimate   =      -7.66231328 Ry
     estimated scf accuracy    <          5.2E-09 Ry

     The total energy is the sum of the following terms:

     one-electron contribution =     -16.66947855 Ry
     hartree contribution      =       8.68951122 Ry
     xc contribution           =      -3.13462212 Ry
     ewald contribution        =       3.48265834 Ry
     smearing contrib. (-TS)   =      -0.03038217 Ry

     convergence has been achieved in  11 iterations

     Forces acting on atoms (cartesian axes, Ry/au):

     atom    1 type  1   force =    -2.79172680    0.00000000    0.00000000
     atom    2 type  2   force =     2.79172680    0.00000000    0.00000000
     The non-local contrib.  to forces
     atom    1 type  1   force =    -2.72717228    0.00000000    0.00000000
     atom    2 type  2   force =     0.00000000    0.00000000    0.00000000
     The ionic contribution  to forces
     atom    1 type  1   force =    -3.58860301    0.00000000   -0.00000000
     atom    2 type  2   force =     3.58860301   -0.00000000   -0.00000000
     The local contribution  to forces
     atom    1 type  1   force =     3.52400362   -0.00000000   -0.00000000
     atom    2 type  2   force =    -0.79691972   -0.00000000   -0.00000000
     The core correction contribution to forces
     atom    1 type  1   force =     0.00000000    0.00000000    0.00000000
     atom    2 type  2   force =     0.00000000    0.00000000    0.00000000
     The Hubbard contrib.    to forces
     atom    1 type  1   force =     0.00000000    0.00000000    0.00000000
     atom    2 type  2   force =     0.00000000    0.00000000    0.00000000
     The SCF correction term to forces
     atom    1 type  1   force =    -0.00000658    0.00000000    0.00000000
     atom    2 type  2   force =    -0.00000794    0.00000000    0.00000000

     Total force =     3.948098     Total SCF correction =     0.000010


     Computing stress (Cartesian axis) and pressure

          total   stress  (Ry/bohr**3)                   (kbar)     P=    3.71
   0.00007666   0.00000000   0.00000000         11.28      0.00      0.00
   0.00000000  -0.00000054   0.00000000          0.00     -0.08      0.00
   0.00000000   0.00000000  -0.00000054          0.00      0.00     -0.08

     kinetic stress (kbar)     11.96      0.00      0.00
                                0.00      8.48      0.00
                                0.00      0.00      8.48

     local   stress (kbar)    -33.15     -0.00      0.00
                               -0.00    -18.62     -0.00
                                0.00     -0.00    -18.62

     nonloc. stress (kbar)     13.38      0.00      0.00
                                0.00      7.03      0.00
                                0.00      0.00      7.03

     hartree stress (kbar)      8.87      0.00      0.00
                                0.00      7.40      0.00
                                0.00      0.00      7.40

     exc-cor stress (kbar)     -2.70      0.00      0.00
                                0.00     -2.67     -0.00
                                0.00     -0.00     -2.67

     corecor stress (kbar)      0.00      0.00      0.00
                                0.00      0.00      0.00
                                0.00      0.00      0.00

     ewald   stress (kbar)     12.90      0.00     -0.00
                                0.00     -1.71     -0.00
                               -0.00     -0.00     -1.71

     hubbard stress (kbar)      0.00      0.00      0.00
                                0.00      0.00      0.00
                                0.00      0.00      0.00

     london  stress (kbar)      0.00      0.00      0.00
                                0.00      0.00      0.00
                                0.00      0.00      0.00

     DFT-D3  stress (kbar)      0.00      0.00      0.00
                                0.00      0.00      0.00
                                0.00      0.00      0.00

     XDM     stress (kbar)      0.00      0.00      0.00
                                0.00      0.00      0.00
                                0.00      0.00      0.00

     dft-nl  stress (kbar)      0.00      0.00      0.00
                                0.00      0.00      0.00
                                0.00      0.00      0.00

     TS-vdW  stress (kbar)      0.00      0.00      0.00
                                0.00      0.00      0.00
                                0.00      0.00      0.00



     Writing output data file SiH31.save

     init_run     :      3.31s CPU      3.44s WALL (       1 calls)
     electrons    :     70.97s CPU     73.31s WALL (       1 calls)
     forces       :      0.45s CPU      0.45s WALL (       1 calls)
     stress       :      1.88s CPU      1.96s WALL (       1 calls)

     Called by init_run:
     wfcinit      :      1.53s CPU      1.55s WALL (       1 calls)
     wfcinit:atom :      0.03s CPU      0.03s WALL (       6 calls)
     wfcinit:wfcr :      1.43s CPU      1.44s WALL (       6 calls)
     potinit      :      0.64s CPU      0.68s WALL (       1 calls)

     Called by electrons:
     c_bands      :     56.03s CPU     57.47s WALL (      11 calls)
     sum_band     :      9.59s CPU      9.63s WALL (      11 calls)
     v_of_rho     :      4.42s CPU      4.46s WALL (      12 calls)
     v_h          :      0.39s CPU      0.40s WALL (      12 calls)
     v_xc         :      4.02s CPU      4.06s WALL (      12 calls)
     mix_rho      :      1.03s CPU      1.10s WALL (      11 calls)

     Called by c_bands:
     init_us_2    :      0.88s CPU      0.88s WALL (     150 calls)
     cegterg      :     55.37s CPU     55.52s WALL (      66 calls)

     Called by sum_band:

     Called by *egterg:
     h_psi        :     53.11s CPU     53.23s WALL (     374 calls)
     g_psi        :      0.24s CPU      0.24s WALL (     302 calls)
     cdiaghg      :      0.06s CPU      0.06s WALL (     368 calls)
     cegterg:over :      1.24s CPU      1.25s WALL (     302 calls)
     cegterg:upda :      1.01s CPU      1.02s WALL (     302 calls)
     cegterg:last :      0.41s CPU      0.41s WALL (      89 calls)

     Called by h_psi:
     h_psi:pot    :     52.86s CPU     52.99s WALL (     374 calls)
     h_psi:calbec :      0.60s CPU      0.61s WALL (     374 calls)
     vloc_psi     :     52.04s CPU     52.16s WALL (     374 calls)
     add_vuspsi   :      0.22s CPU      0.22s WALL (     374 calls)

     General routines
     calbec       :      0.65s CPU      0.65s WALL (     404 calls)
     fft          :      3.84s CPU      3.86s WALL (     139 calls)
     fftw         :     54.27s CPU     54.38s WALL (    3656 calls)

     Parallel routines
     fft_scatt_xy :      6.67s CPU      6.69s WALL (    3795 calls)
     fft_scatt_yz :     17.38s CPU     17.41s WALL (    3795 calls)

     PWSCF        :  1m17.07s CPU     1m20.05s WALL


   This run was terminated on:  20:56:47   1Oct2020            

=------------------------------------------------------------------------------=
   JOB DONE.
=------------------------------------------------------------------------------=
