
     Program PWSCF v.6.2 (svn rev. 14038) starts on  1Oct2020 at 20:44:55 

     This program is part of the open-source Quantum ESPRESSO suite
     for quantum simulation of materials; please cite
         "P. Giannozzi et al., J. Phys.:Condens. Matter 21 395502 (2009);
         "P. Giannozzi et al., J. Phys.:Condens. Matter 29 465901 (2017);
          URL http://www.quantum-espresso.org", 
     in publications or presentations arising from this work. More details at
     http://www.quantum-espresso.org/quote

     Parallel version (MPI), running on     8 processors

     MPI processes distributed on     1 nodes
     R & G space division:  proc/nbgrp/npool/nimage =       8
     Waiting for input...
     Reading input from standard input

     Current dimensions of program PWSCF are:
     Max number of different atomic species (ntypx) = 10
     Max number of k-points (npk) =  40000
     Max angular momentum in pseudopotentials (lmaxx) =  3

     Subspace diagonalization in iterative solution of the eigenvalue problem:
     a serial algorithm will be used


     Parallelization info
     --------------------
     sticks:   dense  smooth     PW     G-vecs:    dense   smooth      PW
     Min        2386    2386    623               248152   248152   33108
     Max        2387    2387    625               248157   248157   33111
     Sum       19089   19089   4989              1985227  1985227  264875



     bravais-lattice index     =            1
     lattice parameter (alat)  =      37.7945  a.u.
     unit-cell volume          =   53986.6767 (a.u.)^3
     number of atoms/cell      =            2
     number of atomic types    =            2
     number of electrons       =         5.00
     number of Kohn-Sham states=            7
     kinetic-energy cutoff     =      42.0000  Ry
     charge density cutoff     =     168.0000  Ry
     convergence threshold     =      1.0E-08
     mixing beta               =       0.3000
     number of iterations used =            8  plain     mixing
     Exchange-correlation      = SLA-PW-PBX-PBC ( 1  4  3  4 0 0)

     celldm(1)=  37.794523  celldm(2)=   0.000000  celldm(3)=   0.000000
     celldm(4)=   0.000000  celldm(5)=   0.000000  celldm(6)=   0.000000

     crystal axes: (cart. coord. in units of alat)
               a(1) = (   1.000000   0.000000   0.000000 )  
               a(2) = (   0.000000   1.000000   0.000000 )  
               a(3) = (   0.000000   0.000000   1.000000 )  

     reciprocal axes: (cart. coord. in units 2 pi/alat)
               b(1) = (  1.000000  0.000000  0.000000 )  
               b(2) = (  0.000000  1.000000  0.000000 )  
               b(3) = (  0.000000  0.000000  1.000000 )  


     PseudoPot. # 1 for Si read from file:
     ./Si.pbe-hgh.UPF
     MD5 check sum: 9a9f0f6e09139bfdb36b03ff6bc35900
     Pseudo is Norm-conserving, Zval =  4.0
     Generated in analytical, separable form
     Using radial grid of 1141 points,  3 beta functions with: 
                l(1) =   0
                l(2) =   0
                l(3) =   1

     PseudoPot. # 2 for H  read from file:
     ./H.pbe-hgh.UPF
     MD5 check sum: 5f350582108a937bec95f27f5610ab08
     Pseudo is Norm-conserving, Zval =  1.0
     Generated in analytical, separable form
     Using radial grid of  929 points,  0 beta functions with: 

     atomic species   valence    mass     pseudopotential
        Si             4.00    28.08000     Si( 1.00)
        H              1.00     1.00784     H ( 1.00)

      8 Sym. Ops. (no inversion) found


                                    s                        frac. trans.

      isym =  1     identity                                     

 cryst.   s( 1) = (     1          0          0      )
                  (     0          1          0      )
                  (     0          0          1      )

 cart.    s( 1) = (  1.0000000  0.0000000  0.0000000 )
                  (  0.0000000  1.0000000  0.0000000 )
                  (  0.0000000  0.0000000  1.0000000 )


      isym =  2     180 deg rotation - cart. axis [1,0,0]        

 cryst.   s( 2) = (     1          0          0      )
                  (     0         -1          0      )
                  (     0          0         -1      )

 cart.    s( 2) = (  1.0000000  0.0000000  0.0000000 )
                  (  0.0000000 -1.0000000  0.0000000 )
                  (  0.0000000  0.0000000 -1.0000000 )


      isym =  3      90 deg rotation - cart. axis [-1,0,0]       

 cryst.   s( 3) = (     1          0          0      )
                  (     0          0         -1      )
                  (     0          1          0      )

 cart.    s( 3) = (  1.0000000  0.0000000  0.0000000 )
                  (  0.0000000  0.0000000  1.0000000 )
                  (  0.0000000 -1.0000000  0.0000000 )


      isym =  4      90 deg rotation - cart. axis [1,0,0]        

 cryst.   s( 4) = (     1          0          0      )
                  (     0          0          1      )
                  (     0         -1          0      )

 cart.    s( 4) = (  1.0000000  0.0000000  0.0000000 )
                  (  0.0000000  0.0000000 -1.0000000 )
                  (  0.0000000  1.0000000  0.0000000 )


      isym =  5     inv. 180 deg rotation - cart. axis [0,0,1]   

 cryst.   s( 5) = (     1          0          0      )
                  (     0          1          0      )
                  (     0          0         -1      )

 cart.    s( 5) = (  1.0000000  0.0000000  0.0000000 )
                  (  0.0000000  1.0000000  0.0000000 )
                  (  0.0000000  0.0000000 -1.0000000 )


      isym =  6     inv. 180 deg rotation - cart. axis [0,1,0]   

 cryst.   s( 6) = (     1          0          0      )
                  (     0         -1          0      )
                  (     0          0          1      )

 cart.    s( 6) = (  1.0000000  0.0000000  0.0000000 )
                  (  0.0000000 -1.0000000  0.0000000 )
                  (  0.0000000  0.0000000  1.0000000 )


      isym =  7     inv. 180 deg rotation - cart. axis [0,1,1]   

 cryst.   s( 7) = (     1          0          0      )
                  (     0          0         -1      )
                  (     0         -1          0      )

 cart.    s( 7) = (  1.0000000  0.0000000  0.0000000 )
                  (  0.0000000  0.0000000 -1.0000000 )
                  (  0.0000000 -1.0000000  0.0000000 )


      isym =  8     inv. 180 deg rotation - cart. axis [0,1,-1]  

 cryst.   s( 8) = (     1          0          0      )
                  (     0          0          1      )
                  (     0          1          0      )

 cart.    s( 8) = (  1.0000000  0.0000000  0.0000000 )
                  (  0.0000000  0.0000000  1.0000000 )
                  (  0.0000000  1.0000000  0.0000000 )


     point group C_4v (4mm) 
     there are  5 classes
     the character table:

       E     2C4   C2    2s_v  2s_d 
A_1    1.00  1.00  1.00  1.00  1.00
A_2    1.00  1.00  1.00 -1.00 -1.00
B_1    1.00 -1.00  1.00  1.00 -1.00
B_2    1.00 -1.00  1.00 -1.00  1.00
E      2.00  0.00 -2.00  0.00  0.00

     the symmetry operations in each class and the name of the first element:

     E        1
          identity                                               
     2C4      3    4
           90 deg rotation - cart. axis [-1,0,0]                 
     C2       2
          180 deg rotation - cart. axis [1,0,0]                  
     2s_v     5    6
          inv. 180 deg rotation - cart. axis [0,0,1]             
     2s_d     7    8
          inv. 180 deg rotation - cart. axis [0,1,1]             

   Cartesian axes

     site n.     atom                  positions (alat units)
         1           Si  tau(   1) = (   0.0000000   0.0000000   0.0000000  )
         2           H   tau(   2) = (   0.0460000   0.0000000   0.0000000  )

   Crystallographic axes

     site n.     atom                  positions (cryst. coord.)
         1           Si  tau(   1) = (  0.0000000  0.0000000  0.0000000  )
         2           H   tau(   2) = (  0.0460000  0.0000000  0.0000000  )

     number of k points=     6  Marzari-Vanderbilt smearing, width (Ry)=  0.0500
                       cart. coord. in units 2pi/alat
        k(    1) = (   0.0000000   0.0000000   0.0000000), wk =   0.2500000
        k(    2) = (   0.0000000   0.0000000  -0.5000000), wk =   0.5000000
        k(    3) = (   0.0000000  -0.5000000  -0.5000000), wk =   0.2500000
        k(    4) = (  -0.5000000  -0.5000000  -0.5000000), wk =   0.2500000
        k(    5) = (  -0.5000000   0.0000000   0.0000000), wk =   0.2500000
        k(    6) = (  -0.5000000   0.5000000   0.0000000), wk =   0.5000000

                       cryst. coord.
        k(    1) = (   0.0000000   0.0000000   0.0000000), wk =   0.2500000
        k(    2) = (   0.0000000   0.0000000  -0.5000000), wk =   0.5000000
        k(    3) = (   0.0000000  -0.5000000  -0.5000000), wk =   0.2500000
        k(    4) = (  -0.5000000  -0.5000000  -0.5000000), wk =   0.2500000
        k(    5) = (  -0.5000000   0.0000000   0.0000000), wk =   0.2500000
        k(    6) = (  -0.5000000   0.5000000   0.0000000), wk =   0.5000000

     Dense  grid:  1985227 G-vectors     FFT dimensions: ( 160, 160, 160)

     Dynamical RAM for                 wfc:       3.31 MB

     Dynamical RAM for     wfc (w. buffer):      23.19 MB

     Dynamical RAM for           str. fact:       7.57 MB

     Dynamical RAM for           local pot:       0.00 MB

     Dynamical RAM for          nlocal pot:       2.37 MB

     Dynamical RAM for                qrad:       2.14 MB

     Dynamical RAM for          rho,v,vnew:      23.08 MB

     Dynamical RAM for               rhoin:       7.69 MB

     Dynamical RAM for            rho*nmix:      60.58 MB

     Dynamical RAM for           G-vectors:      16.09 MB

     Dynamical RAM for          h,s,v(r/c):       0.04 MB

     Dynamical RAM for          <psi|beta>:       0.00 MB

     Dynamical RAM for                 psi:      13.25 MB

     Dynamical RAM for                hpsi:      13.25 MB

     Dynamical RAM for      wfcinit/wfcrot:       6.63 MB

     Estimated static dynamical RAM per process >     173.61 MB

     Estimated max dynamical RAM per process >     200.15 MB

     Estimated total dynamical RAM >       1.56 GB

     Initial potential from superposition of free atoms
     Check: negative starting charge=   -0.012378

     starting charge    4.99943, renormalised to    5.00000

     negative rho (up, down):  1.238E-02 0.000E+00
     Starting wfc are    5 randomized atomic wfcs +    2 random wfc

     total cpu time spent up to now is        3.5 secs

     Self-consistent Calculation

     iteration #  1     ecut=    42.00 Ry     beta= 0.30
     Davidson diagonalization with overlap
     ethr =  1.00E-02,  avg # of iterations =  5.0

     negative rho (up, down):  8.588E-03 0.000E+00

     total cpu time spent up to now is       10.9 secs

     total energy              =      -8.22547017 Ry
     Harris-Foulkes estimate   =      -8.31838717 Ry
     estimated scf accuracy    <       0.33306105 Ry

     iteration #  2     ecut=    42.00 Ry     beta= 0.30
     Davidson diagonalization with overlap
     ethr =  6.66E-03,  avg # of iterations =  1.0

     negative rho (up, down):  2.185E-03 0.000E+00

     total cpu time spent up to now is       14.9 secs

     total energy              =      -8.16776900 Ry
     Harris-Foulkes estimate   =      -8.23389210 Ry
     estimated scf accuracy    <       0.11881260 Ry

     iteration #  3     ecut=    42.00 Ry     beta= 0.30
     Davidson diagonalization with overlap
     ethr =  2.38E-03,  avg # of iterations =  2.0

     negative rho (up, down):  1.952E-03 0.000E+00

     total cpu time spent up to now is       19.7 secs

     total energy              =      -8.18786695 Ry
     Harris-Foulkes estimate   =      -8.18999127 Ry
     estimated scf accuracy    <       0.00550897 Ry

     iteration #  4     ecut=    42.00 Ry     beta= 0.30
     Davidson diagonalization with overlap
     ethr =  1.10E-04,  avg # of iterations = 11.7

     negative rho (up, down):  2.113E-04 0.000E+00

     total cpu time spent up to now is       28.6 secs

     total energy              =      -8.18785901 Ry
     Harris-Foulkes estimate   =      -8.18841358 Ry
     estimated scf accuracy    <       0.00166861 Ry

     iteration #  5     ecut=    42.00 Ry     beta= 0.30
     Davidson diagonalization with overlap
     ethr =  3.34E-05,  avg # of iterations =  4.0

     negative rho (up, down):  2.914E-04 0.000E+00

     total cpu time spent up to now is       34.4 secs

     total energy              =      -8.18808903 Ry
     Harris-Foulkes estimate   =      -8.18808727 Ry
     estimated scf accuracy    <       0.00007597 Ry

     iteration #  6     ecut=    42.00 Ry     beta= 0.30
     Davidson diagonalization with overlap
     c_bands:  1 eigenvalues not converged
     c_bands:  1 eigenvalues not converged
     ethr =  1.52E-06,  avg # of iterations = 16.7

     negative rho (up, down):  3.151E-05 0.000E+00

     total cpu time spent up to now is       44.9 secs

     total energy              =      -8.18803830 Ry
     Harris-Foulkes estimate   =      -8.18813881 Ry
     estimated scf accuracy    <       0.00017627 Ry

     iteration #  7     ecut=    42.00 Ry     beta= 0.30
     Davidson diagonalization with overlap
     ethr =  1.52E-06,  avg # of iterations =  4.0

     negative rho (up, down):  1.319E-05 0.000E+00

     total cpu time spent up to now is       50.5 secs

     total energy              =      -8.18807152 Ry
     Harris-Foulkes estimate   =      -8.18807190 Ry
     estimated scf accuracy    <       0.00000391 Ry

     iteration #  8     ecut=    42.00 Ry     beta= 0.30
     Davidson diagonalization with overlap
     ethr =  7.82E-08,  avg # of iterations =  2.0

     negative rho (up, down):  1.171E-07 0.000E+00

     total cpu time spent up to now is       55.2 secs

     total energy              =      -8.18807081 Ry
     Harris-Foulkes estimate   =      -8.18807202 Ry
     estimated scf accuracy    <       0.00000281 Ry

     iteration #  9     ecut=    42.00 Ry     beta= 0.30
     Davidson diagonalization with overlap
     ethr =  5.63E-08,  avg # of iterations =  3.7

     negative rho (up, down):  1.093E-06 0.000E+00

     total cpu time spent up to now is       63.7 secs

     total energy              =      -8.18807108 Ry
     Harris-Foulkes estimate   =      -8.18807113 Ry
     estimated scf accuracy    <       0.00000018 Ry

     iteration # 10     ecut=    42.00 Ry     beta= 0.30
     Davidson diagonalization with overlap
     ethr =  3.69E-09,  avg # of iterations =  2.0

     total cpu time spent up to now is       68.5 secs

     End of self-consistent calculation

          k = 0.0000 0.0000 0.0000 (248049 PWs)   bands (ev):

   -14.0642  -6.4268  -3.9924  -3.9924  -0.4018   0.0856   0.2656

     occupation numbers 
     1.0000   1.0003   0.2498   0.2498   0.0000   0.0000   0.0000

          k = 0.0000 0.0000-0.5000 (247982 PWs)   bands (ev):

   -14.0642  -6.4268  -3.9924  -3.9924  -0.3959   0.0675   0.1889

     occupation numbers 
     1.0000   1.0003   0.2498   0.2498   0.0000   0.0000   0.0000

          k = 0.0000-0.5000-0.5000 (248312 PWs)   bands (ev):

   -14.0644  -6.4268  -3.9924  -3.9924  -0.3907   0.1360   0.1364

     occupation numbers 
     1.0000   1.0003   0.2498   0.2498   0.0000   0.0000   0.0000

          k =-0.5000-0.5000-0.5000 (248296 PWs)   bands (ev):

   -14.0644  -6.4268  -3.9924  -3.9924  -0.3879   0.1869   0.1900

     occupation numbers 
     1.0000   1.0003   0.2498   0.2498   0.0000   0.0000   0.0000

          k =-0.5000 0.0000 0.0000 (247982 PWs)   bands (ev):

   -14.0642  -6.4268  -3.9924  -3.9924  -0.3978   0.0693   0.2080

     occupation numbers 
     1.0000   1.0003   0.2498   0.2498   0.0000   0.0000   0.0000

          k =-0.5000 0.5000 0.0000 (248312 PWs)   bands (ev):

   -14.0644  -6.4268  -3.9924  -3.9924  -0.3925   0.1326   0.1347

     occupation numbers 
     1.0000   1.0003   0.2498   0.2498   0.0000   0.0000   0.0000

     the Fermi energy is    -4.1595 ev

!    total energy              =      -8.18807112 Ry
     Harris-Foulkes estimate   =      -8.18807112 Ry
     estimated scf accuracy    <          1.4E-09 Ry

     The total energy is the sum of the following terms:

     one-electron contribution =     -16.28172439 Ry
     hartree contribution      =       8.46715118 Ry
     xc contribution           =      -3.06862709 Ry
     ewald contribution        =       2.72569047 Ry
     smearing contrib. (-TS)   =      -0.03056129 Ry

     convergence has been achieved in  10 iterations

     Forces acting on atoms (cartesian axes, Ry/au):

     atom    1 type  1   force =    -1.59177492    0.00000000    0.00000000
     atom    2 type  2   force =     1.59177492    0.00000000    0.00000000
     The non-local contrib.  to forces
     atom    1 type  1   force =    -1.65433594    0.00000000    0.00000000
     atom    2 type  2   force =     0.00000000    0.00000000    0.00000000
     The ionic contribution  to forces
     atom    1 type  1   force =    -2.64568646   -0.00000000   -0.00000000
     atom    2 type  2   force =     2.64568646    0.00000000   -0.00000000
     The local contribution  to forces
     atom    1 type  1   force =     2.70819519   -0.00000000   -0.00000000
     atom    2 type  2   force =    -1.05395165    0.00000000   -0.00000000
     The core correction contribution to forces
     atom    1 type  1   force =     0.00000000    0.00000000    0.00000000
     atom    2 type  2   force =     0.00000000    0.00000000    0.00000000
     The Hubbard contrib.    to forces
     atom    1 type  1   force =     0.00000000    0.00000000    0.00000000
     atom    2 type  2   force =     0.00000000    0.00000000    0.00000000
     The SCF correction term to forces
     atom    1 type  1   force =     0.00000681    0.00000000    0.00000000
     atom    2 type  2   force =    -0.00000538    0.00000000    0.00000000

     Total force =     2.251110     Total SCF correction =     0.000009


     Computing stress (Cartesian axis) and pressure

          total   stress  (Ry/bohr**3)                   (kbar)     P=    2.44
   0.00005072   0.00000000   0.00000000          7.46      0.00      0.00
   0.00000000  -0.00000046   0.00000000          0.00     -0.07      0.00
   0.00000000   0.00000000  -0.00000046          0.00      0.00     -0.07

     kinetic stress (kbar)     10.78      0.00      0.00
                                0.00      8.16      0.00
                                0.00      0.00      8.16

     local   stress (kbar)    -31.62     -0.00     -0.00
                               -0.00    -17.74      0.00
                               -0.00      0.00    -17.74

     nonloc. stress (kbar)     11.26      0.00      0.00
                                0.00      6.71      0.00
                                0.00      0.00      6.71

     hartree stress (kbar)      8.83     -0.00      0.00
                               -0.00      7.12     -0.00
                                0.00     -0.00      7.12

     exc-cor stress (kbar)     -2.62      0.00     -0.00
                                0.00     -2.61      0.00
                               -0.00      0.00     -2.61

     corecor stress (kbar)      0.00      0.00      0.00
                                0.00      0.00      0.00
                                0.00      0.00      0.00

     ewald   stress (kbar)     10.84     -0.00     -0.00
                               -0.00     -1.71     -0.00
                               -0.00     -0.00     -1.71

     hubbard stress (kbar)      0.00      0.00      0.00
                                0.00      0.00      0.00
                                0.00      0.00      0.00

     london  stress (kbar)      0.00      0.00      0.00
                                0.00      0.00      0.00
                                0.00      0.00      0.00

     DFT-D3  stress (kbar)      0.00      0.00      0.00
                                0.00      0.00      0.00
                                0.00      0.00      0.00

     XDM     stress (kbar)      0.00      0.00      0.00
                                0.00      0.00      0.00
                                0.00      0.00      0.00

     dft-nl  stress (kbar)      0.00      0.00      0.00
                                0.00      0.00      0.00
                                0.00      0.00      0.00

     TS-vdW  stress (kbar)      0.00      0.00      0.00
                                0.00      0.00      0.00
                                0.00      0.00      0.00



     Writing output data file SiH35.save

     init_run     :      3.15s CPU      3.30s WALL (       1 calls)
     electrons    :     61.39s CPU     65.23s WALL (       1 calls)
     forces       :      0.40s CPU      0.41s WALL (       1 calls)
     stress       :      1.84s CPU      1.93s WALL (       1 calls)

     Called by init_run:
     wfcinit      :      1.44s CPU      1.45s WALL (       1 calls)
     wfcinit:atom :      0.03s CPU      0.03s WALL (       6 calls)
     wfcinit:wfcr :      1.33s CPU      1.34s WALL (       6 calls)
     potinit      :      0.61s CPU      0.65s WALL (       1 calls)

     Called by electrons:
     c_bands      :     48.54s CPU     52.13s WALL (      10 calls)
     sum_band     :      8.25s CPU      8.28s WALL (      10 calls)
     v_of_rho     :      3.90s CPU      3.95s WALL (      11 calls)
     v_h          :      0.37s CPU      0.37s WALL (      11 calls)
     v_xc         :      3.53s CPU      3.58s WALL (      11 calls)
     mix_rho      :      0.83s CPU      0.91s WALL (      10 calls)

     Called by c_bands:
     init_us_2    :      0.81s CPU      0.82s WALL (     138 calls)
     cegterg      :     47.97s CPU     48.14s WALL (      60 calls)

     Called by sum_band:

     Called by *egterg:
     h_psi        :     45.75s CPU     45.90s WALL (     378 calls)
     g_psi        :      0.22s CPU      0.22s WALL (     312 calls)
     cdiaghg      :      0.06s CPU      0.06s WALL (     372 calls)
     cegterg:over :      1.23s CPU      1.23s WALL (     312 calls)
     cegterg:upda :      1.04s CPU      1.05s WALL (     312 calls)
     cegterg:last :      0.36s CPU      0.36s WALL (      78 calls)

     Called by h_psi:
     h_psi:pot    :     45.53s CPU     45.68s WALL (     378 calls)
     h_psi:calbec :      0.36s CPU      0.37s WALL (     378 calls)
     vloc_psi     :     44.95s CPU     45.09s WALL (     378 calls)
     add_vuspsi   :      0.21s CPU      0.22s WALL (     378 calls)

     General routines
     calbec       :      0.39s CPU      0.40s WALL (     408 calls)
     fft          :      3.33s CPU      3.36s WALL (     128 calls)
     fftw         :     45.83s CPU     45.96s WALL (    3370 calls)

     Parallel routines
     fft_scatt_xy :      6.83s CPU      6.85s WALL (    3498 calls)
     fft_scatt_yz :      9.79s CPU      9.82s WALL (    3498 calls)

     PWSCF        :  1m 7.23s CPU     1m11.81s WALL


   This run was terminated on:  20:46: 7   1Oct2020            

=------------------------------------------------------------------------------=
   JOB DONE.
=------------------------------------------------------------------------------=
