
     Program PWSCF v.6.2 (svn rev. 14038) starts on  1Oct2020 at 20:53:10 

     This program is part of the open-source Quantum ESPRESSO suite
     for quantum simulation of materials; please cite
         "P. Giannozzi et al., J. Phys.:Condens. Matter 21 395502 (2009);
         "P. Giannozzi et al., J. Phys.:Condens. Matter 29 465901 (2017);
          URL http://www.quantum-espresso.org", 
     in publications or presentations arising from this work. More details at
     http://www.quantum-espresso.org/quote

     Parallel version (MPI), running on     8 processors

     MPI processes distributed on     1 nodes
     R & G space division:  proc/nbgrp/npool/nimage =       8
     Waiting for input...
     Reading input from standard input

     Current dimensions of program PWSCF are:
     Max number of different atomic species (ntypx) = 10
     Max number of k-points (npk) =  40000
     Max angular momentum in pseudopotentials (lmaxx) =  3

     Subspace diagonalization in iterative solution of the eigenvalue problem:
     a serial algorithm will be used


     Parallelization info
     --------------------
     sticks:   dense  smooth     PW     G-vecs:    dense   smooth      PW
     Min        2386    2386    623               248152   248152   33108
     Max        2387    2387    625               248157   248157   33111
     Sum       19089   19089   4989              1985227  1985227  264875



     bravais-lattice index     =            1
     lattice parameter (alat)  =      37.7945  a.u.
     unit-cell volume          =   53986.6767 (a.u.)^3
     number of atoms/cell      =            2
     number of atomic types    =            2
     number of electrons       =         5.00
     number of Kohn-Sham states=            7
     kinetic-energy cutoff     =      42.0000  Ry
     charge density cutoff     =     168.0000  Ry
     convergence threshold     =      1.0E-08
     mixing beta               =       0.3000
     number of iterations used =            8  plain     mixing
     Exchange-correlation      = SLA-PW-PBX-PBC ( 1  4  3  4 0 0)

     celldm(1)=  37.794523  celldm(2)=   0.000000  celldm(3)=   0.000000
     celldm(4)=   0.000000  celldm(5)=   0.000000  celldm(6)=   0.000000

     crystal axes: (cart. coord. in units of alat)
               a(1) = (   1.000000   0.000000   0.000000 )  
               a(2) = (   0.000000   1.000000   0.000000 )  
               a(3) = (   0.000000   0.000000   1.000000 )  

     reciprocal axes: (cart. coord. in units 2 pi/alat)
               b(1) = (  1.000000  0.000000  0.000000 )  
               b(2) = (  0.000000  1.000000  0.000000 )  
               b(3) = (  0.000000  0.000000  1.000000 )  


     PseudoPot. # 1 for Si read from file:
     ./Si.pbe-hgh.UPF
     MD5 check sum: 9a9f0f6e09139bfdb36b03ff6bc35900
     Pseudo is Norm-conserving, Zval =  4.0
     Generated in analytical, separable form
     Using radial grid of 1141 points,  3 beta functions with: 
                l(1) =   0
                l(2) =   0
                l(3) =   1

     PseudoPot. # 2 for H  read from file:
     ./H.pbe-hgh.UPF
     MD5 check sum: 5f350582108a937bec95f27f5610ab08
     Pseudo is Norm-conserving, Zval =  1.0
     Generated in analytical, separable form
     Using radial grid of  929 points,  0 beta functions with: 

     atomic species   valence    mass     pseudopotential
        Si             4.00    28.08000     Si( 1.00)
        H              1.00     1.00784     H ( 1.00)

      8 Sym. Ops. (no inversion) found


                                    s                        frac. trans.

      isym =  1     identity                                     

 cryst.   s( 1) = (     1          0          0      )
                  (     0          1          0      )
                  (     0          0          1      )

 cart.    s( 1) = (  1.0000000  0.0000000  0.0000000 )
                  (  0.0000000  1.0000000  0.0000000 )
                  (  0.0000000  0.0000000  1.0000000 )


      isym =  2     180 deg rotation - cart. axis [1,0,0]        

 cryst.   s( 2) = (     1          0          0      )
                  (     0         -1          0      )
                  (     0          0         -1      )

 cart.    s( 2) = (  1.0000000  0.0000000  0.0000000 )
                  (  0.0000000 -1.0000000  0.0000000 )
                  (  0.0000000  0.0000000 -1.0000000 )


      isym =  3      90 deg rotation - cart. axis [-1,0,0]       

 cryst.   s( 3) = (     1          0          0      )
                  (     0          0         -1      )
                  (     0          1          0      )

 cart.    s( 3) = (  1.0000000  0.0000000  0.0000000 )
                  (  0.0000000  0.0000000  1.0000000 )
                  (  0.0000000 -1.0000000  0.0000000 )


      isym =  4      90 deg rotation - cart. axis [1,0,0]        

 cryst.   s( 4) = (     1          0          0      )
                  (     0          0          1      )
                  (     0         -1          0      )

 cart.    s( 4) = (  1.0000000  0.0000000  0.0000000 )
                  (  0.0000000  0.0000000 -1.0000000 )
                  (  0.0000000  1.0000000  0.0000000 )


      isym =  5     inv. 180 deg rotation - cart. axis [0,0,1]   

 cryst.   s( 5) = (     1          0          0      )
                  (     0          1          0      )
                  (     0          0         -1      )

 cart.    s( 5) = (  1.0000000  0.0000000  0.0000000 )
                  (  0.0000000  1.0000000  0.0000000 )
                  (  0.0000000  0.0000000 -1.0000000 )


      isym =  6     inv. 180 deg rotation - cart. axis [0,1,0]   

 cryst.   s( 6) = (     1          0          0      )
                  (     0         -1          0      )
                  (     0          0          1      )

 cart.    s( 6) = (  1.0000000  0.0000000  0.0000000 )
                  (  0.0000000 -1.0000000  0.0000000 )
                  (  0.0000000  0.0000000  1.0000000 )


      isym =  7     inv. 180 deg rotation - cart. axis [0,1,1]   

 cryst.   s( 7) = (     1          0          0      )
                  (     0          0         -1      )
                  (     0         -1          0      )

 cart.    s( 7) = (  1.0000000  0.0000000  0.0000000 )
                  (  0.0000000  0.0000000 -1.0000000 )
                  (  0.0000000 -1.0000000  0.0000000 )


      isym =  8     inv. 180 deg rotation - cart. axis [0,1,-1]  

 cryst.   s( 8) = (     1          0          0      )
                  (     0          0          1      )
                  (     0          1          0      )

 cart.    s( 8) = (  1.0000000  0.0000000  0.0000000 )
                  (  0.0000000  0.0000000  1.0000000 )
                  (  0.0000000  1.0000000  0.0000000 )


     point group C_4v (4mm) 
     there are  5 classes
     the character table:

       E     2C4   C2    2s_v  2s_d 
A_1    1.00  1.00  1.00  1.00  1.00
A_2    1.00  1.00  1.00 -1.00 -1.00
B_1    1.00 -1.00  1.00  1.00 -1.00
B_2    1.00 -1.00  1.00 -1.00  1.00
E      2.00  0.00 -2.00  0.00  0.00

     the symmetry operations in each class and the name of the first element:

     E        1
          identity                                               
     2C4      3    4
           90 deg rotation - cart. axis [-1,0,0]                 
     C2       2
          180 deg rotation - cart. axis [1,0,0]                  
     2s_v     5    6
          inv. 180 deg rotation - cart. axis [0,0,1]             
     2s_d     7    8
          inv. 180 deg rotation - cart. axis [0,1,1]             

   Cartesian axes

     site n.     atom                  positions (alat units)
         1           Si  tau(   1) = (   0.0000000   0.0000000   0.0000000  )
         2           H   tau(   2) = (   0.0410000   0.0000000   0.0000000  )

   Crystallographic axes

     site n.     atom                  positions (cryst. coord.)
         1           Si  tau(   1) = (  0.0000000  0.0000000  0.0000000  )
         2           H   tau(   2) = (  0.0410000  0.0000000  0.0000000  )

     number of k points=     6  Marzari-Vanderbilt smearing, width (Ry)=  0.0500
                       cart. coord. in units 2pi/alat
        k(    1) = (   0.0000000   0.0000000   0.0000000), wk =   0.2500000
        k(    2) = (   0.0000000   0.0000000  -0.5000000), wk =   0.5000000
        k(    3) = (   0.0000000  -0.5000000  -0.5000000), wk =   0.2500000
        k(    4) = (  -0.5000000  -0.5000000  -0.5000000), wk =   0.2500000
        k(    5) = (  -0.5000000   0.0000000   0.0000000), wk =   0.2500000
        k(    6) = (  -0.5000000   0.5000000   0.0000000), wk =   0.5000000

                       cryst. coord.
        k(    1) = (   0.0000000   0.0000000   0.0000000), wk =   0.2500000
        k(    2) = (   0.0000000   0.0000000  -0.5000000), wk =   0.5000000
        k(    3) = (   0.0000000  -0.5000000  -0.5000000), wk =   0.2500000
        k(    4) = (  -0.5000000  -0.5000000  -0.5000000), wk =   0.2500000
        k(    5) = (  -0.5000000   0.0000000   0.0000000), wk =   0.2500000
        k(    6) = (  -0.5000000   0.5000000   0.0000000), wk =   0.5000000

     Dense  grid:  1985227 G-vectors     FFT dimensions: ( 160, 160, 160)

     Dynamical RAM for                 wfc:       3.31 MB

     Dynamical RAM for     wfc (w. buffer):      23.19 MB

     Dynamical RAM for           str. fact:       7.57 MB

     Dynamical RAM for           local pot:       0.00 MB

     Dynamical RAM for          nlocal pot:       2.37 MB

     Dynamical RAM for                qrad:       2.14 MB

     Dynamical RAM for          rho,v,vnew:      23.08 MB

     Dynamical RAM for               rhoin:       7.69 MB

     Dynamical RAM for            rho*nmix:      60.58 MB

     Dynamical RAM for           G-vectors:      16.09 MB

     Dynamical RAM for          h,s,v(r/c):       0.04 MB

     Dynamical RAM for          <psi|beta>:       0.00 MB

     Dynamical RAM for                 psi:      13.25 MB

     Dynamical RAM for                hpsi:      13.25 MB

     Dynamical RAM for      wfcinit/wfcrot:       6.63 MB

     Estimated static dynamical RAM per process >     173.61 MB

     Estimated max dynamical RAM per process >     200.15 MB

     Estimated total dynamical RAM >       1.56 GB

     Initial potential from superposition of free atoms
     Check: negative starting charge=   -0.012389

     starting charge    4.99943, renormalised to    5.00000

     negative rho (up, down):  1.239E-02 0.000E+00
     Starting wfc are    5 randomized atomic wfcs +    2 random wfc

     total cpu time spent up to now is        3.5 secs

     Self-consistent Calculation

     iteration #  1     ecut=    42.00 Ry     beta= 0.30
     Davidson diagonalization with overlap
     ethr =  1.00E-02,  avg # of iterations =  5.0

     negative rho (up, down):  8.597E-03 0.000E+00

     total cpu time spent up to now is       10.8 secs

     total energy              =      -7.85508400 Ry
     Harris-Foulkes estimate   =      -7.96693467 Ry
     estimated scf accuracy    <       0.40343536 Ry

     iteration #  2     ecut=    42.00 Ry     beta= 0.30
     Davidson diagonalization with overlap
     ethr =  8.07E-03,  avg # of iterations =  1.0

     negative rho (up, down):  2.232E-03 0.000E+00

     total cpu time spent up to now is       15.0 secs

     total energy              =      -7.78504891 Ry
     Harris-Foulkes estimate   =      -7.86531505 Ry
     estimated scf accuracy    <       0.14297263 Ry

     iteration #  3     ecut=    42.00 Ry     beta= 0.30
     Davidson diagonalization with overlap
     ethr =  2.86E-03,  avg # of iterations =  2.0

     negative rho (up, down):  2.023E-03 0.000E+00

     total cpu time spent up to now is       20.2 secs

     total energy              =      -7.81020774 Ry
     Harris-Foulkes estimate   =      -7.81367691 Ry
     estimated scf accuracy    <       0.00773679 Ry

     iteration #  4     ecut=    42.00 Ry     beta= 0.30
     Davidson diagonalization with overlap
     ethr =  1.55E-04,  avg # of iterations =  9.2

     negative rho (up, down):  2.067E-04 0.000E+00

     total cpu time spent up to now is       28.2 secs

     total energy              =      -7.81071547 Ry
     Harris-Foulkes estimate   =      -7.81133941 Ry
     estimated scf accuracy    <       0.00193183 Ry

     iteration #  5     ecut=    42.00 Ry     beta= 0.30
     Davidson diagonalization with overlap
     ethr =  3.86E-05,  avg # of iterations =  5.3

     negative rho (up, down):  3.114E-04 0.000E+00

     total cpu time spent up to now is       34.7 secs

     total energy              =      -7.81095528 Ry
     Harris-Foulkes estimate   =      -7.81092997 Ry
     estimated scf accuracy    <       0.00009699 Ry

     iteration #  6     ecut=    42.00 Ry     beta= 0.30
     Davidson diagonalization with overlap
     c_bands:  1 eigenvalues not converged
     ethr =  1.94E-06,  avg # of iterations = 14.7

     negative rho (up, down):  1.955E-05 0.000E+00

     total cpu time spent up to now is       47.9 secs

     total energy              =      -7.81080724 Ry
     Harris-Foulkes estimate   =      -7.81110257 Ry
     estimated scf accuracy    <       0.00045847 Ry

     iteration #  7     ecut=    42.00 Ry     beta= 0.30
     Davidson diagonalization with overlap
     ethr =  1.94E-06,  avg # of iterations =  7.0

     negative rho (up, down):  1.513E-05 0.000E+00

     total cpu time spent up to now is       55.4 secs

     total energy              =      -7.81090968 Ry
     Harris-Foulkes estimate   =      -7.81091711 Ry
     estimated scf accuracy    <       0.00001421 Ry

     iteration #  8     ecut=    42.00 Ry     beta= 0.30
     Davidson diagonalization with overlap
     ethr =  2.84E-07,  avg # of iterations =  2.0

     negative rho (up, down):  3.037E-07 0.000E+00

     total cpu time spent up to now is       62.4 secs

     total energy              =      -7.81091161 Ry
     Harris-Foulkes estimate   =      -7.81091186 Ry
     estimated scf accuracy    <       0.00000077 Ry

     iteration #  9     ecut=    42.00 Ry     beta= 0.30
     Davidson diagonalization with overlap
     ethr =  1.53E-08,  avg # of iterations =  3.0

     negative rho (up, down):  1.459E-07 0.000E+00

     total cpu time spent up to now is       67.4 secs

     total energy              =      -7.81091179 Ry
     Harris-Foulkes estimate   =      -7.81091182 Ry
     estimated scf accuracy    <       0.00000014 Ry

     iteration # 10     ecut=    42.00 Ry     beta= 0.30
     Davidson diagonalization with overlap
     ethr =  2.85E-09,  avg # of iterations =  1.0

     total cpu time spent up to now is       71.5 secs

     total energy              =      -7.81091176 Ry
     Harris-Foulkes estimate   =      -7.81091180 Ry
     estimated scf accuracy    <       0.00000007 Ry

     iteration # 11     ecut=    42.00 Ry     beta= 0.30
     Davidson diagonalization with overlap
     ethr =  1.39E-09,  avg # of iterations =  2.0

     total cpu time spent up to now is       75.6 secs

     End of self-consistent calculation

          k = 0.0000 0.0000 0.0000 (248049 PWs)   bands (ev):

   -14.2956  -6.3486  -4.0166  -4.0166  -0.4217   0.0824   0.2696

     occupation numbers 
     1.0000   1.0006   0.2497   0.2497   0.0000   0.0000   0.0000

          k = 0.0000 0.0000-0.5000 (247982 PWs)   bands (ev):

   -14.2956  -6.3486  -4.0166  -4.0166  -0.4165   0.0690   0.1847

     occupation numbers 
     1.0000   1.0006   0.2497   0.2497   0.0000   0.0000   0.0000

          k = 0.0000-0.5000-0.5000 (248312 PWs)   bands (ev):

   -14.2957  -6.3486  -4.0166  -4.0166  -0.4119   0.1364   0.1376

     occupation numbers 
     1.0000   1.0006   0.2497   0.2497   0.0000   0.0000   0.0000

          k =-0.5000-0.5000-0.5000 (248296 PWs)   bands (ev):

   -14.2958  -6.3486  -4.0166  -4.0166  -0.4095   0.1884   0.1888

     occupation numbers 
     1.0000   1.0006   0.2497   0.2497   0.0000   0.0000   0.0000

          k =-0.5000 0.0000 0.0000 (247982 PWs)   bands (ev):

   -14.2956  -6.3486  -4.0166  -4.0166  -0.4183   0.0723   0.2021

     occupation numbers 
     1.0000   1.0006   0.2497   0.2497   0.0000   0.0000   0.0000

          k =-0.5000 0.5000 0.0000 (248312 PWs)   bands (ev):

   -14.2958  -6.3486  -4.0166  -4.0166  -0.4137   0.1320   0.1367

     occupation numbers 
     1.0000   1.0006   0.2497   0.2497   0.0000   0.0000   0.0000

     the Fermi energy is    -4.1839 ev

!    total energy              =      -7.81091175 Ry
     Harris-Foulkes estimate   =      -7.81091176 Ry
     estimated scf accuracy    <          3.3E-09 Ry

     The total energy is the sum of the following terms:

     one-electron contribution =     -16.58768017 Ry
     hartree contribution      =       8.64091844 Ry
     xc contribution           =      -3.12036694 Ry
     ewald contribution        =       3.28666006 Ry
     smearing contrib. (-TS)   =      -0.03044315 Ry

     convergence has been achieved in  11 iterations

     Forces acting on atoms (cartesian axes, Ry/au):

     atom    1 type  1   force =    -2.45734898    0.00000000    0.00000000
     atom    2 type  2   force =     2.45734898    0.00000000    0.00000000
     The non-local contrib.  to forces
     atom    1 type  1   force =    -2.44538198    0.00000000    0.00000000
     atom    2 type  2   force =     0.00000000    0.00000000    0.00000000
     The ionic contribution  to forces
     atom    1 type  1   force =    -3.33072304    0.00000000   -0.00000000
     atom    2 type  2   force =     3.33072304   -0.00000000   -0.00000000
     The local contribution  to forces
     atom    1 type  1   force =     3.31876449    0.00000000   -0.00000000
     atom    2 type  2   force =    -0.87339779    0.00000000   -0.00000000
     The core correction contribution to forces
     atom    1 type  1   force =     0.00000000    0.00000000    0.00000000
     atom    2 type  2   force =     0.00000000    0.00000000    0.00000000
     The Hubbard contrib.    to forces
     atom    1 type  1   force =     0.00000000    0.00000000    0.00000000
     atom    2 type  2   force =     0.00000000    0.00000000    0.00000000
     The SCF correction term to forces
     atom    1 type  1   force =    -0.00004511    0.00000000    0.00000000
     atom    2 type  2   force =    -0.00001293    0.00000000    0.00000000

     Total force =     3.475216     Total SCF correction =     0.000047


     Computing stress (Cartesian axis) and pressure

          total   stress  (Ry/bohr**3)                   (kbar)     P=    3.38
   0.00006997   0.00000000   0.00000000         10.29      0.00      0.00
   0.00000000  -0.00000052   0.00000000          0.00     -0.08      0.00
   0.00000000   0.00000000  -0.00000052          0.00      0.00     -0.08

     kinetic stress (kbar)     11.68      0.00      0.00
                                0.00      8.41      0.00
                                0.00      0.00      8.41

     local   stress (kbar)    -32.78     -0.00      0.00
                               -0.00    -18.41      0.00
                                0.00      0.00    -18.41

     nonloc. stress (kbar)     12.84      0.00      0.00
                                0.00      6.95      0.00
                                0.00      0.00      6.95

     hartree stress (kbar)      8.86      0.00     -0.00
                                0.00      7.34     -0.00
                               -0.00     -0.00      7.34

     exc-cor stress (kbar)     -2.68     -0.00      0.00
                               -0.00     -2.66      0.00
                                0.00      0.00     -2.66

     corecor stress (kbar)      0.00      0.00      0.00
                                0.00      0.00      0.00
                                0.00      0.00      0.00

     ewald   stress (kbar)     12.37      0.00     -0.00
                                0.00     -1.71     -0.00
                               -0.00     -0.00     -1.71

     hubbard stress (kbar)      0.00      0.00      0.00
                                0.00      0.00      0.00
                                0.00      0.00      0.00

     london  stress (kbar)      0.00      0.00      0.00
                                0.00      0.00      0.00
                                0.00      0.00      0.00

     DFT-D3  stress (kbar)      0.00      0.00      0.00
                                0.00      0.00      0.00
                                0.00      0.00      0.00

     XDM     stress (kbar)      0.00      0.00      0.00
                                0.00      0.00      0.00
                                0.00      0.00      0.00

     dft-nl  stress (kbar)      0.00      0.00      0.00
                                0.00      0.00      0.00
                                0.00      0.00      0.00

     TS-vdW  stress (kbar)      0.00      0.00      0.00
                                0.00      0.00      0.00
                                0.00      0.00      0.00



     Writing output data file SiH32.save

     init_run     :      3.18s CPU      3.33s WALL (       1 calls)
     electrons    :     68.24s CPU     72.49s WALL (       1 calls)
     forces       :      0.41s CPU      0.42s WALL (       1 calls)
     stress       :      1.84s CPU      1.92s WALL (       1 calls)

     Called by init_run:
     wfcinit      :      1.43s CPU      1.45s WALL (       1 calls)
     wfcinit:atom :      0.03s CPU      0.03s WALL (       6 calls)
     wfcinit:wfcr :      1.33s CPU      1.35s WALL (       6 calls)
     potinit      :      0.62s CPU      0.66s WALL (       1 calls)

     Called by electrons:
     c_bands      :     53.88s CPU     57.74s WALL (      11 calls)
     sum_band     :      9.19s CPU      9.22s WALL (      11 calls)
     v_of_rho     :      4.32s CPU      4.37s WALL (      12 calls)
     v_h          :      0.40s CPU      0.41s WALL (      12 calls)
     v_xc         :      3.92s CPU      3.96s WALL (      12 calls)
     mix_rho      :      0.96s CPU      1.05s WALL (      11 calls)

     Called by c_bands:
     init_us_2    :      0.87s CPU      0.88s WALL (     150 calls)
     cegterg      :     53.25s CPU     53.39s WALL (      66 calls)

     Called by sum_band:

     Called by *egterg:
     h_psi        :     50.82s CPU     50.95s WALL (     385 calls)
     g_psi        :      0.23s CPU      0.23s WALL (     313 calls)
     cdiaghg      :      0.06s CPU      0.06s WALL (     379 calls)
     cegterg:over :      1.27s CPU      1.27s WALL (     313 calls)
     cegterg:upda :      1.05s CPU      1.06s WALL (     313 calls)
     cegterg:last :      0.42s CPU      0.42s WALL (      89 calls)

     Called by h_psi:
     h_psi:pot    :     50.58s CPU     50.70s WALL (     385 calls)
     h_psi:calbec :      0.42s CPU      0.42s WALL (     385 calls)
     vloc_psi     :     49.94s CPU     50.06s WALL (     385 calls)
     add_vuspsi   :      0.21s CPU      0.22s WALL (     385 calls)

     General routines
     calbec       :      0.45s CPU      0.46s WALL (     415 calls)
     fft          :      3.69s CPU      3.73s WALL (     139 calls)
     fftw         :     51.07s CPU     51.18s WALL (    3642 calls)

     Parallel routines
     fft_scatt_xy :      7.45s CPU      7.46s WALL (    3781 calls)
     fft_scatt_yz :     11.03s CPU     11.07s WALL (    3781 calls)

     PWSCF        :  1m14.13s CPU     1m19.07s WALL


   This run was terminated on:  20:54:29   1Oct2020            

=------------------------------------------------------------------------------=
   JOB DONE.
=------------------------------------------------------------------------------=
