
     Program PWSCF v.6.2 (svn rev. 14038) starts on  1Oct2020 at  8: 3:48 

     This program is part of the open-source Quantum ESPRESSO suite
     for quantum simulation of materials; please cite
         "P. Giannozzi et al., J. Phys.:Condens. Matter 21 395502 (2009);
         "P. Giannozzi et al., J. Phys.:Condens. Matter 29 465901 (2017);
          URL http://www.quantum-espresso.org", 
     in publications or presentations arising from this work. More details at
     http://www.quantum-espresso.org/quote

     Parallel version (MPI), running on     8 processors

     MPI processes distributed on     1 nodes
     R & G space division:  proc/nbgrp/npool/nimage =       8
     Waiting for input...
     Reading input from standard input

     Current dimensions of program PWSCF are:
     Max number of different atomic species (ntypx) = 10
     Max number of k-points (npk) =  40000
     Max angular momentum in pseudopotentials (lmaxx) =  3

     Subspace diagonalization in iterative solution of the eigenvalue problem:
     a serial algorithm will be used


     Parallelization info
     --------------------
     sticks:   dense  smooth     PW     G-vecs:    dense   smooth      PW
     Min        2386    2386    623               248152   248152   33108
     Max        2387    2387    625               248157   248157   33111
     Sum       19089   19089   4989              1985227  1985227  264875



     bravais-lattice index     =            1
     lattice parameter (alat)  =      37.7945  a.u.
     unit-cell volume          =   53986.6767 (a.u.)^3
     number of atoms/cell      =            2
     number of atomic types    =            2
     number of electrons       =         5.00
     number of Kohn-Sham states=            7
     kinetic-energy cutoff     =      42.0000  Ry
     charge density cutoff     =     168.0000  Ry
     convergence threshold     =      1.0E-08
     mixing beta               =       0.3000
     number of iterations used =            8  plain     mixing
     Exchange-correlation      = SLA-PW-PBX-PBC ( 1  4  3  4 0 0)

     celldm(1)=  37.794523  celldm(2)=   0.000000  celldm(3)=   0.000000
     celldm(4)=   0.000000  celldm(5)=   0.000000  celldm(6)=   0.000000

     crystal axes: (cart. coord. in units of alat)
               a(1) = (   1.000000   0.000000   0.000000 )  
               a(2) = (   0.000000   1.000000   0.000000 )  
               a(3) = (   0.000000   0.000000   1.000000 )  

     reciprocal axes: (cart. coord. in units 2 pi/alat)
               b(1) = (  1.000000  0.000000  0.000000 )  
               b(2) = (  0.000000  1.000000  0.000000 )  
               b(3) = (  0.000000  0.000000  1.000000 )  


     PseudoPot. # 1 for Si read from file:
     ./Si.pbe-hgh.UPF
     MD5 check sum: 9a9f0f6e09139bfdb36b03ff6bc35900
     Pseudo is Norm-conserving, Zval =  4.0
     Generated in analytical, separable form
     Using radial grid of 1141 points,  3 beta functions with: 
                l(1) =   0
                l(2) =   0
                l(3) =   1

     PseudoPot. # 2 for H  read from file:
     ./H.pbe-hgh.UPF
     MD5 check sum: 5f350582108a937bec95f27f5610ab08
     Pseudo is Norm-conserving, Zval =  1.0
     Generated in analytical, separable form
     Using radial grid of  929 points,  0 beta functions with: 

     atomic species   valence    mass     pseudopotential
        Si             4.00    28.08000     Si( 1.00)
        H              1.00     1.00784     H ( 1.00)

      8 Sym. Ops. (no inversion) found


                                    s                        frac. trans.

      isym =  1     identity                                     

 cryst.   s( 1) = (     1          0          0      )
                  (     0          1          0      )
                  (     0          0          1      )

 cart.    s( 1) = (  1.0000000  0.0000000  0.0000000 )
                  (  0.0000000  1.0000000  0.0000000 )
                  (  0.0000000  0.0000000  1.0000000 )


      isym =  2     180 deg rotation - cart. axis [1,0,0]        

 cryst.   s( 2) = (     1          0          0      )
                  (     0         -1          0      )
                  (     0          0         -1      )

 cart.    s( 2) = (  1.0000000  0.0000000  0.0000000 )
                  (  0.0000000 -1.0000000  0.0000000 )
                  (  0.0000000  0.0000000 -1.0000000 )


      isym =  3      90 deg rotation - cart. axis [-1,0,0]       

 cryst.   s( 3) = (     1          0          0      )
                  (     0          0         -1      )
                  (     0          1          0      )

 cart.    s( 3) = (  1.0000000  0.0000000  0.0000000 )
                  (  0.0000000  0.0000000  1.0000000 )
                  (  0.0000000 -1.0000000  0.0000000 )


      isym =  4      90 deg rotation - cart. axis [1,0,0]        

 cryst.   s( 4) = (     1          0          0      )
                  (     0          0          1      )
                  (     0         -1          0      )

 cart.    s( 4) = (  1.0000000  0.0000000  0.0000000 )
                  (  0.0000000  0.0000000 -1.0000000 )
                  (  0.0000000  1.0000000  0.0000000 )


      isym =  5     inv. 180 deg rotation - cart. axis [0,0,1]   

 cryst.   s( 5) = (     1          0          0      )
                  (     0          1          0      )
                  (     0          0         -1      )

 cart.    s( 5) = (  1.0000000  0.0000000  0.0000000 )
                  (  0.0000000  1.0000000  0.0000000 )
                  (  0.0000000  0.0000000 -1.0000000 )


      isym =  6     inv. 180 deg rotation - cart. axis [0,1,0]   

 cryst.   s( 6) = (     1          0          0      )
                  (     0         -1          0      )
                  (     0          0          1      )

 cart.    s( 6) = (  1.0000000  0.0000000  0.0000000 )
                  (  0.0000000 -1.0000000  0.0000000 )
                  (  0.0000000  0.0000000  1.0000000 )


      isym =  7     inv. 180 deg rotation - cart. axis [0,1,1]   

 cryst.   s( 7) = (     1          0          0      )
                  (     0          0         -1      )
                  (     0         -1          0      )

 cart.    s( 7) = (  1.0000000  0.0000000  0.0000000 )
                  (  0.0000000  0.0000000 -1.0000000 )
                  (  0.0000000 -1.0000000  0.0000000 )


      isym =  8     inv. 180 deg rotation - cart. axis [0,1,-1]  

 cryst.   s( 8) = (     1          0          0      )
                  (     0          0          1      )
                  (     0          1          0      )

 cart.    s( 8) = (  1.0000000  0.0000000  0.0000000 )
                  (  0.0000000  0.0000000  1.0000000 )
                  (  0.0000000  1.0000000  0.0000000 )


     point group C_4v (4mm) 
     there are  5 classes
     the character table:

       E     2C4   C2    2s_v  2s_d 
A_1    1.00  1.00  1.00  1.00  1.00
A_2    1.00  1.00  1.00 -1.00 -1.00
B_1    1.00 -1.00  1.00  1.00 -1.00
B_2    1.00 -1.00  1.00 -1.00  1.00
E      2.00  0.00 -2.00  0.00  0.00

     the symmetry operations in each class and the name of the first element:

     E        1
          identity                                               
     2C4      3    4
           90 deg rotation - cart. axis [-1,0,0]                 
     C2       2
          180 deg rotation - cart. axis [1,0,0]                  
     2s_v     5    6
          inv. 180 deg rotation - cart. axis [0,0,1]             
     2s_d     7    8
          inv. 180 deg rotation - cart. axis [0,1,1]             

   Cartesian axes

     site n.     atom                  positions (alat units)
         1           Si  tau(   1) = (   0.0000000   0.0000000   0.0000000  )
         2           H   tau(   2) = (   0.0500000   0.0000000   0.0000000  )

   Crystallographic axes

     site n.     atom                  positions (cryst. coord.)
         1           Si  tau(   1) = (  0.0000000  0.0000000  0.0000000  )
         2           H   tau(   2) = (  0.0500000  0.0000000  0.0000000  )

     number of k points=     6  Marzari-Vanderbilt smearing, width (Ry)=  0.0500
                       cart. coord. in units 2pi/alat
        k(    1) = (   0.0000000   0.0000000   0.0000000), wk =   0.2500000
        k(    2) = (   0.0000000   0.0000000  -0.5000000), wk =   0.5000000
        k(    3) = (   0.0000000  -0.5000000  -0.5000000), wk =   0.2500000
        k(    4) = (  -0.5000000  -0.5000000  -0.5000000), wk =   0.2500000
        k(    5) = (  -0.5000000   0.0000000   0.0000000), wk =   0.2500000
        k(    6) = (  -0.5000000   0.5000000   0.0000000), wk =   0.5000000

                       cryst. coord.
        k(    1) = (   0.0000000   0.0000000   0.0000000), wk =   0.2500000
        k(    2) = (   0.0000000   0.0000000  -0.5000000), wk =   0.5000000
        k(    3) = (   0.0000000  -0.5000000  -0.5000000), wk =   0.2500000
        k(    4) = (  -0.5000000  -0.5000000  -0.5000000), wk =   0.2500000
        k(    5) = (  -0.5000000   0.0000000   0.0000000), wk =   0.2500000
        k(    6) = (  -0.5000000   0.5000000   0.0000000), wk =   0.5000000

     Dense  grid:  1985227 G-vectors     FFT dimensions: ( 160, 160, 160)

     Dynamical RAM for                 wfc:       3.31 MB

     Dynamical RAM for     wfc (w. buffer):      23.19 MB

     Dynamical RAM for           str. fact:       7.57 MB

     Dynamical RAM for           local pot:       0.00 MB

     Dynamical RAM for          nlocal pot:       2.37 MB

     Dynamical RAM for                qrad:       2.14 MB

     Dynamical RAM for          rho,v,vnew:      23.08 MB

     Dynamical RAM for               rhoin:       7.69 MB

     Dynamical RAM for            rho*nmix:      60.58 MB

     Dynamical RAM for           G-vectors:      16.09 MB

     Dynamical RAM for          h,s,v(r/c):       0.04 MB

     Dynamical RAM for          <psi|beta>:       0.00 MB

     Dynamical RAM for                 psi:      13.25 MB

     Dynamical RAM for                hpsi:      13.25 MB

     Dynamical RAM for      wfcinit/wfcrot:       6.63 MB

     Estimated static dynamical RAM per process >     173.61 MB

     Estimated max dynamical RAM per process >     200.15 MB

     Estimated total dynamical RAM >       1.56 GB

     Initial potential from superposition of free atoms
     Check: negative starting charge=   -0.012369

     starting charge    4.99943, renormalised to    5.00000

     negative rho (up, down):  1.237E-02 0.000E+00
     Starting wfc are    5 randomized atomic wfcs +    2 random wfc

     total cpu time spent up to now is        3.8 secs

     Self-consistent Calculation

     iteration #  1     ecut=    42.00 Ry     beta= 0.30
     Davidson diagonalization with overlap
     ethr =  1.00E-02,  avg # of iterations =  5.0

     negative rho (up, down):  8.579E-03 0.000E+00

     total cpu time spent up to now is       12.2 secs

     total energy              =      -8.42226746 Ry
     Harris-Foulkes estimate   =      -8.50124669 Ry
     estimated scf accuracy    <       0.28264128 Ry

     iteration #  2     ecut=    42.00 Ry     beta= 0.30
     Davidson diagonalization with overlap
     ethr =  5.65E-03,  avg # of iterations =  1.0

     negative rho (up, down):  2.179E-03 0.000E+00

     total cpu time spent up to now is       16.8 secs

     total energy              =      -8.37397237 Ry
     Harris-Foulkes estimate   =      -8.42940817 Ry
     estimated scf accuracy    <       0.10082526 Ry

     iteration #  3     ecut=    42.00 Ry     beta= 0.30
     Davidson diagonalization with overlap
     ethr =  2.02E-03,  avg # of iterations =  2.0

     negative rho (up, down):  1.849E-03 0.000E+00

     total cpu time spent up to now is       22.4 secs

     total energy              =      -8.39006763 Ry
     Harris-Foulkes estimate   =      -8.39170596 Ry
     estimated scf accuracy    <       0.00412160 Ry

     iteration #  4     ecut=    42.00 Ry     beta= 0.30
     Davidson diagonalization with overlap
     ethr =  8.24E-05,  avg # of iterations = 13.3

     negative rho (up, down):  2.701E-04 0.000E+00

     total cpu time spent up to now is       35.1 secs

     total energy              =      -8.39018727 Ry
     Harris-Foulkes estimate   =      -8.39052396 Ry
     estimated scf accuracy    <       0.00113454 Ry

     iteration #  5     ecut=    42.00 Ry     beta= 0.30
     Davidson diagonalization with overlap
     ethr =  2.27E-05,  avg # of iterations =  6.3

     negative rho (up, down):  2.294E-04 0.000E+00

     total cpu time spent up to now is       42.4 secs

     total energy              =      -8.39040191 Ry
     Harris-Foulkes estimate   =      -8.39033561 Ry
     estimated scf accuracy    <       0.00004545 Ry

     iteration #  6     ecut=    42.00 Ry     beta= 0.30
     Davidson diagonalization with overlap
     ethr =  9.09E-07,  avg # of iterations = 14.0

     negative rho (up, down):  2.906E-05 0.000E+00

     total cpu time spent up to now is       54.9 secs

     total energy              =      -8.39028131 Ry
     Harris-Foulkes estimate   =      -8.39045218 Ry
     estimated scf accuracy    <       0.00028233 Ry

     iteration #  7     ecut=    42.00 Ry     beta= 0.30
     Davidson diagonalization with overlap
     ethr =  9.09E-07,  avg # of iterations =  3.0

     negative rho (up, down):  1.030E-05 0.000E+00

     total cpu time spent up to now is       61.0 secs

     total energy              =      -8.39033173 Ry
     Harris-Foulkes estimate   =      -8.39033220 Ry
     estimated scf accuracy    <       0.00000249 Ry

     iteration #  8     ecut=    42.00 Ry     beta= 0.30
     Davidson diagonalization with overlap
     ethr =  4.98E-08,  avg # of iterations =  2.0

     total cpu time spent up to now is       66.4 secs

     total energy              =      -8.39033159 Ry
     Harris-Foulkes estimate   =      -8.39033207 Ry
     estimated scf accuracy    <       0.00000102 Ry

     iteration #  9     ecut=    42.00 Ry     beta= 0.30
     Davidson diagonalization with overlap
     ethr =  2.04E-08,  avg # of iterations =  3.3

     negative rho (up, down):  5.057E-07 0.000E+00

     total cpu time spent up to now is       72.4 secs

     total energy              =      -8.39033180 Ry
     Harris-Foulkes estimate   =      -8.39033180 Ry
     estimated scf accuracy    <       0.00000002 Ry

     iteration # 10     ecut=    42.00 Ry     beta= 0.30
     Davidson diagonalization with overlap
     ethr =  3.61E-10,  avg # of iterations =  2.0

     total cpu time spent up to now is       77.6 secs

     End of self-consistent calculation

          k = 0.0000 0.0000 0.0000 (248049 PWs)   bands (ev):

   -13.7986  -6.4833  -3.9803  -3.9803  -0.3857   0.0938   0.2640

     occupation numbers 
     1.0000   1.0002   0.2499   0.2499   0.0000   0.0000   0.0000

          k = 0.0000 0.0000-0.5000 (247982 PWs)   bands (ev):

   -13.7986  -6.4833  -3.9803  -3.9803  -0.3792   0.0701   0.1978

     occupation numbers 
     1.0000   1.0002   0.2499   0.2499   0.0000   0.0000   0.0000

          k = 0.0000-0.5000-0.5000 (248312 PWs)   bands (ev):

   -13.7987  -6.4834  -3.9803  -3.9803  -0.3736   0.1382   0.1383

     occupation numbers 
     1.0000   1.0002   0.2499   0.2499   0.0000   0.0000   0.0000

          k =-0.5000-0.5000-0.5000 (248296 PWs)   bands (ev):

   -13.7987  -6.4834  -3.9803  -3.9803  -0.3704   0.1870   0.1917

     occupation numbers 
     1.0000   1.0002   0.2499   0.2499   0.0000   0.0000   0.0000

          k =-0.5000 0.0000 0.0000 (247982 PWs)   bands (ev):

   -13.7985  -6.4833  -3.9803  -3.9803  -0.3811   0.0711   0.2167

     occupation numbers 
     1.0000   1.0002   0.2499   0.2499   0.0000   0.0000   0.0000

          k =-0.5000 0.5000 0.0000 (248312 PWs)   bands (ev):

   -13.7987  -6.4834  -3.9803  -3.9803  -0.3754   0.1347   0.1349

     occupation numbers 
     1.0000   1.0002   0.2499   0.2499   0.0000   0.0000   0.0000

     the Fermi energy is    -4.1473 ev

!    total energy              =      -8.39033183 Ry
     Harris-Foulkes estimate   =      -8.39033181 Ry
     estimated scf accuracy    <          3.9E-09 Ry

     The total energy is the sum of the following terms:

     one-electron contribution =     -16.01335777 Ry
     hartree contribution      =       8.32094063 Ry
     xc contribution           =      -3.02504699 Ry
     ewald contribution        =       2.35773859 Ry
     smearing contrib. (-TS)   =      -0.03060630 Ry

     convergence has been achieved in  10 iterations

     Forces acting on atoms (cartesian axes, Ry/au):

     atom    1 type  1   force =    -1.10990843    0.00000000    0.00000000
     atom    2 type  2   force =     1.10990843    0.00000000    0.00000000
     The non-local contrib.  to forces
     atom    1 type  1   force =    -1.16739997    0.00000000    0.00000000
     atom    2 type  2   force =     0.00000000    0.00000000    0.00000000
     The ionic contribution  to forces
     atom    1 type  1   force =    -2.23904645   -0.00000000   -0.00000000
     atom    2 type  2   force =     2.23904645    0.00000000   -0.00000000
     The local contribution  to forces
     atom    1 type  1   force =     2.29647919   -0.00000000   -0.00000000
     atom    2 type  2   force =    -1.12915669   -0.00000000   -0.00000000
     The core correction contribution to forces
     atom    1 type  1   force =     0.00000000    0.00000000    0.00000000
     atom    2 type  2   force =     0.00000000    0.00000000    0.00000000
     The Hubbard contrib.    to forces
     atom    1 type  1   force =     0.00000000    0.00000000    0.00000000
     atom    2 type  2   force =     0.00000000    0.00000000    0.00000000
     The SCF correction term to forces
     atom    1 type  1   force =     0.00004258   -0.00000000    0.00000000
     atom    2 type  2   force =     0.00000243    0.00000000    0.00000000

     Total force =     1.569648     Total SCF correction =     0.000043


     Computing stress (Cartesian axis) and pressure

          total   stress  (Ry/bohr**3)                   (kbar)     P=    1.84
   0.00003840   0.00000000   0.00000000          5.65      0.00      0.00
   0.00000000  -0.00000042   0.00000000          0.00     -0.06      0.00
   0.00000000   0.00000000  -0.00000042          0.00      0.00     -0.06

     kinetic stress (kbar)     10.11      0.00      0.00
                                0.00      7.96      0.00
                                0.00      0.00      7.96

     local   stress (kbar)    -30.77      0.00      0.00
                                0.00    -17.24      0.00
                                0.00      0.00    -17.24

     nonloc. stress (kbar)     10.25      0.00      0.00
                                0.00      6.56      0.00
                                0.00      0.00      6.56

     hartree stress (kbar)      8.79     -0.00     -0.00
                               -0.00      6.94     -0.00
                               -0.00     -0.00      6.94

     exc-cor stress (kbar)     -2.58     -0.00     -0.00
                               -0.00     -2.58      0.00
                               -0.00      0.00     -2.58

     corecor stress (kbar)      0.00      0.00      0.00
                                0.00      0.00      0.00
                                0.00      0.00      0.00

     ewald   stress (kbar)      9.84     -0.00     -0.00
                               -0.00     -1.71     -0.00
                               -0.00     -0.00     -1.71

     hubbard stress (kbar)      0.00      0.00      0.00
                                0.00      0.00      0.00
                                0.00      0.00      0.00

     london  stress (kbar)      0.00      0.00      0.00
                                0.00      0.00      0.00
                                0.00      0.00      0.00

     DFT-D3  stress (kbar)      0.00      0.00      0.00
                                0.00      0.00      0.00
                                0.00      0.00      0.00

     XDM     stress (kbar)      0.00      0.00      0.00
                                0.00      0.00      0.00
                                0.00      0.00      0.00

     dft-nl  stress (kbar)      0.00      0.00      0.00
                                0.00      0.00      0.00
                                0.00      0.00      0.00

     TS-vdW  stress (kbar)      0.00      0.00      0.00
                                0.00      0.00      0.00
                                0.00      0.00      0.00



     Writing output data file SiH4.save

     init_run     :      3.33s CPU      3.58s WALL (       1 calls)
     electrons    :     66.32s CPU     76.14s WALL (       1 calls)
     forces       :      0.52s CPU      0.53s WALL (       1 calls)
     stress       :      1.86s CPU      1.98s WALL (       1 calls)

     Called by init_run:
     wfcinit      :      1.57s CPU      1.66s WALL (       1 calls)
     wfcinit:atom :      0.03s CPU      0.03s WALL (       6 calls)
     wfcinit:wfcr :      1.46s CPU      1.55s WALL (       6 calls)
     potinit      :      0.61s CPU      0.68s WALL (       1 calls)

     Called by electrons:
     c_bands      :     52.82s CPU     59.45s WALL (      10 calls)
     sum_band     :      8.67s CPU      9.29s WALL (      10 calls)
     v_of_rho     :      3.97s CPU      4.24s WALL (      11 calls)
     v_h          :      0.35s CPU      0.38s WALL (      11 calls)
     v_xc         :      3.62s CPU      3.86s WALL (      11 calls)
     mix_rho      :      0.91s CPU      1.03s WALL (      10 calls)

     Called by c_bands:
     init_us_2    :      0.80s CPU      0.81s WALL (     138 calls)
     cegterg      :     52.21s CPU     55.42s WALL (      60 calls)

     Called by sum_band:

     Called by *egterg:
     h_psi        :     50.08s CPU     53.32s WALL (     378 calls)
     g_psi        :      0.22s CPU      0.22s WALL (     312 calls)
     cdiaghg      :      0.06s CPU      0.06s WALL (     372 calls)
     cegterg:over :      1.25s CPU      1.26s WALL (     312 calls)
     cegterg:upda :      1.03s CPU      1.05s WALL (     312 calls)
     cegterg:last :      0.37s CPU      0.38s WALL (      80 calls)

     Called by h_psi:
     h_psi:pot    :     49.85s CPU     53.08s WALL (     378 calls)
     h_psi:calbec :      0.81s CPU      0.82s WALL (     378 calls)
     vloc_psi     :     48.82s CPU     52.03s WALL (     378 calls)
     add_vuspsi   :      0.22s CPU      0.22s WALL (     378 calls)

     General routines
     calbec       :      0.85s CPU      0.86s WALL (     408 calls)
     fft          :      3.40s CPU      3.74s WALL (     128 calls)
     fftw         :     51.18s CPU     54.85s WALL (    3388 calls)

     Parallel routines
     fft_scatt_xy :      5.98s CPU      6.03s WALL (    3516 calls)
     fft_scatt_yz :     18.10s CPU     21.82s WALL (    3516 calls)

     PWSCF        :  1m12.51s CPU     1m24.46s WALL


   This run was terminated on:   8: 5:13   1Oct2020            

=------------------------------------------------------------------------------=
   JOB DONE.
=------------------------------------------------------------------------------=
