
     Program PWSCF v.6.2 (svn rev. 14038) starts on  1Oct2020 at  8: 3: 7 

     This program is part of the open-source Quantum ESPRESSO suite
     for quantum simulation of materials; please cite
         "P. Giannozzi et al., J. Phys.:Condens. Matter 21 395502 (2009);
         "P. Giannozzi et al., J. Phys.:Condens. Matter 29 465901 (2017);
          URL http://www.quantum-espresso.org", 
     in publications or presentations arising from this work. More details at
     http://www.quantum-espresso.org/quote

     Parallel version (MPI), running on     8 processors

     MPI processes distributed on     1 nodes
     R & G space division:  proc/nbgrp/npool/nimage =       8
     Waiting for input...
     Reading input from standard input

     Current dimensions of program PWSCF are:
     Max number of different atomic species (ntypx) = 10
     Max number of k-points (npk) =  40000
     Max angular momentum in pseudopotentials (lmaxx) =  3

     Subspace diagonalization in iterative solution of the eigenvalue problem:
     a serial algorithm will be used


     Parallelization info
     --------------------
     sticks:   dense  smooth     PW     G-vecs:    dense   smooth      PW
     Min        2386    2386    623               248152   248152   33108
     Max        2387    2387    625               248157   248157   33111
     Sum       19089   19089   4989              1985227  1985227  264875



     bravais-lattice index     =            1
     lattice parameter (alat)  =      37.7945  a.u.
     unit-cell volume          =   53986.6767 (a.u.)^3
     number of atoms/cell      =            2
     number of atomic types    =            2
     number of electrons       =         5.00
     number of Kohn-Sham states=            7
     kinetic-energy cutoff     =      42.0000  Ry
     charge density cutoff     =     168.0000  Ry
     convergence threshold     =      1.0E-08
     mixing beta               =       0.3000
     number of iterations used =            8  plain     mixing
     Exchange-correlation      = SLA-PW-PBX-PBC ( 1  4  3  4 0 0)

     celldm(1)=  37.794523  celldm(2)=   0.000000  celldm(3)=   0.000000
     celldm(4)=   0.000000  celldm(5)=   0.000000  celldm(6)=   0.000000

     crystal axes: (cart. coord. in units of alat)
               a(1) = (   1.000000   0.000000   0.000000 )  
               a(2) = (   0.000000   1.000000   0.000000 )  
               a(3) = (   0.000000   0.000000   1.000000 )  

     reciprocal axes: (cart. coord. in units 2 pi/alat)
               b(1) = (  1.000000  0.000000  0.000000 )  
               b(2) = (  0.000000  1.000000  0.000000 )  
               b(3) = (  0.000000  0.000000  1.000000 )  


     PseudoPot. # 1 for Si read from file:
     ./Si.pbe-hgh.UPF
     MD5 check sum: 9a9f0f6e09139bfdb36b03ff6bc35900
     Pseudo is Norm-conserving, Zval =  4.0
     Generated in analytical, separable form
     Using radial grid of 1141 points,  3 beta functions with: 
                l(1) =   0
                l(2) =   0
                l(3) =   1

     PseudoPot. # 2 for H  read from file:
     ./H.pbe-hgh.UPF
     MD5 check sum: 5f350582108a937bec95f27f5610ab08
     Pseudo is Norm-conserving, Zval =  1.0
     Generated in analytical, separable form
     Using radial grid of  929 points,  0 beta functions with: 

     atomic species   valence    mass     pseudopotential
        Si             4.00    28.08000     Si( 1.00)
        H              1.00     1.00784     H ( 1.00)

      8 Sym. Ops. (no inversion) found


                                    s                        frac. trans.

      isym =  1     identity                                     

 cryst.   s( 1) = (     1          0          0      )
                  (     0          1          0      )
                  (     0          0          1      )

 cart.    s( 1) = (  1.0000000  0.0000000  0.0000000 )
                  (  0.0000000  1.0000000  0.0000000 )
                  (  0.0000000  0.0000000  1.0000000 )


      isym =  2     180 deg rotation - cart. axis [1,0,0]        

 cryst.   s( 2) = (     1          0          0      )
                  (     0         -1          0      )
                  (     0          0         -1      )

 cart.    s( 2) = (  1.0000000  0.0000000  0.0000000 )
                  (  0.0000000 -1.0000000  0.0000000 )
                  (  0.0000000  0.0000000 -1.0000000 )


      isym =  3      90 deg rotation - cart. axis [-1,0,0]       

 cryst.   s( 3) = (     1          0          0      )
                  (     0          0         -1      )
                  (     0          1          0      )

 cart.    s( 3) = (  1.0000000  0.0000000  0.0000000 )
                  (  0.0000000  0.0000000  1.0000000 )
                  (  0.0000000 -1.0000000  0.0000000 )


      isym =  4      90 deg rotation - cart. axis [1,0,0]        

 cryst.   s( 4) = (     1          0          0      )
                  (     0          0          1      )
                  (     0         -1          0      )

 cart.    s( 4) = (  1.0000000  0.0000000  0.0000000 )
                  (  0.0000000  0.0000000 -1.0000000 )
                  (  0.0000000  1.0000000  0.0000000 )


      isym =  5     inv. 180 deg rotation - cart. axis [0,0,1]   

 cryst.   s( 5) = (     1          0          0      )
                  (     0          1          0      )
                  (     0          0         -1      )

 cart.    s( 5) = (  1.0000000  0.0000000  0.0000000 )
                  (  0.0000000  1.0000000  0.0000000 )
                  (  0.0000000  0.0000000 -1.0000000 )


      isym =  6     inv. 180 deg rotation - cart. axis [0,1,0]   

 cryst.   s( 6) = (     1          0          0      )
                  (     0         -1          0      )
                  (     0          0          1      )

 cart.    s( 6) = (  1.0000000  0.0000000  0.0000000 )
                  (  0.0000000 -1.0000000  0.0000000 )
                  (  0.0000000  0.0000000  1.0000000 )


      isym =  7     inv. 180 deg rotation - cart. axis [0,1,1]   

 cryst.   s( 7) = (     1          0          0      )
                  (     0          0         -1      )
                  (     0         -1          0      )

 cart.    s( 7) = (  1.0000000  0.0000000  0.0000000 )
                  (  0.0000000  0.0000000 -1.0000000 )
                  (  0.0000000 -1.0000000  0.0000000 )


      isym =  8     inv. 180 deg rotation - cart. axis [0,1,-1]  

 cryst.   s( 8) = (     1          0          0      )
                  (     0          0          1      )
                  (     0          1          0      )

 cart.    s( 8) = (  1.0000000  0.0000000  0.0000000 )
                  (  0.0000000  0.0000000  1.0000000 )
                  (  0.0000000  1.0000000  0.0000000 )


     point group C_4v (4mm) 
     there are  5 classes
     the character table:

       E     2C4   C2    2s_v  2s_d 
A_1    1.00  1.00  1.00  1.00  1.00
A_2    1.00  1.00  1.00 -1.00 -1.00
B_1    1.00 -1.00  1.00  1.00 -1.00
B_2    1.00 -1.00  1.00 -1.00  1.00
E      2.00  0.00 -2.00  0.00  0.00

     the symmetry operations in each class and the name of the first element:

     E        1
          identity                                               
     2C4      3    4
           90 deg rotation - cart. axis [-1,0,0]                 
     C2       2
          180 deg rotation - cart. axis [1,0,0]                  
     2s_v     5    6
          inv. 180 deg rotation - cart. axis [0,0,1]             
     2s_d     7    8
          inv. 180 deg rotation - cart. axis [0,1,1]             

   Cartesian axes

     site n.     atom                  positions (alat units)
         1           Si  tau(   1) = (   0.0000000   0.0000000   0.0000000  )
         2           H   tau(   2) = (   0.0505000   0.0000000   0.0000000  )

   Crystallographic axes

     site n.     atom                  positions (cryst. coord.)
         1           Si  tau(   1) = (  0.0000000  0.0000000  0.0000000  )
         2           H   tau(   2) = (  0.0505000  0.0000000  0.0000000  )

     number of k points=     6  Marzari-Vanderbilt smearing, width (Ry)=  0.0500
                       cart. coord. in units 2pi/alat
        k(    1) = (   0.0000000   0.0000000   0.0000000), wk =   0.2500000
        k(    2) = (   0.0000000   0.0000000  -0.5000000), wk =   0.5000000
        k(    3) = (   0.0000000  -0.5000000  -0.5000000), wk =   0.2500000
        k(    4) = (  -0.5000000  -0.5000000  -0.5000000), wk =   0.2500000
        k(    5) = (  -0.5000000   0.0000000   0.0000000), wk =   0.2500000
        k(    6) = (  -0.5000000   0.5000000   0.0000000), wk =   0.5000000

                       cryst. coord.
        k(    1) = (   0.0000000   0.0000000   0.0000000), wk =   0.2500000
        k(    2) = (   0.0000000   0.0000000  -0.5000000), wk =   0.5000000
        k(    3) = (   0.0000000  -0.5000000  -0.5000000), wk =   0.2500000
        k(    4) = (  -0.5000000  -0.5000000  -0.5000000), wk =   0.2500000
        k(    5) = (  -0.5000000   0.0000000   0.0000000), wk =   0.2500000
        k(    6) = (  -0.5000000   0.5000000   0.0000000), wk =   0.5000000

     Dense  grid:  1985227 G-vectors     FFT dimensions: ( 160, 160, 160)

     Dynamical RAM for                 wfc:       3.31 MB

     Dynamical RAM for     wfc (w. buffer):      23.19 MB

     Dynamical RAM for           str. fact:       7.57 MB

     Dynamical RAM for           local pot:       0.00 MB

     Dynamical RAM for          nlocal pot:       2.37 MB

     Dynamical RAM for                qrad:       2.14 MB

     Dynamical RAM for          rho,v,vnew:      23.08 MB

     Dynamical RAM for               rhoin:       7.69 MB

     Dynamical RAM for            rho*nmix:      60.58 MB

     Dynamical RAM for           G-vectors:      16.09 MB

     Dynamical RAM for          h,s,v(r/c):       0.04 MB

     Dynamical RAM for          <psi|beta>:       0.00 MB

     Dynamical RAM for                 psi:      13.25 MB

     Dynamical RAM for                hpsi:      13.25 MB

     Dynamical RAM for      wfcinit/wfcrot:       6.63 MB

     Estimated static dynamical RAM per process >     173.61 MB

     Estimated max dynamical RAM per process >     200.15 MB

     Estimated total dynamical RAM >       1.56 GB

     Initial potential from superposition of free atoms
     Check: negative starting charge=   -0.012375

     starting charge    4.99943, renormalised to    5.00000

     negative rho (up, down):  1.238E-02 0.000E+00
     Starting wfc are    5 randomized atomic wfcs +    2 random wfc

     total cpu time spent up to now is        3.8 secs

     Self-consistent Calculation

     iteration #  1     ecut=    42.00 Ry     beta= 0.30
     Davidson diagonalization with overlap
     ethr =  1.00E-02,  avg # of iterations =  5.0

     negative rho (up, down):  8.583E-03 0.000E+00

     total cpu time spent up to now is       12.0 secs

     total energy              =      -8.44210390 Ry
     Harris-Foulkes estimate   =      -8.51945388 Ry
     estimated scf accuracy    <       0.27678717 Ry

     iteration #  2     ecut=    42.00 Ry     beta= 0.30
     Davidson diagonalization with overlap
     ethr =  5.54E-03,  avg # of iterations =  1.0

     negative rho (up, down):  2.180E-03 0.000E+00

     total cpu time spent up to now is       16.4 secs

     total energy              =      -8.39489991 Ry
     Harris-Foulkes estimate   =      -8.44909777 Ry
     estimated scf accuracy    <       0.09872802 Ry

     iteration #  3     ecut=    42.00 Ry     beta= 0.30
     Davidson diagonalization with overlap
     ethr =  1.97E-03,  avg # of iterations =  2.0

     negative rho (up, down):  1.846E-03 0.000E+00

     total cpu time spent up to now is       21.8 secs

     total energy              =      -8.41058873 Ry
     Harris-Foulkes estimate   =      -8.41215132 Ry
     estimated scf accuracy    <       0.00398487 Ry

     iteration #  4     ecut=    42.00 Ry     beta= 0.30
     Davidson diagonalization with overlap
     ethr =  7.97E-05,  avg # of iterations = 13.5

     negative rho (up, down):  2.721E-04 0.000E+00

     total cpu time spent up to now is       32.2 secs

     total energy              =      -8.41068611 Ry
     Harris-Foulkes estimate   =      -8.41101719 Ry
     estimated scf accuracy    <       0.00111226 Ry

     iteration #  5     ecut=    42.00 Ry     beta= 0.30
     Davidson diagonalization with overlap
     ethr =  2.22E-05,  avg # of iterations =  7.2

     negative rho (up, down):  2.262E-04 0.000E+00

     total cpu time spent up to now is       39.5 secs

     total energy              =      -8.41089525 Ry
     Harris-Foulkes estimate   =      -8.41083371 Ry
     estimated scf accuracy    <       0.00004536 Ry

     iteration #  6     ecut=    42.00 Ry     beta= 0.30
     Davidson diagonalization with overlap
     ethr =  9.07E-07,  avg # of iterations = 13.7

     negative rho (up, down):  2.920E-05 0.000E+00

     total cpu time spent up to now is       49.8 secs

     total energy              =      -8.41078257 Ry
     Harris-Foulkes estimate   =      -8.41094157 Ry
     estimated scf accuracy    <       0.00026302 Ry

     iteration #  7     ecut=    42.00 Ry     beta= 0.30
     Davidson diagonalization with overlap
     ethr =  9.07E-07,  avg # of iterations =  2.7

     negative rho (up, down):  9.773E-06 0.000E+00

     total cpu time spent up to now is       55.5 secs

     total energy              =      -8.41082962 Ry
     Harris-Foulkes estimate   =      -8.41083005 Ry
     estimated scf accuracy    <       0.00000244 Ry

     iteration #  8     ecut=    42.00 Ry     beta= 0.30
     Davidson diagonalization with overlap
     ethr =  4.87E-08,  avg # of iterations =  2.0

     negative rho (up, down):  8.597E-08 0.000E+00

     total cpu time spent up to now is       60.7 secs

     total energy              =      -8.41082948 Ry
     Harris-Foulkes estimate   =      -8.41082997 Ry
     estimated scf accuracy    <       0.00000104 Ry

     iteration #  9     ecut=    42.00 Ry     beta= 0.30
     Davidson diagonalization with overlap
     ethr =  2.08E-08,  avg # of iterations =  4.0

     negative rho (up, down):  5.236E-07 0.000E+00

     total cpu time spent up to now is       66.7 secs

     total energy              =      -8.41082970 Ry
     Harris-Foulkes estimate   =      -8.41082969 Ry
     estimated scf accuracy    <       0.00000001 Ry

     iteration # 10     ecut=    42.00 Ry     beta= 0.30
     Davidson diagonalization with overlap
     ethr =  2.79E-10,  avg # of iterations =  3.0

     total cpu time spent up to now is       74.2 secs

     End of self-consistent calculation

          k = 0.0000 0.0000 0.0000 (248049 PWs)   bands (ev):

   -13.7621  -6.4901  -3.9792  -3.9792  -0.3838   0.0945   0.2631

     occupation numbers 
     1.0000   1.0002   0.2499   0.2499   0.0000   0.0000   0.0000

          k = 0.0000 0.0000-0.5000 (247982 PWs)   bands (ev):

   -13.7621  -6.4901  -3.9792  -3.9792  -0.3772   0.0703   0.1986

     occupation numbers 
     1.0000   1.0002   0.2499   0.2499   0.0000   0.0000   0.0000

          k = 0.0000-0.5000-0.5000 (248312 PWs)   bands (ev):

   -13.7622  -6.4901  -3.9792  -3.9792  -0.3715   0.1379   0.1383

     occupation numbers 
     1.0000   1.0002   0.2499   0.2499   0.0000   0.0000   0.0000

          k =-0.5000-0.5000-0.5000 (248296 PWs)   bands (ev):

   -13.7622  -6.4901  -3.9792  -3.9792  -0.3683   0.1868   0.1919

     occupation numbers 
     1.0000   1.0002   0.2499   0.2499   0.0000   0.0000   0.0000

          k =-0.5000 0.0000 0.0000 (247982 PWs)   bands (ev):

   -13.7620  -6.4900  -3.9792  -3.9792  -0.3791   0.0711   0.2175

     occupation numbers 
     1.0000   1.0002   0.2499   0.2499   0.0000   0.0000   0.0000

          k =-0.5000 0.5000 0.0000 (248312 PWs)   bands (ev):

   -13.7622  -6.4901  -3.9792  -3.9792  -0.3734   0.1348   0.1348

     occupation numbers 
     1.0000   1.0002   0.2499   0.2499   0.0000   0.0000   0.0000

     the Fermi energy is    -4.1462 ev

!    total energy              =      -8.41082972 Ry
     Harris-Foulkes estimate   =      -8.41082971 Ry
     estimated scf accuracy    <          5.0E-09 Ry

     The total energy is the sum of the following terms:

     one-electron contribution =     -15.97897235 Ry
     hartree contribution      =       8.30247794 Ry
     xc contribution           =      -3.01957109 Ry
     ewald contribution        =       2.31584601 Ry
     smearing contrib. (-TS)   =      -0.03061023 Ry

     convergence has been achieved in  10 iterations

     Forces acting on atoms (cartesian axes, Ry/au):

     atom    1 type  1   force =    -1.05989220    0.00000000    0.00000000
     atom    2 type  2   force =     1.05989220    0.00000000    0.00000000
     The non-local contrib.  to forces
     atom    1 type  1   force =    -1.11435241    0.00000000    0.00000000
     atom    2 type  2   force =     0.00000000    0.00000000    0.00000000
     The ionic contribution  to forces
     atom    1 type  1   force =    -2.19489312   -0.00000000   -0.00000000
     atom    2 type  2   force =     2.19489312    0.00000000   -0.00000000
     The local contribution  to forces
     atom    1 type  1   force =     2.24928589    0.00000000   -0.00000000
     atom    2 type  2   force =    -1.13502000    0.00000000   -0.00000000
     The core correction contribution to forces
     atom    1 type  1   force =     0.00000000    0.00000000    0.00000000
     atom    2 type  2   force =     0.00000000    0.00000000    0.00000000
     The Hubbard contrib.    to forces
     atom    1 type  1   force =     0.00000000    0.00000000    0.00000000
     atom    2 type  2   force =     0.00000000    0.00000000    0.00000000
     The SCF correction term to forces
     atom    1 type  1   force =     0.00005295    0.00000000   -0.00000000
     atom    2 type  2   force =     0.00000460    0.00000000   -0.00000000

     Total force =     1.498914     Total SCF correction =     0.000053


     Computing stress (Cartesian axis) and pressure

          total   stress  (Ry/bohr**3)                   (kbar)     P=    1.78
   0.00003704   0.00000000   0.00000000          5.45      0.00      0.00
   0.00000000  -0.00000041   0.00000000          0.00     -0.06      0.00
   0.00000000   0.00000000  -0.00000041          0.00      0.00     -0.06

     kinetic stress (kbar)     10.03      0.00      0.00
                                0.00      7.93      0.00
                                0.00      0.00      7.93

     local   stress (kbar)    -30.67      0.00      0.00
                                0.00    -17.18      0.00
                                0.00      0.00    -17.18

     nonloc. stress (kbar)     10.14      0.00      0.00
                                0.00      6.55      0.00
                                0.00      0.00      6.55

     hartree stress (kbar)      8.79     -0.00     -0.00
                               -0.00      6.92     -0.00
                               -0.00     -0.00      6.92

     exc-cor stress (kbar)     -2.57     -0.00     -0.00
                               -0.00     -2.57     -0.00
                               -0.00     -0.00     -2.57

     corecor stress (kbar)      0.00      0.00      0.00
                                0.00      0.00      0.00
                                0.00      0.00      0.00

     ewald   stress (kbar)      9.72      0.00     -0.00
                                0.00     -1.71     -0.00
                               -0.00     -0.00     -1.71

     hubbard stress (kbar)      0.00      0.00      0.00
                                0.00      0.00      0.00
                                0.00      0.00      0.00

     london  stress (kbar)      0.00      0.00      0.00
                                0.00      0.00      0.00
                                0.00      0.00      0.00

     DFT-D3  stress (kbar)      0.00      0.00      0.00
                                0.00      0.00      0.00
                                0.00      0.00      0.00

     XDM     stress (kbar)      0.00      0.00      0.00
                                0.00      0.00      0.00
                                0.00      0.00      0.00

     dft-nl  stress (kbar)      0.00      0.00      0.00
                                0.00      0.00      0.00
                                0.00      0.00      0.00

     TS-vdW  stress (kbar)      0.00      0.00      0.00
                                0.00      0.00      0.00
                                0.00      0.00      0.00



     Writing output data file SiH5.save

     init_run     :      3.44s CPU      3.58s WALL (       1 calls)
     electrons    :     68.36s CPU     72.14s WALL (       1 calls)
     forces       :      0.47s CPU      0.47s WALL (       1 calls)
     stress       :      1.97s CPU      2.06s WALL (       1 calls)

     Called by init_run:
     wfcinit      :      1.59s CPU      1.61s WALL (       1 calls)
     wfcinit:atom :      0.03s CPU      0.03s WALL (       6 calls)
     wfcinit:wfcr :      1.48s CPU      1.49s WALL (       6 calls)
     potinit      :      0.66s CPU      0.70s WALL (       1 calls)

     Called by electrons:
     c_bands      :     54.48s CPU     56.53s WALL (      10 calls)
     sum_band     :      8.94s CPU      8.97s WALL (      10 calls)
     v_of_rho     :      4.16s CPU      4.22s WALL (      11 calls)
     v_h          :      0.40s CPU      0.41s WALL (      11 calls)
     v_xc         :      3.76s CPU      3.81s WALL (      11 calls)
     mix_rho      :      0.92s CPU      1.02s WALL (      10 calls)

     Called by c_bands:
     init_us_2    :      0.79s CPU      0.80s WALL (     138 calls)
     cegterg      :     53.89s CPU     54.04s WALL (      60 calls)

     Called by sum_band:

     Called by *egterg:
     h_psi        :     51.63s CPU     51.76s WALL (     390 calls)
     g_psi        :      0.22s CPU      0.22s WALL (     324 calls)
     cdiaghg      :      0.06s CPU      0.06s WALL (     384 calls)
     cegterg:over :      1.28s CPU      1.28s WALL (     324 calls)
     cegterg:upda :      1.08s CPU      1.09s WALL (     324 calls)
     cegterg:last :      0.38s CPU      0.38s WALL (      79 calls)

     Called by h_psi:
     h_psi:pot    :     51.38s CPU     51.50s WALL (     390 calls)
     h_psi:calbec :      0.34s CPU      0.35s WALL (     390 calls)
     vloc_psi     :     50.82s CPU     50.93s WALL (     390 calls)
     add_vuspsi   :      0.21s CPU      0.22s WALL (     390 calls)

     General routines
     calbec       :      0.39s CPU      0.39s WALL (     420 calls)
     fft          :      3.66s CPU      3.68s WALL (     128 calls)
     fftw         :     51.11s CPU     51.21s WALL (    3408 calls)

     Parallel routines
     fft_scatt_xy :      8.38s CPU      8.39s WALL (    3536 calls)
     fft_scatt_yz :      9.42s CPU      9.45s WALL (    3536 calls)

     PWSCF        :  1m14.76s CPU     1m20.23s WALL


   This run was terminated on:   8: 4:28   1Oct2020            

=------------------------------------------------------------------------------=
   JOB DONE.
=------------------------------------------------------------------------------=
