
     Program PWSCF v.6.2 (svn rev. 14038) starts on  1Oct2020 at  8:11:22 

     This program is part of the open-source Quantum ESPRESSO suite
     for quantum simulation of materials; please cite
         "P. Giannozzi et al., J. Phys.:Condens. Matter 21 395502 (2009);
         "P. Giannozzi et al., J. Phys.:Condens. Matter 29 465901 (2017);
          URL http://www.quantum-espresso.org", 
     in publications or presentations arising from this work. More details at
     http://www.quantum-espresso.org/quote

     Parallel version (MPI), running on     8 processors

     MPI processes distributed on     1 nodes
     R & G space division:  proc/nbgrp/npool/nimage =       8
     Waiting for input...
     Reading input from standard input

     Current dimensions of program PWSCF are:
     Max number of different atomic species (ntypx) = 10
     Max number of k-points (npk) =  40000
     Max angular momentum in pseudopotentials (lmaxx) =  3

     Subspace diagonalization in iterative solution of the eigenvalue problem:
     a serial algorithm will be used


     Parallelization info
     --------------------
     sticks:   dense  smooth     PW     G-vecs:    dense   smooth      PW
     Min        2386    2386    623               248152   248152   33108
     Max        2387    2387    625               248157   248157   33111
     Sum       19089   19089   4989              1985227  1985227  264875



     bravais-lattice index     =            1
     lattice parameter (alat)  =      37.7945  a.u.
     unit-cell volume          =   53986.6767 (a.u.)^3
     number of atoms/cell      =            2
     number of atomic types    =            2
     number of electrons       =         5.00
     number of Kohn-Sham states=            7
     kinetic-energy cutoff     =      42.0000  Ry
     charge density cutoff     =     168.0000  Ry
     convergence threshold     =      1.0E-08
     mixing beta               =       0.3000
     number of iterations used =            8  plain     mixing
     Exchange-correlation      = SLA-PW-PBX-PBC ( 1  4  3  4 0 0)

     celldm(1)=  37.794523  celldm(2)=   0.000000  celldm(3)=   0.000000
     celldm(4)=   0.000000  celldm(5)=   0.000000  celldm(6)=   0.000000

     crystal axes: (cart. coord. in units of alat)
               a(1) = (   1.000000   0.000000   0.000000 )  
               a(2) = (   0.000000   1.000000   0.000000 )  
               a(3) = (   0.000000   0.000000   1.000000 )  

     reciprocal axes: (cart. coord. in units 2 pi/alat)
               b(1) = (  1.000000  0.000000  0.000000 )  
               b(2) = (  0.000000  1.000000  0.000000 )  
               b(3) = (  0.000000  0.000000  1.000000 )  


     PseudoPot. # 1 for Si read from file:
     ./Si.pbe-hgh.UPF
     MD5 check sum: 9a9f0f6e09139bfdb36b03ff6bc35900
     Pseudo is Norm-conserving, Zval =  4.0
     Generated in analytical, separable form
     Using radial grid of 1141 points,  3 beta functions with: 
                l(1) =   0
                l(2) =   0
                l(3) =   1

     PseudoPot. # 2 for H  read from file:
     ./H.pbe-hgh.UPF
     MD5 check sum: 5f350582108a937bec95f27f5610ab08
     Pseudo is Norm-conserving, Zval =  1.0
     Generated in analytical, separable form
     Using radial grid of  929 points,  0 beta functions with: 

     atomic species   valence    mass     pseudopotential
        Si             4.00    28.08000     Si( 1.00)
        H              1.00     1.00784     H ( 1.00)

      8 Sym. Ops. (no inversion) found


                                    s                        frac. trans.

      isym =  1     identity                                     

 cryst.   s( 1) = (     1          0          0      )
                  (     0          1          0      )
                  (     0          0          1      )

 cart.    s( 1) = (  1.0000000  0.0000000  0.0000000 )
                  (  0.0000000  1.0000000  0.0000000 )
                  (  0.0000000  0.0000000  1.0000000 )


      isym =  2     180 deg rotation - cart. axis [1,0,0]        

 cryst.   s( 2) = (     1          0          0      )
                  (     0         -1          0      )
                  (     0          0         -1      )

 cart.    s( 2) = (  1.0000000  0.0000000  0.0000000 )
                  (  0.0000000 -1.0000000  0.0000000 )
                  (  0.0000000  0.0000000 -1.0000000 )


      isym =  3      90 deg rotation - cart. axis [-1,0,0]       

 cryst.   s( 3) = (     1          0          0      )
                  (     0          0         -1      )
                  (     0          1          0      )

 cart.    s( 3) = (  1.0000000  0.0000000  0.0000000 )
                  (  0.0000000  0.0000000  1.0000000 )
                  (  0.0000000 -1.0000000  0.0000000 )


      isym =  4      90 deg rotation - cart. axis [1,0,0]        

 cryst.   s( 4) = (     1          0          0      )
                  (     0          0          1      )
                  (     0         -1          0      )

 cart.    s( 4) = (  1.0000000  0.0000000  0.0000000 )
                  (  0.0000000  0.0000000 -1.0000000 )
                  (  0.0000000  1.0000000  0.0000000 )


      isym =  5     inv. 180 deg rotation - cart. axis [0,0,1]   

 cryst.   s( 5) = (     1          0          0      )
                  (     0          1          0      )
                  (     0          0         -1      )

 cart.    s( 5) = (  1.0000000  0.0000000  0.0000000 )
                  (  0.0000000  1.0000000  0.0000000 )
                  (  0.0000000  0.0000000 -1.0000000 )


      isym =  6     inv. 180 deg rotation - cart. axis [0,1,0]   

 cryst.   s( 6) = (     1          0          0      )
                  (     0         -1          0      )
                  (     0          0          1      )

 cart.    s( 6) = (  1.0000000  0.0000000  0.0000000 )
                  (  0.0000000 -1.0000000  0.0000000 )
                  (  0.0000000  0.0000000  1.0000000 )


      isym =  7     inv. 180 deg rotation - cart. axis [0,1,1]   

 cryst.   s( 7) = (     1          0          0      )
                  (     0          0         -1      )
                  (     0         -1          0      )

 cart.    s( 7) = (  1.0000000  0.0000000  0.0000000 )
                  (  0.0000000  0.0000000 -1.0000000 )
                  (  0.0000000 -1.0000000  0.0000000 )


      isym =  8     inv. 180 deg rotation - cart. axis [0,1,-1]  

 cryst.   s( 8) = (     1          0          0      )
                  (     0          0          1      )
                  (     0          1          0      )

 cart.    s( 8) = (  1.0000000  0.0000000  0.0000000 )
                  (  0.0000000  0.0000000  1.0000000 )
                  (  0.0000000  1.0000000  0.0000000 )


     point group C_4v (4mm) 
     there are  5 classes
     the character table:

       E     2C4   C2    2s_v  2s_d 
A_1    1.00  1.00  1.00  1.00  1.00
A_2    1.00  1.00  1.00 -1.00 -1.00
B_1    1.00 -1.00  1.00  1.00 -1.00
B_2    1.00 -1.00  1.00 -1.00  1.00
E      2.00  0.00 -2.00  0.00  0.00

     the symmetry operations in each class and the name of the first element:

     E        1
          identity                                               
     2C4      3    4
           90 deg rotation - cart. axis [-1,0,0]                 
     C2       2
          180 deg rotation - cart. axis [1,0,0]                  
     2s_v     5    6
          inv. 180 deg rotation - cart. axis [0,0,1]             
     2s_d     7    8
          inv. 180 deg rotation - cart. axis [0,1,1]             

   Cartesian axes

     site n.     atom                  positions (alat units)
         1           Si  tau(   1) = (   0.0000000   0.0000000   0.0000000  )
         2           H   tau(   2) = (   0.0515000   0.0000000   0.0000000  )

   Crystallographic axes

     site n.     atom                  positions (cryst. coord.)
         1           Si  tau(   1) = (  0.0000000  0.0000000  0.0000000  )
         2           H   tau(   2) = (  0.0515000  0.0000000  0.0000000  )

     number of k points=     6  Marzari-Vanderbilt smearing, width (Ry)=  0.0500
                       cart. coord. in units 2pi/alat
        k(    1) = (   0.0000000   0.0000000   0.0000000), wk =   0.2500000
        k(    2) = (   0.0000000   0.0000000  -0.5000000), wk =   0.5000000
        k(    3) = (   0.0000000  -0.5000000  -0.5000000), wk =   0.2500000
        k(    4) = (  -0.5000000  -0.5000000  -0.5000000), wk =   0.2500000
        k(    5) = (  -0.5000000   0.0000000   0.0000000), wk =   0.2500000
        k(    6) = (  -0.5000000   0.5000000   0.0000000), wk =   0.5000000

                       cryst. coord.
        k(    1) = (   0.0000000   0.0000000   0.0000000), wk =   0.2500000
        k(    2) = (   0.0000000   0.0000000  -0.5000000), wk =   0.5000000
        k(    3) = (   0.0000000  -0.5000000  -0.5000000), wk =   0.2500000
        k(    4) = (  -0.5000000  -0.5000000  -0.5000000), wk =   0.2500000
        k(    5) = (  -0.5000000   0.0000000   0.0000000), wk =   0.2500000
        k(    6) = (  -0.5000000   0.5000000   0.0000000), wk =   0.5000000

     Dense  grid:  1985227 G-vectors     FFT dimensions: ( 160, 160, 160)

     Dynamical RAM for                 wfc:       3.31 MB

     Dynamical RAM for     wfc (w. buffer):      23.19 MB

     Dynamical RAM for           str. fact:       7.57 MB

     Dynamical RAM for           local pot:       0.00 MB

     Dynamical RAM for          nlocal pot:       2.37 MB

     Dynamical RAM for                qrad:       2.14 MB

     Dynamical RAM for          rho,v,vnew:      23.08 MB

     Dynamical RAM for               rhoin:       7.69 MB

     Dynamical RAM for            rho*nmix:      60.58 MB

     Dynamical RAM for           G-vectors:      16.09 MB

     Dynamical RAM for          h,s,v(r/c):       0.04 MB

     Dynamical RAM for          <psi|beta>:       0.00 MB

     Dynamical RAM for                 psi:      13.25 MB

     Dynamical RAM for                hpsi:      13.25 MB

     Dynamical RAM for      wfcinit/wfcrot:       6.63 MB

     Estimated static dynamical RAM per process >     173.61 MB

     Estimated max dynamical RAM per process >     200.15 MB

     Estimated total dynamical RAM >       1.56 GB

     Initial potential from superposition of free atoms
     Check: negative starting charge=   -0.012391

     starting charge    4.99943, renormalised to    5.00000

     negative rho (up, down):  1.239E-02 0.000E+00
     Starting wfc are    5 randomized atomic wfcs +    2 random wfc

     total cpu time spent up to now is        3.8 secs

     Self-consistent Calculation

     iteration #  1     ecut=    42.00 Ry     beta= 0.30
     Davidson diagonalization with overlap
     ethr =  1.00E-02,  avg # of iterations =  5.0

     negative rho (up, down):  8.594E-03 0.000E+00

     total cpu time spent up to now is       11.9 secs

     total energy              =      -8.47905638 Ry
     Harris-Foulkes estimate   =      -8.55322974 Ry
     estimated scf accuracy    <       0.26539006 Ry

     iteration #  2     ecut=    42.00 Ry     beta= 0.30
     Davidson diagonalization with overlap
     ethr =  5.31E-03,  avg # of iterations =  1.0

     negative rho (up, down):  2.183E-03 0.000E+00

     total cpu time spent up to now is       16.9 secs

     total energy              =      -8.43398099 Ry
     Harris-Foulkes estimate   =      -8.48576585 Ry
     estimated scf accuracy    <       0.09463579 Ry

     iteration #  3     ecut=    42.00 Ry     beta= 0.30
     Davidson diagonalization with overlap
     ethr =  1.89E-03,  avg # of iterations =  2.0

     negative rho (up, down):  1.840E-03 0.000E+00

     total cpu time spent up to now is       22.2 secs

     total energy              =      -8.44888173 Ry
     Harris-Foulkes estimate   =      -8.45030672 Ry
     estimated scf accuracy    <       0.00372812 Ry

     iteration #  4     ecut=    42.00 Ry     beta= 0.30
     Davidson diagonalization with overlap
     ethr =  7.46E-05,  avg # of iterations = 13.7

     negative rho (up, down):  2.764E-04 0.000E+00

     total cpu time spent up to now is       32.7 secs

     total energy              =      -8.44894269 Ry
     Harris-Foulkes estimate   =      -8.44926192 Ry
     estimated scf accuracy    <       0.00106688 Ry

     iteration #  5     ecut=    42.00 Ry     beta= 0.30
     Davidson diagonalization with overlap
     ethr =  2.13E-05,  avg # of iterations =  6.8

     negative rho (up, down):  2.185E-04 0.000E+00

     total cpu time spent up to now is       39.8 secs

     total energy              =      -8.44913872 Ry
     Harris-Foulkes estimate   =      -8.44908783 Ry
     estimated scf accuracy    <       0.00004500 Ry

     iteration #  6     ecut=    42.00 Ry     beta= 0.30
     Davidson diagonalization with overlap
     c_bands:  1 eigenvalues not converged
     ethr =  9.00E-07,  avg # of iterations = 14.2

     negative rho (up, down):  2.805E-05 0.000E+00

     total cpu time spent up to now is       51.7 secs

     total energy              =      -8.44904329 Ry
     Harris-Foulkes estimate   =      -8.44917677 Ry
     estimated scf accuracy    <       0.00021994 Ry

     iteration #  7     ecut=    42.00 Ry     beta= 0.30
     Davidson diagonalization with overlap
     ethr =  9.00E-07,  avg # of iterations =  2.8

     negative rho (up, down):  9.949E-06 0.000E+00

     total cpu time spent up to now is       57.5 secs

     total energy              =      -8.44908348 Ry
     Harris-Foulkes estimate   =      -8.44908404 Ry
     estimated scf accuracy    <       0.00000260 Ry

     iteration #  8     ecut=    42.00 Ry     beta= 0.30
     Davidson diagonalization with overlap
     ethr =  5.21E-08,  avg # of iterations =  2.0

     negative rho (up, down):  3.386E-08 0.000E+00

     total cpu time spent up to now is       62.6 secs

     total energy              =      -8.44908338 Ry
     Harris-Foulkes estimate   =      -8.44908380 Ry
     estimated scf accuracy    <       0.00000097 Ry

     iteration #  9     ecut=    42.00 Ry     beta= 0.30
     Davidson diagonalization with overlap
     ethr =  1.95E-08,  avg # of iterations =  4.0

     negative rho (up, down):  4.329E-07 0.000E+00

     total cpu time spent up to now is       68.6 secs

     total energy              =      -8.44908358 Ry
     Harris-Foulkes estimate   =      -8.44908360 Ry
     estimated scf accuracy    <       0.00000002 Ry

     iteration # 10     ecut=    42.00 Ry     beta= 0.30
     Davidson diagonalization with overlap
     ethr =  3.54E-10,  avg # of iterations =  2.0

     total cpu time spent up to now is       73.7 secs

     End of self-consistent calculation

          k = 0.0000 0.0000 0.0000 (248049 PWs)   bands (ev):

   -13.6875  -6.5033  -3.9772  -3.9772  -0.3800   0.0966   0.2624

     occupation numbers 
     1.0000   1.0001   0.2499   0.2499   0.0000   0.0000   0.0000

          k = 0.0000 0.0000-0.5000 (247982 PWs)   bands (ev):

   -13.6875  -6.5033  -3.9772  -3.9772  -0.3733   0.0708   0.2006

     occupation numbers 
     1.0000   1.0001   0.2499   0.2499   0.0000   0.0000   0.0000

          k = 0.0000-0.5000-0.5000 (248312 PWs)   bands (ev):

   -13.6876  -6.5033  -3.9772  -3.9772  -0.3675   0.1383   0.1384

     occupation numbers 
     1.0000   1.0001   0.2499   0.2499   0.0000   0.0000   0.0000

          k =-0.5000-0.5000-0.5000 (248296 PWs)   bands (ev):

   -13.6876  -6.5033  -3.9772  -3.9772  -0.3642   0.1866   0.1922

     occupation numbers 
     1.0000   1.0001   0.2499   0.2499   0.0000   0.0000   0.0000

          k =-0.5000 0.0000 0.0000 (247982 PWs)   bands (ev):

   -13.6874  -6.5032  -3.9772  -3.9772  -0.3752   0.0715   0.2198

     occupation numbers 
     1.0000   1.0001   0.2499   0.2499   0.0000   0.0000   0.0000

          k =-0.5000 0.5000 0.0000 (248312 PWs)   bands (ev):

   -13.6876  -6.5033  -3.9772  -3.9772  -0.3693   0.1349   0.1353

     occupation numbers 
     1.0000   1.0001   0.2499   0.2499   0.0000   0.0000   0.0000

     the Fermi energy is    -4.1442 ev

!    total energy              =      -8.44908360 Ry
     Harris-Foulkes estimate   =      -8.44908359 Ry
     estimated scf accuracy    <          4.4E-09 Ry

     The total energy is the sum of the following terms:

     one-electron contribution =     -15.90985447 Ry
     hartree contribution      =       8.26551494 Ry
     xc contribution           =      -3.00863001 Ry
     ewald contribution        =       2.23450318 Ry
     smearing contrib. (-TS)   =      -0.03061724 Ry

     convergence has been achieved in  10 iterations

     Forces acting on atoms (cartesian axes, Ry/au):

     atom    1 type  1   force =    -0.96574885    0.00000000    0.00000000
     atom    2 type  2   force =     0.96574885    0.00000000    0.00000000
     The non-local contrib.  to forces
     atom    1 type  1   force =    -1.01305732    0.00000000    0.00000000
     atom    2 type  2   force =     0.00000000    0.00000000    0.00000000
     The ionic contribution  to forces
     atom    1 type  1   force =    -2.11041220    0.00000000   -0.00000000
     atom    2 type  2   force =     2.11041220   -0.00000000   -0.00000000
     The local contribution  to forces
     atom    1 type  1   force =     2.15766175    0.00000000   -0.00000000
     atom    2 type  2   force =    -1.14467808    0.00000000   -0.00000000
     The core correction contribution to forces
     atom    1 type  1   force =     0.00000000    0.00000000    0.00000000
     atom    2 type  2   force =     0.00000000    0.00000000    0.00000000
     The Hubbard contrib.    to forces
     atom    1 type  1   force =     0.00000000    0.00000000    0.00000000
     atom    2 type  2   force =     0.00000000    0.00000000    0.00000000
     The SCF correction term to forces
     atom    1 type  1   force =     0.00004795    0.00000000    0.00000000
     atom    2 type  2   force =     0.00000377    0.00000000    0.00000000

     Total force =     1.365775     Total SCF correction =     0.000048


     Computing stress (Cartesian axis) and pressure

          total   stress  (Ry/bohr**3)                   (kbar)     P=    1.65
   0.00003441   0.00000000   0.00000000          5.06      0.00      0.00
   0.00000000  -0.00000040   0.00000000          0.00     -0.06      0.00
   0.00000000   0.00000000  -0.00000040          0.00      0.00     -0.06

     kinetic stress (kbar)      9.88      0.00      0.00
                                0.00      7.88      0.00
                                0.00      0.00      7.88

     local   stress (kbar)    -30.47      0.00      0.00
                                0.00    -17.06      0.00
                                0.00      0.00    -17.06

     nonloc. stress (kbar)      9.93      0.00      0.00
                                0.00      6.52      0.00
                                0.00      0.00      6.52

     hartree stress (kbar)      8.78      0.00      0.00
                                0.00      6.87     -0.00
                                0.00     -0.00      6.87

     exc-cor stress (kbar)     -2.56      0.00      0.00
                                0.00     -2.56     -0.00
                                0.00     -0.00     -2.56

     corecor stress (kbar)      0.00      0.00      0.00
                                0.00      0.00      0.00
                                0.00      0.00      0.00

     ewald   stress (kbar)      9.50     -0.00     -0.00
                               -0.00     -1.71     -0.00
                               -0.00     -0.00     -1.71

     hubbard stress (kbar)      0.00      0.00      0.00
                                0.00      0.00      0.00
                                0.00      0.00      0.00

     london  stress (kbar)      0.00      0.00      0.00
                                0.00      0.00      0.00
                                0.00      0.00      0.00

     DFT-D3  stress (kbar)      0.00      0.00      0.00
                                0.00      0.00      0.00
                                0.00      0.00      0.00

     XDM     stress (kbar)      0.00      0.00      0.00
                                0.00      0.00      0.00
                                0.00      0.00      0.00

     dft-nl  stress (kbar)      0.00      0.00      0.00
                                0.00      0.00      0.00
                                0.00      0.00      0.00

     TS-vdW  stress (kbar)      0.00      0.00      0.00
                                0.00      0.00      0.00
                                0.00      0.00      0.00



     Writing output data file SiH6.save

     init_run     :      3.42s CPU      3.58s WALL (       1 calls)
     electrons    :     67.48s CPU     70.26s WALL (       1 calls)
     forces       :      0.41s CPU      0.42s WALL (       1 calls)
     stress       :      1.90s CPU      1.98s WALL (       1 calls)

     Called by init_run:
     wfcinit      :      1.59s CPU      1.61s WALL (       1 calls)
     wfcinit:atom :      0.03s CPU      0.04s WALL (       6 calls)
     wfcinit:wfcr :      1.48s CPU      1.50s WALL (       6 calls)
     potinit      :      0.65s CPU      0.70s WALL (       1 calls)

     Called by electrons:
     c_bands      :     53.56s CPU     53.91s WALL (      10 calls)
     sum_band     :      8.98s CPU      9.01s WALL (      10 calls)
     v_of_rho     :      4.17s CPU      4.21s WALL (      11 calls)
     v_h          :      0.39s CPU      0.40s WALL (      11 calls)
     v_xc         :      3.77s CPU      3.81s WALL (      11 calls)
     mix_rho      :      0.93s CPU      1.02s WALL (      10 calls)

     Called by c_bands:
     init_us_2    :      0.82s CPU      0.82s WALL (     138 calls)
     cegterg      :     52.94s CPU     53.10s WALL (      60 calls)

     Called by sum_band:

     Called by *egterg:
     h_psi        :     50.68s CPU     50.81s WALL (     387 calls)
     g_psi        :      0.22s CPU      0.22s WALL (     321 calls)
     cdiaghg      :      0.06s CPU      0.06s WALL (     381 calls)
     cegterg:over :      1.28s CPU      1.29s WALL (     321 calls)
     cegterg:upda :      1.06s CPU      1.07s WALL (     321 calls)
     cegterg:last :      0.38s CPU      0.38s WALL (      79 calls)

     Called by h_psi:
     h_psi:pot    :     50.43s CPU     50.56s WALL (     387 calls)
     h_psi:calbec :      0.35s CPU      0.35s WALL (     387 calls)
     vloc_psi     :     49.86s CPU     49.99s WALL (     387 calls)
     add_vuspsi   :      0.21s CPU      0.22s WALL (     387 calls)

     General routines
     calbec       :      0.39s CPU      0.39s WALL (     417 calls)
     fft          :      3.63s CPU      3.65s WALL (     128 calls)
     fftw         :     50.27s CPU     50.38s WALL (    3382 calls)

     Parallel routines
     fft_scatt_xy :      8.18s CPU      8.20s WALL (    3510 calls)
     fft_scatt_yz :      9.55s CPU      9.59s WALL (    3510 calls)

     PWSCF        :  1m13.70s CPU     1m17.81s WALL


   This run was terminated on:   8:12:40   1Oct2020            

=------------------------------------------------------------------------------=
   JOB DONE.
=------------------------------------------------------------------------------=
