
     Program PWSCF v.6.2 (svn rev. 14038) starts on  1Oct2020 at  7:48:52 

     This program is part of the open-source Quantum ESPRESSO suite
     for quantum simulation of materials; please cite
         "P. Giannozzi et al., J. Phys.:Condens. Matter 21 395502 (2009);
         "P. Giannozzi et al., J. Phys.:Condens. Matter 29 465901 (2017);
          URL http://www.quantum-espresso.org", 
     in publications or presentations arising from this work. More details at
     http://www.quantum-espresso.org/quote

     Parallel version (MPI), running on     8 processors

     MPI processes distributed on     1 nodes
     R & G space division:  proc/nbgrp/npool/nimage =       8
     Waiting for input...
     Reading input from standard input

     Current dimensions of program PWSCF are:
     Max number of different atomic species (ntypx) = 10
     Max number of k-points (npk) =  40000
     Max angular momentum in pseudopotentials (lmaxx) =  3

     Subspace diagonalization in iterative solution of the eigenvalue problem:
     a serial algorithm will be used


     Parallelization info
     --------------------
     sticks:   dense  smooth     PW     G-vecs:    dense   smooth      PW
     Min        2386    2386    623               248152   248152   33108
     Max        2387    2387    625               248157   248157   33111
     Sum       19089   19089   4989              1985227  1985227  264875



     bravais-lattice index     =            1
     lattice parameter (alat)  =      37.7945  a.u.
     unit-cell volume          =   53986.6767 (a.u.)^3
     number of atoms/cell      =            2
     number of atomic types    =            2
     number of electrons       =         5.00
     number of Kohn-Sham states=            7
     kinetic-energy cutoff     =      42.0000  Ry
     charge density cutoff     =     168.0000  Ry
     convergence threshold     =      1.0E-08
     mixing beta               =       0.3000
     number of iterations used =            8  plain     mixing
     Exchange-correlation      = SLA-PW-PBX-PBC ( 1  4  3  4 0 0)

     celldm(1)=  37.794523  celldm(2)=   0.000000  celldm(3)=   0.000000
     celldm(4)=   0.000000  celldm(5)=   0.000000  celldm(6)=   0.000000

     crystal axes: (cart. coord. in units of alat)
               a(1) = (   1.000000   0.000000   0.000000 )  
               a(2) = (   0.000000   1.000000   0.000000 )  
               a(3) = (   0.000000   0.000000   1.000000 )  

     reciprocal axes: (cart. coord. in units 2 pi/alat)
               b(1) = (  1.000000  0.000000  0.000000 )  
               b(2) = (  0.000000  1.000000  0.000000 )  
               b(3) = (  0.000000  0.000000  1.000000 )  


     PseudoPot. # 1 for Si read from file:
     ./Si.pbe-hgh.UPF
     MD5 check sum: 9a9f0f6e09139bfdb36b03ff6bc35900
     Pseudo is Norm-conserving, Zval =  4.0
     Generated in analytical, separable form
     Using radial grid of 1141 points,  3 beta functions with: 
                l(1) =   0
                l(2) =   0
                l(3) =   1

     PseudoPot. # 2 for H  read from file:
     ./H.pbe-hgh.UPF
     MD5 check sum: 5f350582108a937bec95f27f5610ab08
     Pseudo is Norm-conserving, Zval =  1.0
     Generated in analytical, separable form
     Using radial grid of  929 points,  0 beta functions with: 

     atomic species   valence    mass     pseudopotential
        Si             4.00    28.08000     Si( 1.00)
        H              1.00     1.00784     H ( 1.00)

      8 Sym. Ops. (no inversion) found


                                    s                        frac. trans.

      isym =  1     identity                                     

 cryst.   s( 1) = (     1          0          0      )
                  (     0          1          0      )
                  (     0          0          1      )

 cart.    s( 1) = (  1.0000000  0.0000000  0.0000000 )
                  (  0.0000000  1.0000000  0.0000000 )
                  (  0.0000000  0.0000000  1.0000000 )


      isym =  2     180 deg rotation - cart. axis [1,0,0]        

 cryst.   s( 2) = (     1          0          0      )
                  (     0         -1          0      )
                  (     0          0         -1      )

 cart.    s( 2) = (  1.0000000  0.0000000  0.0000000 )
                  (  0.0000000 -1.0000000  0.0000000 )
                  (  0.0000000  0.0000000 -1.0000000 )


      isym =  3      90 deg rotation - cart. axis [-1,0,0]       

 cryst.   s( 3) = (     1          0          0      )
                  (     0          0         -1      )
                  (     0          1          0      )

 cart.    s( 3) = (  1.0000000  0.0000000  0.0000000 )
                  (  0.0000000  0.0000000  1.0000000 )
                  (  0.0000000 -1.0000000  0.0000000 )


      isym =  4      90 deg rotation - cart. axis [1,0,0]        

 cryst.   s( 4) = (     1          0          0      )
                  (     0          0          1      )
                  (     0         -1          0      )

 cart.    s( 4) = (  1.0000000  0.0000000  0.0000000 )
                  (  0.0000000  0.0000000 -1.0000000 )
                  (  0.0000000  1.0000000  0.0000000 )


      isym =  5     inv. 180 deg rotation - cart. axis [0,0,1]   

 cryst.   s( 5) = (     1          0          0      )
                  (     0          1          0      )
                  (     0          0         -1      )

 cart.    s( 5) = (  1.0000000  0.0000000  0.0000000 )
                  (  0.0000000  1.0000000  0.0000000 )
                  (  0.0000000  0.0000000 -1.0000000 )


      isym =  6     inv. 180 deg rotation - cart. axis [0,1,0]   

 cryst.   s( 6) = (     1          0          0      )
                  (     0         -1          0      )
                  (     0          0          1      )

 cart.    s( 6) = (  1.0000000  0.0000000  0.0000000 )
                  (  0.0000000 -1.0000000  0.0000000 )
                  (  0.0000000  0.0000000  1.0000000 )


      isym =  7     inv. 180 deg rotation - cart. axis [0,1,1]   

 cryst.   s( 7) = (     1          0          0      )
                  (     0          0         -1      )
                  (     0         -1          0      )

 cart.    s( 7) = (  1.0000000  0.0000000  0.0000000 )
                  (  0.0000000  0.0000000 -1.0000000 )
                  (  0.0000000 -1.0000000  0.0000000 )


      isym =  8     inv. 180 deg rotation - cart. axis [0,1,-1]  

 cryst.   s( 8) = (     1          0          0      )
                  (     0          0          1      )
                  (     0          1          0      )

 cart.    s( 8) = (  1.0000000  0.0000000  0.0000000 )
                  (  0.0000000  0.0000000  1.0000000 )
                  (  0.0000000  1.0000000  0.0000000 )


     point group C_4v (4mm) 
     there are  5 classes
     the character table:

       E     2C4   C2    2s_v  2s_d 
A_1    1.00  1.00  1.00  1.00  1.00
A_2    1.00  1.00  1.00 -1.00 -1.00
B_1    1.00 -1.00  1.00  1.00 -1.00
B_2    1.00 -1.00  1.00 -1.00  1.00
E      2.00  0.00 -2.00  0.00  0.00

     the symmetry operations in each class and the name of the first element:

     E        1
          identity                                               
     2C4      3    4
           90 deg rotation - cart. axis [-1,0,0]                 
     C2       2
          180 deg rotation - cart. axis [1,0,0]                  
     2s_v     5    6
          inv. 180 deg rotation - cart. axis [0,0,1]             
     2s_d     7    8
          inv. 180 deg rotation - cart. axis [0,1,1]             

   Cartesian axes

     site n.     atom                  positions (alat units)
         1           Si  tau(   1) = (   0.0000000   0.0000000   0.0000000  )
         2           H   tau(   2) = (   0.0520000   0.0000000   0.0000000  )

   Crystallographic axes

     site n.     atom                  positions (cryst. coord.)
         1           Si  tau(   1) = (  0.0000000  0.0000000  0.0000000  )
         2           H   tau(   2) = (  0.0520000  0.0000000  0.0000000  )

     number of k points=     6  Marzari-Vanderbilt smearing, width (Ry)=  0.0500
                       cart. coord. in units 2pi/alat
        k(    1) = (   0.0000000   0.0000000   0.0000000), wk =   0.2500000
        k(    2) = (   0.0000000   0.0000000  -0.5000000), wk =   0.5000000
        k(    3) = (   0.0000000  -0.5000000  -0.5000000), wk =   0.2500000
        k(    4) = (  -0.5000000  -0.5000000  -0.5000000), wk =   0.2500000
        k(    5) = (  -0.5000000   0.0000000   0.0000000), wk =   0.2500000
        k(    6) = (  -0.5000000   0.5000000   0.0000000), wk =   0.5000000

                       cryst. coord.
        k(    1) = (   0.0000000   0.0000000   0.0000000), wk =   0.2500000
        k(    2) = (   0.0000000   0.0000000  -0.5000000), wk =   0.5000000
        k(    3) = (   0.0000000  -0.5000000  -0.5000000), wk =   0.2500000
        k(    4) = (  -0.5000000  -0.5000000  -0.5000000), wk =   0.2500000
        k(    5) = (  -0.5000000   0.0000000   0.0000000), wk =   0.2500000
        k(    6) = (  -0.5000000   0.5000000   0.0000000), wk =   0.5000000

     Dense  grid:  1985227 G-vectors     FFT dimensions: ( 160, 160, 160)

     Dynamical RAM for                 wfc:       3.31 MB

     Dynamical RAM for     wfc (w. buffer):      23.19 MB

     Dynamical RAM for           str. fact:       7.57 MB

     Dynamical RAM for           local pot:       0.00 MB

     Dynamical RAM for          nlocal pot:       2.37 MB

     Dynamical RAM for                qrad:       2.14 MB

     Dynamical RAM for          rho,v,vnew:      23.08 MB

     Dynamical RAM for               rhoin:       7.69 MB

     Dynamical RAM for            rho*nmix:      60.58 MB

     Dynamical RAM for           G-vectors:      16.09 MB

     Dynamical RAM for          h,s,v(r/c):       0.04 MB

     Dynamical RAM for          <psi|beta>:       0.00 MB

     Dynamical RAM for                 psi:      13.25 MB

     Dynamical RAM for                hpsi:      13.25 MB

     Dynamical RAM for      wfcinit/wfcrot:       6.63 MB

     Estimated static dynamical RAM per process >     173.61 MB

     Estimated max dynamical RAM per process >     200.15 MB

     Estimated total dynamical RAM >       1.56 GB

     Initial potential from superposition of free atoms
     Check: negative starting charge=   -0.012401

     starting charge    4.99943, renormalised to    5.00000

     negative rho (up, down):  1.240E-02 0.000E+00
     Starting wfc are    5 randomized atomic wfcs +    2 random wfc

     total cpu time spent up to now is        3.6 secs

     Self-consistent Calculation

     iteration #  1     ecut=    42.00 Ry     beta= 0.30
     Davidson diagonalization with overlap
     ethr =  1.00E-02,  avg # of iterations =  5.2

     negative rho (up, down):  8.579E-03 0.000E+00

     total cpu time spent up to now is       10.4 secs

     total energy              =      -8.49724558 Ry
     Harris-Foulkes estimate   =      -8.56641260 Ry
     estimated scf accuracy    <       0.25422963 Ry

     iteration #  2     ecut=    42.00 Ry     beta= 0.30
     Davidson diagonalization with overlap
     ethr =  5.08E-03,  avg # of iterations =  1.0

     negative rho (up, down):  1.957E-03 0.000E+00

     total cpu time spent up to now is       14.4 secs

     total energy              =      -8.45188377 Ry
     Harris-Foulkes estimate   =      -8.50380496 Ry
     estimated scf accuracy    <       0.09407481 Ry

     iteration #  3     ecut=    42.00 Ry     beta= 0.30
     Davidson diagonalization with overlap
     ethr =  1.88E-03,  avg # of iterations =  2.0

     negative rho (up, down):  2.011E-03 0.000E+00

     total cpu time spent up to now is       19.8 secs

     total energy              =      -8.46875664 Ry
     Harris-Foulkes estimate   =      -8.46811831 Ry
     estimated scf accuracy    <       0.00335173 Ry

     iteration #  4     ecut=    42.00 Ry     beta= 0.30
     Davidson diagonalization with overlap
     ethr =  6.70E-05,  avg # of iterations = 13.0

     negative rho (up, down):  6.622E-04 0.000E+00

     total cpu time spent up to now is       28.6 secs

     total energy              =      -8.46608959 Ry
     Harris-Foulkes estimate   =      -8.46887364 Ry
     estimated scf accuracy    <       0.00506169 Ry

     iteration #  5     ecut=    42.00 Ry     beta= 0.30
     Davidson diagonalization with overlap
     ethr =  6.70E-05,  avg # of iterations =  2.0

     negative rho (up, down):  1.144E-04 0.000E+00

     total cpu time spent up to now is       35.7 secs

     total energy              =      -8.46688803 Ry
     Harris-Foulkes estimate   =      -8.46690706 Ry
     estimated scf accuracy    <       0.00010271 Ry

     iteration #  6     ecut=    42.00 Ry     beta= 0.30
     Davidson diagonalization with overlap
     c_bands:  1 eigenvalues not converged
     c_bands:  1 eigenvalues not converged
     ethr =  2.05E-06,  avg # of iterations = 17.3

     negative rho (up, down):  1.039E-07 0.000E+00

     total cpu time spent up to now is       47.3 secs

     total energy              =      -8.46691248 Ry
     Harris-Foulkes estimate   =      -8.46690666 Ry
     estimated scf accuracy    <       0.00000575 Ry

     iteration #  7     ecut=    42.00 Ry     beta= 0.30
     Davidson diagonalization with overlap
     ethr =  1.15E-07,  avg # of iterations =  6.2

     negative rho (up, down):  1.674E-06 0.000E+00

     total cpu time spent up to now is       54.1 secs

     total energy              =      -8.46691097 Ry
     Harris-Foulkes estimate   =      -8.46691613 Ry
     estimated scf accuracy    <       0.00001143 Ry

     iteration #  8     ecut=    42.00 Ry     beta= 0.30
     Davidson diagonalization with overlap
     ethr =  1.15E-07,  avg # of iterations =  2.0

     negative rho (up, down):  3.988E-07 0.000E+00

     total cpu time spent up to now is       58.9 secs

     total energy              =      -8.46691175 Ry
     Harris-Foulkes estimate   =      -8.46691221 Ry
     estimated scf accuracy    <       0.00000083 Ry

     iteration #  9     ecut=    42.00 Ry     beta= 0.30
     Davidson diagonalization with overlap
     ethr =  1.65E-08,  avg # of iterations =  2.0

     total cpu time spent up to now is       63.7 secs

     total energy              =      -8.46691191 Ry
     Harris-Foulkes estimate   =      -8.46691203 Ry
     estimated scf accuracy    <       0.00000021 Ry

     iteration # 10     ecut=    42.00 Ry     beta= 0.30
     Davidson diagonalization with overlap
     ethr =  4.21E-09,  avg # of iterations =  2.0

     total cpu time spent up to now is       68.3 secs

     End of self-consistent calculation

          k = 0.0000 0.0000 0.0000 (248049 PWs)   bands (ev):

   -13.6502  -6.5101  -3.9765  -3.9765  -0.3782   0.0997   0.2623

     occupation numbers 
     1.0000   1.0001   0.2499   0.2499   0.0000   0.0000   0.0000

          k = 0.0000 0.0000-0.5000 (247982 PWs)   bands (ev):

   -13.6502  -6.5101  -3.9765  -3.9765  -0.3714   0.0727   0.2019

     occupation numbers 
     1.0000   1.0001   0.2499   0.2499   0.0000   0.0000   0.0000

          k = 0.0000-0.5000-0.5000 (248312 PWs)   bands (ev):

   -13.6504  -6.5101  -3.9765  -3.9765  -0.3656   0.1391   0.1407

     occupation numbers 
     1.0000   1.0001   0.2499   0.2499   0.0000   0.0000   0.0000

          k =-0.5000-0.5000-0.5000 (248296 PWs)   bands (ev):

   -13.6504  -6.5101  -3.9765  -3.9765  -0.3622   0.1861   0.1921

     occupation numbers 
     1.0000   1.0001   0.2499   0.2499   0.0000   0.0000   0.0000

          k =-0.5000 0.0000 0.0000 (247982 PWs)   bands (ev):

   -13.6502  -6.5101  -3.9765  -3.9765  -0.3733   0.0732   0.2216

     occupation numbers 
     1.0000   1.0001   0.2499   0.2499   0.0000   0.0000   0.0000

          k =-0.5000 0.5000 0.0000 (248312 PWs)   bands (ev):

   -13.6503  -6.5101  -3.9765  -3.9765  -0.3674   0.1356   0.1362

     occupation numbers 
     1.0000   1.0001   0.2499   0.2499   0.0000   0.0000   0.0000

     the Fermi energy is    -4.1436 ev

!    total energy              =      -8.46691198 Ry
     Harris-Foulkes estimate   =      -8.46691195 Ry
     estimated scf accuracy    <          8.8E-09 Ry

     The total energy is the sum of the following terms:

     one-electron contribution =     -15.87523812 Ry
     hartree contribution      =       8.24715396 Ry
     xc contribution           =      -3.00321335 Ry
     ewald contribution        =       2.19500597 Ry
     smearing contrib. (-TS)   =      -0.03062044 Ry

     convergence has been achieved in  10 iterations

     Forces acting on atoms (cartesian axes, Ry/au):

     atom    1 type  1   force =    -0.92145511    0.00000000    0.00000000
     atom    2 type  2   force =     0.92145511    0.00000000    0.00000000
     The non-local contrib.  to forces
     atom    1 type  1   force =    -0.96469207    0.00000000    0.00000000
     atom    2 type  2   force =     0.00000000    0.00000000    0.00000000
     The ionic contribution  to forces
     atom    1 type  1   force =    -2.06998715    0.00000000   -0.00000000
     atom    2 type  2   force =     2.06998715   -0.00000000   -0.00000000
     The local contribution  to forces
     atom    1 type  1   force =     2.11321136   -0.00000000   -0.00000000
     atom    2 type  2   force =    -1.14855325    0.00000000   -0.00000000
     The core correction contribution to forces
     atom    1 type  1   force =     0.00000000    0.00000000    0.00000000
     atom    2 type  2   force =     0.00000000    0.00000000    0.00000000
     The Hubbard contrib.    to forces
     atom    1 type  1   force =     0.00000000    0.00000000    0.00000000
     atom    2 type  2   force =     0.00000000    0.00000000    0.00000000
     The SCF correction term to forces
     atom    1 type  1   force =    -0.00000747   -0.00000000    0.00000000
     atom    2 type  2   force =     0.00000099   -0.00000000    0.00000000

     Total force =     1.303134     Total SCF correction =     0.000008


     Computing stress (Cartesian axis) and pressure

          total   stress  (Ry/bohr**3)                   (kbar)     P=    1.59
   0.00003315   0.00000000   0.00000000          4.88      0.00      0.00
   0.00000000  -0.00000039   0.00000000          0.00     -0.06      0.00
   0.00000000   0.00000000  -0.00000039          0.00      0.00     -0.06

     kinetic stress (kbar)      9.80      0.00      0.00
                                0.00      7.86      0.00
                                0.00      0.00      7.86

     local   stress (kbar)    -30.37      0.00     -0.00
                                0.00    -17.00      0.00
                               -0.00      0.00    -17.00

     nonloc. stress (kbar)      9.83      0.00      0.00
                                0.00      6.51      0.00
                                0.00      0.00      6.51

     hartree stress (kbar)      8.77      0.00      0.00
                                0.00      6.85     -0.00
                                0.00     -0.00      6.85

     exc-cor stress (kbar)     -2.55     -0.00      0.00
                               -0.00     -2.56     -0.00
                                0.00     -0.00     -2.56

     corecor stress (kbar)      0.00      0.00      0.00
                                0.00      0.00      0.00
                                0.00      0.00      0.00

     ewald   stress (kbar)      9.39      0.00     -0.00
                                0.00     -1.71     -0.00
                               -0.00     -0.00     -1.71

     hubbard stress (kbar)      0.00      0.00      0.00
                                0.00      0.00      0.00
                                0.00      0.00      0.00

     london  stress (kbar)      0.00      0.00      0.00
                                0.00      0.00      0.00
                                0.00      0.00      0.00

     DFT-D3  stress (kbar)      0.00      0.00      0.00
                                0.00      0.00      0.00
                                0.00      0.00      0.00

     XDM     stress (kbar)      0.00      0.00      0.00
                                0.00      0.00      0.00
                                0.00      0.00      0.00

     dft-nl  stress (kbar)      0.00      0.00      0.00
                                0.00      0.00      0.00
                                0.00      0.00      0.00

     TS-vdW  stress (kbar)      0.00      0.00      0.00
                                0.00      0.00      0.00
                                0.00      0.00      0.00



     Writing output data file SiH7.save

     init_run     :      3.12s CPU      3.27s WALL (       1 calls)
     electrons    :     60.23s CPU     66.65s WALL (       1 calls)
     forces       :      0.45s CPU      0.46s WALL (       1 calls)
     stress       :      1.81s CPU      1.90s WALL (       1 calls)

     Called by init_run:
     wfcinit      :      1.40s CPU      1.42s WALL (       1 calls)
     wfcinit:atom :      0.03s CPU      0.03s WALL (       6 calls)
     wfcinit:wfcr :      1.29s CPU      1.31s WALL (       6 calls)
     potinit      :      0.61s CPU      0.66s WALL (       1 calls)

     Called by electrons:
     c_bands      :     47.80s CPU     52.26s WALL (      10 calls)
     sum_band     :      7.99s CPU      8.01s WALL (      10 calls)
     v_of_rho     :      3.78s CPU      3.82s WALL (      11 calls)
     v_h          :      0.35s CPU      0.36s WALL (      11 calls)
     v_xc         :      3.42s CPU      3.46s WALL (      11 calls)
     mix_rho      :      0.80s CPU      0.90s WALL (      10 calls)

     Called by c_bands:
     init_us_2    :      0.82s CPU      0.83s WALL (     138 calls)
     cegterg      :     47.23s CPU     47.37s WALL (      60 calls)

     Called by sum_band:

     Called by *egterg:
     h_psi        :     45.02s CPU     45.14s WALL (     382 calls)
     g_psi        :      0.22s CPU      0.22s WALL (     316 calls)
     cdiaghg      :      0.06s CPU      0.06s WALL (     376 calls)
     cegterg:over :      1.21s CPU      1.21s WALL (     316 calls)
     cegterg:upda :      1.03s CPU      1.03s WALL (     316 calls)
     cegterg:last :      0.35s CPU      0.35s WALL (      78 calls)

     Called by h_psi:
     h_psi:pot    :     44.80s CPU     44.92s WALL (     382 calls)
     h_psi:calbec :      0.39s CPU      0.39s WALL (     382 calls)
     vloc_psi     :     44.20s CPU     44.31s WALL (     382 calls)
     add_vuspsi   :      0.21s CPU      0.22s WALL (     382 calls)

     General routines
     calbec       :      0.42s CPU      0.43s WALL (     412 calls)
     fft          :      3.21s CPU      3.24s WALL (     128 calls)
     fftw         :     45.09s CPU     45.18s WALL (    3398 calls)

     Parallel routines
     fft_scatt_xy :      6.44s CPU      6.46s WALL (    3526 calls)
     fft_scatt_yz :     10.09s CPU     10.12s WALL (    3526 calls)

     PWSCF        :  1m 6.11s CPU     1m14.03s WALL


   This run was terminated on:   7:50: 6   1Oct2020            

=------------------------------------------------------------------------------=
   JOB DONE.
=------------------------------------------------------------------------------=
