
     Program PWSCF v.6.2 (svn rev. 14038) starts on  1Oct2020 at  8: 0: 7 

     This program is part of the open-source Quantum ESPRESSO suite
     for quantum simulation of materials; please cite
         "P. Giannozzi et al., J. Phys.:Condens. Matter 21 395502 (2009);
         "P. Giannozzi et al., J. Phys.:Condens. Matter 29 465901 (2017);
          URL http://www.quantum-espresso.org", 
     in publications or presentations arising from this work. More details at
     http://www.quantum-espresso.org/quote

     Parallel version (MPI), running on     8 processors

     MPI processes distributed on     1 nodes
     R & G space division:  proc/nbgrp/npool/nimage =       8
     Waiting for input...
     Reading input from standard input

     Current dimensions of program PWSCF are:
     Max number of different atomic species (ntypx) = 10
     Max number of k-points (npk) =  40000
     Max angular momentum in pseudopotentials (lmaxx) =  3

     Subspace diagonalization in iterative solution of the eigenvalue problem:
     a serial algorithm will be used


     Parallelization info
     --------------------
     sticks:   dense  smooth     PW     G-vecs:    dense   smooth      PW
     Min        2386    2386    623               248152   248152   33108
     Max        2387    2387    625               248157   248157   33111
     Sum       19089   19089   4989              1985227  1985227  264875



     bravais-lattice index     =            1
     lattice parameter (alat)  =      37.7945  a.u.
     unit-cell volume          =   53986.6767 (a.u.)^3
     number of atoms/cell      =            2
     number of atomic types    =            2
     number of electrons       =         5.00
     number of Kohn-Sham states=            7
     kinetic-energy cutoff     =      42.0000  Ry
     charge density cutoff     =     168.0000  Ry
     convergence threshold     =      1.0E-08
     mixing beta               =       0.3000
     number of iterations used =            8  plain     mixing
     Exchange-correlation      = SLA-PW-PBX-PBC ( 1  4  3  4 0 0)

     celldm(1)=  37.794523  celldm(2)=   0.000000  celldm(3)=   0.000000
     celldm(4)=   0.000000  celldm(5)=   0.000000  celldm(6)=   0.000000

     crystal axes: (cart. coord. in units of alat)
               a(1) = (   1.000000   0.000000   0.000000 )  
               a(2) = (   0.000000   1.000000   0.000000 )  
               a(3) = (   0.000000   0.000000   1.000000 )  

     reciprocal axes: (cart. coord. in units 2 pi/alat)
               b(1) = (  1.000000  0.000000  0.000000 )  
               b(2) = (  0.000000  1.000000  0.000000 )  
               b(3) = (  0.000000  0.000000  1.000000 )  


     PseudoPot. # 1 for Si read from file:
     ./Si.pbe-hgh.UPF
     MD5 check sum: 9a9f0f6e09139bfdb36b03ff6bc35900
     Pseudo is Norm-conserving, Zval =  4.0
     Generated in analytical, separable form
     Using radial grid of 1141 points,  3 beta functions with: 
                l(1) =   0
                l(2) =   0
                l(3) =   1

     PseudoPot. # 2 for H  read from file:
     ./H.pbe-hgh.UPF
     MD5 check sum: 5f350582108a937bec95f27f5610ab08
     Pseudo is Norm-conserving, Zval =  1.0
     Generated in analytical, separable form
     Using radial grid of  929 points,  0 beta functions with: 

     atomic species   valence    mass     pseudopotential
        Si             4.00    28.08000     Si( 1.00)
        H              1.00     1.00784     H ( 1.00)

      8 Sym. Ops. (no inversion) found


                                    s                        frac. trans.

      isym =  1     identity                                     

 cryst.   s( 1) = (     1          0          0      )
                  (     0          1          0      )
                  (     0          0          1      )

 cart.    s( 1) = (  1.0000000  0.0000000  0.0000000 )
                  (  0.0000000  1.0000000  0.0000000 )
                  (  0.0000000  0.0000000  1.0000000 )


      isym =  2     180 deg rotation - cart. axis [1,0,0]        

 cryst.   s( 2) = (     1          0          0      )
                  (     0         -1          0      )
                  (     0          0         -1      )

 cart.    s( 2) = (  1.0000000  0.0000000  0.0000000 )
                  (  0.0000000 -1.0000000  0.0000000 )
                  (  0.0000000  0.0000000 -1.0000000 )


      isym =  3      90 deg rotation - cart. axis [-1,0,0]       

 cryst.   s( 3) = (     1          0          0      )
                  (     0          0         -1      )
                  (     0          1          0      )

 cart.    s( 3) = (  1.0000000  0.0000000  0.0000000 )
                  (  0.0000000  0.0000000  1.0000000 )
                  (  0.0000000 -1.0000000  0.0000000 )


      isym =  4      90 deg rotation - cart. axis [1,0,0]        

 cryst.   s( 4) = (     1          0          0      )
                  (     0          0          1      )
                  (     0         -1          0      )

 cart.    s( 4) = (  1.0000000  0.0000000  0.0000000 )
                  (  0.0000000  0.0000000 -1.0000000 )
                  (  0.0000000  1.0000000  0.0000000 )


      isym =  5     inv. 180 deg rotation - cart. axis [0,0,1]   

 cryst.   s( 5) = (     1          0          0      )
                  (     0          1          0      )
                  (     0          0         -1      )

 cart.    s( 5) = (  1.0000000  0.0000000  0.0000000 )
                  (  0.0000000  1.0000000  0.0000000 )
                  (  0.0000000  0.0000000 -1.0000000 )


      isym =  6     inv. 180 deg rotation - cart. axis [0,1,0]   

 cryst.   s( 6) = (     1          0          0      )
                  (     0         -1          0      )
                  (     0          0          1      )

 cart.    s( 6) = (  1.0000000  0.0000000  0.0000000 )
                  (  0.0000000 -1.0000000  0.0000000 )
                  (  0.0000000  0.0000000  1.0000000 )


      isym =  7     inv. 180 deg rotation - cart. axis [0,1,1]   

 cryst.   s( 7) = (     1          0          0      )
                  (     0          0         -1      )
                  (     0         -1          0      )

 cart.    s( 7) = (  1.0000000  0.0000000  0.0000000 )
                  (  0.0000000  0.0000000 -1.0000000 )
                  (  0.0000000 -1.0000000  0.0000000 )


      isym =  8     inv. 180 deg rotation - cart. axis [0,1,-1]  

 cryst.   s( 8) = (     1          0          0      )
                  (     0          0          1      )
                  (     0          1          0      )

 cart.    s( 8) = (  1.0000000  0.0000000  0.0000000 )
                  (  0.0000000  0.0000000  1.0000000 )
                  (  0.0000000  1.0000000  0.0000000 )


     point group C_4v (4mm) 
     there are  5 classes
     the character table:

       E     2C4   C2    2s_v  2s_d 
A_1    1.00  1.00  1.00  1.00  1.00
A_2    1.00  1.00  1.00 -1.00 -1.00
B_1    1.00 -1.00  1.00  1.00 -1.00
B_2    1.00 -1.00  1.00 -1.00  1.00
E      2.00  0.00 -2.00  0.00  0.00

     the symmetry operations in each class and the name of the first element:

     E        1
          identity                                               
     2C4      3    4
           90 deg rotation - cart. axis [-1,0,0]                 
     C2       2
          180 deg rotation - cart. axis [1,0,0]                  
     2s_v     5    6
          inv. 180 deg rotation - cart. axis [0,0,1]             
     2s_d     7    8
          inv. 180 deg rotation - cart. axis [0,1,1]             

   Cartesian axes

     site n.     atom                  positions (alat units)
         1           Si  tau(   1) = (   0.0000000   0.0000000   0.0000000  )
         2           H   tau(   2) = (   0.0535000   0.0000000   0.0000000  )

   Crystallographic axes

     site n.     atom                  positions (cryst. coord.)
         1           Si  tau(   1) = (  0.0000000  0.0000000  0.0000000  )
         2           H   tau(   2) = (  0.0535000  0.0000000  0.0000000  )

     number of k points=     6  Marzari-Vanderbilt smearing, width (Ry)=  0.0500
                       cart. coord. in units 2pi/alat
        k(    1) = (   0.0000000   0.0000000   0.0000000), wk =   0.2500000
        k(    2) = (   0.0000000   0.0000000  -0.5000000), wk =   0.5000000
        k(    3) = (   0.0000000  -0.5000000  -0.5000000), wk =   0.2500000
        k(    4) = (  -0.5000000  -0.5000000  -0.5000000), wk =   0.2500000
        k(    5) = (  -0.5000000   0.0000000   0.0000000), wk =   0.2500000
        k(    6) = (  -0.5000000   0.5000000   0.0000000), wk =   0.5000000

                       cryst. coord.
        k(    1) = (   0.0000000   0.0000000   0.0000000), wk =   0.2500000
        k(    2) = (   0.0000000   0.0000000  -0.5000000), wk =   0.5000000
        k(    3) = (   0.0000000  -0.5000000  -0.5000000), wk =   0.2500000
        k(    4) = (  -0.5000000  -0.5000000  -0.5000000), wk =   0.2500000
        k(    5) = (  -0.5000000   0.0000000   0.0000000), wk =   0.2500000
        k(    6) = (  -0.5000000   0.5000000   0.0000000), wk =   0.5000000

     Dense  grid:  1985227 G-vectors     FFT dimensions: ( 160, 160, 160)

     Dynamical RAM for                 wfc:       3.31 MB

     Dynamical RAM for     wfc (w. buffer):      23.19 MB

     Dynamical RAM for           str. fact:       7.57 MB

     Dynamical RAM for           local pot:       0.00 MB

     Dynamical RAM for          nlocal pot:       2.37 MB

     Dynamical RAM for                qrad:       2.14 MB

     Dynamical RAM for          rho,v,vnew:      23.08 MB

     Dynamical RAM for               rhoin:       7.69 MB

     Dynamical RAM for            rho*nmix:      60.58 MB

     Dynamical RAM for           G-vectors:      16.09 MB

     Dynamical RAM for          h,s,v(r/c):       0.04 MB

     Dynamical RAM for          <psi|beta>:       0.00 MB

     Dynamical RAM for                 psi:      13.25 MB

     Dynamical RAM for                hpsi:      13.25 MB

     Dynamical RAM for      wfcinit/wfcrot:       6.63 MB

     Estimated static dynamical RAM per process >     173.61 MB

     Estimated max dynamical RAM per process >     200.15 MB

     Estimated total dynamical RAM >       1.56 GB

     Initial potential from superposition of free atoms
     Check: negative starting charge=   -0.012416

     starting charge    4.99943, renormalised to    5.00000

     negative rho (up, down):  1.242E-02 0.000E+00
     Starting wfc are    5 randomized atomic wfcs +    2 random wfc

     total cpu time spent up to now is        3.8 secs

     Self-consistent Calculation

     iteration #  1     ecut=    42.00 Ry     beta= 0.30
     Davidson diagonalization with overlap
     ethr =  1.00E-02,  avg # of iterations =  5.2

     negative rho (up, down):  8.591E-03 0.000E+00

     total cpu time spent up to now is       11.5 secs

     total energy              =      -8.54397276 Ry
     Harris-Foulkes estimate   =      -8.60892144 Ry
     estimated scf accuracy    <       0.23869944 Ry

     iteration #  2     ecut=    42.00 Ry     beta= 0.30
     Davidson diagonalization with overlap
     ethr =  4.77E-03,  avg # of iterations =  1.0

     negative rho (up, down):  1.971E-03 0.000E+00

     total cpu time spent up to now is       16.0 secs

     total energy              =      -8.50178970 Ry
     Harris-Foulkes estimate   =      -8.55015451 Ry
     estimated scf accuracy    <       0.08816175 Ry

     iteration #  3     ecut=    42.00 Ry     beta= 0.30
     Davidson diagonalization with overlap
     ethr =  1.76E-03,  avg # of iterations =  2.0

     negative rho (up, down):  1.946E-03 0.000E+00

     total cpu time spent up to now is       20.9 secs

     total energy              =      -8.51629240 Ry
     Harris-Foulkes estimate   =      -8.51645523 Ry
     estimated scf accuracy    <       0.00258591 Ry

     iteration #  4     ecut=    42.00 Ry     beta= 0.30
     Davidson diagonalization with overlap
     ethr =  5.17E-05,  avg # of iterations = 14.8

     negative rho (up, down):  2.115E-03 0.000E+00

     total cpu time spent up to now is       32.5 secs

     total energy              =      -8.51647856 Ry
     Harris-Foulkes estimate   =      -8.51654053 Ry
     estimated scf accuracy    <       0.00276279 Ry

     iteration #  5     ecut=    42.00 Ry     beta= 0.30
     Davidson diagonalization with overlap
     ethr =  5.17E-05,  avg # of iterations =  1.0

     negative rho (up, down):  2.057E-03 0.000E+00

     total cpu time spent up to now is       36.9 secs

     total energy              =      -8.51552270 Ry
     Harris-Foulkes estimate   =      -8.51650204 Ry
     estimated scf accuracy    <       0.00293196 Ry

     iteration #  6     ecut=    42.00 Ry     beta= 0.30
     Davidson diagonalization with overlap
     ethr =  5.17E-05,  avg # of iterations =  1.0

     negative rho (up, down):  2.800E-04 0.000E+00

     total cpu time spent up to now is       41.4 secs

     total energy              =      -8.51545811 Ry
     Harris-Foulkes estimate   =      -8.51568728 Ry
     estimated scf accuracy    <       0.00083212 Ry

     iteration #  7     ecut=    42.00 Ry     beta= 0.30
     Davidson diagonalization with overlap
     ethr =  1.66E-05,  avg # of iterations =  7.7

     negative rho (up, down):  3.387E-04 0.000E+00

     total cpu time spent up to now is       51.1 secs

     total energy              =      -8.51603566 Ry
     Harris-Foulkes estimate   =      -8.51619871 Ry
     estimated scf accuracy    <       0.00162512 Ry

     iteration #  8     ecut=    42.00 Ry     beta= 0.30
     Davidson diagonalization with overlap
     ethr =  1.66E-05,  avg # of iterations =  1.0

     negative rho (up, down):  2.986E-03 0.000E+00

     total cpu time spent up to now is       55.6 secs

     total energy              =      -8.51511223 Ry
     Harris-Foulkes estimate   =      -8.51604390 Ry
     estimated scf accuracy    <       0.00120477 Ry

     iteration #  9     ecut=    42.00 Ry     beta= 0.30
     Davidson diagonalization with overlap
     ethr =  1.66E-05,  avg # of iterations =  4.5

     negative rho (up, down):  7.778E-05 0.000E+00

     total cpu time spent up to now is       63.5 secs

     total energy              =      -8.51563034 Ry
     Harris-Foulkes estimate   =      -8.51612295 Ry
     estimated scf accuracy    <       0.00210751 Ry

     iteration # 10     ecut=    42.00 Ry     beta= 0.30
     Davidson diagonalization with overlap
     ethr =  1.66E-05,  avg # of iterations =  3.0

     negative rho (up, down):  8.015E-05 0.000E+00

     total cpu time spent up to now is       69.1 secs

     total energy              =      -8.51571494 Ry
     Harris-Foulkes estimate   =      -8.51571486 Ry
     estimated scf accuracy    <       0.00048754 Ry

     iteration # 11     ecut=    42.00 Ry     beta= 0.30
     Davidson diagonalization with overlap
     ethr =  9.75E-06,  avg # of iterations =  1.0

     negative rho (up, down):  4.423E-06 0.000E+00

     total cpu time spent up to now is       73.7 secs

     total energy              =      -8.51562901 Ry
     Harris-Foulkes estimate   =      -8.51571660 Ry
     estimated scf accuracy    <       0.00048738 Ry

     iteration # 12     ecut=    42.00 Ry     beta= 0.30
     Davidson diagonalization with overlap
     ethr =  9.75E-06,  avg # of iterations =  1.0

     negative rho (up, down):  1.786E-06 0.000E+00

     total cpu time spent up to now is       78.2 secs

     total energy              =      -8.51557810 Ry
     Harris-Foulkes estimate   =      -8.51564307 Ry
     estimated scf accuracy    <       0.00016360 Ry

     iteration # 13     ecut=    42.00 Ry     beta= 0.30
     Davidson diagonalization with overlap
     ethr =  3.27E-06,  avg # of iterations =  9.0

     negative rho (up, down):  1.147E-06 0.000E+00

     total cpu time spent up to now is       86.6 secs

     total energy              =      -8.51560777 Ry
     Harris-Foulkes estimate   =      -8.51560877 Ry
     estimated scf accuracy    <       0.00000128 Ry

     iteration # 14     ecut=    42.00 Ry     beta= 0.30
     Davidson diagonalization with overlap
     ethr =  2.57E-08,  avg # of iterations =  2.0

     negative rho (up, down):  8.756E-07 0.000E+00

     total cpu time spent up to now is       93.7 secs

     total energy              =      -8.51560844 Ry
     Harris-Foulkes estimate   =      -8.51560823 Ry
     estimated scf accuracy    <       0.00000012 Ry

     iteration # 15     ecut=    42.00 Ry     beta= 0.30
     Davidson diagonalization with overlap
     ethr =  2.34E-09,  avg # of iterations =  2.0

     negative rho (up, down):  1.144E-06 0.000E+00

     total cpu time spent up to now is       98.6 secs

     total energy              =      -8.51560848 Ry
     Harris-Foulkes estimate   =      -8.51560845 Ry
     estimated scf accuracy    <       0.00000026 Ry

     iteration # 16     ecut=    42.00 Ry     beta= 0.30
     Davidson diagonalization with overlap
     ethr =  2.34E-09,  avg # of iterations =  1.0

     negative rho (up, down):  2.682E-06 0.000E+00

     total cpu time spent up to now is      103.1 secs

     total energy              =      -8.51560888 Ry
     Harris-Foulkes estimate   =      -8.51560848 Ry
     estimated scf accuracy    <       0.00000030 Ry

     iteration # 17     ecut=    42.00 Ry     beta= 0.30
     Davidson diagonalization with overlap
     ethr =  2.34E-09,  avg # of iterations =  3.0

     negative rho (up, down):  2.584E-06 0.000E+00

     total cpu time spent up to now is      109.0 secs

     total energy              =      -8.51560893 Ry
     Harris-Foulkes estimate   =      -8.51560894 Ry
     estimated scf accuracy    <       0.00000140 Ry

     iteration # 18     ecut=    42.00 Ry     beta= 0.30
     Davidson diagonalization with overlap
     ethr =  2.34E-09,  avg # of iterations =  1.0

     negative rho (up, down):  2.414E-06 0.000E+00

     total cpu time spent up to now is      113.6 secs

     total energy              =      -8.51560903 Ry
     Harris-Foulkes estimate   =      -8.51560893 Ry
     estimated scf accuracy    <       0.00000150 Ry

     iteration # 19     ecut=    42.00 Ry     beta= 0.30
     Davidson diagonalization with overlap
     ethr =  2.34E-09,  avg # of iterations =  1.0

     negative rho (up, down):  5.507E-07 0.000E+00

     total cpu time spent up to now is      118.1 secs

     total energy              =      -8.51560831 Ry
     Harris-Foulkes estimate   =      -8.51560903 Ry
     estimated scf accuracy    <       0.00000180 Ry

     iteration # 20     ecut=    42.00 Ry     beta= 0.30
     Davidson diagonalization with overlap
     ethr =  2.34E-09,  avg # of iterations =  3.0

     total cpu time spent up to now is      124.2 secs

     total energy              =      -8.51560819 Ry
     Harris-Foulkes estimate   =      -8.51560843 Ry
     estimated scf accuracy    <       0.00000021 Ry

     iteration # 21     ecut=    42.00 Ry     beta= 0.30
     Davidson diagonalization with overlap
     ethr =  2.34E-09,  avg # of iterations =  2.0

     total cpu time spent up to now is      129.2 secs

     End of self-consistent calculation

          k = 0.0000 0.0000 0.0000 (248049 PWs)   bands (ev):

   -13.5335  -6.5290  -3.9745  -3.9745  -0.3728   0.1031   0.2622

     occupation numbers 
     1.0000   1.0001   0.2499   0.2499   0.0000   0.0000   0.0000

          k = 0.0000 0.0000-0.5000 (247982 PWs)   bands (ev):

   -13.5335  -6.5290  -3.9745  -3.9745  -0.3658   0.0738   0.2055

     occupation numbers 
     1.0000   1.0001   0.2499   0.2499   0.0000   0.0000   0.0000

          k = 0.0000-0.5000-0.5000 (248312 PWs)   bands (ev):

   -13.5336  -6.5291  -3.9745  -3.9745  -0.3598   0.1401   0.1439

     occupation numbers 
     1.0000   1.0001   0.2499   0.2499   0.0000   0.0000   0.0000

          k =-0.5000-0.5000-0.5000 (248296 PWs)   bands (ev):

   -13.5336  -6.5291  -3.9745  -3.9745  -0.3562   0.1861   0.1927

     occupation numbers 
     1.0000   1.0001   0.2499   0.2499   0.0000   0.0000   0.0000

          k =-0.5000 0.0000 0.0000 (247982 PWs)   bands (ev):

   -13.5334  -6.5290  -3.9745  -3.9745  -0.3677   0.0739   0.2249

     occupation numbers 
     1.0000   1.0001   0.2499   0.2499   0.0000   0.0000   0.0000

          k =-0.5000 0.5000 0.0000 (248312 PWs)   bands (ev):

   -13.5336  -6.5291  -3.9745  -3.9745  -0.3616   0.1361   0.1369

     occupation numbers 
     1.0000   1.0001   0.2499   0.2499   0.0000   0.0000   0.0000

     the Fermi energy is    -4.1415 ev

!    total energy              =      -8.51560822 Ry
     Harris-Foulkes estimate   =      -8.51560823 Ry
     estimated scf accuracy    <          2.8E-09 Ry

     The total energy is the sum of the following terms:

     one-electron contribution =     -15.77070757 Ry
     hartree contribution      =       8.19165639 Ry
     xc contribution           =      -2.98687642 Ry
     ewald contribution        =       2.08094791 Ry
     smearing contrib. (-TS)   =      -0.03062854 Ry

     convergence has been achieved in  21 iterations

     Forces acting on atoms (cartesian axes, Ry/au):

     atom    1 type  1   force =    -0.79898572    0.00000000    0.00000000
     atom    2 type  2   force =     0.79898572    0.00000000    0.00000000
     The non-local contrib.  to forces
     atom    1 type  1   force =    -0.82828868    0.00000000    0.00000000
     atom    2 type  2   force =     0.00000000    0.00000000    0.00000000
     The ionic contribution  to forces
     atom    1 type  1   force =    -1.95543626    0.00000000   -0.00000000
     atom    2 type  2   force =     1.95543626   -0.00000000   -0.00000000
     The local contribution  to forces
     atom    1 type  1   force =     1.98469172    0.00000000   -0.00000000
     atom    2 type  2   force =    -1.15647001   -0.00000000   -0.00000000
     The core correction contribution to forces
     atom    1 type  1   force =     0.00000000    0.00000000    0.00000000
     atom    2 type  2   force =     0.00000000    0.00000000    0.00000000
     The Hubbard contrib.    to forces
     atom    1 type  1   force =     0.00000000    0.00000000    0.00000000
     atom    2 type  2   force =     0.00000000    0.00000000    0.00000000
     The SCF correction term to forces
     atom    1 type  1   force =     0.00003280    0.00000000   -0.00000000
     atom    2 type  2   force =     0.00000477   -0.00000000    0.00000000

     Total force =     1.129936     Total SCF correction =     0.000033


     Computing stress (Cartesian axis) and pressure

          total   stress  (Ry/bohr**3)                   (kbar)     P=    1.41
   0.00002956   0.00000000   0.00000000          4.35      0.00      0.00
   0.00000000  -0.00000038   0.00000000          0.00     -0.06      0.00
   0.00000000   0.00000000  -0.00000038          0.00      0.00     -0.06

     kinetic stress (kbar)      9.58      0.00      0.00
                                0.00      7.79      0.00
                                0.00      0.00      7.79

     local   stress (kbar)    -30.08      0.00     -0.00
                                0.00    -16.84     -0.00
                               -0.00     -0.00    -16.84

     nonloc. stress (kbar)      9.54      0.00      0.00
                                0.00      6.47      0.00
                                0.00      0.00      6.47

     hartree stress (kbar)      8.76     -0.00      0.00
                               -0.00      6.78      0.00
                                0.00      0.00      6.78

     exc-cor stress (kbar)     -2.54     -0.00      0.00
                               -0.00     -2.55      0.00
                                0.00      0.00     -2.55

     corecor stress (kbar)      0.00      0.00      0.00
                                0.00      0.00      0.00
                                0.00      0.00      0.00

     ewald   stress (kbar)      9.08     -0.00     -0.00
                               -0.00     -1.71     -0.00
                               -0.00     -0.00     -1.71

     hubbard stress (kbar)      0.00      0.00      0.00
                                0.00      0.00      0.00
                                0.00      0.00      0.00

     london  stress (kbar)      0.00      0.00      0.00
                                0.00      0.00      0.00
                                0.00      0.00      0.00

     DFT-D3  stress (kbar)      0.00      0.00      0.00
                                0.00      0.00      0.00
                                0.00      0.00      0.00

     XDM     stress (kbar)      0.00      0.00      0.00
                                0.00      0.00      0.00
                                0.00      0.00      0.00

     dft-nl  stress (kbar)      0.00      0.00      0.00
                                0.00      0.00      0.00
                                0.00      0.00      0.00

     TS-vdW  stress (kbar)      0.00      0.00      0.00
                                0.00      0.00      0.00
                                0.00      0.00      0.00



     Writing output data file SiH9.save

     init_run     :      3.46s CPU      3.60s WALL (       1 calls)
     electrons    :    121.77s CPU    126.36s WALL (       1 calls)
     forces       :      0.48s CPU      0.49s WALL (       1 calls)
     stress       :      1.93s CPU      2.02s WALL (       1 calls)

     Called by init_run:
     wfcinit      :      1.58s CPU      1.60s WALL (       1 calls)
     wfcinit:atom :      0.03s CPU      0.03s WALL (       6 calls)
     wfcinit:wfcr :      1.47s CPU      1.49s WALL (       6 calls)
     potinit      :      0.65s CPU      0.70s WALL (       1 calls)

     Called by electrons:
     c_bands      :     91.98s CPU     95.56s WALL (      21 calls)
     sum_band     :     18.90s CPU     18.95s WALL (      21 calls)
     v_of_rho     :      8.28s CPU      8.34s WALL (      22 calls)
     v_h          :      0.79s CPU      0.80s WALL (      22 calls)
     v_xc         :      7.49s CPU      7.53s WALL (      22 calls)
     mix_rho      :      2.64s CPU      2.74s WALL (      21 calls)

     Called by c_bands:
     init_us_2    :      1.58s CPU      1.59s WALL (     270 calls)
     cegterg      :     90.73s CPU     90.97s WALL (     126 calls)

     Called by sum_band:

     Called by *egterg:
     h_psi        :     86.71s CPU     86.93s WALL (     535 calls)
     g_psi        :      0.34s CPU      0.35s WALL (     403 calls)
     cdiaghg      :      0.08s CPU      0.08s WALL (     529 calls)
     cegterg:over :      1.72s CPU      1.73s WALL (     403 calls)
     cegterg:upda :      1.40s CPU      1.41s WALL (     403 calls)
     cegterg:last :      0.58s CPU      0.58s WALL (     146 calls)

     Called by h_psi:
     h_psi:pot    :     86.28s CPU     86.49s WALL (     535 calls)
     h_psi:calbec :      0.53s CPU      0.54s WALL (     535 calls)
     vloc_psi     :     85.41s CPU     85.61s WALL (     535 calls)
     add_vuspsi   :      0.33s CPU      0.33s WALL (     535 calls)

     General routines
     calbec       :      0.59s CPU      0.60s WALL (     565 calls)
     fft          :      7.06s CPU      7.10s WALL (     249 calls)
     fftw         :     88.55s CPU     88.73s WALL (    5930 calls)

     Parallel routines
     fft_scatt_xy :     14.81s CPU     14.84s WALL (    6179 calls)
     fft_scatt_yz :     16.81s CPU     16.86s WALL (    6179 calls)

     PWSCF        :  2m 8.14s CPU     2m14.27s WALL


   This run was terminated on:   8: 2:21   1Oct2020            

=------------------------------------------------------------------------------=
   JOB DONE.
=------------------------------------------------------------------------------=
