72
config_type=amorph dft_energy=-6970.076735208337 dft_virial="3.5996448393390694 -2.5016399669620575 -2.573331006739251 -2.5016399669620575 7.696096006958687 -1.0414066830792275 -2.5733310067392505 -1.0414066830792275 4.834743103570713" pbc="T T T" Lattice="11.105996452100001 0.0 0.0 0.0 11.105996452100001 0.0 0.0 0.0 11.105996452100001" Properties=species:S:1:pos:R:3:Z:I:1:dft_force:R:3
Si	10.702848780888772	8.027669673496279	6.440245176611818	14	0.5747921916037922	-0.2977681917739055	0.2543591922117175
Si	10.942282958399595	4.574437772659017	1.6584473441956409	14	-0.12614305499604103	0.6246112138396416	-0.30756307460154164
Si	10.168905789461158	5.953458246119823	7.4040013367321516	14	-0.41529572995266234	-0.2207764429620713	-1.0942410840808654
Si	4.951008794360372	4.128743029039792	0.3777649163199555	14	0.17637371119364598	-0.653041725138243	-0.8453138660790247
Si	1.0988084087768055	2.860938004050317	0.6366679056113107	14	-0.022958170735198243	-0.2492138962450371	0.09162442340986097
Si	3.7255842518321103	7.866621618944377	0.6150001065332636	14	-0.16553341694283766	-0.2921449273282097	-0.06541071911829123
Si	1.6504843447394852	0.25890965288922646	3.2990029281069493	14	-1.090574430783802	-0.45646246856514927	-0.4762558657617773
Si	4.863804510218483	2.5654074384599355	4.701679174010727	14	0.05225643007934963	1.0177445301536916	-0.505229137393462
Si	9.908625656609743	2.225819384944074	8.302831841593509	14	0.1965098367294497	0.8432407838593892	0.7302872420451758
Si	2.3708192746226913	10.631703767616619	6.882563697309605	14	-0.19558398170366437	-0.7387983719864619	0.7429939016478797
Si	4.398929710726481	5.949460087397067	1.7797470374454774	14	-0.5475037652884006	0.3900906702781867	0.8189932038061367
Si	1.9317770228782742	8.219448020231143	6.5960178828489715	14	0.1776255823740261	0.6695232815719883	-0.2626142400631169
Si	9.60472116969448	9.75857253854542	9.992953487670539	14	-0.5933563433468575	-0.07212258955653779	-0.30860642914045777
Si	4.6898957117750495	10.470911150983115	6.647893992276731	14	0.14677437541650526	0.4006154899062128	-0.6018623310775034
Si	5.575709988794545	9.31364410868139	8.464279712017687	14	0.44700311498179246	-0.45906699825445924	-0.973095743606128
Si	9.37594874877767	9.535930627670172	7.60115498574983	14	0.134962717575745	0.04671389834070642	0.27880011938504506
Si	0.5741555833813755	5.571200954234992	9.130161941296246	14	0.5877284509115854	0.06708887956075188	-0.16260749908850913
Si	0.700254177698164	3.1957171611024187	9.41333153283544	14	-0.31015731986957107	-0.07730079567131602	0.5187210125609389
Si	7.54053845711427	6.0390854787655135	10.297468804390668	14	0.7414108721022644	0.08051699131628925	-0.7072179995601472
Si	9.898919015710609	0.5073485723234131	6.713530431308643	14	-0.2966219930221835	0.10309412424304154	-0.9026579993658832
Si	10.68972149308239	8.102857269476997	4.107164077933362	14	-1.4454620412395853	-0.2569302975318655	0.18849724410974023
Si	10.541256532510717	4.524805074514583	5.469247906804714	14	0.27673012249179385	0.6971603497687919	-0.5497262287271366
Si	8.558336395970521	9.049221439153342	3.567390438368398	14	-0.15546651117232987	-0.28658336941019735	0.06574239170459034
Si	5.990352366333698	1.3248676347603654	6.215693034346808	14	-0.09214712912144707	-0.5081378288421454	1.1573444932848556
Si	5.534973193808242	10.761288534219721	2.941356524359973	14	-0.211794286526134	-0.654849726399371	-0.5037157848020227
Si	2.808351110849623	5.858724096383409	3.6965531771063205	14	0.004367536607335542	-0.6086891299235605	0.17676323364964844
Si	7.352647209137642	8.421599367652266	7.234468300890845	14	0.13943721216439867	-0.9474749362013843	-0.12270060208289477
Si	3.8212290932775956	1.1901296858034882	3.110334260378674	14	0.10423440945252722	0.6176265491269273	-0.5415128327819236
Si	2.280038859623226	10.719529987559826	9.293342347166952	14	-0.9487319495924047	0.27332880726376996	-1.4016367797260652
Si	7.864122769742655	6.206852661170936	7.957146596025445	14	-0.017642410485792088	0.32340931091067826	0.38024899333372386
Si	6.901754859178833	7.989309561750726	4.838704958236737	14	0.16198529160103328	0.39173000703031313	0.679226890160759
Si	3.8679298083586757	4.849844272678193	7.509697104966787	14	0.15256450459747872	0.7834553860710499	-1.01997496401892
Si	6.235950371875439	2.832984210980381	7.9885765659848875	14	0.09529827580182057	0.17752916592452053	0.21332537974428217
Si	7.927215935587035	2.4511156289713747	9.56558363819728	14	0.12217403971332845	-0.20441727114156513	-0.06432776955744487
Si	0.8787708540695742	0.6893858495701389	5.476244684569537	14	-0.19748222876152968	0.4779630796943555	0.5016625000933526
Si	8.901711594276549	3.433940784999964	2.0404380921656204	14	-0.18201214516073072	0.47575038645583606	-0.11114451211095719
Si	4.151288201837556	7.79011240938586	9.438042374941363	14	-0.5125812130564253	-0.08430860033191163	0.352522450671779
Si	7.948672720732492	7.5182820402242605	1.9477918697622025	14	-0.35395764166148563	0.34005258986906084	0.5461534207742589
Si	1.3920367013026664	8.176578873926035	0.847318672117227	14	0.013128320875208106	0.5508588006206618	0.08141070752557274
Si	3.380387670107938	2.737916881350405	1.3794425013259848	14	-0.6528036407855972	1.029366697532357	1.394478308293709
Si	4.98828051845362	9.238478724693577	4.640540663541917	14	-0.14738424159844438	0.6491657838681197	0.3572345153920144
Si	8.976188406484331	1.1775354858268068	1.5304174170958322	14	0.2743785895659864	-0.24557655354862362	-0.030086817345840806
Si	8.123736542806945	1.29628079989266	5.256734664693782	14	0.6291744115618404	-0.16393676053902567	0.13584717780587593
Si	6.246634340462358	6.294245747252511	3.2607094523401083	14	0.8648673791492828	-0.5057500433313238	-0.001428249005342258
Si	5.325991658569077	9.44971477721252	0.9877784304462263	14	0.22153569036311102	0.43051924455325913	1.0075338995957874
Si	1.1799343810604606	3.0234409441374437	5.810457435802583	14	0.019713950042235397	-0.2691394482551207	0.7106375696359442
Si	1.3161050035596584	9.03747129490702	3.0726405084202466	14	1.4174220808391143	0.44979199292255706	-0.2637812647679321
Si	11.021513137088876	6.437713009420738	0.09978515692282808	14	0.3471586107528861	-0.43248922544955654	0.5361430793207944
Si	3.225881047466323	4.023269380734199	5.41543935399429	14	-0.24583880629127872	0.7710019803423807	-0.6712608345473442
Si	2.983037329044704	8.09187343898587	4.454093195104062	14	-0.36874226858393316	-0.5282189327240979	0.11001682531754026
Si	0.17714397520993067	0.7747365429041727	1.361373045098418	14	1.0284850655180782	0.3176790884836643	0.34529970160641904
Si	8.708767117914215	3.4597511207546443	4.4339247055470485	14	-0.06453962863582506	-0.22595799151376572	-0.06175640712676477
Si	8.024004694667086	0.3932411223759569	10.661956501952139	14	0.16470269281389782	-0.323838685499143	-0.5955099011630135
Si	3.848527632556857	1.0589700889034777	9.956225957403444	14	1.7693014980703243	0.6524436860407765	-0.53162384749957
Si	9.07333255745085	7.6541083768334435	11.067180994499912	14	-0.12444843947953142	-0.1398994969009613	-0.48711287219716654
Si	5.863999444698157	10.67164093085837	10.259241964602541	14	-0.2794637216681753	1.1757111841393335	0.17208999261974725
Si	7.361498688309965	3.9457051015127322	0.28294969280944215	14	0.038556295380940596	0.09388853875478337	-0.16182639729224815
Si	0.31419641382742547	5.867286819647978	3.5878476838331657	14	0.31293797027331116	-0.8593202194210633	0.6571040715440769
Si	6.624238219833758	4.3569046201517345	4.6721927534304015	14	-1.2311696687843954	0.2880758960485433	-0.45822341859891874
Si	6.198689753778643	4.97765207984896	6.939159855229506	14	0.0902619947007145	-0.6507233594710654	-0.2806194335095819
Si	0.6616219690395342	10.19831446806632	10.834332672885184	14	-0.5295803329911163	-0.22621227382992837	0.5699975944027802
Si	7.8261180498835685	0.17574128785803042	3.213009197578339	14	0.08231419393507276	-0.6982085894078164	0.7912774597865365
Si	2.5803227916951057	6.635244262317789	8.233608165707569	14	-0.49997739766652743	-0.045664373149021976	-0.20015566407341964
Si	4.25486272474984	3.348080326428779	9.16175850120247	14	0.9565203418281973	-1.041870239814769	1.3863795836457744
H	1.3072091004015265	3.084646090584967	7.362520439983558	1	-0.2119071580496885	-0.045739963645434326	-0.842924795015543
H	3.0323701652849318	4.033842289356598	2.484711268238977	1	0.08170844152164589	-1.1164006695036255	-0.4752302518495702
H	3.09920605193367	9.454679157626607	9.432489376715314	1	0.4676200372124639	-0.8988082833700255	0.11501839649682431
H	3.6088158051347303	1.1865091309601037	0.30137898332205687	1	-0.20681791217898735	0.016438104753834726	0.9214458372718012
H	9.6878606591349	3.404276668476405	7.407799587518769	1	-0.002125275657634402	0.22664987595541755	-0.3337824353248157
H	6.225977187061452	6.682711291154065	10.524342099914168	1	-0.7606975044402913	0.3742729732381037	0.008068899826220718
H	1.986929401259403	2.646281304624128	8.897546845607012	1	0.2513527987608683	-0.1429136036677709	0.05230039598032417
H	6.696560468729833	8.591865399259412	1.282498258295604	1	-0.11686727833254279	-0.19835357635452788	-0.12681154237927952
