72
config_type=amorph dft_energy=-6969.300345236001 dft_virial="-0.3722903118254243 -2.9129201425259548 -0.6401884078349358 -2.912920142525955 9.221731642918957 -2.10796811695747 -0.6401884078349358 -2.10796811695747 1.508027310400959" pbc="T T T" Lattice="11.105996452100001 0.0 0.0 0.0 11.105996452100001 0.0 0.0 0.0 11.105996452100001" Properties=species:S:1:pos:R:3:Z:I:1:dft_force:R:3
Si	10.788698133463503	7.947995254948913	6.4175334138672735	14	0.21763943736095862	0.493475329422405	0.2133171522072577
Si	10.826391885421932	4.687885526417219	1.622330643733412	14	-0.11539326365250191	-0.0995040898845188	0.23307635370312768
Si	10.103824650251854	5.9034923680818245	7.2802027942805925	14	0.9659467852634563	-0.019798539407268268	0.23800670526504367
Si	4.982294386365938	4.042216210681481	0.5429899361374925	14	0.19505999043941818	-0.029927408815991624	-1.0304424479983068
Si	0.9981636477285849	2.924064487884053	0.8537090624757654	14	0.7206746505847382	0.008174572254878802	-0.8715993042090264
Si	3.6325715315457723	7.69528941167783	0.5368627578948688	14	0.15732516320826492	-0.033784066796213735	-0.8967408575820944
Si	1.4385486144440611	0.34078527993339813	3.389028135347672	14	0.11861254462385933	-1.1451335427878762	-0.28511989626196904
Si	4.838982608148039	2.800610231322509	4.743515462645788	14	0.9670413047982435	-0.21151377893570583	-0.18391373465551222
Si	9.891811177981264	2.371807708306928	8.418367522684704	14	0.3962824061101673	0.16197217896390056	0.46720197548740783
Si	2.417186809810209	10.548730868122979	6.969423695561479	14	-1.0310417726484333	0.20693541169211815	0.7661220224447396
Si	4.312991510180131	5.874583459317008	1.820461620438876	14	-0.10047725324819486	0.41441332660678754	0.6331318568706122
Si	2.016393609846824	8.212195804547921	6.5762269971713305	14	0.16348270333948753	0.13680131499018286	-0.3632884399788351
Si	9.61402799472134	9.649322851446113	9.78172854114805	14	-0.20375238330577483	0.6073446989516551	0.666134307649501
Si	4.649803064582968	10.63292542722635	6.434947616304166	14	-0.10805584328986333	0.7542651131503448	0.690355405317956
Si	5.562316157073313	9.435365829796407	8.183509015712147	14	0.13266312097740454	-0.7353489770889514	0.4161107703391493
Si	9.370917732384871	9.56532820027888	7.46645035478231	14	0.593330375183124	-0.2666845568954433	-0.5481110603650197
Si	0.7164444993260355	5.592635527387546	9.069567624653589	14	-0.8594770568455924	-0.6045326810630092	-0.3335183828084365
Si	0.7744389021992565	3.2485261742321545	9.61322836297679	14	-0.6474703970200141	-0.4075657018076372	-0.0915832857247386
Si	7.606197108139083	5.931801553038228	10.218716183548828	14	-0.537820468431659	1.770213726237913	-0.3861568791383601
Si	9.885303064060333	0.6169758633020922	6.675503499456653	14	-0.5739668667960248	0.2611649079941494	0.6470050269570673
Si	10.659446546753964	7.960955952808515	4.097946100878119	14	-0.38528013222418966	-0.08199126310686215	-0.20299724967324734
Si	10.364593446947161	4.517119724969729	5.393149619114926	14	1.4098247217286088	-0.4161565360138479	-0.3116045950542824
Si	8.430628542767822	8.832998794227407	3.7345245789760506	14	0.4462523522283092	-0.33324070343386053	-0.5415575700144942
Si	5.978435632140595	1.4570623105297118	6.319689585124273	14	-0.4130082175493266	-0.025299676350257098	-0.1595252580307156
Si	5.409297737956279	10.810021646651537	2.8208120388688793	14	0.3173582145397098	-0.052854469176816084	-0.12231930716391681
Si	2.7754662553549547	5.788467562827425	3.6981968645812313	14	0.5699708549074506	-0.34247508530170434	0.3520269986765865
Si	7.3385092756541175	8.426819185984753	7.1331594012547885	14	0.24857163413606412	-0.2105028203238236	0.15512249728049407
Si	3.726372777580209	1.3486566791607637	3.2736701501997088	14	0.02712490401703022	-0.5842826555615228	-0.6931977622493797
Si	2.4676857756779076	10.737621655780297	9.459543584072629	14	-0.35194472330634174	-0.053232678769409854	-1.1055855720849546
Si	7.9340350174086245	6.351952504817622	7.948539448775066	14	-0.049688667196117746	-0.6421623500865684	0.23426086192411988
Si	6.632323385250888	7.983612185570799	4.915869421585928	14	0.41066182683415947	-0.3385001564767554	-0.3658436044459982
Si	4.168091574469583	5.053750367538749	7.529065962779249	14	0.11418715814682044	-0.6937675191883245	-0.7361701881282066
Si	6.322277282297611	2.895100049136976	8.075936334077106	14	0.09142490563701748	0.19173143749195448	0.5371648365750212
Si	7.918486622375684	2.2748301472871915	9.692536283641234	14	0.1901882600788016	0.5066620143883804	-0.24928460164134117
Si	0.8257685966015722	0.7874695678365055	5.621688814106239	14	0.9723172129151871	-0.32811057698856905	-0.12197246505622883
Si	8.855199681135154	3.316983536362899	1.9241583093121335	14	0.1569932335114338	0.4636070560287768	0.677037593980653
Si	4.270055727896312	7.730550950413248	9.238911858555209	14	-0.13250859754766364	0.5722406266840774	1.5088469864761318
Si	7.9138887398445155	7.561528790408738	1.8613205813861518	14	0.12725171561008886	0.5445976449450373	0.3467145808640965
Si	1.3688695927035857	8.207309166108997	0.7788657523850635	14	0.021769548745693788	0.06581618242727857	0.6504958166502325
Si	3.3316767696690275	2.7686471735333655	1.4905468898327932	14	-0.8316592399447822	0.0647190917871714	0.766388131845375
Si	4.893213188823643	9.414042316608375	4.570095328046246	14	0.21336034677663615	-0.43084757470264207	-0.5085486914723051
Si	8.871792039834592	0.9813669386944289	1.5745415410000256	14	0.20552541753454892	-0.039107797472112356	0.47168469761308596
Si	8.077102463704575	1.218305598802466	5.307055934618246	14	0.24851172738210467	0.847126752440261	-0.26677608824484056
Si	6.315902440334106	6.284117078488196	3.0770606950081825	14	-0.17780401708324436	0.6527007965727913	0.13750476940577538
Si	5.136134649220427	9.313388670762992	1.0042963789694346	14	0.9101926235065773	1.0495773851224448	-0.015060249412767374
Si	1.1922953551116477	3.090543374701032	5.82255186593892	14	-1.3335554535117362	-0.07437256382219938	1.337613429038526
Si	1.3692249845900528	8.967992181102682	3.0668542842687025	14	0.26681208371932263	0.919581785914694	0.09925032178942017
Si	11.077342981253583	6.431671347350797	0.03279489692340609	14	0.2326557208727515	-0.03427669057555411	0.3385952873736009
Si	3.2046463822499076	4.14454686199113	5.498567737438258	14	-0.05922772504439913	0.9885007782423272	0.18350852845705692
Si	3.0812809736599807	8.026014880024917	4.384902837207479	14	-1.2025607227765758	-0.30607646150543205	0.5907448716731831
Si	0.10673862130148791	0.8639254686120522	1.4301524811262734	14	0.532924055459969	-0.7107692102283356	0.1305599568255234
Si	8.587667332600518	3.4362064082761923	4.34974125244013	14	-0.3065310329260342	-0.7310315770353587	-0.3487074445977433
Si	8.036165760782136	0.16631340746984272	10.660912538285642	14	0.3660847741250281	-0.12573862012918172	-0.45459713165538185
Si	4.217591000656592	1.138453484311867	10.000694367197653	14	-0.9715715923723443	0.14466298372759964	0.7374110035557101
Si	9.153706653774698	7.683050603587616	10.994092431848642	14	-1.0164618057094694	-1.0315876183079007	-0.16291217506894667
Si	5.885156367939408	10.552207045012487	10.20264580668264	14	-0.26471766132553004	0.15951137406198684	0.7308012059986734
Si	7.366929520575041	3.966850918757531	0.27946018872419237	14	-0.18647121311746354	-1.0145656155358604	-0.14833143679838692
Si	0.38567349639349596	5.675575108891828	3.6530287770105407	14	-0.8193955817887398	0.5205680946229333	-0.029824564603185704
Si	6.597905902245829	4.5923406389398025	4.5428078947634365	14	-0.4362836626810311	-1.646158408761832	-0.17764640832711928
Si	6.559745698436413	4.921944401645226	6.810663476278709	14	-1.0900406693193392	-0.109161675688059	0.8399235437753341
Si	0.5785180187877603	10.182477317125626	10.896537359013395	14	0.3182699284862343	0.6920873018616077	-0.4305984345971197
Si	7.818976894164868	11.036372960341787	3.3870290559862934	14	-0.4275532174559363	0.2636485957334124	-0.46990266451569135
Si	2.6302442457472957	6.597572722352266	8.25022273639991	14	-0.43206267907694407	0.674225833202539	-1.0476205168632802
Si	4.375407210240933	3.487416157916826	9.339276748492837	14	0.580097410321386	-0.3795632795448404	-0.010731793606298083
H	0.9215133920151264	2.942866939877458	7.391440454744827	1	0.34055498384861776	0.360525787312336	-0.9696790017461833
H	2.935603618197785	3.8460509953480386	2.6008355671421346	1	-0.02224957410896543	-0.1696528418867789	0.01596913514343972
H	3.3311769998286826	9.3874656670985	9.554000083897739	1	-0.22150715109405736	-0.007401183774578261	0.04706408288531059
H	3.53413908499081	1.3592406937796149	0.40312212741939024	1	0.5679453381362379	-0.381692411860455	-0.8246498926209944
H	9.667892077514024	3.6104261746202853	7.596501573236401	1	-0.17873809964605417	0.07320091112780791	-0.2053289850880896
H	6.091561312001686	6.518520239606219	10.269481693331377	1	0.7061255369096163	-0.10782161559519782	-0.017507427456484315
H	1.7954064924429383	2.3775828264620205	8.96681494547876	1	0.4574528583344703	-0.07824387710274633	0.07587074689224965
H	6.464234128948354	8.235318489161193	1.3070202984618406	1	-0.19019057407358975	0.4643858438302496	-0.24606506355945174
