72
config_type=amorph dft_energy=-6966.672142757613 dft_virial="-5.064909073381703 -2.4400108275044707 5.447261285526732 -2.4400108275044703 2.7569606875720614 -3.6612739787966566 5.447261285526732 -3.6612739787966566 8.239438624217415" pbc="T T T" Lattice="11.105996452100001 0.0 0.0 0.0 11.105996452100001 0.0 0.0 0.0 11.105996452100001" Properties=species:S:1:pos:R:3:Z:I:1:dft_force:R:3
Si	10.75837876314927	7.921207591506449	6.39414418533915	14	-0.6586922433003325	0.1310618365840163	-0.028957844999763782
Si	10.90173496535298	4.707321020208394	1.564590568178944	14	-0.33477282509413675	-0.7950402724225732	-1.1060797385274872
Si	10.175291737421116	5.812578681124934	7.3486823684042415	14	0.6621542366139118	-0.16525728023145375	-1.2444869659006343
Si	4.665495837569786	4.071247285407271	0.24754044432121172	14	0.4201206661964522	-1.0093359873146794	-0.13455339760877738
Si	1.3135284123827713	2.886848293773066	0.7790567755240396	14	-0.13276159431116621	0.42378217728287504	-0.06797642511726701
Si	3.736934580206156	7.971973101288998	0.7293918699898936	14	-0.22924566388663908	-0.8828969980962891	-0.06094393784559796
Si	1.4901248619676133	0.3291861772388249	3.4145608211910496	14	0.7740173726618503	-0.04693655606143124	-0.2290692860616769
Si	4.79164885126919	2.700545203289088	4.599315204711722	14	-0.6377894141580606	-0.38396064097388966	-0.136039496483823
Si	10.401254341235544	2.268155443419479	8.368146206728309	14	-0.8187435494795504	0.04949197763912642	0.7124980214456033
Si	2.387878085173117	10.565867420648571	6.876855215133225	14	-0.5925796124296407	0.3393856451490144	1.2712503725096518
Si	4.219345748096024	5.792288025606947	1.672429793728835	14	-0.7763761046825541	1.1765262245258203	0.34918721285048293
Si	1.8850763077971937	8.308207143876325	6.506237007530196	14	0.6153914872721226	-0.378514782795284	-0.5864097309928814
Si	9.753896914039087	9.920331376870257	9.914411880761287	14	-0.3172821098222334	-1.0414241530417232	-0.24335280455722755
Si	4.6541010852099305	10.460116122431673	6.629480250159149	14	0.8388009991925576	0.8519475749155386	0.12256356216933087
Si	5.651919336448855	9.265488508065085	8.398221245120595	14	0.5905448396792755	0.041326147142336116	-0.07093936688820564
Si	9.496515446261668	9.5368746373686	7.5883497718405595	14	0.04014498135826009	-0.4895171127820371	0.1515656301806012
Si	0.7239010653439755	5.563326802750454	9.058705960123435	14	-0.6557555268036592	-0.09181879897206417	0.7105354967547343
Si	1.1895077500021707	3.2175626561237	9.510442365812603	14	0.28128149312952	0.01097064929053984	0.4658128072829318
Si	7.619668681835481	6.089639974615473	10.266916208150942	14	0.3329995337548306	-0.29884702756623965	1.1793953209525736
Si	9.905205009702497	0.5319128152761678	6.675892209332475	14	-0.24228656718096211	0.5550548445031435	-0.09577521583870804
Si	10.661412308125986	8.037065346494757	3.997148077078859	14	-0.13941561487970944	-0.5480989761700149	0.46984995685662834
Si	10.48886954724616	4.51633119922163	5.171385081959393	14	-1.3403508848728876	0.9874869914145928	1.3598267505624773
Si	8.505460746862074	8.730146161084509	3.4988553342624886	14	-0.2995376264552314	0.5627517053895388	-0.07113425667147287
Si	5.799207061396605	1.468401532907306	6.234784242247968	14	0.6900293891633612	-1.2246074366757815	0.45105080608730164
Si	5.565414730083448	10.512114397820406	3.2071563374480823	14	0.21159425453222644	0.5039510409388164	-1.6896856791687471
Si	2.687373491496898	5.681738936922744	3.543645817953808	14	0.04919887163262954	0.41839056942652453	0.40777190445431294
Si	7.547457492903927	8.180588138645245	7.419605261747352	14	-0.27001028162705487	0.29544905477513195	-0.13180025803196282
Si	3.957344185794533	1.0754869268270408	3.1666527683872734	14	-0.7885101791304611	-0.3672929365149657	0.31516737569641157
Si	2.352527698466083	10.969470437714335	9.341397993815189	14	0.39593067890237105	-0.06041171904432733	-0.45978356530718456
Si	7.948150738899244	5.8747611552602415	8.071371769535293	14	-0.5206272300452967	0.8222549080152766	-1.096737370236197
Si	6.969245999618245	8.07849071326109	5.078383467669507	14	0.20377166659567594	-1.2804801263879193	0.8888033412377334
Si	3.7526162471965216	4.973254105253928	7.323116364571507	14	0.5458376890409447	0.12054910115099485	-0.834365842515302
Si	5.689191060542103	3.0017620390629447	7.969141072193712	14	0.39817036874675205	0.08473077582547994	-0.15640393617205584
Si	8.429795593033916	2.530712305543575	9.824564369463799	14	1.0347932724210613	0.11547425347008657	0.7372755063053383
Si	0.9111426125281554	0.8334483931481994	5.635893383568475	14	-0.23518388873405305	0.0060837494085343845	-0.17744766188587183
Si	8.866727705452433	3.3366744680724723	2.076488156649137	14	0.4409479048423118	0.5880706650296971	0.20416838814657481
Si	3.985953232655143	8.130622260607247	9.521581680254059	14	-0.23187616173968256	-0.6748688666431081	0.024285632411990693
Si	7.393739396010411	7.793955084158287	1.666787947531168	14	-0.015244340553689974	-0.021574916072958576	0.2915296618250982
Si	1.390548497778085	8.403863091318263	0.9137569640929797	14	0.38178008655187207	-0.18177688902393718	-0.3646549824564938
Si	3.6142577433962595	2.204929005617674	1.2590312877923167	14	-0.3255672396058785	0.6973213009618332	-1.8511598350321348
Si	4.907328910314263	9.096144274163464	4.80529812090882	14	-0.2525843582092192	-0.8813466215882398	0.0021473871633876755
Si	9.04667816596581	1.0677393837020557	1.6151672760218074	14	0.12727177023158603	-0.3675125089093063	0.19332475145885025
Si	8.106066902451653	1.3126954626488638	5.271883243854445	14	-0.16114582571400496	0.1564743844578279	0.12939910277347655
Si	6.387436163482082	5.67669681453349	2.525392533243019	14	0.024479236642597844	0.09074150584292213	-0.44768934299174
Si	5.559173160077369	9.288122528834464	1.1834105579499676	14	0.42290748725296073	0.74352097823851	-0.20166927377539084
Si	0.9769745170976233	3.1771035110486996	5.8713516143494475	14	1.6067845018890843	-1.499283760237841	0.715809862208486
Si	1.411438877104485	9.128162861934868	3.130491643939236	14	-0.8550701823268585	0.4104957334304779	-0.44446671958346634
Si	11.047201306882583	6.62773660871617	0.046664065292788576	14	0.2917371500244341	-0.7045149965370754	0.22496631619178462
Si	3.0475853804243096	4.049101928481783	5.274681954960374	14	-0.1827701070091104	0.5675200773162854	-0.12503182327667303
Si	2.868456763648388	7.954370096912419	4.325385802220675	14	1.0792160588109838	-0.9593156475322624	1.2773582903081957
Si	0.31496939118049166	0.8791506791482361	1.4124939467674344	14	-0.2973305896484163	0.48803024257539535	0.7265925637001229
Si	8.487546774584835	3.5769860193030123	4.457358358060979	14	0.3823387877379402	-1.3465027685724058	-0.5415161752188399
Si	8.24492517609226	0.3925147902079895	10.624329385972423	14	-1.3009201565725648	0.0727651087760428	-0.05526590885658296
Si	4.188037944097554	1.1775243798303547	10.233631536783998	14	-0.8501552573968634	-0.22247131558911293	0.12802767519570957
Si	9.037948852754461	7.8558488023858395	11.051532645498902	14	-0.3131112627718892	-0.4457311891799152	-0.3761030860049851
Si	5.965741478195845	10.674850563833028	10.254377538156522	14	0.5846639504805008	0.11569742541187543	1.0089050700630224
Si	7.187967493745902	4.100078452196922	0.6029445473845091	14	-0.36750582403547394	0.8688857596541422	-0.9685739406795835
Si	0.27640381850057444	5.735081037882181	3.499877085936082	14	0.5649363735800688	1.3021488878050635	0.2156020935052733
Si	6.357183429146561	4.376962049744227	4.597071793428397	14	0.2563201742393944	1.0449005445450954	-0.5432519284204719
Si	6.084786654165905	5.05242875396095	6.854465526285791	14	0.06366005350580241	-0.28171061060745267	-0.3629590813873241
Si	0.6881697429586341	10.390803598574117	10.919071425814705	14	0.43012432277608437	-0.562267566257755	-0.45940612704618683
Si	7.877350011517106	11.010662578555173	3.291317578562096	14	0.3760205535242084	0.19685565039500963	0.9121754599294755
Si	2.5065456572638056	6.84493658132989	8.225600742265605	14	-0.27425286251583114	0.8171116689328524	0.29509424224095154
Si	3.6551278103399873	3.4637603854738526	9.166678457630752	14	-0.07277462186572735	-0.9600820940281986	0.9705714324028066
H	3.1170200702428383	9.512730201081734	9.736649301548976	1	-0.15008261663193978	0.19942958393100985	-0.25327855664565924
H	1.1663739593924465	3.2093109007597893	7.433920891174108	1	-0.0013390316507331196	0.17799582154012739	-0.7229840173832952
H	7.3446064677063205	2.93483730444259	8.873491257291763	1	-1.1165611064756027	0.12694164030847901	-0.9762690017922547
H	10.073072146075988	3.5720882748676357	7.6874596841791	1	-0.07355366677773222	0.08391213589154478	-0.36496197243171946
H	1.4168141793873013	7.8229306289018155	8.983362880192388	1	0.12295694128331354	0.05739812649858176	-0.060326615458230426
H	5.373469793401804	5.466227075769743	9.088947588462505	1	-0.17560263670813356	0.5940384575882928	0.46649954951394335
H	6.8293992922934015	6.494775619191628	4.800455906455705	1	0.14741278086749804	1.209063562352294	0.2118418519745567
H	4.675746672295074	5.826405646707799	9.267065559561283	1	0.6190296013001322	0.06741283883109055	0.15065828711312093
