72
config_type=amorph dft_energy=-6966.655494281314 dft_virial="10.411551355712374 -1.335717267427705 2.0048336386815078 -1.335717267427705 1.4061505696649472 -11.558607992147465 2.0048336386815078 -11.558607992147465 -6.225800822756251" pbc="T T T" Lattice="11.105996452100001 0.0 0.0 0.0 11.105996452100001 0.0 0.0 0.0 11.105996452100001" Properties=species:S:1:pos:R:3:Z:I:1:dft_force:R:3
Si	10.657280877445805	8.056112130410108	6.269790343064987	14	-1.19540996466018	-0.11293091608739608	-0.09377052502058858
Si	10.778658312670805	4.770358656070513	1.5124701268292386	14	0.8223351265012652	0.4985108391919149	-0.7296326386306661
Si	10.115830232416574	5.90595789929419	7.138734611473742	14	-0.4265075489222321	-0.37195563601305426	-0.06470726470269872
Si	4.943823214655864	4.268678584336252	0.5818864675116823	14	0.3419960883805608	-0.6049941944679758	0.14625809746821952
Si	1.3350074095211326	3.0592911006848227	1.333596947971716	14	-0.5780238138806865	-0.39767080298304724	-0.8231239416134866
Si	3.741032692896981	7.965531623346779	0.32192729795773234	14	1.4137127471937367	0.14271871388450366	0.34159499595061765
Si	1.6083704061931223	0.2805097053889158	3.2920505743279342	14	-0.3208659735279878	-0.9717875652192367	0.48188401530758146
Si	4.625980702193214	2.872077318491773	4.718382592674685	14	-1.0837021233735784	-0.3856832815383889	-0.2302052003921183
Si	9.812292243384228	2.3659326361837674	8.070583243787194	14	-0.22062783307456674	0.6298989490410581	0.5796397535743996
Si	2.4326796748608883	10.506072735750463	6.9767203352305085	14	-0.9930086972001428	1.3588656713938059	0.6507644971561878
Si	4.158973551382409	5.613170514827479	2.373151533877633	14	0.040834037584059776	0.6962658622279124	-0.0465832861904429
Si	1.735156461690296	8.381584462435349	6.51625461632999	14	0.9411854983672383	-0.7240600249597772	0.3185278103498452
Si	9.73634943964477	9.959080198491634	9.900906989075533	14	-0.5337727773261498	0.2032597595264345	-0.5863685933077591
Si	4.652557351703089	10.39795586028927	6.647860674287375	14	0.8582364985286209	-0.0977403116348972	0.25019323026148155
Si	5.527087936327251	9.231504158921659	8.52104245988437	14	0.3274878552800292	-0.23924032159765068	0.2881106059703653
Si	9.39582848242693	9.635329295916467	7.520580981489845	14	0.3394517225557422	-0.46172217871857624	0.1792785459843493
Si	0.47988011129843416	5.256601392736356	8.979642371380935	14	-0.03249414325709545	-0.2730241312833324	-1.210795458895946
Si	0.9438842006685914	2.9434333456965156	8.46821123476173	14	0.11637208344788227	0.14267037710448488	0.899057166365016
Si	7.3281473809643085	6.452028638847495	10.491490562408856	14	-0.2673301614413325	-0.07730670921355236	0.20184796559514118
Si	9.882615412918925	0.5657838832557825	6.629702370088192	14	0.8695876714065426	-0.11402723539590723	-0.8588903306115345
Si	10.427775460763158	7.918653212322465	3.876614697584218	14	0.5872396837902253	0.7453292366101701	0.45122718391226374
Si	10.441091550509228	4.294611086051906	5.250115490808329	14	-0.04051547763489343	0.5500226771705496	0.9793191040335464
Si	8.325665770299025	8.764596962078922	3.403377082763785	14	0.4004509391657234	0.6251161789245187	-0.7049307442673435
Si	6.357250065125275	0.9407123280818717	6.950643455560978	14	0.7025087630557639	-0.3595120004846016	-0.3242852864932527
Si	5.496424280123003	10.74468506952383	2.9977527743437364	14	-0.9659694109902736	-0.626164932784607	-0.19627689458744427
Si	2.3902325564209623	5.8534154300793055	3.9701605057002562	14	0.7603141526370572	-0.3847772240235687	0.04591171348082022
Si	7.37876851279298	8.443111682779984	7.291331002725598	14	-0.06876086935044418	-0.2395282853935073	-0.33948797514075635
Si	3.7631669438260165	1.2131524164486915	3.031748229483614	14	0.7928527760161911	0.4855385844096398	0.497435860057561
Si	2.4405760383383317	11.096012161289563	9.299073041336236	14	0.6048476414647272	-0.022448834771276908	-0.4274382890481257
Si	7.8394341396296365	6.279785739871876	8.037187512455729	14	0.8927679856414018	-0.13059003875776914	-0.44283175371038425
Si	6.851355847279203	7.923206670867827	4.896067429911834	14	-1.0660247458554322	-0.030272708260487516	0.7965767649618937
Si	4.163715811867455	5.393749342923339	7.743089620407669	14	-0.8165761076946655	0.0897115210516708	0.03356243751761698
Si	6.119159713185154	2.845100853109622	8.30029967440243	14	0.546013809755375	-0.1575683897715509	-0.3808123225093683
Si	7.969829643973743	2.6144848367817657	9.62646671074769	14	0.6696533795011876	0.5958274326700518	-0.47266891672963857
Si	1.0823004556504041	0.7888056192096929	5.546101402253247	14	-0.8049467412211038	-0.8805958588347567	0.5142056373976949
Si	8.8784445317094	3.4856058804951333	1.9235696915001723	14	-0.45185607627357194	-0.5001180371275395	0.03889516706213611
Si	5.12430676299894	7.0843596528442605	9.644136351102983	14	-0.48191666834514724	0.2672219179073542	-0.20941935654191324
Si	7.130638340060162	7.605219780451299	1.7375553569239495	14	-0.10373895745733469	0.060703796608696146	-0.5052599906573038
Si	1.4638258623690408	8.265515693514452	0.5935177775959666	14	-0.3895813343142654	0.718640649165969	0.4391671572975772
Si	3.570300209438848	2.3720409342324222	1.0506028311764655	14	0.4961531356133392	0.5409088801422208	-0.3326336654677735
Si	4.82090204592402	9.20046289883804	4.674580542667603	14	0.9014004717537988	-0.0988841963918311	-0.31784338211362173
Si	9.068012785150295	1.1056608085877513	1.6174440052944878	14	-0.20985078801463405	0.0849349215878997	0.368131373959866
Si	8.165106379591016	1.2283898435809726	5.263564852511823	14	-0.7956686505628173	-0.12431499911341576	0.04577030268821207
Si	6.251343282958049	6.099546523450746	3.408918974993383	14	-0.4595153990222931	1.0284351860748673	-0.2447635700463928
Si	5.638969744585706	9.413720242711262	1.0526685465165562	14	-1.0145951832470421	-0.6860511179014961	0.3197981934885303
Si	1.1660963094811438	2.987501939618448	6.145314334829849	14	0.016196677964272824	1.1552030196637042	-0.0983393791744917
Si	1.2599864034871973	9.013060314705303	2.923653566015325	14	0.033897966761896305	-0.127827128980738	0.2297794253511018
Si	0.035608045824723024	6.49356506557835	10.917005710474616	14	0.4625120222729257	-1.1562916256562548	1.3185222007048303
Si	3.0158444425642075	4.34202258490592	5.6885135947585255	14	0.4493245659753542	-0.22351209902270883	-0.3290248620404137
Si	2.768469477590132	8.078657303207871	4.456469878344811	14	0.14923800853427116	0.06770234529013922	-0.22825604544891406
Si	0.3498211186468267	0.8443722512584849	1.4658138357339665	14	-0.4994580343918576	0.736645842612434	-0.5089081319960618
Si	8.521886515614728	3.305466618042071	4.278640663153786	14	0.5446719498887895	0.2602359676419799	-0.04371701797954182
Si	8.215916313359374	0.5856725017022031	10.602883706823418	14	0.13668124437173196	-1.077638942807605	0.26976679795323677
Si	4.182895867740232	1.3662930015266983	10.182055289260447	14	-0.31328995459163944	-0.5213101156183281	-0.5826381765987562
Si	9.331791306884123	7.64060348514769	10.28842852327866	14	-0.5966378450669625	1.0592218582888524	-0.3256196901544096
Si	6.07201475824599	10.799337678064616	10.335895552114936	14	-0.5519296659865036	-0.056888790534660436	-0.4878926884407675
Si	7.415007379216182	4.226764553726027	0.21176025555148115	14	-0.41184633505515167	-0.20835800426575607	0.4122893365018132
Si	0.1080058154966725	5.72661826858568	3.590224367073915	14	-0.22831209554489326	-0.09641156440544468	-0.2809133108476748
Si	6.485080084288945	4.252719267434585	4.670826715866793	14	0.27352086883118504	-0.29387630965079736	0.7997489947058923
Si	6.331095443480579	4.818503150690367	7.037670043759633	14	0.12069051194360297	-0.09702143058738381	-0.76293436606882
Si	0.7733405191501438	10.4332840350034	10.745229263349986	14	-0.24410305308964675	-0.31060726330059696	0.5877693314861757
Si	7.734082657285016	11.097389304849624	3.3479137364819977	14	1.3144439134460115	-0.08889159556507559	-0.4547992205335455
Si	2.119412832936504	6.622516790383682	8.082488871983845	14	1.3515992135380033	1.0456356235561257	0.4225017668334414
Si	4.317922572604864	3.7959074213668074	9.450170123067055	14	-0.7269522613344117	-0.5727641037272594	0.23514429371212278
H	1.7368334671545629	3.3281561687937113	2.7187812494634365	1	0.137880665003581	-0.15646821380505957	1.2285545975632728
H	9.637683767164312	7.447536842824384	8.807932560235017	1	0.0675388229917778	-0.029900155099598053	-0.07216372724166016
H	9.575045947174468	3.336196910225032	6.890260152850909	1	-0.3192428347393783	0.048620372935596214	0.38303452883757233
H	3.280311536078065	9.829339947938202	9.699977301264141	1	0.05028490651986008	-0.043145204156340884	-0.1123891841964409
H	2.7134503711664286	7.447214768927273	9.295119306599288	1	-0.44237538251605796	-0.1621133326459767	-0.41030675718944704
H	4.194157348142661	7.1510955855249305	1.846105366246775	1	-0.32887316682652495	0.2314303320771689	-0.4826766870777831
H	4.814549415953419	2.012706419024727	5.96365355086285	1	0.03671666952437464	-0.044622047052233944	-0.1484787611332314
H	7.450646521830971	0.10157100115232577	7.720988687467989	1	-0.5863202565277402	0.2713415999618275	0.11751879642066833
