72
config_type=amorph dft_energy=-6967.480854426119 dft_virial="-6.923845157428922 1.8790598846864321 1.1281905733358297 1.8790598846864324 -0.46913610240163267 -4.452390891425683 1.1281905733358297 -4.452390891425683 6.980443346726706" pbc="T T T" Lattice="11.105996452100001 0.0 0.0 0.0 11.105996452100001 0.0 0.0 0.0 11.105996452100001" Properties=species:S:1:pos:R:3:Z:I:1:dft_force:R:3
Si	10.832477971477683	8.062120474490694	6.334105168519097	14	-0.5006523128130664	0.2102248838387156	0.7093103650696836
Si	10.868505823968295	4.653690163341203	1.7441190008271403	14	-0.1823535879472464	-0.532699340854988	-1.429483650116993
Si	10.323301352138254	5.9444846009865255	7.22878203070737	14	-0.8721004126359234	-0.03581009778849043	0.10127403878690874
Si	4.684909119368056	3.9514024776926595	0.36711093392345595	14	-0.6733249178983592	0.0724105533523944	-0.7263375100523642
Si	1.134355371621042	2.9327938010954036	0.7436786238258751	14	-0.5894801449662023	-0.023441795645918095	-0.5282423297825113
Si	3.7557259262031093	7.841122251090356	0.7308145481354077	14	0.20371664494182476	-0.47587662772705536	-0.23600998487341665
Si	1.6974627097318684	0.4104598592752927	3.4161489786837	14	-0.624098278328272	-0.5955086156103535	0.060157950949228704
Si	4.842269983097861	2.6717473544887933	4.49802851706857	14	-0.09956631063326637	1.042961674023172	0.4871252135027033
Si	9.941366134150535	2.417842063600883	8.460070539362341	14	1.3090762168691383	-0.16306618427762354	-0.9652227620053024
Si	2.4465843824189175	10.697806658499518	7.123363912384037	14	-1.1856942718764043	-0.7260703722096009	-0.36688207388480604
Si	4.103054859246085	5.75824814648126	1.8167522176238746	14	0.3087398695065734	0.41697183351086686	-0.5887512366079403
Si	1.9896725823830717	8.277388003721747	6.518087105744587	14	0.49582840501140446	1.0276556269417982	0.510544126311272
Si	9.692169785758313	9.602411122432443	9.972818316102881	14	-1.4624642465006605	0.21043777135922384	-0.2888554551816122
Si	4.6921835470441815	10.62932708437587	6.745271369168743	14	0.4457643564385451	-0.6517505160464646	-0.24800959051307975
Si	5.6868810132800665	9.270364040507557	8.489723549889447	14	-0.09390139428138412	0.4045809056414772	0.23718523711525635
Si	9.53946233454194	9.670235442765417	7.606341486092961	14	-0.0888538003168694	-0.5588621372612188	-0.4979338831580738
Si	0.6428606092330017	5.303179941856463	9.036949313073771	14	-0.10758353124255211	0.9097933308503582	0.8098842918779161
Si	1.2125971166260865	3.0479629843036804	9.41195438927538	14	-0.653006243884825	-0.030674057800962627	0.3277189976483105
Si	7.857214839949448	5.981611947125896	10.259397448552871	14	0.08278753442451202	-0.07954485639474126	-0.6655511809628915
Si	9.929860321826158	0.7169198359741853	6.636787995824631	14	-0.8691215300119998	0.08194241210577935	0.7838312816688556
Si	10.630315518060106	8.105500496632596	4.019904263809212	14	0.33078812606897123	0.349189526845271	-0.3586547939708642
Si	10.4324955092553	4.550637622262167	5.327602028054631	14	0.03505470704543092	-0.644882836625817	-0.39023362373398696
Si	8.484326035613726	8.930309535140706	3.583294225287805	14	-0.17479479541654305	0.2527993026139836	0.5776268352192556
Si	5.856247459174591	1.4729549914526667	6.263793104980852	14	0.48373058314851175	0.5655421259934956	0.08618704987881182
Si	5.567913579285171	10.729325476430578	2.976973454981857	14	-0.29921392429542476	0.030500508191852634	-0.8176940242878659
Si	2.671991686410739	5.898472457685475	3.655061174361275	14	-0.4715255461937688	-0.046220760340302015	0.4273709260887378
Si	7.5187484920752485	8.40098663823717	7.304047368663252	14	0.5628432367389361	0.22909628266753848	1.2350605224653755
Si	3.8608330766257843	1.2752238306194783	2.903651666405093	14	0.3909483910129881	-0.4455645815551696	0.27080552450257667
Si	2.3276280544204746	10.645552945192387	9.471104926379263	14	-0.020654974589409594	0.23335994661994	-0.05125704144140807
Si	7.952804151412673	6.167648493695022	7.980213750656456	14	0.4353033002224586	0.21875992505947914	-0.7987244092358133
Si	6.870880189041995	8.182342886084676	5.145696912165685	14	0.01971163604744726	0.5740961933936283	-0.8518547580134813
Si	3.8253605239577766	5.027518003918889	7.285922382453425	14	0.2718445081624485	-0.10170727003335367	-0.16424220785105925
Si	6.114195332771065	3.081214337681268	8.018162940533282	14	-0.5756018326691069	-0.5074724267852911	-0.3926761737881276
Si	7.814301269658534	1.8397305242832693	9.173797401356548	14	-0.009438013409199569	-0.8634075055485028	-0.8245827867721386
Si	0.8890738869781875	0.7563461233791403	5.6328059165547915	14	1.1017649095792146	0.12025290981811379	-0.14307224086602405
Si	8.739997179937522	3.520989585191524	1.8889634065554286	14	1.132124006978459	-1.153343082075109	0.33797256566506106
Si	4.215925101188777	7.688570283824309	9.504589505682345	14	-0.4398826959081744	0.7335880270551819	0.10708833635789158
Si	7.548512562566877	7.719722603872451	1.9000916150004328	14	-0.0920257729503361	0.5272087454438118	-0.5675493879169351
Si	1.413660076394905	8.298367231019764	0.9348106015672257	14	0.3292747734775321	0.2061306557269118	-0.21437953292554288
Si	3.2873416318322444	2.1780969181894	0.8963027800688593	14	1.0379981552026258	0.2810261823712293	0.4212378114580566
Si	4.896867061656384	9.390708618062511	4.686375110899734	14	0.7145042549269148	-0.032952314225145836	1.1732627205429564
Si	9.099642663045875	1.1215612637082228	1.6180215171099972	14	-1.1922747588327913	0.7630786050772803	-0.17554967193853854
Si	8.06284236426008	1.3479458953878294	5.273060479478368	14	0.05633703133295665	-0.0733101831039142	-0.12621196061862097
Si	6.424841159532755	5.738890394665251	2.4047925177696654	14	-0.8102020804954865	0.08293357320669643	0.6666264172077773
Si	5.679251193717474	9.08109564897087	1.2839642498272812	14	-0.5487371245104757	0.5574074058710791	-0.10978362606500282
Si	1.1856095452474835	3.0877002396092945	5.7618020653459325	14	-1.0072737037373884	-0.08217046914767649	0.1161504541692855
Si	1.51152611713081	9.192544323367692	3.1199520533061924	14	-1.0446791723770308	-0.25165053275694144	0.030498965528660545
Si	0.04828109837621434	6.420931848781616	0.21072628728179063	14	-0.09936962107627505	-0.24826567260296648	-0.6825330744919376
Si	3.104037160390334	4.162805120158383	5.208379156141338	14	0.7562086116618447	-0.012512284040500626	-0.10512761144074667
Si	3.0006847574070905	8.118116908602182	4.450972410101022	14	0.15932368337361602	-0.9766603240219814	0.08652412178628323
Si	0.23791376659653143	0.924203264355825	1.5834929741404182	14	1.1456367080990293	-0.5149412306297892	-0.6086531344490784
Si	8.473886398948753	3.4816632517546378	4.255329176600828	14	0.7948754645715517	0.02209762178454468	0.7435330624335147
Si	8.118572254456717	0.19616077293486148	10.796016985125437	14	0.0951998024680589	0.03999534302862748	-0.22495680310210006
Si	4.082642037767125	0.9381324051060488	10.240239604672999	14	-0.6757468991099386	0.11045134211664528	-0.5445127984694724
Si	9.080240487244057	7.616925500711813	0.09121132766180688	14	0.436438957442368	0.21710644722809191	0.04720060857781045
Si	5.8801586695359624	10.567599956095098	10.562035851872595	14	0.5651410335635524	-0.5890176031191077	-0.302968766504969
Si	7.054029176533577	4.396764041418321	0.601431910667733	14	-0.790610000845426	-0.4468185096198058	-0.09261481317918202
Si	0.188399902614134	5.837700445099584	3.585104502709497	14	0.8618926102938713	0.6733807108838064	1.0423829182156066
Si	6.469576113241813	4.54599531574519	4.5278592235389095	14	-0.40592739349763884	-0.5247607960684989	-0.8119586596502115
Si	6.186073341809057	5.141598799474861	6.779722170163159	14	0.06808158332486107	-0.3796450406940211	0.3878576653076381
Si	0.5009348593723254	10.249924033579228	10.965116887105113	14	1.4621369447934056	0.39396121222713765	0.6482990642646977
Si	7.860679910842504	0.08888462140509193	3.2527575588804045	14	0.1215482326784044	-0.2185971740927138	1.0191154435103944
Si	2.4193635851148207	6.79411554156508	8.295646261888999	14	-0.21894478753199778	0.37253464893115157	0.21474051611249165
Si	3.865297687199528	3.411040220315734	9.062770754824903	14	0.15560895040706607	-0.6945069690783992	1.1562314617917633
H	3.035568692263137	9.229904895432556	9.622457446028482	1	0.27609145993026907	-0.16078792785344034	-0.09548545226912734
H	1.1863203290204178	3.2577552572838497	7.2696076736652895	1	0.10982502086065721	-0.025657059989757678	0.3217512050897148
H	7.539383433483251	0.6090417394367119	8.115695801375624	1	0.30667244371864233	0.7968495592363615	0.6065024048487746
H	9.931304101364933	3.650552139801723	7.55016735603824	1	-0.28328412706338335	-0.2584084259804187	0.18104540956035506
H	1.4621821748941297	7.722165923091913	9.210180645733626	1	0.19178928736165782	-0.11287486599141686	-0.24030218809487186
H	5.9117552294421865	5.191642419488023	9.568837695157745	1	0.6400453019659585	-0.017870724638221234	0.42777664650825714
H	6.637143387711098	6.782221019364881	4.633843747681301	1	0.0674709458113259	-0.05206848228044681	0.2915394320253148
H	5.298259985428183	5.451711538406848	9.195431882445238	1	-0.7997397387267399	0.5810530901688848	-0.4145603938311
