226
config_type=amorph sigma="0.01 0.1 1.0110525105684205 0" dft_energy=-23262.417059493426 dft_virial="43.03173062447165 -1.98620383839196 -0.9709434585242643 -1.9862038383919598 25.272731598849422 0.9749722695554853 -0.9709434585242644 0.9749722695554853 26.654613782558233" pbc="T T T" Lattice="16.3646928896 0.0 0.0 0.1025084362604544 16.413263298096336 0.0 -0.2306767109718016 0.17798239986728961 16.336414700286774" Properties=species:S:1:pos:R:3:Z:I:1:dft_force:R:3
Si	1.4606879402863617	0.7500184221697024	7.784661497012675	14	0.049344910414813946	-0.06763909609926358	0.061950525578435944
Si	16.18065882630214	11.965788163288229	6.93220991616981	14	0.18375689723098318	-0.05330364127624594	0.058418341089616514
Si	4.868535409918935	15.80590572266101	4.236113670853898	14	0.1433373218245313	-0.016194621080016704	0.08925360719415243
Si	5.386597402132869	0.7584544213542912	11.880461018092566	14	-0.14239166928778083	0.005882688972498805	0.03876686890666072
Si	10.733022756160349	9.993048982486282	2.717481625984041	14	0.048628857583152704	-0.029191558473365242	0.07566711535089393
Si	10.920045012379854	10.93089316729637	8.170086016887112	14	0.06424883662411633	0.0863605994879218	-0.09449686227353041
Si	0.21959454094696448	12.822895499258184	13.315926057228186	14	-0.027132874443522675	0.16211178998278458	0.02572056629116534
Si	11.045190728314491	2.846775791566193	14.77347688588761	14	0.22613179823340773	-0.10109843229354262	-0.030089645561692968
Si	8.469915010602497	12.18029001180795	5.6515172329761585	14	-0.14607426343782892	0.4187325264341043	0.05713098865581838
Si	14.800894292354847	9.410559194365995	12.20689572950786	14	0.017448034923588894	0.018159973986737896	0.03002176838124106
Si	9.918314702998057	2.004813978865562	0.4036891536085197	14	-0.23565362967604414	0.13776290837991825	-0.04860160386675914
Si	9.818336248258335	6.056365006841262	8.091540400424899	14	-0.2486976182967514	-0.15283858442460652	-0.0324411784875004
Si	2.6687426611509455	16.21243905989374	3.4220700242229247	14	-0.0073014248881565135	0.22628117945250834	0.0347538877229736
Si	7.216500633986519	10.273698556135056	13.684557129259316	14	0.06341117051081208	-0.07669607170001719	-0.1094411548363591
Si	7.04226247585237	4.064295850798121	11.876540037676218	14	-0.051889019129100475	-0.12924277957001154	-0.14494914774973214
Si	15.045471173467075	10.512024124563457	8.397309777659208	14	-0.1557328776834972	-0.0428590401342084	-0.09791926056517952
Si	10.322751723071631	8.055171506947053	12.940776928019128	14	0.050277707424963666	0.09602101350731418	-0.011903446300689562
Si	8.713177806875688	5.322770190455562	12.773246657500426	14	0.005976277206152195	-0.03099287486066099	0.13987095763190766
Si	14.090250957746813	15.269179798206483	12.693933536941692	14	0.12942378538454996	-0.022566334284407675	-0.014965889847517939
Si	4.32377114831704	3.548536370873754	14.596749657964954	14	-0.010598867461246426	-0.11294582849825295	-0.1124763446667939
Si	5.910477042669056	6.698360091246715	14.059297141146132	14	-0.002011632802483857	0.06245626199490908	0.15959519209542364
Si	3.850728426242396	3.5454892650577103	5.980205362602353	14	-0.012196038086122412	-0.10652783539809932	-0.031074121788777668
Si	1.8902578556997836	15.128826373169542	6.7189059631696075	14	0.19910665310279924	-0.05149101202554155	-0.04149661142506193
Si	1.5174505140432284	1.1280493737966184	16.12319093428173	14	0.05323704964845411	0.13667918748747582	-0.03958679439325594
Si	7.716921487265465	11.517853789514097	10.056696182541803	14	-0.027588474306252917	0.012136131332162963	0.12563808991116393
Si	4.744741417616979	13.414565880089539	4.322648530384814	14	0.18903589067431123	0.26928908658475326	0.06520631624533947
Si	2.5762379616539035	12.298307267519878	4.074743070738841	14	-0.25570850828373115	-0.06667364605154798	-0.05935628031040654
Si	6.409490532359496	0.3780931374598963	2.811284045627228	14	-0.1894516384045792	0.05079475670484545	0.012418438696315221
Si	8.11754880683434	5.439882478650696	0.6916684732025447	14	0.006634480168110104	-0.16879049316240125	-0.0022186067807557774
Si	1.6909849903831247	11.039143974291784	5.954460427748434	14	-0.07071696627801284	-0.07897432812420041	-0.04685505202278255
Si	5.092178575886787	4.913960524441887	12.813580716065424	14	0.03263426849704352	-0.07129495075398212	0.007054341666890285
Si	2.99270957687849	16.36496127056339	9.444342466367283	14	0.1476467514516315	-0.09189053281049629	0.054960461544549366
Si	2.5834449724024835	3.5753401013576296	10.481181587874426	14	0.08828481470952063	-0.05924700833430025	-0.008987041536045596
Si	10.129257230814291	5.190327457961452	4.039766812625899	14	0.05554718777860716	0.01637074179444685	-0.13354423877061927
Si	2.1282921325947495	8.190738259313786	1.320669991453655	14	0.08224040321238452	0.0106695728575505	-0.0022463747182133766
Si	12.73531984525949	2.97167112769962	5.962693504741192	14	0.04807581282878885	-0.06135120092830944	-0.029242980579768204
Si	5.281097500012196	15.915061497173218	1.0114853028132864	14	0.16386785491644573	0.06747840201675431	0.007681691365006417
Si	5.889152211364618	13.092680553297551	10.280309892062455	14	-0.08055118701704722	-0.06753985143390585	-0.003982127919845345
Si	11.357262148780585	14.368053074832794	6.497269108550021	14	-0.5824342879468685	-0.16596150597864232	-0.0863186904712034
Si	16.18932884059505	9.682816953500978	10.282596039659131	14	-0.057436435967851966	-0.1225905587751924	-0.0666183672871648
Si	1.5376887297397965	14.220785567049996	14.604378877790086	14	-0.2810017568706879	-0.0076611225224452306	-0.17421244006152953
Si	5.220837791384822	6.319800560039465	3.0706251526644532	14	-0.06261849874061041	0.06397655657071263	0.02038320875706994
Si	2.137562731116708	7.360788131194123	4.772356836868178	14	-0.12488347049970047	-0.21230053716367112	0.061876220634683676
Si	10.740156125790925	13.193575430839092	14.73379577856891	14	-0.010602467008694633	-0.02974408900666507	0.015682714010775225
Si	15.538722654791085	14.50720533141164	4.061346933139415	14	0.15420229868641305	0.04324573437435868	-0.1641105672586677
Si	6.608982684560876	15.313632849971794	10.862523116872909	14	-0.01015098091447663	-0.027243946193353078	-0.07193052798912274
Si	12.557833295586756	8.48960828202584	6.04063362756649	14	-0.3460918591555566	-0.12041848900073134	-0.2626944585491055
Si	13.782211797608715	12.069095196561694	1.9067861955182799	14	-0.05336791890924964	0.03992926562189966	0.07229202539713554
Si	13.064017793701417	6.782543344409396	4.560866091840143	14	-0.03182591298438897	0.3794411520421333	0.07888999586969955
Si	0.6089514965227726	2.505215194513039	1.115626935424123	14	0.07383854524720462	0.05001751156656469	0.01376801187886095
Si	3.983925571078718	15.055506003146977	7.767229826146672	14	0.054408959453377606	0.028038160626746817	0.10466121293567182
Si	10.16667510110636	2.7457778164594484	9.137103539711488	14	-0.0019568682591647028	-0.021272811197841177	-0.29641501904391154
Si	10.981713721065022	0.7149537947151565	13.792410274217515	14	-0.10080352651332161	-0.022823701926954494	0.11986852957275167
Si	7.859623245732066	15.872804587193693	7.024462599396352	14	-0.04650409614658233	0.0520911080072641	-0.034921780900379264
Si	3.8623833605183693	4.623809610101413	0.09153263673939968	14	-0.056371484144246635	0.057723114211048476	-0.04867436614731933
Si	15.335518990242345	5.581171964120925	11.029496987833365	14	0.19766194902340803	-0.008582349558654287	0.1492994579514227
Si	0.15519947442638848	16.060096860845874	15.17164459211518	14	0.003005107898189075	0.15544388544551255	0.03477394234447076
Si	12.046894854187665	6.4445469774675965	13.104337124042814	14	0.01106269486100114	-0.00798199646639971	-0.1077323982405887
Si	1.5391288227140814	7.504586324084326	13.862526437372294	14	0.11578818542967666	-0.03997528840713031	-0.0007235090370896694
Si	9.360092117963756	0.8737355004150784	10.249645730525922	14	-0.15387319720543408	-0.21036526618919568	-0.1365033238835777
Si	7.850164453241876	4.259056970285118	4.243415596821238	14	0.0327867350425283	0.03421626960053063	0.2302100854922266
Si	11.20407062217175	1.8930022146973697	2.4687104740842085	14	0.24462318769591274	0.05819362648463557	-0.034660813710384236
Si	1.475077414744187	1.8969346503987405	3.31323663416064	14	-0.010992760796293112	-0.018219109409101306	0.20122652943926136
Si	5.760517542905918	12.493719701783881	6.237684167588741	14	0.18899501009972086	-0.05958870823134793	0.09633263147211614
Si	12.884402197483746	7.8326116836484925	9.64201322825005	14	-0.01868602213524019	0.0351513806054685	0.053549438944852104
Si	12.082898815014074	16.233281132757934	7.942714973879009	14	0.181287864792045	0.1469402117096548	0.14424595044467164
Si	1.5616580954151937	11.301808750454887	10.12181293201881	14	-0.13026505104530242	0.14847310470152708	-0.11188447622209582
Si	7.60333579038804	15.391376596482417	14.896424823567177	14	-0.13617396529206674	0.09699571953418233	-0.06566834387137008
Si	7.171519002640876	13.185268712728332	15.449085049488303	14	-0.29404137461235086	-0.10758378835308413	0.32681319724402236
Si	4.7968465997774645	5.6119261314683495	6.770251823580017	14	-0.01738195751686109	0.058519385528698335	0.11123604346035448
Si	14.150222647779328	8.48816327964369	7.7775543108907215	14	-0.08528150658505566	-0.1701166692865336	0.06656771651235788
Si	3.982354560561316	10.98080384414036	0.876983891953664	14	0.09706051138825005	-0.38554367051950483	0.14299999280652786
Si	8.561979499860808	13.29176522464598	3.453698066170655	14	-0.12389693738835965	-0.19684947974224126	0.0979377725234846
Si	11.008694190232106	15.454449395817514	15.474586150418165	14	0.050564385668160176	-0.12967138282688023	0.04808275481315325
Si	6.462423767980196	6.119716005955482	5.025407355958641	14	-0.03709385067484037	-0.015208859300271934	-0.07629729326486223
Si	8.416178268560916	7.378606008812319	11.669917788782838	14	-0.05900249621835416	-0.0016830455425689325	0.05980108153079216
Si	12.771019422798153	6.032351456495063	15.313542844160901	14	-0.04088263147461057	0.146735551726171	0.04808738280272953
Si	9.091423135979458	13.88138347298898	7.17808942683605	14	0.03483179221417408	0.019532687117164955	-0.011195878116584809
Si	13.608744416509666	10.516033474321407	0.08488202554906625	14	-0.0817938022182748	0.006609540446504666	0.13011695537886192
Si	5.581324155764798	11.866001175455313	14.124773913866711	14	0.3258773149074884	-0.004597136312424766	-0.10726857084083397
Si	14.830365467779728	7.027257688941896	15.741409195044517	14	0.05325530449622716	0.039919238311151094	-0.12607903447356933
Si	2.565381624390943	7.355770716354171	11.710170023883387	14	-0.11572596468092906	0.013266903451964088	0.12161713830098435
Si	5.596738059997512	2.126295640062218	6.594535933677936	14	0.10972166242678726	-0.034612734040897465	0.09525148168499388
Si	15.34377334133586	9.411231783243757	15.97310869932192	14	-0.01448689292637435	-0.01673918118682407	0.015220172163680585
Si	6.120007297488916	13.764136994312151	0.8774126469073716	14	-0.4614396142438919	-0.2264974094099328	-0.31410345231493436
Si	2.9166088455339825	8.473266499706286	15.498863172319888	14	0.16159654047662692	-0.17452920023697177	0.1328847502560013
Si	5.8649259200108546	10.636958735959817	2.2415849014694507	14	-0.13040620472737854	-0.04276416634789494	-0.10978516872819491
Si	9.554406481334867	12.61400183099173	9.09000595357522	14	0.178370431585273	0.01524356922209393	0.19076058812306657
Si	14.709304379190334	14.124746093888799	10.759309362348912	14	-0.017732913393061298	-0.006816000203712557	-0.045572327578560674
Si	3.6014041477228957	8.02732207258753	3.152095139746038	14	-0.14283235673965422	0.0683428076253881	0.014370936076435671
Si	15.330899237439612	4.035169970393211	9.13707081032571	14	0.0809137128671881	-0.09151772253907482	-0.007325079057101877
Si	14.58350407554011	12.85075147949486	5.455219468826829	14	-0.0947727418743823	0.26040514637204565	-0.2383959706105141
Si	11.261415778995488	15.827857321703117	10.111995752754341	14	-0.10439664619822857	-0.09397312811981624	-0.029305458439047805
Si	12.999977841016545	12.557974031945605	10.881784360403968	14	-0.06400689561349039	0.08737824297363642	-0.015154351867484792
Si	14.456407688213032	1.3451073873456947	5.838618039721534	14	-0.14984684627408223	-0.02851201533725011	0.20416710259391468
Si	5.932890126050652	2.219255278021591	8.889869032473989	14	-0.20728816734204247	-0.04762201273978272	0.023568551138201395
Si	14.889039437666101	14.765261810057032	16.290133712325694	14	0.20989835346305674	0.04472077749652762	-0.029427328831222826
Si	10.131453372600074	12.224860889362063	2.042737518167921	14	-0.2172622562104929	0.08782047308870189	-0.11172789590809881
Si	8.591152837875098	15.584124858743992	2.543857143833252	14	-0.05564977488088107	0.021805029999111828	0.14674815014223974
Si	8.76878176037597	11.201548822997463	12.15473327092226	14	-0.0065396063817966385	0.01596502137492748	0.042532252648017584
Si	14.690376975394223	5.757247877266575	5.869298565950955	14	0.24426374717215601	0.06455839770466214	-0.17944283961430674
Si	11.986371674004767	10.258158643767093	4.658132916968059	14	-0.013373861433282246	0.1439099069793283	-0.0048195369226175745
Si	9.588855796336764	8.069379333313803	15.130737769299047	14	-0.037769794263507295	0.05510984276364997	0.11092699660087267
Si	4.273906292613141	10.14876885414656	3.8705542516781466	14	0.12016729201095284	-0.30157085654240456	-0.3256767686925169
Si	7.377530848489473	9.092221732992472	1.349434212145705	14	-0.06651346619010275	-0.10472831878452768	-0.1719773782067248
Si	3.033719497259827	3.609797598705971	3.7688100465756365	14	-0.06934579581077786	0.05214407277685915	0.08834035058443584
Si	10.873183077821194	9.114924471438213	9.635429712300565	14	-0.07663539361446171	-0.046335174527048606	0.07812200671057133
Si	10.807122085564457	9.997573820070256	11.825261272506655	14	0.18477016983765354	0.08200668973878306	-0.08130734909170277
Si	6.415088893797028	12.736285362139975	2.8520599509002444	14	0.3084393072946481	0.0024551484702094004	0.21564040297454348
Si	0.22824164466982913	0.883243386983936	11.49459465151011	14	-0.15408402784168623	-0.05005659236743094	-0.0178804948384378
Si	4.098782804593664	1.7768898092377907	10.208544167864403	14	-0.012162099495896458	0.009862245787024002	-0.056816285364632256
Si	8.338884551104757	9.93581019616633	15.73904122398339	14	0.004901298071798283	-0.037632754349943405	-0.07035418331733995
Si	8.55212795474127	4.086041254709822	8.126696670159626	14	0.0028102181149218504	-0.03110651771581153	0.01981833691823341
Si	3.759390529348383	5.492851716595753	10.99334574477095	14	-0.030256253186438566	-0.04605852359460067	-0.04162748068585747
Si	1.1706368505725133	12.09545871680684	2.0698570872245656	14	0.3071714952612831	0.053703962374592996	-0.2545872492536146
Si	13.053649124286567	11.617747147850793	8.780937454254367	14	-0.07826650282956364	0.1313917093965913	0.13501079724523174
Si	14.95208768996186	1.8614903620691559	9.963563078837801	14	0.11386397020807784	-0.09742278012785892	0.019216698273318757
Si	10.830819797337886	11.748692510945505	5.969897242551194	14	-0.3001863163275048	0.0831186927897471	0.43914761689714404
Si	6.388327711514665	8.395093998241956	12.576572505414635	14	-0.02167313229618823	0.0647103500290829	0.10316740074466578
Si	7.5844869371177985	9.91245450647429	6.367166527139124	14	-0.019248837089820607	-0.12283584222273457	-0.17442172803458955
Si	1.4427686015722498	5.343142596633826	3.88540357400617	14	0.007871696048165358	0.06680477242287552	-0.07595173670983434
Si	9.656203053454623	13.310100226559488	12.66451145559548	14	-0.079036548872948	0.0640976556312916	-0.01695052604414024
Si	7.102459998646763	2.0437504926577867	12.918476761018471	14	0.05230245286458028	-0.0754390583089968	0.05430508679844361
Si	11.401783932256032	7.068766732456367	0.3345057779484467	14	-0.042530452874293474	-0.15810163701494961	-0.08669947116911733
Si	4.558396659683103	6.9116509524926055	15.91529387581225	14	-0.09840494236015548	0.02499037238024328	0.019372250145187713
Si	0.543222707531694	13.349242935482122	10.936265695972025	14	-0.005128069561035343	-0.019136994008394165	-0.04126366928305652
Si	3.1337977766261758	7.231950540543591	6.830745547315712	14	-0.09773311254000079	0.18056589841814744	-0.09184656690952177
Si	14.241761830395884	0.5651628512887807	8.08502234324697	14	-0.08475031622591307	-0.11774505368884135	-0.25346033379179367
Si	14.474394122167993	13.521230948343952	14.308673786682881	14	0.029277690501590205	-0.2593887884389911	-0.08911296773314033
Si	1.2251803719735501	4.2319095812505605	8.597152134288425	14	-0.044366479183411224	0.00191393080031823	-0.011284581250129919
Si	15.013358736609813	6.229735836252263	1.6224725671315252	14	-0.04751094098995232	-0.2009493642857494	0.1280613566754035
Si	7.378602735873741	0.3235152502037914	9.183024504428994	14	-0.05176354918947725	-0.01276168125655499	0.09896055821983948
Si	10.841249016116429	4.411083330760213	12.784305916955217	14	-0.17283355627833408	0.01462907505057854	0.11389868012989984
Si	0.5155451024475136	9.867636522057545	1.5575472845613263	14	0.12879103636526154	-0.1551852322503057	-0.09860754545938316
Si	12.912148534278062	10.87002796503208	12.476643144753583	14	-0.08893787546083824	0.03974363181778498	-0.1297875967873509
Si	14.14990517273727	4.267178767366226	2.629639227491246	14	0.10536826689871252	0.06008338889494442	0.06832326722495498
Si	9.812534964628973	6.708758217108767	5.875342047035085	14	-0.010641290699028869	0.13532858586280205	-0.2076756329137888
Si	11.011027795438162	1.7820708710066382	7.121271213123359	14	-0.11062643438894736	-0.1468234835281201	0.0159827620016365
Si	15.745186166163437	4.367747987519262	4.376149620848783	14	-0.06496874611375779	-0.13404766119230427	-0.03268826170876663
Si	12.320938001316904	0.3052047953296179	11.935922598764709	14	-0.04489098466872143	-0.160590981185917	0.0014871273171736489
Si	6.341343041759335	2.483779083296952	15.104843915739833	14	0.1072829690306268	0.11408714214986669	-0.043036960622362654
Si	1.7535897595015784	2.834402447272366	6.829960042057011	14	0.13134851482721283	0.003153460675161619	0.05326198937005955
Si	8.962937386226054	7.8325625895698225	9.428152875691602	14	-0.024581823744871754	-0.22081938042091778	0.022804932858117414
Si	12.03308632632742	3.7638319069986204	3.7745442349641523	14	-0.02310832328589489	0.13889470894184744	0.15772085631703572
Si	10.097249527991522	0.2919248470497075	3.8142908010544128	14	-0.08086923274514954	-0.018025505178494154	0.08745614746483692
Si	0.1198877401092096	2.3528713589958863	5.200190458366014	14	0.09929325924826665	0.17536609501867995	-0.17115770983066156
Si	15.978909982951281	7.416272622436312	6.835384937749914	14	0.004514860942180027	-0.008659225607726716	0.0186253440496847
Si	4.700283456443802	4.142271975947776	2.2558303666298474	14	0.015178777368026197	0.009309972364256196	-0.008997325957326188
Si	13.23582743141075	2.4209402990701774	11.449375732117565	14	0.17193315519521823	-0.1955703548454676	0.023105495070042725
Si	1.3811129846413925	2.764173367736648	12.307936252816118	14	-0.10650880921873022	0.07555218694308333	0.11982996299294942
Si	1.480350118793216	14.534110522991433	4.516658510468178	14	-0.06795585627470582	-0.0625174543015286	-0.025285792381528296
Si	12.747783195364208	11.958291497475503	14.544881763851366	14	-0.02502765340738543	0.035624206873843725	-0.07778570613469594
Si	5.315352075168707	10.224110263740991	5.930461605625836	14	-0.23101227035211283	-0.09015529382992837	0.025033309839089756
Si	14.56142974130133	2.594954260911739	1.041043211110482	14	-0.10123624353870256	-0.03543317374855672	-0.05287452379831323
Si	14.366562251310551	2.8439234255955355	13.494761057595024	14	-0.15014432315962334	0.09506687632300724	-0.06167798841450025
Si	2.1867877273286247	13.601777966746564	0.5416369687906919	14	0.12213058803341793	0.004642387766059371	-0.03299807989984447
Si	8.976672272968294	8.420742381407825	2.9210813161007105	14	-0.10483861920276202	0.05335429205105286	-0.08183776811924932
Si	9.844426478132224	6.377171900371825	2.007777624747868	14	0.0870913076199079	0.05063611950659231	0.0026654648853975138
Si	7.40420529789952	9.476224161054802	8.762656455827395	14	-0.03130372149386689	0.14372761561212977	0.07499348575701513
Si	5.664204779373465	0.2854558839504487	15.27557675665703	14	-0.23202759984303928	0.12247691592004188	0.060047136309930325
Si	14.024077049109135	11.12978637173799	4.0044468959622765	14	0.13487144333687973	-0.12327010191130756	-0.074175102933612
Si	1.3429881596164917	6.555429227079659	8.188170638999408	14	-0.05623752955706692	-0.02055650125564792	0.03434456775600602
Si	3.1753526412807376	14.614217331155313	12.964415726898157	14	-0.0328805803867137	0.1086842214301075	-0.009765058005922405
Si	8.083564249110507	6.285279240388855	14.825344780001199	14	0.09727982667205869	-0.03459756451950859	-0.14935036583676164
Si	9.15776069154603	12.116871917452883	16.13841664454621	14	0.04576798869342394	0.03898721263259741	-0.08153977701264417
Si	11.957610726251295	15.003585742016144	4.1963507400707485	14	0.2862504112712382	0.13251811063734817	0.01895033176215142
Si	13.830379634659964	7.2746754807397584	11.728483751696137	14	-0.08814057570106033	-0.0845860225959556	0.11034412702479511
Si	8.010481167134843	7.95310000798675	5.0741725043003605	14	0.18802158962551282	-0.045757704272143346	0.1398087368831601
Si	14.826987795167316	14.788434215188705	8.529911247674349	14	0.032604700785861813	0.23621695885168856	0.021264840771348718
Si	8.178911495762474	15.10240884943786	12.646115904318279	14	0.07553213232158616	0.014968460952838086	-0.3581187185116133
Si	5.20052593457025	5.989698520947609	9.132904359516017	14	0.27425929027913154	-0.05068574183927117	-0.012362388600335993
Si	9.323014633283789	16.069956588311857	0.2479741913561088	14	0.19826101656300257	-0.14210344838139224	-0.04108574879490227
Si	15.634364465915066	13.448412974393099	1.9501264481670963	14	-0.16878175140431273	-0.17193341230575027	0.2106881970174063
Si	4.050395680657695	0.15065827214952449	13.64796403948888	14	-0.006959467880576819	0.07585712003405289	-0.06309852410388207
Si	11.634612600342814	3.915558793593836	10.596076460183019	14	0.16159731180822295	-0.12791300389843097	0.16734630330407407
Si	7.786047586500424	2.940738585199698	6.1486176900678045	14	0.00954882804849795	0.044293716902851034	-0.11595376461229419
Si	5.351619507550638	8.403485812755743	9.295893427757855	14	0.11331066834318196	-0.06407014480436603	0.021603712452544232
Si	13.318017464979476	13.433000706629674	7.36453728233513	14	0.26770322882328595	-0.16298982244961516	-0.06974843090391307
Si	15.29286932763347	0.6391705384127079	13.422766227696519	14	0.08358791951067412	0.11305535758489126	-0.02260567219580594
Si	4.020098088241889	9.236944531030938	7.608047185470956	14	-0.01349058961481697	0.014817022849481366	-0.04003262405576962
Si	0.5339504725404468	13.842443686258177	8.106913392925389	14	-0.10732796337372941	-0.217299023016571	0.24269871536378188
Si	4.355363187940413	8.908845530348769	11.389518594935275	14	0.11610083183660666	0.04869699187413663	-0.07055190131645933
Si	11.996252675571506	5.618450734523433	8.958415821580656	14	-0.041270868377952935	0.088985698019793	0.02365802560334255
Si	6.770688760880169	4.296276827793224	9.587857550070499	14	0.1266009688535594	-0.05159925555951978	0.10078372900235648
Si	1.7825143541839463	15.363728447845437	11.18070675013327	14	-0.12524471079718127	0.08237950001020453	-0.061720668762814714
Si	9.014921469659157	0.8056485591786087	12.557980577822763	14	0.027714972688004207	0.06195438223641617	0.20206393844203355
Si	12.983703153937839	15.336111392124948	0.6719670194327553	14	-0.013628657970508924	0.028679908514655777	-0.06382229025150375
Si	2.8364676715150337	11.202329418848297	8.083649345513534	14	0.010944681126806343	0.045318559483462056	-0.02736735924872018
Si	5.561720890152346	16.200504289369356	6.413643891414876	14	0.1319727791989448	-0.005268709022047444	-0.06948977770870617
Si	13.275436534080738	0.8414135954888294	1.9846788607341979	14	0.05415287736349085	0.011138028246881478	-0.06239789790414172
Si	15.568679861594788	9.457133110329796	3.488183383496909	14	0.04932022780374053	0.0351202702310947	0.13095179327631398
Si	0.09957588329463808	9.37139684781189	13.888060267687935	14	-0.12675317828851215	-0.08818042783352263	0.011097147672291124
Si	3.6134371064046182	10.703150645759674	14.963469333866579	14	-0.16933968125878487	0.3163963640394424	0.11093856657481334
Si	10.909347412637922	13.62193763191726	10.734837600601805	14	-0.006186079400276278	0.02040891981027142	-0.05838928759949885
Si	3.1698721056320105	10.95488544354181	11.764145690441156	14	0.11427406150664146	-0.07236118813024753	0.05656226015900163
Si	13.595934134915687	4.574350598781174	7.545038208438129	14	0.00928888930063098	-0.07717121196318057	0.10064591775719654
Si	12.346473468101836	8.95935679142181	1.3163268019607552	14	0.03020534530109963	0.02374698584741967	-0.04971849201783146
Si	6.67696816470143	2.827794384283546	2.6245923562040936	14	0.007451577438853162	-0.11918384422599622	0.014480979384138011
Si	0.2195650844997632	5.747432334471394	14.722851071964344	14	0.129407073199969	-0.01658568619921123	0.020234084648501353
Si	13.9565039592294	7.9348386471912455	2.732200030768947	14	0.08347941886616388	0.09787786576952513	-0.12891702052594878
Si	1.6970448361601436	11.03251300073292	13.620959023282463	14	0.02985104698798323	0.006857137888834927	0.002119105004866047
Si	4.60112323634856	12.870583850807769	8.265408716499744	14	0.12763121075534273	0.13608526215852162	0.06009830130580127
Si	7.849639146600121	3.1114043308760473	0.6138478126353408	14	-0.05304370252837898	0.028383460071242705	-0.005291591859396762
Si	12.053612560618845	13.657067718143367	2.134892013237125	14	0.017654494680796783	-0.057994108711792086	0.06428457498806638
Si	16.086979141855622	4.3319076736217506	12.917056305675654	14	0.09332855201605512	-0.022966398272222716	-0.10598327529129195
Si	6.408788487034532	6.9673465482730705	1.206568806750208	14	0.007912576622755713	0.0986031745803389	-0.13503188030885696
Si	1.5157518589212877	4.536521974697575	0.23143275978330113	14	-0.08692855665314253	0.039676783079461125	0.0983236954320388
Si	9.14885502567551	1.0400073260505702	5.874459990088336	14	-0.06738841333054914	-0.051905988424213456	0.0993325971596649
Si	0.5915901938361958	8.96623323537402	5.315951022928465	14	0.03519791761176316	-0.06686647895055908	-0.09955319799613363
Si	13.19267864566874	3.6225849697299046	15.408081674984121	14	-0.07616693822513072	-0.025186290605638567	0.022261658303970127
Si	2.953246119975219	15.771029289174693	1.158500794325586	14	0.007426637717247726	-0.056627309123601366	-0.02522228608012064
Si	0.971900747182633	6.167013241345003	1.773857431645348	14	-0.007507370424300376	0.05649104054163352	-0.012921346896936185
Si	2.6481640598422733	1.9454625106935606	14.154734393608992	14	0.10599047438618837	-0.048498245432889185	0.11637876832171466
Si	13.999975129421333	16.291195780894228	4.077863817672888	14	-0.1947895101597386	-0.12225888618889331	0.04596467825041526
Si	4.559237804897629	12.78713373588654	12.21637088669094	14	-0.15480856532090398	-0.0035275564992431644	0.019774371017258874
Si	0.7308635491424256	7.4548065647834525	10.254710602975253	14	-0.09021880013133601	0.11403314893814358	-0.10428943110637841
H	-0.00214541123782656	0.7563957429887795	8.19929535722576	1	0.06935273779514227	0.13722143359949507	0.01509753043990952
H	13.89814091850793	8.221392602034586	5.1482080114021995	1	0.45882454302276937	-0.20514283706291087	-0.30336471672427184
H	3.5327182587266663	12.88232060854819	0.6366765592163328	1	0.16750828293924339	-0.11036263898310017	-0.07657702952369434
H	10.812447156630734	7.8838577194322745	5.989158486082252	1	-0.0035884916953306738	0.22062886151669478	0.13855172349213968
H	4.9015626331087265	12.961389895182869	0.3886876396366234	1	0.43582831992883286	0.35301970244069564	-0.09255130687777435
H	12.764249349349726	13.771312912144243	4.945212178453156	1	0.28774628034650035	-0.1711579669411936	-0.1361366842649246
H	9.742132419348623	1.1117092279463527	8.38275338333391	1	-0.027864353907104806	0.4383176640998003	0.28097681714908246
H	13.956222486511697	4.694513265730929	11.09002344095484	1	-0.09914259247650598	0.1707414478793296	-0.09396335791959967
H	13.11357990258686	9.399067907018917	10.059996941097635	1	-0.02742238090257135	0.10217212587523646	0.0438903104781198
H	3.8413269101773215	9.434849308022027	1.108500111670702	1	-0.31171952346209303	0.08793951526502473	0.3107887833361994
