228
config_type=amorph sigma="0.01 0.1 1.4997002405961468 0" dft_energy=-23295.292945946418 dft_virial="54.94231837146388 -4.769563333964127 5.945895031650567 -4.769563333964128 35.99655290599526 -5.239293056248473 5.945895031650567 -5.239293056248473 52.16007309331814" pbc="T T T" Lattice="16.1805922113 0.0 0.0 0.0687027945291798 16.579217281017588 0.0 -0.26733574451509856 0.11205060106325249 16.299940259450548" Properties=species:S:1:pos:R:3:Z:I:1:dft_force:R:3
Si	1.8626272543445783	1.016890352289023	7.891129196121107	14	-0.23725954205900862	-0.22280813038605227	0.29711127436460766
Si	16.0139774171818	12.075587293707738	6.98834114398773	14	0.16795745503867326	0.003237792929662476	-0.09357563523732135
Si	4.831473056399103	15.900114589790883	4.229233032353739	14	0.0045716823697553	0.1249518619012164	0.013944903924887135
Si	5.442117280039018	0.7602693959362474	11.979220540674898	14	-0.2908925419267655	0.5035550907195135	0.005214715810324334
Si	10.557792730274278	10.141805885113966	2.7103543692421233	14	0.08773511239207298	-0.25505904707986177	0.07038375102852164
Si	10.608637005179846	10.919516341394774	8.215579195023654	14	-0.0336999916522449	-0.27720089187591296	-0.11110491708902692
Si	0.19757959343296316	12.908473569429077	13.229003010838825	14	0.2135498372387311	0.24215672636229468	0.21039740500569754
Si	10.925682765086501	2.7991534592977376	14.660415864693038	14	0.1405157908462008	-0.05348079043280415	0.020380894762281807
Si	8.10899925218704	12.550018437935263	5.722161261676871	14	-0.14816997138428162	-0.3905403565986806	-0.07196780901626487
Si	14.529448533275554	9.412773122441633	12.15043547715877	14	0.09312594891682745	-0.026446646433575152	0.09511906976100624
Si	9.89232866022248	2.1913926171898774	0.3764657486842114	14	-0.028766811874476782	0.25967392401899553	-0.031246128734695577
Si	9.605126384590347	6.01887934358847	8.099622599000593	14	-0.07109414742847855	-0.1889549008567266	-0.10922338221574257
Si	2.6161008015520797	16.476824875445256	3.4916925142967044	14	0.002110877467841573	-0.04140019497555638	0.07779727610863663
Si	7.094356384156168	10.248913315256667	13.633519434180545	14	0.056710870046506184	-0.18544199965780828	-0.028417912882532686
Si	6.905933387855579	4.007321064353422	11.871151983354846	14	-0.0799863151782107	-0.28312291875981005	-0.2068868178015673
Si	14.79530537166254	10.564818343412425	8.371961382627426	14	-0.04089471566961527	0.10818799810331892	-0.2000811020191354
Si	10.211550709781555	8.055841152595256	12.92846469110614	14	-0.03379923631760262	0.11781601619567744	-0.018236335814746294
Si	8.564751520765844	5.280560539046072	12.749686945822706	14	0.052601729523845515	0.09027716422210337	0.15939053211193985
Si	13.9144517303308	15.303617057921308	12.651642265377555	14	-0.07869716297068845	-0.030368867599461044	0.11005307790255435
Si	4.22760202865884	3.4863011409718996	14.569542422715935	14	0.015119127724598763	-0.08557101304410435	-0.23141850499269623
Si	5.784644236560028	6.658004645638713	14.017316609195698	14	0.03267926284014611	0.09176480576034106	0.05962598925849006
Si	3.7518796731728505	3.568632848320657	5.943171970691018	14	-0.08206736782433856	-0.15787949351528885	-0.04397515695368468
Si	1.846415919008077	15.42663486438538	6.979474179455938	14	0.024913496331170855	-0.06346182128561899	0.00948403619443022
Si	1.413214541794163	1.137608896599869	16.05321373523498	14	-0.06153426362710398	0.07764095290517162	0.01789977812833891
Si	7.598582470881582	11.498347902688053	10.014767201485387	14	0.05101381487812206	-0.028353635249528986	0.029149392346114814
Si	4.673660504443852	13.526051176831535	4.397904379741994	14	-0.0490106667231947	-0.09045508471025762	0.07216115613634003
Si	2.3958214553058834	12.783507619662766	4.316926987961321	14	-0.0808319517180074	0.028722331752438223	-0.24128615010089255
Si	6.300175703063477	0.41066343032279395	2.779157483443013	14	-0.11513821000474322	0.003495674793273328	0.014663784972400538
Si	8.036039343847069	5.485081606537682	0.6962929523919883	14	-0.019772314133002757	-0.13611971496981162	-0.07287360942055304
Si	1.6831958131358091	11.170855952449783	5.977402013514023	14	-0.014297402464279439	-0.019747631521929335	-0.18614853939978496
Si	4.961094162544606	4.854286073357816	12.799498898945192	14	0.17560392226079363	-0.03043263101140072	0.03163282297484584
Si	3.8490052959804	15.933843034255336	9.924155885102108	14	-0.45590068205269696	0.18648586841778836	0.006811629324668306
Si	2.4192930223675955	3.5493261656941337	10.318989842064587	14	-0.011038269360459733	-0.09176789108672523	0.018483933257076555
Si	10.032206643770726	5.186776208530156	4.0010171056279	14	0.08999357130529104	0.10501756813304435	-0.006490498270181811
Si	2.0803257961330717	8.225651613675188	1.3654639961193957	14	0.04936213682045894	0.14897395601789193	0.01468641069921784
Si	12.559874036651166	2.960328338314497	5.972463696771134	14	0.04235561771252341	-0.05287246691405711	0.03463715954143888
Si	5.1289936956843825	16.10524404754964	1.0187511203933226	14	0.04774028358450953	0.03262269852310286	-0.10313037682805563
Si	5.761588510718146	13.019744265947745	10.201254998957504	14	-0.07965567103403964	-0.011405680310708892	0.1789005935022875
Si	11.289500144839138	14.767452100230008	6.466905379386376	14	-0.20052127524994473	0.03965312891051576	-0.026636394006202085
Si	15.939168067152076	9.73965830047198	10.256154130271224	14	-0.03296157020429837	-0.06780853193986133	0.04813880490913248
Si	1.500948948882274	14.375571101346091	14.505190589432372	14	-0.15372150199154538	-0.18534866853468687	-0.3286952463383707
Si	5.18433455716547	6.240655394614211	3.0321653135550055	14	-0.1467129259993537	0.0017115848116225762	-0.0285240995322548
Si	2.0860359271244397	7.457160858836379	4.764457897637563	14	-0.13404688986070823	-0.15927020438295691	-0.05633934532774478
Si	10.451677170434131	13.299537448406324	14.670211595217758	14	-0.04167016103417193	0.14212247456076135	-0.014907011535686545
Si	15.37530031753581	14.619781543472799	3.9878800828115457	14	0.07851590004561801	0.24569328173015834	4.5251453634606195e-05
Si	6.171234181790849	15.3920391401784	10.650824663252369	14	0.2453369265327858	0.10631057699854679	-0.33716035349442625
Si	12.299588176162532	8.591300636466144	5.954142412210279	14	-0.20596636209695432	-0.034661070820916254	-0.013244020614614771
Si	13.664178420302518	12.25238938868217	1.955325867123116	14	0.01801470653614953	-0.22372884320119732	-0.04233736286475036
Si	12.772457893241668	6.852658787999874	4.507684843718001	14	0.022295596894196083	0.29417841452591476	0.04269551783584699
Si	0.5930575379654521	2.5852525025012363	1.0908809643528556	14	0.03662873772242558	-0.000603695529170769	-0.012752939498466485
Si	4.003162652155118	15.074326739872639	7.7561167166508	14	0.04447575115951751	0.07156594525472575	-0.16588591548222995
Si	9.953196812002949	2.6959406977002973	9.1754831196037	14	0.04630354993161079	0.08386251355886594	-0.05191601573496203
Si	10.842059846479282	0.6237553575087305	13.721880030187233	14	-0.04960793448906509	-0.14949486195575393	0.07669710014214527
Si	7.801872195305914	16.038546028395437	7.018854504779799	14	-0.10214307238511877	0.07674852224854822	-0.011756121965845075
Si	3.816479069517245	4.653590097864956	0.0700943254593516	14	-0.15737607109360383	0.020848578820016745	0.008871598907170947
Si	15.341269295997002	5.795334753834033	10.953872592837028	14	-0.08163927878853389	-0.03806341449106821	-0.032638382265555765
Si	0.0962259818806011	16.178597144280346	15.091549362222347	14	0.02040352048909911	0.210561698635655	0.08134797255576112
Si	11.890308186473804	6.415111303718004	13.060983741316686	14	-0.05032552998391843	-0.09096904866375523	-0.04744332092003243
Si	1.4685327504461556	7.56488638760155	13.87700660383541	14	0.04102481359881476	0.056130828686280776	-0.13626523953093198
Si	9.157826857382728	0.8080814278614177	10.233480266405529	14	-0.05160876864920433	-0.0035913199111828366	-0.09744026364403592
Si	7.777327854980593	4.209157771597178	4.240936454700172	14	-0.04090140054344765	0.049429499779846814	0.15664330607736163
Si	11.112306479533194	1.9660908151212937	2.4590746263782974	14	0.144321540941084	0.011455559753919766	-0.12549719333961984
Si	1.4338933386402044	1.9757603370267667	3.2795002280377163	14	0.0655577863426037	0.07255787768723886	0.24809315143598457
Si	5.769644827580152	12.483705516875693	6.202650419628309	14	0.05956556828346659	-0.03246354710378569	0.21133637266861563
Si	12.616630699950743	7.665401844477367	9.564482355014784	14	0.04610274660610722	0.047960113089382195	0.09650335286537398
Si	11.919672725218872	16.52289587564849	7.9288154134404465	14	0.0012770680125175507	0.006028213533619186	-0.014017923315979341
Si	1.546007044013081	11.297828295650294	10.061629432647754	14	-0.10838700165509839	0.07070153964609195	0.016007701723241938
Si	6.960528324035726	15.156014459651388	14.55006422581197	14	-0.04564868940656907	0.18248651409229802	0.10277967806238746
Si	6.65828618794319	13.139110112749727	15.602650582578342	14	-0.16158188517630206	-0.24637642441372168	0.025645490015817014
Si	4.725813789259314	5.590638935946541	6.754062349360317	14	-0.04989949783236988	0.12939730299975244	0.12389128095665533
Si	13.8318028833747	8.55409336467626	7.772057836097372	14	-0.004480922351954073	-0.26465389791359034	-0.07528659176351202
Si	3.6910260839253723	11.667394639815608	0.9550028231992428	14	-0.031551318936197156	-0.1773952113373408	0.6167588010813773
Si	8.333640886093404	13.688866767898519	2.8023685429701226	14	0.0994974050106864	-0.010401406572659052	0.4018668468655289
Si	10.881906172858828	15.54368041426426	15.412413741890868	14	-0.039817936761537255	0.014332626607165467	0.0060564956921408146
Si	6.385890772243618	6.022749741245413	4.9969438826479635	14	-0.06968878126048562	-0.09605880875552036	-0.0482588755275834
Si	8.318932727773332	7.341772201599935	11.68618030737293	14	0.060011655056512285	-0.023556209832664685	0.11804870122715085
Si	12.576510921562827	5.998629332436027	15.2732768294659	14	-0.029531201486156806	0.16176366232243655	-0.029414473304622085
Si	9.137186893957994	14.115618561057008	7.2137206128989275	14	-0.012304795841164676	0.10903569152737175	-0.4590011779582635
Si	13.427627870528639	10.683376778663062	0.1339639770950161	14	-0.14937170601091884	-0.10683456826279299	0.07039840632884649
Si	5.410824014702363	11.757690434650767	14.108987754368817	14	0.08203908566581691	0.19579918321896075	-0.06941341588069776
Si	14.603647874978913	7.027990067142299	15.686545335134713	14	0.0004820822475277647	0.08913122258091338	-0.09461821844464141
Si	2.515413830398823	7.338061991805884	11.730108997167386	14	-0.15791600321083493	0.054284003734818405	0.04577287379353222
Si	5.4809426110500326	2.094988648794952	6.509790420983205	14	0.09049699372697605	0.047951371331293687	0.08719980826441814
Si	15.059642852440884	9.417065833555291	15.938917267972801	14	0.016189735979908422	-0.047696317683535	0.022611071516978252
Si	5.2224349976454185	13.761844474889923	0.7616026767344585	14	0.4551879716579519	0.1871083330157962	0.2377441954118565
Si	2.842994773894255	8.48577566824171	15.559846443942568	14	-0.12497911561761	0.044211441532606297	0.17665421878407414
Si	5.792540365559142	10.747526354543982	1.9769884439756045	14	-0.01514663855152435	-0.017142330501023286	0.2696341289187172
Si	9.383633493928304	12.70855426236236	9.077635842383525	14	0.0715757154549423	-0.09158071461941845	-0.018912279403413224
Si	14.58232347250364	14.201230074446997	10.688509262512486	14	0.06273548403267716	0.2223052221854313	-0.09522139975274814
Si	3.59633078606796	7.913416343832952	3.111854730195658	14	-0.06078607197894089	0.04596622091360736	0.054093227720063426
Si	15.074689185138173	4.193119568597338	9.1574725024133	14	-0.13429885818208273	0.02586609085228572	-0.03035344096754016
Si	14.532013157141044	12.9333091604142	5.403350199159964	14	0.05868625026397595	0.035483567412831624	0.11223697476148813
Si	11.03575124360387	15.94848323408812	10.03284415910385	14	-0.02286766782792903	0.07629986437018238	0.004427186250762977
Si	12.777049945311237	12.722734933376344	10.966799267954634	14	0.0803526976863318	0.12414633460441403	0.1986263706289956
Si	14.260980147305663	1.3122783895208523	5.784752646527843	14	-0.08809738113168183	-0.09122693052736608	0.08347427665552357
Si	5.68954118777889	2.145043310800608	8.813185097459701	14	-0.11495540441648068	0.08307472688877256	0.03131811968365972
Si	14.696056855156868	14.85242771634609	16.218184581184513	14	0.06403003556137171	0.053719131895981875	0.08884634411144098
Si	10.053273774829838	12.375450882745211	1.9013716823945361	14	-0.17995448957301624	-0.003965672845796397	-0.06582055330632285
Si	8.469730993004983	15.980852508806827	2.4225307588690765	14	0.031223503007878274	0.057961455674226205	-0.08587003259283756
Si	8.630949559620714	11.228965313258223	12.119613067055463	14	-0.026259984187332407	0.024154506040663142	-0.0021772119851013933
Si	14.433641628733225	5.884261670568116	5.826153927818896	14	0.25436613419608184	0.03200948990424754	-0.1229150322665951
Si	11.562455409029223	10.46945964127435	4.7769266619955895	14	-0.26863525450183967	-0.19390402148747962	-0.18919221387777624
Si	9.45429252205583	8.048440149717809	15.095688357709998	14	0.03980842367185271	0.09657997180391437	0.10590845612647565
Si	4.66228716617853	9.840974696662256	3.756811517678855	14	-0.35545968138951617	0.04590657127017993	-0.0741074828636921
Si	7.294227149446251	9.134513860124688	1.2748397352623466	14	0.010066648659975773	0.020327929992686757	-0.30123815551397737
Si	2.9608962771011136	3.6878061460753235	3.746248827083318	14	-0.04402940727593981	0.12384165862397647	0.06534875548007567
Si	10.791069946243812	9.139211086043627	9.696967425981686	14	0.007297054009112263	-0.029272548290949912	0.20619801868629967
Si	10.670448485486233	10.03172446212283	11.85601018516351	14	0.14204225607477272	-0.11488058525166438	-0.001170110031199391
Si	6.152642681340065	12.912064042840765	2.7059370675684384	14	-0.12947392193829288	-0.2730081904303475	-0.035130297541843276
Si	0.18426458410228438	0.7319646859810203	11.266570627616506	14	-0.14231685012296452	-0.2614328171685088	0.21897692634849963
Si	3.5211201573513957	1.6352575725913905	9.47325132194981	14	0.3835803744970398	-0.2732005091082946	-0.23134445715947594
Si	8.2230643369806	9.932998578745583	15.664491187950711	14	0.023280844452876825	-0.16116716588816218	-0.034868301909720185
Si	8.357730551777587	4.049698035354817	8.169288138766344	14	-0.06958799393193582	-0.035941995491414025	-0.047825901391670464
Si	3.634042892334837	5.414260772488043	10.973057921021965	14	-0.03875401338005998	0.06080406971618192	-0.058325781298091184
Si	1.216382491721362	12.110225087454467	1.3961974129655388	14	0.5016406456981313	-0.07013923891257558	0.395461195070912
Si	12.78035078612234	11.677391009683749	8.233199859941758	14	0.2558332068917583	0.0379001493032388	0.19374255607337432
Si	14.761596343908737	1.9649889167917043	9.830350519816315	14	0.17102606923827	-0.07078484345846475	0.008511644162350215
Si	9.621713109666151	10.78857489892483	6.139227352337676	14	0.23451308735602644	0.14320465279001166	0.20160036815281088
Si	6.291943017746369	8.358300108623423	12.552995666902143	14	-0.0548707299688762	0.04474237478121686	0.08135542876118955
Si	7.636445056656025	9.515900126900355	6.488339809888685	14	-0.0610763497695856	0.06862202966315618	0.09756959024163936
Si	1.3811559344459143	5.427849233827093	3.8867869787937854	14	0.030121527267662807	0.10062020670399507	-0.03513903929993178
Si	9.394034378601729	13.390951322163286	12.583656271083335	14	-0.10688419059547184	0.029604477987781028	-0.08632486112397174
Si	7.115509272353999	2.0370087327242006	12.996858436324084	14	0.19692609868078167	-0.12486727253618356	0.08449166303070618
Si	11.300025620072589	7.1553458903782206	0.3500897653205713	14	-0.10291543242329126	-0.16112885641889196	-0.09523708349520103
Si	4.454840647615116	6.876597974176492	15.868910317711391	14	0.0022931688350400718	0.20610211645785814	0.02133066106754451
Si	0.6425928029611259	13.438766590206898	10.729227722812224	14	-0.03262758362321114	-0.170157806971656	0.17546636812616573
Si	3.111764118879275	7.2670793518341315	6.794974976766589	14	-0.14013886680626708	0.1815151505023461	-0.18815065911258425
Si	14.118848207262383	0.5544199018240888	8.023289037184563	14	-0.022339305684638603	-0.04628349531011363	-0.10599741637055277
Si	14.279479418380843	13.558616236715995	14.286021231811873	14	-0.08814160414318839	-0.018500645441657516	-0.16770548671729876
Si	1.1091698877292882	4.382870991518474	8.504137404283094	14	-0.20621267398662455	-0.09528619160681587	0.0003671538397171457
Si	14.8075621702626	6.319670080559652	1.6113539837176372	14	-0.07987447209678425	-0.09736287337389947	0.12752193877923643
Si	7.184428886818811	0.29299654570299927	9.148034362976448	14	-0.1547504583406686	0.0006160368347074798	0.1409397661134932
Si	10.680017687719996	4.382045781315698	12.73711947985219	14	0.02863722816634132	0.05984556165283071	0.022264743630354304
Si	0.43317225214793337	9.855105207840385	1.5847692707144714	14	0.00813909100146076	-0.04855943773950871	0.16858043385774515
Si	12.729103614470711	10.954149280963842	12.49852046710436	14	-0.22926263318175202	-0.0622222914107756	-0.12136851241652603
Si	13.950011817833573	4.339301510871107	2.5740053728551615	14	0.14070605263989178	0.08391959209697322	0.08332386699429492
Si	9.798827490070263	6.6607181309525485	5.877027327790445	14	-0.15109331813329	0.12225811485729729	-0.137411695393186
Si	10.837624746154164	1.8671238409200985	7.163369846055804	14	-0.08609449008728648	-0.04733944826509844	0.06364642664760563
Si	15.492179207314914	4.467566683389303	4.347830301025684	14	0.022007633098339495	-0.03969143837978597	-0.033551895985804374
Si	12.183985935108899	0.179044725054919	11.866197486019745	14	-0.18022111319471557	-0.07162328090336503	-0.010156123125116927
Si	6.238441889599704	2.4207508937258337	15.121328124128022	14	0.2178070734278323	0.08712138955215364	-0.04343831016283776
Si	1.5988512401159656	2.9728569708637065	6.738771689720639	14	0.21206913768485783	0.14007896005230763	-0.14118273556624722
Si	8.919710026282795	7.805846148753009	9.492305587337837	14	-0.07345390789131045	-0.04500051375535973	0.003327267394803629
Si	11.920747116541703	3.7849236785867673	3.781978810804311	14	0.026976294129525662	0.17314671690632813	0.1343155703666637
Si	9.978153757429657	0.3889134782723645	3.8146603709526947	14	0.05273414144783315	-0.08235944538870736	0.015760618501975708
Si	0.02069821355669496	2.4270807413988944	5.107653112616898	14	0.10266526387564084	0.03543111686430061	-0.035910885117040235
Si	15.709926290880041	7.567227719294525	6.806595878092745	14	0.018614288296808064	-0.07072545092556932	-0.060354126285156004
Si	4.627888845196527	4.113229512613265	2.212571394335248	14	0.10143087621143777	0.024348624492334322	0.009545999832645787
Si	13.046662299150464	2.307132393277306	11.361502162120203	14	0.17893684608730162	-0.09945960976248024	0.08112917149301652
Si	1.2930056861379733	2.7452283996351383	12.192000182431155	14	-0.2097512862387443	0.026318348278099767	0.06699683399029058
Si	1.3916393401396157	14.922013971210008	4.71506825797179	14	0.08554401643824279	-0.25340119836943026	-0.022583560690052667
Si	12.499038246055122	12.048243710929862	14.550700123085875	14	-0.022918575713267962	0.04991749556961093	0.0023631028997480995
Si	5.478732342153968	10.192064422581485	5.899519969023372	14	0.17206042490856557	0.07126949681131267	-0.24398401091332392
Si	14.393837371893428	2.6422454024470983	1.0246991060901964	14	-0.16739438297356082	-0.045757447161611335	-0.14988926951186465
Si	14.211606688232104	2.8301845990405687	13.362287403060966	14	-0.27195686546493897	0.06589562958167117	-0.028925706183261932
Si	2.7068561252060404	13.901470041199675	0.3485962966594683	14	-0.21014723645804714	0.09733176299952569	-0.1830174473409086
Si	8.858408234631064	8.495318981527936	2.897934356688503	14	-0.11044080058483267	0.10876238303184001	0.020855777914913158
Si	9.74727612328506	6.446666694648482	2.0116909600911796	14	0.14856283627720024	0.017395070153993844	-0.004014780957411226
Si	7.331766123376466	9.37004017841159	8.842703351830776	14	-0.0004080344143075001	-0.077526024497361	0.07071953738333299
Si	5.48831287080228	0.24037887789107276	15.246821561200424	14	-0.3602172546739182	0.046253927598931925	0.03492075245825121
Si	13.713566441909068	11.257545093281042	4.045075240160049	14	-0.09969383745714573	0.06544054394000494	0.2209157968704233
Si	1.2794220789765867	6.6890891813358415	8.127691072309535	14	0.06273728380640126	0.03321919495737721	0.002921804085816277
Si	3.1767583216736246	14.675774482820003	12.942988390675001	14	-0.03859537618180685	0.07434248188995365	-0.09125315580163158
Si	7.956379052272395	6.254986545135759	14.794629022908108	14	0.07915841926512301	-0.07109800408645878	-0.09067619976779036
Si	8.867670005612812	12.174680476528179	16.04157503525739	14	-0.044640044789474975	0.13964187214788246	0.11918410133652824
Si	11.671847538792159	15.269323910788678	4.190520965488203	14	0.21187733322797478	0.12670895527700562	0.03522902798613697
Si	13.618479573720144	7.243957285564184	11.64085037829297	14	-0.061384882408003376	0.0021044497045412027	-0.03411625360357687
Si	7.94805090146124	7.774764849174323	5.017090338010253	14	0.14481930693106465	-0.18060857876646189	0.10964092971973462
Si	14.586048244830682	14.915218122481262	8.470266570607178	14	0.12607363515239703	0.1731307760533432	-0.1000321949172772
Si	7.821719309712294	15.118808805920724	12.444275031715977	14	0.1529841089857269	0.06378269522957347	0.014166276092951884
Si	5.070881098757499	5.9588590548398725	9.133756608409199	14	0.28304964225818585	-0.03818039978313494	-0.05289586397247046
Si	9.436175112956837	16.469949741814677	0.32846602188938995	14	0.29434296526640424	-0.08734353305181443	0.1608154386803659
Si	15.587418173070626	13.572088197791125	1.862839220102546	14	0.02752548222590929	0.06703102969104854	0.17812797635358302
Si	3.9109300404322664	0.14916078929986903	13.579207658364098	14	0.18153443379224718	-0.14697877828945702	-0.07445329652925203
Si	11.434185382333363	3.833871588085171	10.566798847899088	14	-0.06752108236506876	-0.03434559619813409	-0.0593557660893425
Si	7.656300261358511	2.9364668189804926	6.15528335398895	14	0.021364599657770465	0.05139613823922808	-0.038971271779612494
Si	5.2572038541890596	8.368212339412068	9.308947116399386	14	0.11064160391033623	-0.059117167515632764	-0.006560946555953868
Si	13.15359174277884	13.641053117914128	7.133817612441086	14	-0.09458299430175537	0.12907257239781775	-0.10192221443811804
Si	15.133123775850061	0.5925931549689878	13.30411331988368	14	0.21761372630775716	-0.09552016219094933	-0.13767574790956524
Si	4.075719663749029	9.248640431168651	7.527395955447968	14	-0.06326975971820392	-0.047789905917188395	0.07684082492954153
Si	0.503441328003167	13.95971531898269	8.239948784953093	14	-0.1560331827848905	-0.04240266893988212	-0.045744848745542604
Si	4.273739369290141	8.889162686247083	11.389847323555959	14	0.1663834243616786	-0.07349710246068895	-0.14423540891285905
Si	11.775639565590764	5.556535101742782	8.92451404411033	14	0.07298828071783164	0.08721729178059515	0.11158134290485038
Si	6.548237126136475	4.196936570299984	9.587285663618168	14	0.14726391386946144	-0.045542245646314934	0.09832138143725068
Si	1.913678640830451	15.411345822804922	11.124728320173807	14	0.04916981814251186	0.1830277317621892	0.018471591951539846
Si	8.847408668045823	0.6148883929769381	12.509523269808044	14	0.0022618013501342652	0.15137305439212212	0.23303238780215316
Si	12.852988700677308	15.487774850114997	0.6870214730549135	14	-0.09054635894912288	0.06139953770832822	-0.07617053777257893
Si	2.8442196447246504	11.170588972678296	8.046403013158406	14	-0.03387714080880311	0.08459245035925597	-0.027239832424840838
Si	5.5057426047322915	16.319983159022687	6.390050802501143	14	0.16592062540405195	-0.058013906222757226	0.025029967402173565
Si	13.152273024513619	0.857870728154809	1.969930469653035	14	-0.004472951925461613	-0.036590171142623355	-0.02982816415063391
Si	15.301445622446552	9.602323906019349	3.531268624786323	14	0.005606038040050871	-0.126142797885509	0.22439398814751965
Si	-0.02096681138740254	9.398561708302449	13.852475207983856	14	0.0267634066090174	-0.2539030781279232	0.03593916727556186
Si	3.3956930607070612	10.807109767302874	15.059943811456016	14	-0.026896075643537038	-0.3310352092902375	-0.4010088690201955
Si	10.695952334929684	13.754893292475948	10.704108971463402	14	-0.009652443592899919	0.1524683452585052	-0.029681868257917483
Si	3.0968957726963113	10.934151687049894	11.73602623973906	14	0.054713378323283136	-0.014194044030409487	0.05197155160987723
Si	13.40025192656634	4.624888963400552	7.4880318107163175	14	0.010229142516209133	-0.0843078290003156	0.009001439725838426
Si	12.186453475421123	9.086460737375567	1.3340704111110313	14	-0.0072122075335473755	0.07060769430190655	-0.09565565944132115
Si	6.5832438373856235	2.8242948634756555	2.6322943382371484	14	0.03386299972954229	-0.14224871583198062	-0.04518100534883414
Si	0.18376783992139747	5.754342841525926	14.673861936820629	14	0.08283304298867865	-0.05626529749452451	0.04678948883711877
Si	13.76822610045806	8.02895386251774	2.752001595534788	14	0.1029298306130841	0.050165093011941185	-0.224956031770504
Si	1.5702941129222423	11.035498826365373	13.530062345640715	14	0.0548221360783254	0.06333789400918785	0.11847524759976341
Si	4.550003564587434	12.855784707011422	8.169500104524312	14	0.08412965140162933	-0.0050979876287896115	0.08216249872118403
Si	7.764719937529548	3.1577736328321064	0.6431979571098285	14	-0.07148598387926913	0.00039620732983481895	0.0474862583788789
Si	11.93901662320748	13.844912399184295	2.209522970762639	14	-0.03918364507905672	0.08278676309291598	-0.05247471692103021
Si	15.881616936774924	4.392697465168396	12.80333046318083	14	0.2069138144074289	-0.03951891721280403	-0.1124118099232582
Si	6.33012112506893	7.013162172439864	1.1869208694230269	14	0.04554481675163509	-0.07521614347773997	-0.06456482546796251
Si	1.4886096292619366	4.605341189950081	0.2144154996288208	14	-0.1298318197988575	0.002545908488010628	0.12071108078616417
Si	9.04124407244109	1.0842258867763481	5.8920558618363	14	0.05209316489152022	-0.07238664207291699	0.07514878051835208
Si	0.5639098191560162	9.105811107601061	5.3039366406137365	14	0.08993829254090786	-0.047235061389100434	-0.08959582131226415
Si	13.054467816833194	3.58689426469033	15.311076310930718	14	-0.07566300158238169	-0.08296416936000621	0.05280253284934908
Si	2.8323770692852	16.10791222720528	1.208965308251702	14	0.07765612242656049	0.03862417256139251	-0.07912370934330101
Si	0.9424094682811881	6.219002526117049	1.7635081825765968	14	-0.0006756864781349151	-0.05235413208151526	0.06644430345699076
Si	2.5190237205211643	1.9407956953173684	14.076649222775313	14	0.06709993531362853	-0.11389533769298364	0.059678954028085124
Si	13.78234366716242	16.38008758685078	4.044406981701722	14	-0.08476522863676993	-0.040786215025105016	-0.03136028581091015
Si	4.4785694860929866	12.769826928948111	12.195260571761732	14	-0.16530201746402434	0.06661605329237665	0.07193489886816698
Si	0.7240475222120312	7.521918824984443	10.22912768710069	14	-0.09535458300833181	0.02513049762019135	0.016690330185741255
H	3.452954558483631	10.781497507891606	3.732817317488718	1	-0.028286786511205135	-0.03172178321892297	0.07145230239957519
H	13.649428192442697	8.407938929409251	5.079275589996721	1	0.37546236655920423	-0.19589200012101812	-0.3291909554440953
H	0.7301734944232294	0.9785002792084927	8.922182420772682	1	-0.05097756229310798	0.041739580877815936	-0.10874721351045114
H	15.604160231831658	16.062150276313282	10.65260129227717	1	-0.031377769327087156	0.14022422750289598	-0.17565534436719663
H	0.5806777668645864	12.144193004683649	16.224998228564694	1	-0.035955365239078795	-0.008683651108268122	-0.4989129600639861
H	2.9126506053046803	12.337107733382094	15.677498766029375	1	-0.13401397971261034	0.12094813669668183	-0.12226685661538578
H	10.643001346918206	7.989804919662499	6.175821379682752	1	-0.16935947876975	-0.03561417956309514	0.14634345816484845
H	4.714817458792515	1.8472718723360546	11.146390897026297	1	0.2828066728054318	-0.13975962877154524	0.24804275777170962
H	8.021454158027803	16.194056082079022	15.652202028166228	1	-0.30063240310055045	-0.13515555047475608	-0.4383929974856806
H	7.796662044613876	11.70085934062702	4.43863740257472	1	-0.10869347740926005	0.03497474566997432	0.024827364302945895
H	8.615942060344734	13.577291876246278	4.360920400124625	1	0.12102629829841433	0.607757875576603	-0.02837908919219845
H	12.384290340270244	11.686151182306947	9.801777212030382	1	0.12879926390228602	0.03810120973927438	0.11351198588974956
