223
config_type=divacancy sigma="0.001 0.1 2.5990028958913145 0" dft_energy=-23064.580039906003 dft_virial="72.3821277778439 -0.9691924359541476 2.0920373312668796 -0.9691924359541477 78.15788432706658 4.333787315242123 2.0920373312668796 4.333787315242123 72.45698410419809" pbc="T T T" Lattice="16.249967316 0.0 0.0 0.0 16.249967316 0.0 0.0 0.0 16.249967316" Properties=species:S:1:pos:R:3:Z:I:1:dft_force:R:3
Si	1.3443727960265326	1.4447179691995642	1.4580510673823424	14	0.14853172590282648	-0.05365871092095839	0.17029253289043175
Si	2.7022720648469036	2.724030771083028	0.040667168205021594	14	-0.01119484967445675	-0.0038882825756599397	-0.12436025056705034
Si	4.077848048113619	4.06671682050216	1.3945900700231675	14	-0.018071270853192788	-0.012561392152115453	0.05325119072771492
Si	2.7388182413405877	0.054778639822236	2.727134514840384	14	0.040228799391696914	-0.002006233481311546	0.06862022988943207
Si	4.09929800497074	1.3871427100022449	4.099801753957536	14	-0.009994657711011627	-0.002317337225049464	-0.03667681739191235
Si	0.049716775003302	2.831914304093952	2.821920574194612	14	-0.002838757383975494	0.09515095146697608	-0.0019386134113916517
Si	1.4189828959612152	4.1635828756728355	4.1404266722475365	14	-0.0025569642408872647	-0.06741849526279486	-0.02316385916081009
Si	0.0322708100928444	0.0685569871094724	5.462914012292879	14	0.031382654427195435	-0.014168075866675988	-0.0067548078970930325
Si	1.403139177828115	1.4017043057141123	6.806152560600756	14	-0.004309429627100196	0.0011397709884216434	0.010729993832573977
Si	2.758399451956368	2.756855705061348	5.455195277817779	14	0.029628389267258404	0.0300364236815659	0.019335740449641616
Si	4.119334214671368	4.100565502421388	6.815415041970875	14	-0.010815097418670878	0.006626766852149659	0.01543280257365683
Si	2.730498258074796	0.013162473525959999	8.15268985227378	14	0.010438944710333216	0.006548862360949172	0.025407662773703318
Si	4.051734350636808	1.3490024117148611	9.534148323708887	14	0.012584789210528802	0.029413444862494025	-0.03269288969834289
Si	0.038114298339678	2.73316325271462	8.162423582696062	14	0.01660111283113212	-0.009587394628300171	0.0006967695417601295
Si	1.3853600885876796	4.085111783503872	9.517524607144619	14	-0.006389196720567977	0.0075009426610000065	-0.002973740413283268
Si	0.0388439218721664	0.008864357170877999	10.865345646235607	14	-0.004278319252726404	-0.0006941984364399813	-0.007486287360675162
Si	1.3524490297825849	1.3699193696440164	12.242514126299293	14	-0.0010808926765902523	0.019066802833154126	-0.03155543270470939
Si	2.708122053080664	2.715028289189964	10.885333106034288	14	0.014544228575013654	-0.00790820574371146	0.004264949505061634
Si	4.059534334948488	4.0641330756989165	12.240466630417474	14	0.003215167202845173	0.016906045922101678	-0.011761264176485372
Si	2.7446519796070317	0.0179302139364744	13.557461481510012	14	-0.002987624382012068	0.1306103504897983	-0.020160551036345117
Si	4.065108073737877	1.3634518826522484	14.947629935426496	14	0.0194918065425746	0.019981859216594827	0.007053570335294239
Si	0.0014332471172712	2.731359506342544	13.6004101451262	14	0.10382431815396362	-0.02731490870018916	0.010143524709048201
Si	1.3658097529098	4.0914655207244275	14.934516211802483	14	-0.01382586174856428	-0.032795991021680834	0.01508004692373251
Si	0.030943187763127197	5.444324049683376	0.0482445279644724	14	-0.03144538939700705	0.014808281091392862	0.01935065286049847
Si	1.373235987973212	6.805941311025648	1.3907583277300548	14	0.006744266365280425	-0.021000531144437493	0.0010394978809358682
Si	2.7293607603626757	8.151958603744559	0.043614912276144	14	0.01185845195758697	-0.04793080248873251	0.0031097518847191014
Si	4.13204168911248	9.47660718944293	1.3694659955559	14	-0.029320370849904666	0.018294699905513658	0.03643924726033067
Si	2.7392569904581197	5.456462775268427	2.7215607760509957	14	-0.000409577077499589	0.052308109296284606	0.03153254986736007
Si	4.0693005653054035	6.812896297036896	4.069511814880512	14	0.05159771289632769	-0.03360177542901524	-0.006564803213934091
Si	0.028006818669125997	8.154282349070748	2.745626977645992	14	0.002605815241970078	-0.006984664712714271	0.008089211558249886
Si	1.3798952245793088	9.523098345934006	4.076856800107344	14	-0.015194975331543131	0.010005199242824236	-0.011934042453999323
Si	0.0283578179631516	5.4774577330407	5.46665150477556	14	0.030354983630732253	-0.009280404653074491	-0.002558249793547339
Si	1.395961567264638	6.81068630148192	6.808151306580624	14	-0.020173663673477876	0.009688696177914005	0.030107129077869978
Si	2.725477018174152	8.164763577989568	5.429504079491183	14	-0.008484904667020676	0.03670818487681815	-0.02236990183794836
Si	4.074971803898688	9.52865583475608	6.776545120151003	14	0.0010448972021081793	-0.015784015560389057	0.02583935135695618
Si	2.73430075042674	5.435987816450268	8.153811100018585	14	0.014759687200842064	-0.007351561441899402	-0.01503016748052164
Si	4.081000541772924	6.796435080145788	9.503127136102645	14	0.018417084518752704	0.0021345316367869355	-0.0011305150092691103
Si	0.04200616551186	8.132149893586355	8.176268554849296	14	-0.030960736044159134	0.014434442377843332	-0.017786649494252394
Si	1.394474695255224	9.500689641005245	9.500998390384249	14	-0.00948403619443022	-0.009938093393968369	-0.0013973957415004809
Si	0.029388065890985998	5.424060340440324	10.875908124991007	14	0.005568757012908725	-0.021032155739875318	0.023499388405089413
Si	1.3833743425816643	6.787123848873719	12.212711686241748	14	0.005737935742974468	0.00299842302435669	-0.003847402001069586
Si	2.735779497452496	8.146953613811233	10.863151900647948	14	0.008851801396205805	0.009971003542066266	0.004466781272693258
Si	4.121251710814656	9.483773425029288	12.198590464644143	14	-0.011128258046664915	-0.008508044614902009	-0.014875644050780741
Si	2.7191720308555443	5.4352728178883645	13.582990180163447	14	0.0004268034831445811	-0.018281330157848885	0.008313669052698815
Si	4.057080589883772	6.7758301215891	14.95841991372432	14	0.025034081170685802	0.04156937370562212	-0.03602221397740265
Si	0.0369248007321468	8.14017737744046	13.565976464383596	14	0.0026279267477233516	0.0010991475243633038	0.01511295707183041
Si	1.4028206784687216	9.488534665452875	14.903300024588448	14	-0.010169235762249682	0.006746580360068559	-0.0010454114231722089
Si	0.022959578820776396	10.825955725461624	16.234578596951746	14	0.027667664350113478	0.04478994022963961	-0.00751508374026082
Si	1.4273418791485655	12.165733030731193	1.2760449334562158	14	0.02728482676794343	-0.0734595643230148	-0.013950046135527434
Si	2.824991818017336	13.518786559297931	0.005786613361227599	14	-0.019733233332136505	-0.029545342565417618	-0.058667481195138864
Si	4.092879267880919	14.929121222653572	1.3833938425424437	14	-0.00960487814447718	0.02087866075226248	0.008526042352143043
Si	2.76233194404684	10.836859453530659	2.6908158378891236	14	-0.021275125192629307	0.03459730740897658	-0.012611785816390358
Si	4.07378555628462	12.222445416664032	4.080350543080284	14	-0.012331792447026231	0.005606809371646916	-0.006753265233900945
Si	0.40135469274442076	13.217495915291977	3.075485064193476	14	0.006432648400478479	0.10687133506887109	0.020646489941853103
Si	1.4475747134537171	14.995648588845276	4.15901663485704	14	-0.10510652837712145	0.11532024426140969	-0.10914547772454207
Si	0.0019776210223572	10.83486070755079	5.460915266313012	14	-0.017337477394822526	0.013922278198069835	0.006436505058458701
Si	1.3741199861952023	12.22306291542204	6.783808855541256	14	-0.019117710718493056	0.006504639349442625	-0.022380957590824997
Si	2.7832131520479	13.601905142119271	5.490880206043716	14	-0.0387735537804931	0.016102832620087416	-0.050857748785189075
Si	4.144424164207272	14.935767459285815	6.83896124461176	14	-0.041828541121893055	-0.036183936502039965	-0.030281192908044
Si	2.72325077265186	10.872056882737114	8.140161127473144	14	-0.011984950339338255	0.012375501237468748	-0.0387041339368491
Si	4.072339309193496	12.23265039613848	9.48827466597582	14	0.04372447418497025	-0.008646370081125974	0.03912708076201347
Si	0.036356051876086794	13.559021478372348	8.16495857759736	14	-0.0034583937661311816	-0.025877917936758404	0.008038560783442969
Si	1.383891091542313	14.914691251676963	9.5074496274087	14	-0.0014912410856858858	-0.003518043409558617	0.02205057055718597
Si	0.0352494291018672	10.842449442287363	10.845439436273509	14	0.011904731853349636	-0.00310538100567485	0.003239335592854565
Si	1.4063664213370728	12.176701758669491	12.1781317557933	14	0.012729028218989108	-0.0003445281128998426	-0.010376723961585633
Si	2.7387044915693757	13.572330201604151	10.853629419800772	14	-0.003924020939609999	-0.014179131619552627	-0.018798379437730665
Si	4.102694248139783	14.904535022104463	12.211785438104735	14	-0.04762226985031474	-0.05455499823556202	0.02805101615334755
Si	2.7595044497338557	10.835380706504903	13.547857750826255	14	0.02871693243126591	0.01558089824009736	0.00038566579802221183
Si	4.144846663357488	12.166074280044826	14.894037543218326	14	0.005488795637452119	0.011712413175402558	-0.004660128392768393
Si	0.0198217101320568	13.501415344237127	13.503284090478466	14	0.03337603238190625	-0.01219526675452637	0.017910576770683532
Si	1.5039783500075532	14.738817855415896	14.792848996741595	14	0.19644607331751004	-0.23323062002233655	-0.21433530991403632
Si	5.44869529089138	0.0233284530788496	0.02876244214932	14	-0.021291323156146243	-0.008058358294408109	0.005255339274382674
Si	6.792632587793844	1.3781776030340076	1.3919852002624127	14	-0.0033866599276990497	0.003739158467091351	0.014679725825385457
Si	8.154087349462955	2.7180182831761077	0.042464414590171196	14	-0.012410725380354778	-0.009473237552085597	-0.007426380606715711
Si	9.499828392737495	4.094926763762736	1.3791493510795043	14	0.002191353064362208	-0.0017786906604784411	-0.047142244487043086
Si	8.142988621786127	0.013532972780764799	2.7300920088918956	14	0.0352729938871115	0.017732913393061298	-0.009458325141228739
Si	9.488502165518243	1.3766224811618664	4.065774322397831	14	-0.03271088743558394	0.035287392076904324	0.003966701287924456
Si	5.453359031511072	2.740361988235608	2.753329462153776	14	0.012495571855919664	0.01228731232498767	0.04679257416350295
Si	6.80069257158258	4.103457996603636	4.11237922866012	14	-0.00040726308271145573	0.0046850681143738295	-0.025373981294009376
Si	5.463027762064092	0.042912913688092795	5.457730272719076	14	-0.003590805690118807	0.029916610173647006	0.019640673540611175
Si	6.803845065241884	1.4079101682320927	6.819396283963295	14	0.028630543292508935	-0.016031870113251332	-0.0016992435060858655
Si	8.178576050208168	2.7305795079113757	5.437450313508708	14	-0.010211659000032127	0.014980802258374797	0.024467409558125163
Si	9.589576962223763	4.06037933324892	6.7600026534233155	14	0.013229365314289926	0.010656203109885728	0.02622655981817048
Si	8.14724611322292	0.0278459439926976	8.157548592501264	14	-0.016460987591184046	0.014988258463803228	-0.0030279907355383927
Si	9.503468385416278	1.36589100274638	9.520823350509769	14	0.0024628617861698447	-0.0012271885693066781	-0.009007610378606779
Si	5.411304116097264	2.707374554584128	8.203893499286496	14	0.0009952748694293215	0.007948572097237787	-0.035051364608514726
Si	6.74341143679368	4.035386883516912	9.595573200163367	14	0.04254330840089422	0.045770816909276105	0.042203151167038634
Si	5.440034058311952	0.010027854830703599	10.863119400713316	14	-0.00824450631958683	0.017566819989379735	0.00404229178433681
Si	6.774968873321352	1.349312786090597	12.243440374436304	14	0.006150083925794205	-0.002069225561655174	0.00582201088694331
Si	8.126559904829652	2.682040855538484	10.886064354563507	14	-0.016718612344262883	0.08978222644797487	0.012920832675872157
Si	9.419586054131088	4.033631887046784	12.265296580476324	14	-0.0417771190154901	0.03359329078145876	-0.04335989145057325
Si	8.15561484639066	0.009823105242522	13.580780184608471	14	0.0002720229428716668	0.009905697466934503	0.014195843804133587
Si	9.50447588338987	1.34691916590495	14.955056170489907	14	0.02232927837389002	0.03460244961961688	-0.03934536760369403
Si	5.421687845212188	2.7148007896475397	13.591943912154562	14	-0.0005175635009458082	0.0005126784008375269	-0.02166593320129182
Si	6.77574887175252	4.059599334817752	14.954568671470426	14	0.010256910453666732	0.006893390473849015	0.0041014272067002155
Si	5.4238328408979	5.42310159236868	0.045166784154822	14	-0.015521248596669925	-0.012758853040702827	-0.015344870771707764
Si	6.792990087074796	6.7783976164250275	1.3793346007069067	14	0.010689884589579667	-0.011663562174319745	0.016672846669564246
Si	8.136131135578776	8.140713626361887	0.0291508163681724	14	-0.012078538572991645	0.007597873331569588	-0.02621961783380608
Si	9.48465092326435	9.488469665583612	1.3828559686242838	14	-0.003784924141789987	0.012244631976673212	-0.03877406800155713
Si	8.146449864824437	5.436979064456543	2.735584497844704	14	-0.0014956119647301376	-0.012994880509092421	0.0390617746868817
Si	9.499470893456543	6.7965000800150515	4.08101679174024	14	0.01004350871209444	0.008089725779313916	-0.008531698783847371
Si	5.461857764417339	8.136586134663624	2.7390782408176437	14	-0.015435887900041006	0.005914570678468642	-0.0031722297439987
Si	6.794241334558127	9.51614335992276	4.08174804026946	14	0.009168818682180065	-0.010941595800422164	-0.022630869027943392
Si	5.4287240810600155	5.488735210358003	5.430787826909147	14	0.010366182429773024	-0.0015334072129363143	-0.0006499754249334344
Si	6.770711381884559	6.891773638388759	6.75088642175904	14	0.017521311425213112	0.017662979328353274	0.043596947361090904
Si	8.17763355210384	8.190471026283479	5.4214115957678155	14	-0.03166958978092396	0.027708544924703836	0.020010655596180482
Si	9.534310823382048	9.54490580207208	6.7652188929317525	14	0.01867779459821572	0.017597416142689497	-0.025325130292926563
Si	7.83215924696568	5.1317396783928	7.84897796313774	14	-0.05404874759802486	-0.05684379619155784	-0.06378372367170153
Si	7.8344992422591835	8.457685488827783	11.171023781416883	14	-0.0550095696561642	0.05788766495153796	0.05371630368012971
Si	5.406169126425407	8.170451066550168	8.133384891102372	14	0.040811926078306505	0.016079435561674068	-0.018383917260122794
Si	6.771995129302524	9.554200783376832	9.410713571976553	14	0.012724143118880827	-0.03264198181300396	-0.0186114600809559
Si	5.388927911103132	5.421249096094656	10.881660613420872	14	0.0713934240877438	-0.027566362800499643	0.019368907708271522
Si	6.744613934375064	6.708279007456488	12.266157828744072	14	0.04816734417818613	-0.04100321631412552	-0.04752251096389299
Si	9.593704453922028	9.553583284618824	12.234194143033498	14	0.013480562304068395	-0.024612677008713533	-0.016525008113655735
Si	8.127307403326189	5.415805357043796	13.619227607278127	14	-0.010736935816938378	-0.015387808230554238	-0.0836655668913426
Si	9.49128090992928	6.802512567921972	14.926699977523489	14	-0.01355898101633291	0.00772257193959677	0.022746568767350053
Si	5.418307852010459	8.103257451698507	13.597582650813214	14	0.002432008522328068	0.03242240941866332	0.004967889699590118
Si	6.821070030596844	9.485528421499415	14.889958801422011	14	0.015342556776919631	-0.0013860828780918294	0.02482505030815776
Si	5.481715224477492	10.826118225134785	0.0130097238331896	14	-0.007294997124856145	-0.008626058349096806	-0.0399991996866077
Si	6.785775101586491	12.213020435620752	1.379874099621798	14	0.02084472216203652	0.01064077647796484	-0.006993920691866804
Si	8.133401141069688	13.573207699839216	0.0330979334292288	14	0.038724445668878275	-0.027759195699510752	-0.006302807581811
Si	9.488550915420191	14.926326228275219	1.3648428798544978	14	-0.0012940373076305283	0.01648644153385351	-0.0023510187047434037
Si	8.141574874629637	10.860324406334962	2.725070768991252	14	-0.01366542477658704	-0.0020134325762079606	0.029479522269221826
Si	9.507092128127749	12.2216004183636	4.052693098708452	14	0.02199194935588659	-0.02513049762019135	-0.027331877995302137
Si	5.438652811090092	13.572232701800255	2.7400369888892877	14	0.010000057032183938	-0.02031841690300221	0.005165093477645476
Si	6.793558835930855	14.924977480987991	4.092440518763388	14	0.0012775822335815803	0.01802961894700639	-0.004783798558667516
Si	5.4440965501409515	10.877289372212868	5.430007828477979	14	-0.029042691475328675	0.010282107285804183	-0.023364148265249626
Si	6.813855045108539	12.233072895288695	6.7716051300869395	14	0.007140473695115245	0.004844733754755025	0.01175097975520478
Si	8.176739803901459	13.588271419541147	5.4235565914535275	14	-0.01039960679893495	-0.012340277094582719	-0.003435510928781863
Si	9.511154619956748	14.952033676569132	6.7936563357347515	14	0.004285518347622818	0.03849407463219301	-0.006127201088444887
Si	8.176674804032196	10.88832310002043	8.112731182643737	14	-0.024126995213737557	-0.02768309098203437	-0.0243100579125321
Si	9.516923358353928	12.2346003922164	9.483269676042491	14	0.0009646787161195593	0.005584697865893642	-0.0019201014530865854
Si	5.478188981569919	13.5618164727507	8.168371070733718	14	-0.01074567757502688	0.03753993744788606	-0.005598067613558412
Si	6.814505043801179	14.9223449862828	9.520092101980547	14	0.002897635695806885	-0.0333978867771275	0.019827335786853927
Si	5.4319578245559	10.872983130874129	10.814873247752113	14	0.014603621107909075	-0.009678411756633414	-6.247785927959831e-05
Si	6.819770033211564	12.190839230234412	12.187166737620995	14	0.008301070636630088	0.019259378621633218	-0.012966598350570792
Si	8.171832313772027	13.570087706114544	10.861185654602712	14	-0.0005095930744533492	-0.007603272652741899	0.016544805624620875
Si	9.51763835691583	14.916592497852935	12.224330412872689	14	0.0027927345987448435	-0.00034787054981603505	0.004162876623851754
Si	8.193981019223735	10.875908124991007	13.57200520225783	14	-0.011611111625788727	-0.010820239629311177	-0.005088731649637078
Si	9.503159636037275	12.237249136888908	14.9446886913423	14	-0.031258212929700276	-0.027894950060414567	-0.029799624881580264
Si	5.471591494839624	13.546980252591192	13.545599005369331	14	-0.014831421039274192	-0.04397798516953684	0.013565408779633279
Si	6.7899350932193885	14.912903755272202	14.918331244355748	14	-0.0037954656736025947	-0.008151175196465453	-0.0026562089062449803
Si	10.872235632377592	0.013658097529097999	0.043639287227118	14	-0.06783707120891498	0.014190958704025309	-0.002906634564427403
Si	12.17897675409373	1.4333299921045115	1.3673404998309673	14	-0.1001016147609212	0.05000028516091969	-0.2572056629116534
Si	13.481411634471131	2.834091799714296	2.2749954242399997e-05	14	-0.005033452885253894	0.09491749510390662	-0.04119450654994453
Si	14.908987513149048	4.103782995949956	1.3947444447126696	14	-0.008083298016013546	-0.0202731654493676	0.011252956654692097
Si	13.923361995564385	0.2792524383319968	2.384568953851788	14	0.42272750988055036	-0.666498376162834	-0.27697977681838026
Si	14.935393710037548	1.438877730946194	4.126890449473308	14	0.25906174384226827	0.04187584945978377	0.11982867744028936
Si	10.841425694346457	2.754401959996632	2.748665721534084	14	0.060684513318795034	-0.07862980001130057	0.09872684474623802
Si	12.218610424377456	4.100061753434591	4.084396784941968	14	0.008196426650100062	0.03251676898391275	0.00253639539832608
Si	10.85270317166376	0.0768672203948748	5.439969058442688	14	0.026621481595345227	0.08102966971712677	-0.03792740301963237
Si	12.227547906401256	1.3788487266841583	6.806347560208548	14	0.021933328154587216	-0.0058320381976918875	-0.016948212049352106
Si	13.557201482032955	2.760560697609396	5.464766508566903	14	-0.10218138185438898	-0.05165710542922311	-0.0517645776316053
Si	14.944054942616976	4.0916930202668516	6.803016316908768	14	0.045162236279997055	0.010902000778491884	-0.015201660205375516
Si	13.579138937909555	0.0135622227219336	8.152088603483088	14	0.01703562963023714	0.013959302114679965	-0.012558821046795307
Si	14.952049926536446	1.3495679105774578	9.500933390514984	14	-0.01539654998864274	0.032680291282274176	0.04211984735466583
Si	10.865443146039503	2.7015083163830518	8.1542335991688	14	0.0027896492723606657	0.05513838203270362	-0.01020703101045586
Si	12.267929075181517	4.050320603480316	9.42493229337805	14	-0.031816914115768445	0.01357492186931783	-0.0010220143647588613
Si	10.869326888228027	0.021276082206838798	10.871488133881057	14	0.01139899543687651	0.03141042236465304	0.008088183116121826
Si	12.213394184869019	1.3975150641400476	12.214742932156247	14	-0.011851767083754586	-0.007527425045797531	-0.014465809862749139
Si	13.593357659311057	2.71155079618434	10.827401972552748	14	-0.025404577447319138	0.018546411116356153	-0.005516049353845688
Si	14.904925021320048	4.083909285922488	12.220966669638274	14	-0.023993297737089858	-0.008247077424906978	0.0023872712897574913
Si	13.570120206049175	0.040527418486104	13.576295193629257	14	-0.03521205869102399	0.00690496044778968	-0.03470606516401885
Si	14.845580140682017	1.4365653605971271	14.959427411697911	14	-0.17298576571328686	-0.03121347569712969	-0.12457776607713487
Si	10.824525728337816	2.715824537588448	13.593975158069064	14	0.023431254114105488	0.020015540696288765	0.0012600987174045735
Si	12.164806782594178	4.169790363187548	14.875447580608823	14	0.009100170170132111	-0.05815094613632112	0.020503022264988843
Si	10.842124442941044	5.471753994512784	0.0390925463721012	14	0.012912090917783652	-0.007566505846663783	-0.058358691446189076
Si	12.212484186699323	6.812376298082784	1.3856607129830256	14	-0.0150103699695565	-0.00418935900864928	0.004987687210555259
Si	13.579155187876871	8.155176097273127	0.03692805072561	14	-0.00821031061882886	0.017213293007859374	-0.010290849043892686
Si	14.935117460593174	9.505207131919093	1.3838342166567072	14	-0.016699071943829757	-0.014092999591327664	-0.015610980172343091
Si	13.566853962618659	5.46543275722686	2.7401507386604997	14	0.018267446189120087	-0.032191524160914024	-0.02197883671875384
Si	14.922848735269595	6.808703805469367	4.09637301085386	14	-0.018011878320297367	0.03129883639375861	0.01644993183830741
Si	10.852898171271551	8.154704848220963	2.738151992680632	14	0.014125652628893546	0.018826661596252292	0.02389173907694401
Si	12.213702934248024	9.506783378748745	4.085989281738936	14	0.009698980599194598	-0.004111711627980808	-0.02018497653688652
Si	10.881173114401392	5.466537755004348	5.426042836452876	14	0.015248968543266243	-0.027251916619845534	0.04392450617887777
Si	12.231496648459043	6.8094350539985875	6.782151358875024	14	0.023932619651534363	0.011930957127615145	-0.03212647519631428
Si	13.577627690949166	8.16772107204108	5.444194049944848	14	0.0030508735728877107	-0.004948863520221023	0.011459930632964016
Si	14.934922460985382	9.47763093738384	6.833111256377999	14	0.03621607531854181	0.0396276749678463	-0.025180634173934242
Si	13.590790164475129	5.459631518895048	8.127388653162768	14	-0.04286366812378467	-0.027131588890862604	-0.027544508405278386
Si	14.936173708468717	6.777146368941695	9.516679608844187	14	0.012606643605750062	-0.0045495708640020255	-0.002023202776424523
Si	10.909675557073657	8.210165986670471	8.097261213758904	14	-0.16094656505169347	-0.1617140399897577	0.16872801530312162
Si	12.233560394308174	9.525097091913876	9.4956684011046	14	0.04117059527046717	0.030346756093707777	-0.009282718647862625
Si	11.1661650411894	5.124638442675708	11.169951283574028	14	0.05406468845100977	-0.0519486687725279	0.06567837118211865
Si	12.257902845347543	6.88454240293314	12.231464148524411	14	-0.014095056475583786	0.021101832694051328	-0.026102889652271356
Si	13.592821410389627	8.17080856583112	10.829043219251664	14	-0.031927214534002796	0.019946635073708797	0.021675960512040394
Si	14.94000870075529	9.490728411040536	12.20315670545994	14	-0.04649072639891756	0.010074361975936218	-0.016776976435030243
Si	13.591245163559975	5.5004351868255235	13.570363955558916	14	-0.0387074763737653	-0.0010639233814772752	0.004512804057923908
Si	14.949417431831254	6.806932559031924	14.950847428955065	14	-0.009823936317753796	-0.04554867340961531	-0.036436161933946484
Si	10.86570314551656	8.15561484639066	13.590611414834651	14	0.020178034552522123	0.006266554996796913	-0.044871701378820315
Si	12.219747922089576	9.49786214669226	14.929478721934522	14	-0.004781227453347367	0.015474454479843228	0.021298265140510645
Si	10.827564472225909	10.829075719186296	0.013511847823254	14	-0.03224628870423318	-0.024382563082560278	0.0418431964222179
Si	12.181349249321869	12.163003036222104	1.3455249187092373	14	0.021532235724644116	-0.05878035271869337	-0.10288020828040521
Si	13.525302796191646	13.445531706637404	16.192036182518457	14	0.08313206253741187	-0.1233243522335627	0.07936565035392695
Si	15.773762023804618	0.3381764448165444	0.5341494256507727	14	-0.19353789608989053	-0.5178072417301584	0.30554655669894953
Si	13.546509003539027	10.844513188136494	2.7079433034401883	14	-0.018813291848587523	0.014731147931788419	0.03934073961411778
Si	14.864478852670523	12.15920054387016	4.108300486863804	14	-0.018827175817316324	-0.028153603255621464	-0.06390199451642835
Si	10.84474068767892	13.547175252198985	2.65491966008808	14	-0.024372278661279688	-0.018673423719171467	0.045327558352082575
Si	12.124604363454395	14.814087704023606	4.165386622044912	14	0.05641879248213735	0.034382877225276234	-0.08770194513344307
Si	10.887851850968268	10.901566823382971	5.420550347500068	14	0.000136525692499863	0.01583775166158015	-0.01527879336497996
Si	12.255969099236939	12.231171649112724	6.7951025828258755	14	0.04792463183596415	-0.016852824041974614	0.017497914366799764
Si	13.63681007191404	13.57655519310631	5.458802770561931	14	-0.05410016970442782	-0.02790189204477897	0.047586017265300644
Si	14.962303655912843	14.931899967064608	6.812360048115468	14	0.0061369712886614495	0.033565008622937126	-0.011566117282686134
Si	13.588661418756733	10.86456564780444	8.155127347371181	14	-0.032390013491629455	0.0034136565335606043	0.0071039639995691415
Si	14.928698723503356	12.215831679966419	9.520417101326867	14	-0.01011832787691075	-0.0024577195755295486	-0.05096007877693098
Si	10.877760621265033	13.587361421371451	8.130427397050859	14	0.028418169993064707	-0.033979470800544996	-0.00282410208365065
Si	12.220511670553426	14.922361236250117	9.511008370250904	14	-0.008150918085933441	0.010071533760084055	-0.006628309515341747
Si	10.884861856982123	10.890273096098351	10.82995321742136	14	0.027005347619643336	-0.03133611742090076	0.021948497675976092
Si	12.216172929280056	12.224492912545848	12.211817938039367	14	0.025100158577413604	-0.0223531896533674	0.009558855359246528
Si	13.576343943531203	13.578196439805227	10.86984688718214	14	-0.019321599370380797	-0.02373618720507505	-0.00810001020059451
Si	14.925399980138208	14.92892622304578	12.223777913983943	14	0.013586234732726481	0.028594290707494845	-0.03282067363275426
Si	13.555056486347244	10.827304472748851	13.536239024195316	14	0.05294702896834141	-0.021633794384789965	-0.07080412674836586
Si	14.92990122108474	12.154634303054364	14.861228859207323	14	-0.11403109205388745	-0.08206531094008243	-0.030059820739979252
Si	10.87098438489426	13.570981454316923	13.585200175718423	14	-0.003929934481846338	-0.002133246084126861	0.012589931421169098
Si	12.231155399145408	14.928796223307252	14.930307470267639	14	0.04624055785126715	0.04213450265499068	0.03312714938691591
H	10.021744842992785	7.342693981440444	8.965448217550836	1	-0.021928185943946923	-0.013072527889760892	0.016572316451546457
H	11.237486147739324	13.916407009553136	5.090367261606263	1	-0.07336340498404126	-0.076987892153854	0.04065046066420121
H	14.490404605056204	14.024420542302588	0.9173577798934164	1	0.10972397642157539	0.31977505354064895	0.102181638964921
H	6.952012267229172	9.334988724283992	12.053624506218107	1	-0.09088754462510654	0.0912395289434348	0.09005630627510265
H	1.2714819426338833	12.336682686895513	3.9604257842882036	1	0.11753962237376152	-0.10230350935709602	0.09159408436708323
H	14.83126391947662	1.2772246810833576	1.4672924237949516	1	-0.13061652114256667	0.8210619151467279	0.1423703291136236
H	12.04715701922634	4.2466039586902795	12.053348256773736	1	0.09414282107094601	-0.09440533092413313	0.10348416092010801
H	6.947527276249955	4.251170199506076	6.970764729511836	1	-0.08366299578602246	-0.08659122763513909	-0.08639865184666
H	0.552767013204714	15.400435274686837	15.778767013737946	1	-0.414838330316208	0.3003099864934039	0.4193369932948711
