226
config_type=divacancy sigma="0.001 0.1 2.3387130032001058 0" dft_energy=-23107.745478197143 dft_virial="71.60992567440076 -0.772202103443142 -4.479560161300268 -0.772202103443142 71.23958384928007 2.493897609589331 -4.479560161300267 2.493897609589331 73.15039007463683" pbc="T T T" Lattice="16.249967316 0.0 0.0 0.0 16.249967316 0.0 0.0 0.0 16.249967316" Properties=species:S:1:pos:R:3:Z:I:1:dft_force:R:3
Si	1.3136441078319767	1.3791704760370151	1.4207086424901745	14	-0.06770774461131153	0.06540197736020274	0.09246671751274149
Si	2.736218246570028	2.707780803767028	0.08990619416923319	14	-0.025877660826226386	-0.013155317481069661	-0.13831158225523785
Si	4.09840425676836	4.105245493008396	1.3960038171796596	14	0.03179146017309898	-0.041460873061111875	0.054914181648786704
Si	2.5353199006423197	0.1886279956073964	2.97886275853254	14	0.20630471955708582	-0.24612522742394324	-0.19809800848570516
Si	4.104871743760127	1.432437868898863	4.158675385543404	14	-0.03435948016686288	-0.004411759618842089	0.004351595754350623
Si	0.0109801029154212	2.7619906947332042	2.7608694469883996	14	-0.14555901393167126	0.02866448188273489	0.00025659631095077825
Si	1.3921411999486462	4.1063667407532	4.10076050202918	14	0.0016830455425689325	-0.037677748693046	0.02952271683860032
Si	16.233359849403048	0.0349179297686208	5.519561398356456	14	-0.035145981284296184	-0.06372998757051043	-0.01159902743078403
Si	1.3907875776712235	1.3771083551846146	6.833631255332112	14	-0.018737444241643156	0.018580863927646137	-0.0056528321568775665
Si	2.7194970302018637	2.758041952675416	5.48485146816948	14	0.06476742856719019	-0.0007067968525087068	-0.005002342510880103
Si	4.084185535366859	4.090133023404516	6.835808750952456	14	-0.011384083026019648	0.044000096675290125	-0.0361759660755475
Si	2.7525332137552923	0.0005004989933328001	8.158653590278751	14	-0.013551524810904481	0.021855680773918744	0.0010837208924424154
Si	4.1502416525064	1.3274565800505769	9.488095916335343	14	0.029113653982164756	-0.004305058748055944	0.0006052381923628578
Si	0.0186273375343308	2.750258218331052	8.143882369988509	14	0.00022240061019280884	-0.0017231547855632427	0.01603238433431536
Si	1.3453819189968563	4.144732913586275	9.478378435880375	14	-0.027684119424162427	0.024594165050408463	-0.04323802105839823
Si	0.0042363664792812	16.238624838813433	10.856456914113755	14	0.04206996791145496	0.003637599806945502	0.010099815918605683
Si	1.3531575283575623	1.2941766469874088	12.239215382934143	14	-0.14707648029162265	-0.051726782383399124	0.14705848255438161
Si	2.604073512356316	2.5944697816725597	10.727870922742248	14	0.21717021064003159	0.14910148284177127	0.17299425036084334
Si	4.040993122240932	4.03153564126302	12.161654288934876	14	0.07055884330082372	0.06233464871326607	0.07455614074205795
Si	2.738493241994268	16.24154983293031	13.600881394178364	14	0.002443578496268734	-0.001821628119324914	0.04948734964955016
Si	4.080838042099764	1.38746283435837	14.936596207618932	14	0.006112288677588028	-0.020713338680176954	0.0007687604907242756
Si	0.0031118687410139996	2.692067085372456	13.539749017135572	14	0.08463873025501864	0.06782370146125022	0.12381131958119873
Si	1.4419603497460391	3.9942257163054835	14.876828827830682	14	-0.1343693064678548	0.03494877750624082	0.0035404120258439053
Si	15.835885648853687	5.016218660743355	15.845099380321859	14	0.09597164828516734	0.018456165319618956	0.017500228361587898
Si	1.5723338375223073	6.976257218464644	1.5886195547664024	14	-0.21121038850792836	-0.09304264510445465	-0.18996791635286492
Si	2.799528119233164	8.175764805862501	0.024048326630948396	14	-0.06920078547072152	-0.020300162055229158	0.0352835354189241
Si	4.1237704557486365	9.519442103287908	1.397711688744571	14	0.03482279334555357	-0.008320353926531198	-0.07836600460545337
Si	2.820035577985956	5.450937786380988	2.820198077659116	14	-0.05470617922838672	-0.04155728951061743	-0.007143044800435394
Si	4.154027894891028	6.812018798801832	4.16194162897392	14	-0.001268583364961062	0.04466549873214445	-0.02056241479788426
Si	0.029261316145921198	8.215772225394492	2.80523185776108	14	0.05330801215529019	-0.03432734135036103	0.003898824107472547
Si	1.3905860780765051	9.540892060145028	4.1506479016893	14	-0.0411662243914229	-0.007742626561093925	-0.009469895115169404
Si	0.024423700875947998	5.436296565829272	5.45170153484484	14	-0.0341756461364723	0.005430688657216773	0.017938858929205163
Si	1.3743279857768471	6.790975091127612	6.804316314294048	14	-0.0009484807526026263	0.014628817940046526	-0.005122927350395047
Si	2.735291998433016	8.147164863386338	5.466229005625344	14	0.009362937133851244	0.011648392652930871	-0.018046588242119365
Si	4.081683040400196	9.500332141724291	6.813351296121744	14	0.016165310479367017	-0.022044399904417613	-0.049501490728810965
Si	2.74429448032608	5.468975250101748	8.161399834755157	14	0.035454771033245965	-0.001187079326312368	0.01906551728049405
Si	4.1021417492510395	6.802756317431712	9.513754614727308	14	-0.09730862305164435	-0.038823690334236	-0.014391762029528871
Si	0.0184778378350236	8.130963645972288	8.163707330114027	14	-0.022882323128253872	0.006033869965323512	0.0029256607437964993
Si	1.367288499935556	9.480490931631456	9.52093710028098	14	0.01890302342426069	0.0013495731825457268	0.004607420733705357
Si	16.248066069824027	5.445640297035972	10.865914395091666	14	0.0013300327821126013	0.0013673138092547485	0.01704411427779363
Si	1.3723438647675636	6.7710201312635645	12.216497928626374	14	0.004754745068549843	0.009411016803338014	0.02407531599680258
Si	2.725395768337572	8.122643662706496	10.864305648327383	14	0.04636062846971807	-0.0093552238178908	-0.024015409242843132
Si	4.127507948231315	9.44334350634708	12.184664242654332	14	-0.032842528027975514	-0.008460993387543298	-0.0051612368196652545
Si	2.738005742974788	5.406867875019996	13.548036500466731	14	-0.007637211242967854	-0.048237792463958186	0.0319845501826421
Si	4.082430538896731	6.756135161202107	14.928032474843398	14	0.0537006199376768	0.05862325818363232	-0.03978836905035555
Si	0.0418485408288948	8.140518626754094	13.56872270886	14	-0.05614034177596532	0.05999057199288707	0.033075984391044956
Si	1.400061434018465	9.481855928886	14.929689971509632	14	-0.005663887909754203	-0.006158825683882709	-0.006174766536867627
Si	0.0484590275330436	10.828701969938027	0.041796540933483596	14	-0.0001488669980365738	0.01932391336516893	-0.046088091305782376
Si	1.361235387110346	12.19462547261904	1.4137357815148788	14	0.003674880834087649	0.011033127149819437	-0.03936053712508291
Si	2.669089631587632	13.4521291933677	16.20092491464031	14	0.040303618556513224	0.09486221633952345	0.12890596477307215
Si	4.4938797113378515	14.488698358488024	0.9607939425290843	14	0.04840877096774803	0.006196620932088885	0.009237467194228018
Si	2.735941997125656	10.847324432482164	2.74843822199166	14	-0.004598936086148869	0.05067391475479849	-0.015437430563233094
Si	4.069999313899992	12.2004754608528	4.107975487517484	14	0.07687733462508764	-0.004683782561713755	0.039044291170704695
Si	16.246457323059744	13.563733968893988	2.7513794660758557	14	0.02813020619720812	-0.03403552089652422	0.04364271303578954
Si	1.2885785332470467	14.898295034655119	4.184902832791428	14	0.04960150672576472	0.09339514364384695	-0.016561003588137807
Si	0.023936201856467998	10.864809397314179	5.503425180811668	14	0.051007130004289684	0.01274985417208231	-0.04783824269720717
Si	1.3806508480595028	12.210729190229195	6.84009874232388	14	-0.024411102351613923	-0.006996491797186952	-0.011612140067916785
Si	2.7171245349737276	13.549580247361751	5.460834016476432	14	-0.0106279209513641	-0.02593782469071785	-0.014818565512673455
Si	4.0814880407924035	14.899302532628711	6.791706339656831	14	0.021628137953085637	0.0004378592360212179	0.03199869126190292
Si	2.7243070205274	10.839686947843642	8.17844605046964	14	0.030822667688467184	0.015415576168011839	0.011938413333043576
Si	4.077068049682452	12.201222959349336	9.517085858027087	14	0.009658100024604245	0.029772628275718707	0.026880906122148166
Si	0.017060840685068402	13.560581475234683	8.176967303443883	14	0.04578084422002468	0.003980328146121241	0.010472626190027156
Si	1.3855063382935235	14.910531260044067	9.51403086417168	14	-0.05691013070881766	-0.02476360089100622	-0.009605135255009192
Si	0.007747984416268799	10.8379157014062	10.860974405027603	14	-0.010049165143798767	0.006301779139682942	-0.01354458282654008
Si	1.3941220709644668	12.16651302916236	12.20234420709414	14	0.048152174656797254	0.019872587240488532	-0.05054818770464324
Si	2.72966950974168	13.549937746642703	10.8663531442092	14	-0.025087303050812866	0.006563003440209986	0.0037854383628540176
Si	4.084380534974652	14.8983762844917	12.22309541535667	14	0.04411631063576082	-0.04953697198222901	0.03406611704983399
Si	2.753865711075204	10.781057065767516	13.518900309069142	14	0.03183105519502927	0.029188987368045097	0.03614382725904565
Si	4.081780540204091	12.141683079103512	14.869938841688699	14	0.020888945173543068	0.054902354564314026	0.05174760833649233
Si	0.043834286834909995	13.531217784294672	13.531802783118048	14	-0.051675874498060194	-0.08264175275285963	0.010458742221298355
Si	1.3519842807173472	14.873757584007958	14.917973745074796	14	0.09369364897151614	-0.03265715133439284	0.03049356620748823
Si	5.51954514838914	0.0827887084848252	16.22083112460241	14	-0.08032415841727815	-0.08044011526721684	0.0531066946087226
Si	6.805925061058332	1.3965855660095725	1.4076680437190845	14	-0.002598359036541649	0.0010304990123153502	-0.07341559842204028
Si	8.130606146691335	2.742458234019372	0.0184420879069284	14	0.026713784276338543	-0.04620019149774083	0.03931888521889651
Si	9.484585923395088	4.098843005885891	1.3699957444904014	14	-0.00011235730249047105	-0.012774022562091699	-0.002745940481918148
Si	8.16122108511468	0.037539049496691596	2.75022571839642	14	-0.06081949634810281	-0.011455045532855736	-0.01089428746253144
Si	9.508603375088137	1.3888977064723727	4.107715488040427	14	0.009329255654157305	0.008179971576051112	0.02427483376964607
Si	5.438181562037928	2.744911979084088	2.7472682243449076	14	0.006134657293873316	-0.020155665936236834	0.028927505956986038
Si	6.805015062888636	4.090718022227891	4.099346754872688	14	-0.025587383035581668	0.011616768057493052	-0.0005386465645710226
Si	5.438084062234032	0.0129560989410468	5.457535273111284	14	0.01860091854914329	0.016103603951683462	0.0020921083990044923
Si	6.80930505426006	1.3645211305016411	6.795313832400984	14	0.0005453314384034076	0.004489406999510561	0.008603689732811516
Si	8.150268607143696	2.7369332451319317	5.450905286446355	14	-0.03124175785565132	-0.036389624927651805	0.028548782143328226
Si	9.537317067335508	4.078124297557992	6.792356338349471	14	0.07266740677387716	0.08944181210358727	-0.1076737770392893
Si	8.141688624400848	0.015937967943532798	8.172043563347136	14	0.01208573766788806	-0.025606152104418748	0.015175177820577994
Si	9.508814624663243	1.3618073859598692	9.51979960256886	14	-0.0021486727160477496	-0.02692718601791083	0.02004099463895823
Si	5.45170153484484	2.711014547262912	8.1367648843041	14	0.03354932488048422	-0.011144970231245877	0.017846556248211846
Si	6.776626369987584	4.039319375607383	9.532117077794387	14	-0.10651292298724245	0.1357258216347649	0.08424226581465181
Si	5.459144019875568	16.242719830577066	10.887835601000951	14	-0.009298145279783511	0.014668412961976804	0.012143330427059377
Si	6.806103810698808	1.3494947857245359	12.239475382411198	14	-0.03121578969191783	-0.03142096389646564	-0.00183371231432961
Si	8.144191119367512	2.69538207870492	10.881871862995979	14	0.04743637893566803	0.027511855367712505	-0.013800150695362797
Si	9.521278349594615	4.050645602826636	12.205870450001711	14	-0.2184909874429917	0.08382034743161551	-0.08347324821339552
Si	8.208963489089086	0.0061717375866168	13.547971500597468	14	0.004878929455512995	-0.07275585279689026	0.05986587338485988
Si	9.504800882736191	1.3742646109043148	14.946849936995326	14	-0.049325112903848806	-0.05156017475865353	0.05380860636112303
Si	5.420046598513272	2.7306445077806396	13.546655253244872	14	-0.06704491365977736	-0.11069431156939927	0.017321536541837608
Si	6.7824601082540275	4.085518032686772	14.905055021058576	14	-0.031003930613537626	0.03303638936911468	0.025095016366773307
Si	5.456641524908903	5.4404890573968	0.0326835592626708	14	-0.025004513459504097	-0.031444618065411004	-0.07255247836606656
Si	6.8076313076265125	6.804803813313528	1.3814763463991555	14	-0.0013709133567029557	0.0005098501849853641	0.07362951438467659
Si	8.16162733429758	8.155907345802348	0.0246934503333936	14	0.028257990131619476	-0.014858674755667763	-0.11317491398227815
Si	9.535545820898063	9.49168715911218	1.3838667165913392	14	0.015875289799254316	-0.005126269787311241	0.27517203266778417
Si	8.147717362275085	5.449540289191812	2.740199488562448	14	0.017459862008061575	-0.019721406247663824	-0.001670190015968192
Si	9.500153392083815	6.794241334558127	4.101410500721819	14	0.006461701890596153	-0.018757755973672324	-0.09331466804732633
Si	5.464279009547424	8.152153603352351	2.7494457199652516	14	-0.0371535003182678	-0.013864685438898516	0.03199946259349896
Si	6.804998812921319	9.494270903915424	4.116506720358384	14	-0.031143541632421667	-0.0212627838870926	-0.009718520999627722
Si	5.474012739969708	5.413757861161979	5.496843944048688	14	-0.05806841365554437	-0.04437702071522383	-0.07315206012672508
Si	6.8363612498412	6.75868640607072	6.855812460718452	14	-0.40062860254334565	-0.08173620945910347	-0.48664235992357946
Si	8.152413602829409	8.129679898554324	5.464994008109327	14	0.003837888911385038	-0.05936013696838676	0.10062869135155157
Si	9.51468086286432	9.502932136494852	6.783175106815931	14	-0.018687821908964296	-0.000824553476171489	-0.022790277557792574
Si	8.259517137409164	5.299536840897816	8.290050825995928	14	0.022286083804511532	-0.12979325321905527	0.0897912253165954
Si	8.029466350116552	8.235434685846853	10.94955297686712	14	-0.036316348426027587	0.0816534198677947	0.17797088181852197
Si	5.441691554978184	8.14264737247249	8.146661114399542	14	0.08310789414740248	-0.09060600859255033	0.003139833816964834
Si	6.796516329982368	9.529289583481404	9.436697269714836	14	0.010927197610629335	-0.05591099918140812	-0.08415279134951066
Si	5.412376613940119	5.399847889139484	10.848510680096233	14	-0.06239275569350142	-0.07720052256383025	-0.04995194838090091
Si	6.786961349200559	6.7002677735697	12.213914183823132	14	-0.025985133028608574	-0.0524693175998579	0.13421735414343405
Si	9.537950816060832	9.498495895417584	12.22745040659736	14	0.08467729683482086	0.004750888410569621	0.034661070820916254
Si	8.177048553280464	5.405080378615236	13.566496463337709	14	-0.03366913838840312	-0.04336631921387363	0.006562232108613942
Si	9.50224963786758	6.7995063239685125	14.909978761155323	14	-0.0010168721541185652	-0.030168321384489504	0.038883082867131415
Si	5.451327785596572	8.082441243566711	13.570965204349609	14	-0.002933374059756943	-0.039729490738524165	-0.010109843229354262
Si	6.79346133612696	9.478540935553536	14.911977507135191	14	0.0010423260967880313	0.0013562580563781118	-0.0282201948834133
Si	5.464799008501536	10.855010667022631	0.0267441962086728	14	0.03390336608306861	0.01179211744032715	0.017389156611757505
Si	6.84684247876002	12.15833929560241	1.4184531470267134	14	-0.079991457388851	0.04746903197323391	-0.026625852474389474
Si	8.144743618256255	13.560597725202	0.0515026464113304	14	-0.025993103455101033	0.010575727513365094	0.027551964610706817
Si	9.489639663230363	14.900147530929145	1.416659150635027	14	-0.091069321771241	-0.03694395523467573	-0.041083691910646154
Si	8.194988517197327	10.810908255727007	2.7643794399286556	14	-0.01708576618398003	0.033201454330668186	-0.051084777384958154
Si	9.488680915158719	12.199760462290895	4.131424190354473	14	-0.017678405960274163	-0.13250988310032372	-0.01807512751117301
Si	5.509031419535687	13.49405410904298	2.805849356519088	14	-0.08741706666397066	0.05811906443035129	-0.07991998066095088
Si	6.805291312333008	14.937782455233	4.098940505689788	14	-0.022662750733913228	-0.047421980745875204	0.03595613657067484
Si	5.432786572889016	10.849420678265927	5.4563327755299	14	-0.02136125722085427	0.015723851695897594	0.004195529661417635
Si	6.781095110999483	12.21120043928136	6.803195066549244	14	0.03138702530623969	-0.023002393746704788	0.002921546975284262
Si	8.131126145645448	13.569876456539436	5.461955264221236	14	0.012277285014239091	0.058798864676998436	0.009370907560343703
Si	9.486617169309588	14.906956267234547	6.8241737743541995	14	0.013497788709713385	-0.009835249181162447	-0.0035830923741583627
Si	8.1729210615822	10.869050638783655	8.123504910974244	14	-0.0032182525292293505	0.018406800097472115	-0.02670118586026982
Si	9.513234615773197	12.200914209970332	9.507010878291167	14	-0.008514215267670364	0.0015411205288967586	-0.00888779687068788
Si	5.425165338217812	13.550880244747033	8.160099837369875	14	-0.004186273682265102	0.02361945902354033	-0.028692764041256518
Si	6.788050097010732	14.899530032171135	9.50883087463056	14	0.003103838342482761	-0.004722606252047992	-0.007013975313363959
Si	5.452351533537479	10.843456940260955	10.83702195320382	14	-0.03052004859228576	0.027486915646107068	-0.008186913560415511
Si	6.8084438059923125	12.187621736705845	12.207592946537208	14	-0.01025896733792285	-0.012001405413387204	0.02816388767690206
Si	8.148042361621403	13.546395253767814	10.848998179115712	14	0.01137019905729085	0.011587714567375378	0.004995143415983687
Si	9.527680836717119	14.87224633704757	12.1988504641212	14	-0.023145604313037034	0.016095119304126975	-0.011810115177568185
Si	8.169362318739996	10.84490318735208	13.581657682843534	14	-0.002641810716452151	-0.008531698783847371	-0.010423518078412327
Si	9.49371840502668	12.196770468304752	14.963814902873231	14	-0.014672783841021055	-0.026343545110237218	0.016223417459602367
Si	5.452887782458908	13.546590253375607	13.563863968632516	14	0.006755322118157063	-0.015621264593623682	0.014013295326403073
Si	6.842552487388596	14.923498733962235	14.888918803513787	14	-0.06678857445935858	-0.00030210487511739926	0.0768125427710199
Si	10.824801977782188	16.245547324890047	0.074327350503384	14	0.0013493160720137118	0.05624858530994356	0.07533749964885095
Si	12.156048050210856	1.343680547418871	1.414579154818579	14	0.030972820239163833	0.08475237311016919	-0.03391210784115712
Si	13.484434128391907	2.683909601779824	0.040499793541666794	14	0.03367890858861969	0.012330249783834143	0.10599921614427688
Si	14.818166445819923	4.016293171920611	1.4292561252983904	14	0.06513998172807965	0.08586154794528107	0.02459467927147249
Si	13.532176532366316	0.061798625702747995	2.805183107859132	14	-0.03280884654828158	-0.07561800723927911	-0.026492926329337824
Si	14.927528725856602	1.3937661966802464	4.1264517003557755	14	0.06383411733597644	0.03555041615115548	0.01628101021877368
Si	10.83230946268218	2.7470244748351678	2.731765755525444	14	0.020123527119734985	-0.03001662617060076	0.0012937801970985135
Si	12.202051707682452	4.086720530268156	4.0819917897792	14	-0.030063677397959475	0.012643153301296162	-0.001291209091778365
Si	10.829286968761403	0.026822196051789596	5.486768964312768	14	0.02057398477182493	0.018836688907000868	-0.03705142743705792
Si	12.218902923789143	1.3582177681797647	6.813123796579319	14	-0.01803424693658266	0.006202277363793211	-0.016663076469347685
Si	13.537994020665444	2.730352008368952	5.445185297951125	14	0.008519100367778646	0.019899069625286057	-0.009267292015941736
Si	14.902731275732387	4.0763043012186	6.782541358090607	14	0.012664750585985407	0.009935522288648222	0.03600910134026989
Si	13.568495209317575	0.017049465707947197	8.177048553280464	14	-0.013112637132755204	-0.011674103706132352	0.019454011294368426
Si	14.933102464645991	1.386604836084085	9.506653379010217	14	-0.01750305657744006	-0.037641753218563924	-0.038314097259782645
Si	10.86708439273842	2.7057170579178957	8.153144851358627	14	-0.02290906262358341	0.04791280475149147	0.09518360450454195
Si	12.176425509225119	4.099330504905372	9.502282137802212	14	-0.08936030806493857	0.09045842714717382	-0.14873458611258614
Si	10.874851877115468	0.0081688585697532	10.873308130220448	14	0.011991378102638625	-0.05590508563917178	-0.002498857260651918
Si	12.246170368945391	1.3736308621789908	12.206715448302143	14	0.06753933721284183	0.0338665992769905	-0.04423329592782755
Si	13.557233981967586	2.74210073473842	10.831366964577851	14	-0.04630329282107876	0.020003199390752055	0.13330229775999333
Si	14.895922539426984	4.082284289190888	12.199354213107997	14	0.04129786498381449	0.006748123023260649	0.013837945943568977
Si	13.618252609239168	0.0032142435351048	13.547175252198985	14	0.053286929091664985	-0.043835288824268626	0.025480167943731494
Si	14.886611308154917	1.362816508930193	14.940609949545983	14	0.05593131091343729	0.13440684460552896	-0.06999525701464727
Si	10.87126063433863	2.7041245611209277	13.57200520225783	14	0.12824621914792217	-0.05083666572156386	0.07421186973969013
Si	12.196266719317956	4.090636772391312	14.904437522300567	14	0.004832135338686299	0.011765120834465596	0.026524293814243628
Si	10.844691937776972	5.439644059096367	0.0140139718133184	14	0.002073082219635396	-0.028171600992862502	0.012450577512817073
Si	12.192902976083543	6.782703857763767	1.3795052253637248	14	0.045537103435674645	-0.016383340210515573	0.011859994620779059
Si	13.549970246577335	8.149407358875948	0.0526271441495976	14	0.03566354478524199	0.039952662680313014	-0.029336311702889584
Si	14.929397472097945	9.496415899601136	1.3857045878947787	14	-0.0306822853379871	-0.022587417348032886	-0.024843305155930813
Si	13.553025240432744	5.458965270235091	2.7440669807836557	14	-0.008220595040109453	-0.04940610272143347	0.019778227675239096
Si	14.943811193107235	6.788033847043415	4.085729282261879	14	-0.02702771623592862	0.04527690757727566	-0.0034126280914325456
Si	10.862063152837775	8.134132389598907	2.743465731992964	14	0.04086797617428573	-0.0027045456862637646	-0.02750028539377184
Si	12.226491658525715	9.487917166694867	4.081796790171408	14	-0.1311333133119164	-0.01453548681692515	0.03319631212002789
Si	10.864305648327383	5.444324049683376	5.435142818149836	14	0.008080984021225413	-0.007355675210411639	0.013320382442623168
Si	12.242530376266606	6.780721361751215	6.7651701430298035	14	0.027505684714944155	0.09362448623840416	0.00960590658660524
Si	13.590075165913223	8.14017737744046	5.429097830308283	14	0.05123570126725085	-0.027975939877999234	-0.002378272421136973
Si	14.917567495891895	9.4855121715321	6.815301292199663	14	-0.0005175635009458082	0.010211401889500111	-0.023463392930607337
Si	13.5569414825559	5.424109090342271	8.145361117014263	14	0.006158825683882709	0.03317600038799872	0.0010893773241467412
Si	14.898262534720487	6.7836138559334636	9.503403385547015	14	0.039584223287935795	0.018742329341751435	-0.008011564177581414
Si	10.930784264617138	8.182118543083055	8.084196240036839	14	0.07578050109551246	-0.04360234668226321	0.10015817907796445
Si	12.223842913853208	9.493247155974515	9.513608365021463	14	0.056076835474557656	0.06706471117074249	-0.04739241303469349
Si	10.753269621657155	5.438084062234032	10.792708292333087	14	-0.04475831563420178	-0.19983144769254899	-0.11205982560492991
Si	12.122963116755479	6.772937627406852	12.133996844563043	14	-0.1312009333818363	0.2791377055135805	-0.09802004789372933
Si	13.556031484386205	8.130476146952807	10.869261888358764	14	-0.00013883968728799627	0.03887356977744687	-0.021770577187821844
Si	14.917924995172847	9.484975922610671	12.227710406074417	14	0.0002905349011767329	-0.012685319428546591	-0.0120134896083919
Si	13.494021609108348	5.459274019614095	13.49506160701657	14	0.09345864994525462	-0.2478820636892004	0.11679580160464267
Si	14.82330143549178	6.852822466732308	14.839031403853667	14	0.09098190419035597	0.05993143657052366	0.0877286846287726
Si	10.876720623356807	8.144873617994783	13.574263947714755	14	-0.009497920163159018	0.02113499995268124	0.01408991426494349
Si	12.205789200165132	9.511983368289865	14.955186170228435	14	-0.015179805810154257	-0.0533134114764625	0.0014272205632141987
Si	10.887981850706796	10.89373433913666	0.0723789794221956	14	0.15429537269900243	0.15861200142099904	-0.41227211009616826
Si	12.212841685980276	12.256424098321787	1.4799186483994835	14	0.011558661077257703	-0.08951611704733954	0.3907933533621832
Si	14.675199233373755	14.762851557076258	1.4977074876203087	14	0.5047030892449597	0.3867862857207324	0.02258921712175699
Si	16.241712332603473	16.231182353782703	0.03519905420318759	14	-0.15175306375844	-0.18796451108740556	-0.11248405798275435
Si	13.579545187092457	10.850818175455103	2.746991974900536	14	0.12182231250553219	0.08699077740189011	-0.014209213551798359
Si	14.931331218208548	12.190952980005624	4.120455462416172	14	-0.06914807781165848	0.023206025288060518	0.023589891312358627
Si	10.823323230756431	13.573565199120168	2.8022581137422518	14	0.14999005684041444	0.12957933725641893	-0.06590000046071541
Si	12.184436743111906	14.93846495386027	4.1429291672142	14	0.04042497472762421	-0.09714072987423868	0.0005867262340577916
Si	10.878134370513301	10.845536936077403	5.437060314293124	14	0.0024250665379636684	0.04763255427159532	0.023036589447462757
Si	12.212955435751487	12.203562954642841	6.798368826256392	14	0.03036501094148083	-0.022495628888103605	0.035478168091659316
Si	13.563132720103294	13.561215223960007	5.452595283047219	14	-0.017027916314276696	-0.0032604186564797787	-0.028047673716431364
Si	14.897157536942998	14.901935027333902	6.834053754482327	14	-0.0005823553550135399	0.03159065684759542	0.03460167828802083
Si	13.560045226313257	10.845000687155975	8.152104853450405	14	0.018439967356102024	0.05165479143443498	0.0351480381685523
Si	14.909068762985628	12.1935692247435	9.509448373388567	14	0.028677080298803614	0.013585720511662451	0.0006363485667366496
Si	10.86139690417782	13.555495235464775	8.154038599561009	14	0.0023965272689100243	0.007976340034695386	0.016094605083062947
Si	12.209754192190235	14.908548764031515	9.510472121329476	14	0.006486127391137559	0.01299950849866869	0.007683748249262535
Si	10.861819403328036	10.840158196895807	10.856473164081072	14	0.049587622757035925	0.020797413824145797	-0.01184559643098623
Si	12.212776686111011	12.176035510009536	12.223680414180048	14	-0.018409114092260245	-0.05182037061705252	-0.07281447399818965
Si	13.543421509748988	13.535507775666096	10.85969065760964	14	0.012204265623146887	0.00511238581858244	0.0030202774195779484
Si	14.917323746382156	14.867306346983508	12.198070465690032	14	0.049467295028053	-0.0041281667020297555	-0.09159151326176308
Si	13.559963976476675	10.834194458890837	13.585638924835957	14	0.018915621840329418	-0.004067231505942246	-0.05529059146765637
Si	14.984793610678189	12.153415555505664	14.885018811357947	14	0.09380677760560266	0.01898427035237737	0.030911627932544313
Si	10.841555694084985	13.490787865612464	13.572183951898307	14	-0.016977779760533808	-0.06634274479684492	-0.03315003222426523
Si	12.126115610414784	14.982973614338796	14.83820265552055	14	-0.10222663330802358	0.1477040871002708	-0.07271831465921609
H	0.890286959341692	1.0259514364760496	15.401491522562376	1	-0.04438319136799219	0.06046571225605044	-0.07224960215935311
H	13.517454061978018	13.626052593550849	1.5799583221869744	1	-0.3121075032549034	-0.29775636468943284	-0.7299720245329256
H	10.13757461002123	7.214026740232355	8.923767051385296	1	-0.021536863714220384	0.06470983580801887	0.16783558464649823
H	3.339173283830208	15.520652532890605	2.0684908395882715	1	0.07297799629655106	0.017203522807642813	0.008172772481154698
H	5.391202906527371	13.614807616168175	0.0890855708197752	1	0.19113057017863588	-0.2076306385706862	-0.2131675138776251
H	0.6535119355737192	6.087384006279444	0.7614832184081496	1	0.022544479889186415	-0.027084794774035907	-0.013618630659760347
H	14.241926354827248	13.106671138196855	15.782878255468896	1	-0.19109123226723762	0.04006733397759162	0.058254304570191075
H	7.089031991637683	9.09960794771173	11.824808716441513	1	-0.07260929979364182	0.11951551681229533	0.17360077410586627
H	11.349350922742667	15.92228672507286	13.869509603879159	1	-0.15833226516216692	0.047649780677240315	0.018924620708949937
H	14.985443609370828	4.127832947577636	14.94996993072	1	-0.3117256941148614	-0.22858668959308512	-0.23241275141999745
H	8.128753650417313	6.822857527001603	8.17283981174562	1	0.504934745834305	0.17938884640258362	0.6339924058212659
H	1.628604224344152	1.657399166428104	9.826225236246671	1	-0.05640773672926072	-0.028825175965244143	-0.002870896200477345
