223
config_type=divacancy sigma="0.001 0.1 2.494598019660481 0" dft_energy=-23065.750241092555 dft_virial="70.88500125076025 -0.42155931157355203 0.17729129925990506 -0.421559311573552 73.31586195394607 3.723117284458006 0.17729129925990506 3.723117284458006 73.35526002044827" pbc="T T T" Lattice="16.249967316 0.0 0.0 0.0 16.249967316 0.0 0.0 0.0 16.249967316" Properties=species:S:1:pos:R:3:Z:I:1:dft_force:R:3
Si	1.389196705870987	1.370242743993605	1.3905779530928473	14	-0.01299950849866869	-0.0015303218865521365	-0.010521220080577954
Si	2.732610753825876	2.720992027194936	0.0307335631847508	14	0.010460284884490445	0.020047165291726586	0.019644273088059383
Si	4.085729282261879	4.068488066939604	1.3905487031516786	14	-0.006853538341386719	-0.006961010543768909	-0.008043702994083265
Si	2.743465731992964	0.0435840373382436	2.767028184601164	14	-0.005985790295836743	0.011827598693745193	0.040576155720448925
Si	4.1068379898053635	1.3945445701146828	4.108267986929172	14	0.009588423070428231	-0.0073032246618806185	-0.0055543588231158954
Si	0.0419964155314704	2.73421950059016	2.7393382402946997	14	-0.0007749311434926309	0.0078056186414375535	0.013549725037180377
Si	1.3986200619175355	4.083405536935691	4.09190426984196	14	0.009819565438709543	0.006420307094941768	-0.014116139539209
Si	0.0435027875016636	0.029282441103432	5.456706524778167	14	-0.0030452171411833847	0.007610985968702344	-0.007259515871438102
Si	1.4052500485824635	1.382612219114544	6.797458828086696	14	0.006469672317088611	-0.009180131545588716	0.004253893752184997
Si	2.758415701923684	2.748665721534084	5.458169021836608	14	0.021213418664945756	0.004578881464651714	0.0032858725991492446
Si	4.125411702447551	4.094049265527672	6.811612549618932	14	-0.009952491583761198	0.009026122336911847	0.004744203536737236
Si	2.733504502028256	16.2532173094632	8.144759868223572	14	-0.009781255969439339	-0.005801699154914141	0.03625952699845231
Si	4.066603070730948	1.3320244458631043	9.52581209047578	14	0.028901280682720527	0.02107689297244589	-0.02390999392471706
Si	0.043107913295884794	2.723592021965496	8.146937363843916	14	0.0008744329193823618	-0.016258641602488393	-0.007364159857968128
Si	1.3889854562958792	4.082544288667944	9.498934644535117	14	0.012501228287623989	0.0060292419757472454	0.002243289391829199
Si	0.0484395275722644	0.0117519763629312	10.854669417708996	14	0.02082055377202713	-0.01516437917823337	-0.04911376804653264
Si	1.3786943519946564	1.37669723101152	12.213914183823132	14	0.004134851575862141	0.0001468101137804553	-0.010778330612592762
Si	2.7268582653960123	2.717595784025892	10.855108166826529	14	-0.02386937046065872	-0.0076793773702182825	0.008876998228343258
Si	4.072680558507131	4.048451857238976	12.233430394569648	14	0.0013822262201116074	-0.0030912399264140357	0.003124921406107975
Si	2.703718311938028	0.0071532356125032	13.58034143549094	14	-0.02298259623573965	0.022136445474878915	-0.029821222166269507
Si	4.069463064978564	1.3452307943008175	14.941373698009835	14	0.013259704357067673	0.009572996438507342	-0.011941241548895738
Si	0.024472450777895997	2.7428482332349557	13.554552737360448	14	-0.00648407050688144	0.016297465292822628	0.009207642372514301
Si	1.3834588424117076	4.074484304879208	14.922734985498384	14	-0.017894378807166603	-0.0016331660993580597	-0.0048815005608331425
Si	0.0490700263041252	5.426676585178201	0.0398237949013212	14	-0.002550793588118909	0.036107317563499546	-0.008902452171012723
Si	1.3869704603486952	6.786766349592768	1.389529830200965	14	-0.0180992959011824	-0.009817765664985439	0.018641027792137603
Si	2.7207482776851957	8.15150360465971	0.0402479190482688	14	0.006024613986170979	-0.021656677222139282	-0.022895692875918645
Si	4.094374264873992	9.498122146169317	1.3766159811749399	14	0.009549599380093995	0.009302259048295751	-0.015270565827955485
Si	2.736835745328036	5.43130782586326	2.7278820133369197	14	0.005432231320408861	0.035935567728113654	0.0002082595309319944
Si	4.07500430383332	6.799782573412884	4.064620574718396	14	0.02420309993121394	-0.039145592720318534	0.007637725464031882
Si	0.040278793986169195	8.145474866785475	2.734398250230636	14	0.012684290986418533	-0.030587925772737667	-0.025757590207775467
Si	1.3922045748211787	9.518938354301111	4.0629793280194795	14	-0.07115148307711787	0.007277256498147122	0.0053928934090105955
Si	0.0445671603608616	5.438766560861303	5.43301407243144	14	-0.0004419730045334548	-0.01829444279498164	0.00474446064726925
Si	1.3941139459808087	6.797263828478903	6.7828663574369275	14	-0.010816125860798938	0.009051062058517282	-0.005085389212720884
Si	2.7326920036624562	8.157191093220312	5.419331599951368	14	0.0322691715415825	0.006248043038491847	-0.002173869548185201
Si	4.082089289583096	9.50728712773554	6.776740119758795	14	-0.012502513840284064	0.001186050884184309	0.008269703151724282
Si	2.73795699307284	5.435744066940528	8.13985237809414	14	0.025449828900953746	-0.007029144834752832	-0.0067550650076250475
Si	4.091026771606895	6.7809488612936395	9.497553397313256	14	0.014080915396322972	0.006318491324263904	0.005770074559476319
Si	0.0463221568309896	8.148286111131144	8.141493624793055	14	-0.016057324055920797	0.014148021245178832	-0.0004504576520899435
Si	1.3979489382673849	9.497407147607412	9.49615590012408	14	0.009172418229628273	-7.379072268824987e-05	-0.0016521922787271555
Si	0.0435629123807328	5.433680321091395	10.859040658917	14	-0.014313086206732342	-0.006001216927757631	0.011374055715271073
Si	1.4005733079889187	6.781176360836064	12.210014191667291	14	0.0009479665315385966	-0.007200894670138725	-0.0003432425602397685
Si	2.7428482332349557	8.137154883519683	10.849550678004455	14	0.01506384896021558	0.010361554440196758	0.006883106052568423
Si	4.126224200813351	9.47381219506458	12.183380495236367	14	0.006575087635214683	-0.018298299452961863	-0.015821810808595235
Si	2.735308248400332	5.425019088511967	13.577513941177955	14	-0.0059932465012651715	-0.008575407574289888	0.00784238544751567
Si	4.055000594067324	6.780607611980003	14.9548449209148	14	0.03061157994168303	0.03841976968844073	-0.01264675284874437
Si	0.0455291584259688	8.127648652639824	13.563750218861305	14	-0.002812017888645954	0.01906963104900629	0.003949731992811479
Si	1.3929943232327364	9.49399465447105	14.904860021450784	14	0.014608506208017357	0.008778782005113601	0.004886385660941424
Si	0.0646959948751908	10.879694367375636	16.24850481894156	14	0.032607529001713986	-0.005923312436557144	-0.11313017674970756
Si	1.4264091310246272	12.265670329724593	1.3187888474842224	14	-0.04100964407742588	-0.10945426747349185	0.10607506375122122
Si	2.8830042013354555	13.68811121873065	16.144001279132365	14	-0.1959511355433815	-0.13770762961553507	0.15212921646677766
Si	4.121852959605348	14.944542441636456	1.4553324478503755	14	0.02688579122225645	0.05607580703242961	0.03222571986167199
Si	2.7369657450665636	10.881595613551607	2.6995258203705	14	0.07312712040511965	0.03709333645377634	-0.044831077914761985
Si	4.084965533798028	12.203286705198467	4.090344272979624	14	0.012199894744102635	0.005883460304094848	-0.007027087950496716
Si	0.06477561971503919	13.587783920521668	2.704628310107724	14	0.029639702130667057	0.1113039206408064	-0.0013333752190287937
Si	1.3897443297695364	14.927577475758552	4.09669801020018	14	0.0029549713444461875	-0.0026965752597713053	-0.013192855618743823
Si	0.0499068996208992	10.861461904047083	5.433241571973864	14	0.00977071443762673	0.025357011998896402	0.009653729145559993
Si	1.3926010740236892	12.211509188660363	6.7949238331854005	14	-0.01473860413721685	-0.017520797204149084	-0.013692421382448595
Si	2.74120698653604	13.566155214024072	5.440960306448964	14	0.011926843359102908	0.025110185888162186	-0.006018186222870608
Si	4.096178011246067	14.921061238864835	6.787643847827832	14	-0.00689956112661737	-0.006571488087766475	-0.007397070006066023
Si	2.739776989412232	10.85879690940726	8.142842372080283	14	0.007186239369813881	0.006105860914287658	-0.01058472638198561
Si	4.060184333641128	12.231415398622465	9.50151838933836	14	0.02272497148266081	0.004058232637321728	0.04313929061410454
Si	0.034222431167495994	13.556015234418888	8.146807364105387	14	-0.002667521769653632	0.0027148301075443568	0.01994046442094044
Si	1.3837464668332007	14.908191264750565	9.496773398882087	14	-0.01405520434312149	0.005525562443530236	0.023979156657829046
Si	0.0484216526082168	10.852491922088651	10.848185680749912	14	-0.0029966232506325858	-0.021906331548725663	0.010431488504904786
Si	1.3938880714351165	12.194170473534191	12.216871677874643	14	-0.006561460777017898	0.024841762492738725	-0.018179000166106993
Si	2.7203420285022957	13.567926460461516	10.867133142640368	14	0.012194495422930324	-0.029018265974787266	-0.038227965231557685
Si	4.070665562559947	14.889243802860108	12.245422870448856	14	0.009406131703229731	0.0028760384111176413	-0.023900737945564528
Si	2.755116958558536	10.812825751870296	13.533427779849648	14	-0.01694615516509599	-0.03788986488195821	0.0036648535233390718
Si	4.125980451303612	12.124896862866082	14.889698801944954	14	0.05895313099620732	-0.038087325770545584	-0.07425120765108839
Si	0.013422473003016	13.529609037530388	13.559183978045507	14	0.009017894799887372	-0.03251188388380447	-0.024204128373342
Si	1.306030998144431	14.926683727556172	14.9113762583445	14	-0.0036694815129153383	0.06216469865160429	-0.05177640471607799
Si	5.44471404889896	0.0235982025362952	0.0553343887044432	14	0.038675337557263455	0.015279564696576004	0.020945509490586326
Si	6.7960938308321515	1.39501906916031	1.3945884450264359	14	0.00036021185535274586	-0.009854018249999527	0.006293808713190482
Si	8.133774890317955	2.752110714605076	0.047037155392893604	14	0.009497663052627003	-0.032723228741120644	-0.016732496312991684
Si	9.510342121590948	4.096113011376803	1.3821312200819904	14	-0.014925523493991615	0.014408988435173863	0.003087897489497843
Si	8.135611136624664	0.023757452215991997	2.7379732430401558	14	0.015888145325855058	-0.0032737884041445487	-0.010713024537461
Si	9.518597104987474	1.3519534057794467	4.06834181723376	14	-0.03686913606985943	0.017709259224115936	0.01752902474117356
Si	5.456950274287907	2.747966972939496	2.7555232077414358	14	0.0036856794764322707	-0.005795014281081755	0.027223891571855917
Si	6.819363784028664	4.100338002878964	4.109519234412504	14	0.0035303847150953273	0.007220177960039835	-0.03274662579953399
Si	5.4574377733073876	0.038476672610824804	5.459371519417991	14	-0.0017606929232374044	0.027128503564478428	-0.00013755413462792222
Si	6.81799878677412	1.3964685662448972	6.811320050207244	14	0.019021808490051535	-0.02707682434754345	0.01066108820999401
Si	8.195151016870488	2.715597038046024	5.426302835929931	14	-0.012060797946282623	0.016291551750586285	0.011246528891391726
Si	9.597490696306656	4.050450603218844	6.750983921562935	14	0.04150226785676626	0.009028950552764009	0.02578432970310501
Si	8.154087349462955	0.0208747080141336	8.162098583349742	14	-0.01322268044045754	0.023813577475211505	0.0020124041340799015
Si	9.52508084194656	1.3491892863389952	9.524479593155867	14	0.0008134977232948522	-0.009259064478917263	0.01901846605313534
Si	5.4245478394598035	2.694943329587388	8.196824763504036	14	2.7767937457599253e-05	0.009212784583154597	-0.037174326271361004
Si	6.758946405547776	4.016601921299616	9.594971951372676	14	0.058302898460741874	0.03588594539543479	0.054883842606008953
Si	5.424986588577335	16.240916084204986	10.889184348288179	14	-0.00131820569763992	-0.002428408974879861	-0.013827404411756368
Si	6.795200082629772	1.3163042274816061	12.254360352472656	14	0.026267954613824866	-0.0033704619641821165	-0.0018758784415800385
Si	8.138861130087864	2.6572759053489	10.890890594856359	14	-0.011989321218382507	0.09659205599891908	0.006184536737084189
Si	9.436616019878256	4.001846950976687	12.278459054002283	14	-0.010234027616317413	0.012882523206601947	-0.020832637967031827
Si	8.16942731860926	16.222764870713014	13.607446380974027	14	-0.00949689172103096	0.00919581528804162	-0.006094548050879007
Si	9.484195924179504	1.3557152732131006	14.998931082243107	14	0.08819919690235971	0.031115773694964065	-0.05012395532681881
Si	5.43244532357538	2.690068339392588	13.58264893084981	14	0.00415027820778303	0.022057769652082386	0.00466475638234466
Si	6.761481400449072	4.066408071123155	14.941942446865896	14	-0.010066905770507789	0.008975214451572913	0.03971072166968708
Si	5.420371597859592	5.429000330504388	0.039866044816342795	14	-0.0243933617249049	-0.01068242838415124	0.006231845074974914
Si	6.781696359790176	6.77639887044516	1.3849912143296064	14	0.0048647883762521806	-0.010743877801302778	-0.03454768507629773
Si	8.127226153489607	8.1107649365985	0.0190189617466464	14	0.018497817225805353	0.026968066592501186	0.02772602844088084
Si	9.495473401496808	9.475664691338604	1.333980941927951	14	0.03033415767763905	0.024177131767480445	0.008160174065085972
Si	8.159969837631348	5.447297793702203	2.7348694992827998	14	-0.014101998459948183	-0.004448526424920206	0.01611620236775219
Si	9.529517083023828	6.8094350539985875	4.06436057524134	14	0.01720429413923886	0.0378132459434178	-0.01994509241051671
Si	5.4457215468725515	8.150967355738285	2.7315382559830197	14	-0.006613139993952874	0.0008662053823578877	0.0006389196720567977
Si	6.813140046546636	9.521684598777515	4.057844338347624	14	0.042316022690593126	0.010055850017631152	-0.0028017334673653615
Si	5.4398065587695275	5.479667728595675	5.426579085374304	14	0.012421266912167384	-0.01158025836194695	0.018749271326115837
Si	6.786132600867444	6.8808536603524075	6.741883939865976	14	0.024198729052169687	0.026796830978179323	0.025119184756782702
Si	8.184523538245823	8.1838897895205	5.403065382668052	14	-0.02910439800301223	0.009080886880231	0.05127041118907284
Si	9.540940810046976	9.530865830311056	6.752787667935012	14	0.03041283350043558	0.039989943707455164	-0.07152917844864762
Si	7.841876727420648	5.118463455095628	7.844639221864368	14	-0.06583700838037178	-0.04978842608253949	-0.05727625610640674
Si	7.838935483336452	8.442069270237107	11.164556294425115	14	-0.05451925987161195	0.06178417506422237	0.059015865966018925
Si	5.418714101193359	8.151942353777244	8.128038651855407	14	0.03780090463788109	0.0014961261857941671	-0.007638496795627929
Si	6.777487618255331	9.54022581148507	9.405611082239327	14	0.0154965659855965	-0.027409782486502623	-0.020706396695812555
Si	5.401927884955931	5.4048203791381795	10.876379374043172	14	0.07016469285524503	-0.007702774428631631	0.0073381916942346324
Si	6.753843915810552	6.6938652864471955	12.262452836196024	14	0.05210473486546089	-0.04470946463311897	-0.04350130224318139
Si	9.597571946143235	9.534197073610837	12.232585396269215	14	0.02237247294326851	-0.028008078694501084	-0.008538897878743784
Si	8.139169879466868	5.39888914106784	13.6125976206132	14	-0.019591565428996347	-0.023398858187071624	-0.0836915350550761
Si	9.505402131526884	6.772531378223952	14.930339970202272	14	-0.014633445929622794	-0.0013670566987227337	-0.013447909266502514
Si	5.418632851356779	8.091719974904148	13.585476425162796	14	-0.005464884357974742	0.04307372742844077	-0.004767857705682598
Si	6.811401300043824	9.469229704281467	14.88687130763197	14	0.02343819609846989	-0.016245528965355638	-0.00866488203943104
Si	5.475621486733991	10.81524699700038	0.0200800846123812	14	-0.009940150278224489	-0.007613814184554507	0.016070950914117584
Si	6.794078834884968	12.20461920251838	1.3767508559036628	14	0.05805298702362348	-0.005828181539711665	0.011199734774565033
Si	8.141103625577472	13.57086770454571	0.0367395511047444	14	0.04917881701113238	-0.013358177690829344	0.0006566602987658194
Si	9.48128718002994	14.921662487655528	1.4000045591328587	14	0.004660642613832423	0.01913879378211827	0.01744572092880076
Si	8.18462103804972	10.87439687803062	2.711323296641916	14	-0.012425123570147608	-0.01731742277332537	0.005341471302607635
Si	9.492450907576032	12.254051603093652	4.109746733954928	14	0.05911793884722881	-0.02090025803695172	-0.019734518884796583
Si	5.459290269581412	13.549498997525172	2.7607881971518196	14	0.0032082252184807733	-0.02150343934505846	-0.0004982802110446978
Si	6.795557581910724	14.925562479811369	4.105407992681556	14	0.017081395304935777	0.030467083822690706	-0.0019486407221402293
Si	5.448825290629908	10.850704425683892	5.429227830046812	14	0.0013757984568112372	0.0008155546075509707	0.0022957399403602196
Si	6.776821369595376	12.212435436797374	6.798157576681284	14	0.01495097743666108	0.031432533870406315	0.004164162176511829
Si	8.128672400580731	13.576197693825359	5.471510245003043	14	0.017443149823480615	-0.04944209819591555	-0.012827758663282797
Si	9.503809634729915	14.917616245793843	6.80930505426006	14	-0.01376492655247677	0.015717681043129237	0.0013930248624562293
Si	8.178901049554488	10.871374384109844	8.103679950848724	14	-0.024926351857771596	-0.03595870767599499	-0.0291630192043116
Si	9.5082621257745	12.213345434967072	9.484390923787295	14	-0.0003740958240815455	0.012125589800350356	-0.01146378729094424
Si	5.427115334295732	13.565115216115847	8.150317357045644	14	-0.027114619595749626	-0.003544525794356142	-0.004886128550409409
Si	6.775700121850571	14.922523735923276	9.495749650941178	14	0.006187622063468367	-0.03390773696211287	0.00910376971758032
Si	5.435029068378624	10.864289398360068	10.802165773310998	14	0.010699654789796231	-0.01516540762036143	0.025635462705068435
Si	6.8125712976905755	12.182112997785719	12.176685508702176	14	0.0006461187669532123	0.023617659249816222	0.009878443750540934
Si	8.130427397050859	13.556827732784688	10.818789489875266	14	0.0176686357600576	0.00675197968124087	0.025233598943529292
Si	9.491167160158067	14.864706352212949	12.195665470527263	14	0.02460239258743294	0.018239935362194502	0.022849670090687994
Si	8.182801041710327	10.855741915551851	13.559720226966936	14	-0.031083891988994233	-0.004606392291577299	-0.01321625267715717
Si	9.482603427382536	12.215409180816204	14.932809965234304	14	-0.021586743157431258	-0.030320016598378234	-0.04100861563529783
Si	5.453212781805228	13.516609063677587	13.55507273631456	14	0.04247620255203835	-0.05100327334630946	-0.03293405937737279
Si	6.762245148912924	14.894086293120274	14.935117460593174	14	0.09643367591119795	0.008424226581465181	-0.011120030509640442
Si	10.851598173886272	0.0489416515623288	0.1290832403713776	14	-0.029980887806650706	-0.017335934731630434	0.02258098958473252
Si	12.239377882607304	1.4184742719842245	1.4060625469482635	14	-0.023417113034844676	-0.05915290587958282	0.015538217891782901
Si	13.567130212063033	2.7545969596044237	0.0122898502810908	14	4.627989576266542e-05	0.007314280414757255	-0.004787140995583708
Si	14.933784963273265	4.080464292851496	1.3808945975692428	14	0.017779193288823967	-0.0032257087346577802	-0.00017380671964201014
Si	13.57051020526476	0.0845632049157324	2.790671887045944	14	0.0618384253864775	0.04009047392547295	0.045008484181852194
Si	14.949498681667835	1.4050111740629183	4.121219210880024	14	-0.05701040381630343	0.004411759618842089	0.013163545018094134
Si	10.857578161858559	2.7445707297704516	2.7414019861438317	14	0.01367673763999569	-0.008601375738023383	-0.0009001439725838424
Si	12.229416652642596	4.089661774352352	4.082836788079631	14	0.0031359771589846122	0.013437881955753935	-0.0073744442792487205
Si	10.856993163035185	0.0221600804288292	5.457291523601544	14	0.02170861354960628	0.009178588882396628	-0.0009968175326214104
Si	12.232179147086315	1.3650118795145845	6.795980081060939	14	-0.010140953603728051	-0.02779236295814066	0.0024759744233026
Si	13.572508951244627	2.7440507308163395	5.4547727786675635	14	0.049741631965712796	0.0008862600038550428	-0.003023362745962126
Si	14.949043682582987	4.083893035955172	6.790633841813976	14	-0.03240929678153056	0.023109608838554962	-0.0025618493409955458
Si	13.583656428823403	0.012033100797497998	8.150268607143696	14	0.006900332458213414	0.001544462965812951	-0.013719932209374177
Si	14.956404917777135	1.351607281475616	9.4932309060072	14	-0.00029233467490083655	0.025104786566989872	0.029834591913934276
Si	10.874900627017416	2.693448332594316	8.14789611191556	14	0.01193275690133925	0.06033381455312683	-0.008186399339351483
Si	12.263720333646672	4.063483077006276	9.411136071126768	14	0.005150181066788617	0.002334820741226471	-0.023388316655259016
Si	10.882944360838836	-0.0019922459929415997	10.886600603484936	14	0.00954985649062601	0.03457545301375532	0.013097467611366329
Si	12.263102834888665	1.3967951905879488	12.193829224220556	14	0.04871061873233341	-0.03268131972440223	-0.0071245328421303275
Si	13.60133639326321	2.735795747419812	10.796007035698237	14	-0.08056249988045587	-0.03929420260782309	0.03173515296658774
Si	14.912936255206835	4.095755512095852	12.198216715395876	14	0.025134611388703595	0.0032249374030617357	-0.004195272550885621
Si	13.67621624265534	0.0515383963394256	13.528049040668051	14	-0.06715212875162753	0.08311303635804278	-0.04766212198277703
Si	14.94715868637433	1.4031586777888945	14.937506205788626	14	0.01830781254264641	-0.035198431832827205	-0.04942075802175832
Si	10.849030679050342	2.67539461890624	13.606715132444808	14	-0.035772045429752236	-0.01162165315760133	0.024196157946849543
Si	12.212711686241748	4.100484252584808	14.897693785864428	14	-0.03643719037607455	-0.015715624158873117	-0.007970940713523075
Si	10.876574373650962	5.438230311939876	0.0315785614851828	14	0.012944229734285505	-0.004647787087231682	-0.02686676504288735
Si	12.233722893981335	6.794371334296655	1.3785806022234444	14	0.0012169041480260857	0.023950360278243384	0.014464267199557047
Si	13.59992264610672	8.14594611583764	0.0326526843247704	14	-0.002729485407869201	-0.0034252265075012706	-0.045409319501263284
Si	14.984874860514767	9.501827138717365	1.3485457876332814	14	0.008449166303070618	0.02993383657929199	0.12963872978931434
Si	13.585508925097427	5.438279061841824	2.728905761277828	14	-0.009920095656727334	-0.005017769142800991	-3.0596153309762146e-05
Si	14.937181206442306	6.789366344363328	4.084526784680496	14	-0.0001457816716523961	0.03388099746678333	0.016116973699348235
Si	10.89157309348363	8.172368562693457	2.715629537980656	14	-0.005245054853102082	-0.0032452491350909054	0.019886985430281362
Si	12.285966538902276	9.500380891626241	4.079846794093488	14	0.019756630390549854	0.04778502081708011	-0.027521111346865038
Si	10.890110596425192	5.460752766639851	5.417154104331024	14	0.024555084249542215	-0.02397632844197688	0.04622153167189806
Si	12.239670382018991	6.7920313390031515	6.7823301085155	14	0.05613597089692107	0.02594528089614628	-0.02731413736859312
Si	13.596688902610836	8.1343273892067	5.450954036348304	14	-0.042483915867998795	0.003695192566116819	-0.019831449555366164
Si	14.948556183563507	9.503435885481649	6.784881353384112	14	-0.0018198283456008102	-0.0013302898926446161	-0.014826793049697928
Si	13.607462630941344	5.4555202771641	8.121083665844159	14	-0.06638542514515938	-0.031076435783565802	-0.00903486409500035
Si	14.952228676176924	6.786538850050344	9.494888402673432	14	-0.029892184673105594	0.005508593148417259	-0.01624501474429161
Si	10.910130556158505	8.192193522818975	8.086032486343548	14	-0.15144247423576612	-0.17037840780812472	0.15038215040173702
Si	12.24126287881596	9.509627123029043	9.47153719964034	14	0.011805230077459906	0.02924246635870418	-0.012141016432271244
Si	11.169870033737448	5.111459719182432	11.176093771219476	14	0.06732799235552567	-0.05282104480765415	0.04955471260893803
Si	12.2707565694945	6.868682434832723	12.230895399668352	14	-0.06097119156199155	0.0010790929028661486	-0.0069615247648329385
Si	13.597160151663	8.15886483985386	10.816238245006655	14	0.016102575509555406	0.02060072426715447	0.033294271232725534
Si	14.960581159377348	9.471195950326704	12.18308799582468	14	-0.05156171742184562	-0.0035563528788288227	-0.023482419109976435
Si	13.596835152316679	5.477213983530961	13.577806440589644	14	-0.008151175196465453	-0.014927323267715717	-0.01264880973300049
Si	14.961864906795311	6.788765095572636	14.946248688204635	14	-0.012467289697398036	-0.029076372955022613	-0.029913010626198798
Si	10.8683843901237	8.131662394566877	13.587263921567557	14	0.0193858770033845	0.011708556517422338	-0.05554204556796686
Si	12.2455691201547	9.46840095594835	14.902373776451435	14	-0.02832226776462318	0.053133434104052135	-0.0002085166414640092
Si	10.838354450523733	10.807999511577442	16.190297436015648	14	0.01898092791546118	0.02826724611077201	-0.017987452819755962
Si	11.906692301746835	11.89205108119512	1.699031582691696	14	-0.07348681803940837	-0.04657840109033461	0.05296399826345438
Si	14.917404996218735	14.994689840773631	1.4615253103945032	14	-0.04213810220243888	-0.04512366970019483	-0.04802490494344992
Si	0.00836873316774	0.032150560334705994	0.0515952712250316	14	0.002354104031127581	0.030940681422661983	0.015557501181684011
Si	13.693408708075667	10.84002819715728	2.74730072427954	14	-0.013931791287754382	-0.039438441616283404	0.04082066783639501
Si	14.982047366201783	12.243537874240198	4.0840230356937	14	0.01165199220037908	-0.12895070200564274	-0.022241860793004987
Si	10.838451950327627	13.649582546224414	2.7886893910333916	14	-0.009887442619161453	0.010945709568934403	-0.015508135959537168
Si	12.237964135450811	14.950977428693593	4.120227962873748	14	-0.025508964323317153	0.01569736931110007	-0.04657068777437417
Si	10.90161557328492	10.8785406196962	5.401992884825195	14	-0.02194104147054766	-0.007144587463627482	0.006059581018524993
Si	12.236355388686528	12.219764172056891	6.783256356652512	14	0.010077190191788382	-0.026459501960175897	-0.03379100878057814
Si	13.596315153362568	13.569713956866277	5.433729070993344	14	-0.005170235688285772	0.03672592550352718	0.011913473611438139
Si	14.938936202912437	14.91693374716657	6.798108826779336	14	0.0023667024471963065	0.00721452152833551	-0.012154129069403998
Si	13.591943912154562	10.862209402543618	8.128379901169044	14	0.0030012512402088527	0.0021111345783735875	0.005718652453073357
Si	14.936514957782352	12.203010455754095	9.499422143554597	14	0.0036139456380001396	-0.011252442433628067	-0.014113825544420866
Si	10.87369812943603	13.562287721802864	8.140307377178988	14	0.01423543882606387	-0.010947766453190521	-0.00894076164028293
Si	12.219552922481784	14.915130000794495	9.497488397443993	14	-0.006533692839560298	0.016726325660223328	0.01990601160965046
Si	10.885138106426496	10.861201904570027	10.813020751478087	14	0.03152457944086762	-0.037075338716535296	0.022688204676582693
Si	12.242757875809032	12.17962675278637	12.175385511316897	14	-0.022869467601653135	-0.02240229776498223	0.03794334387261729
Si	13.57988643640609	13.562433971508709	10.84059694601334	14	-0.013100552937750507	-0.015958593611627114	0.0015827724350831575
Si	14.955234920130383	14.891145049036078	12.186435489091776	14	0.022607729080062058	0.06812014990466328	0.01779590547340493
Si	13.572232701800255	10.791765794228759	13.507330332340151	14	0.0750742184640678	-0.04336374810855347	-0.03879180862826616
Si	14.917908745205532	12.124441863781236	14.845125141597167	14	-0.05074899103014681	0.04462513237861812	0.042446377730324635
Si	10.838419450392996	13.466867913723313	13.520070306715896	14	0.02233776302144651	-0.001998263054819087	0.026117544952596203
Si	11.908106048903328	15.232670612116452	14.597556889537907	14	-0.08977117069509823	0.04984113374160253	-0.06547062587225068
H	13.975670640354588	12.954847693563467	15.675758470921823	1	0.012804875825933478	-0.08973646077327624	-0.08445258222983992
H	11.027487820114656	16.11350009048023	13.715476163690795	1	-0.09921458342547013	0.07060949407563065	-0.04620379104518904
H	11.032850309328936	11.00418536698351	2.5807873091924876	1	-0.09389573784967979	-0.07877069658284469	0.09293800111792463
H	12.051333260826551	4.23612272977146	12.061180741020047	1	0.10574673360183832	-0.08722629064921568	0.06824022052311418
H	13.973818144080564	14.161862765861315	0.634366224082008	1	0.01561560816191936	0.08631740491854331	0.09014938028769201
H	6.955538510136744	9.319242505954788	12.046702020141492	1	-0.09590017155726722	0.09644858832205482	0.08401266610956258
H	10.025222335998407	7.323340270367088	8.954528239514485	1	-0.02257533315302819	-0.010526362291218252	0.03060952305742691
H	6.954514762195836	4.239551472875136	6.968197234675908	1	-0.08892373438157744	-0.0868552801515183	-0.09046639757366627
H	3.858587239118832	14.583825667155889	15.212780652121667	1	0.015273394043807648	0.025576070172173015	-0.029036777933092332
