223
config_type=divacancy sigma="0.001 0.1 2.517230020084524 0" dft_energy=-23065.853969165364 dft_virial="73.4379959601029 -2.596332582495054 5.503909890357497 -2.5963325824950543 71.75963832710913 1.1307245086131723 5.503909890357496 1.1307245086131723 73.27646388744387" pbc="T T T" Lattice="16.249967316 0.0 0.0 0.0 16.249967316 0.0 0.0 0.0 16.249967316" Properties=species:S:1:pos:R:3:Z:I:1:dft_force:R:3
Si	1.4623118088125975	1.395839692509768	1.4597556889537908	14	-0.04846096440574704	-0.04215944237659611	-0.04048616703424374
Si	2.739614489739072	2.760235698263076	0.0554140135442916	14	0.020104243829833876	-0.009163933582071782	0.0036437704597138574
Si	4.10425424500212	4.120374212579592	1.3858085876856012	14	-0.004753202405357753	-0.0008916593250273537	-0.032341162490546645
Si	2.793970630411092	0.0423035399137428	2.793808130737932	14	0.03609266226317471	0.05939150445329256	0.04383400327160856
Si	4.123607956075476	1.4162317764946164	4.121284210749288	14	0.02144996035439938	-0.04407954382968269	0.013263561015047895
Si	0.0471054052556208	2.750989466860272	2.73584449732176	14	0.014363736981539258	-0.008223680366493631	0.0378548978496042
Si	1.3928513235203555	4.104725494054284	4.090133023404516	14	-0.013279758978564829	0.006034898407451571	-0.005311389370361901
Si	0.0258276980520504	0.047162280141226795	5.452904032426224	14	0.011413907847733367	-0.014424415067094751	-0.00895310294581964
Si	1.3773586046812811	1.4075120440328506	6.795070082891244	14	0.0031447189170731157	0.02639830965355637	-0.005655403262197715
Si	2.742409484117424	2.759228200289484	5.451977784289212	14	0.011163482189550943	-0.0017110705905585466	-0.0023957559373139798
Si	4.09312301739066	4.11952921427916	6.79476133351224	14	0.00019694666752334284	0.0007893293332854603	-0.0004440298887895732
Si	2.708739551838672	0.0276476943914424	8.13725238332358	14	0.0016979579534257914	-0.0278607543596566	0.012049485082873972
Si	4.015253174012388	1.4050322990204291	9.486064670420845	14	-0.05846436387484717	0.08772637063398447	-0.0624567762159731
Si	0.0255270736567044	2.7612431962366677	8.149212359268155	14	-0.00808355512654556	-0.008810149490019407	-6.247785927959831e-05
Si	1.376058607296001	4.115531722319424	9.500738390907191	14	0.005348670397504049	-0.01694744071775606	-0.016318548356447846
Si	0.0347733050595084	0.034165556281890004	10.850281926533677	14	0.008531955894379386	-0.007492715123975533	0.015290363338920627
Si	1.3381165586098727	1.416501525952062	12.213247935163174	14	0.03361540228721203	0.026068179730449354	-0.03757850402768828
Si	2.6893533408306842	2.744424480064608	10.863704399536692	14	0.0015226085705916923	0.01440924554570588	0.04072810804486967
Si	4.069609314684408	4.0890767755289765	12.187166737620995	14	0.019032092911332125	0.042807360917273427	-0.009602049928625015
Si	2.78792564256954	0.16715853878949719	13.531786533150731	14	-0.04104229711499177	0.16405503138375252	0.018438424692909933
Si	4.116295470783276	1.4407692271417765	14.957656165260467	14	-0.00043580235176509936	0.05915753386915909	-0.041290665888918075
Si	0.0146298455745948	2.748145722579972	13.595713904571875	14	0.0059485092686945955	-0.008724531682858475	-0.031640279180274275
Si	1.387129710028392	4.0972017591869765	14.936693707422826	14	0.03629603669399842	0.029436841920907373	-0.019598250302828732
Si	0.0389040467512356	5.455812776575788	0.0368598008628828	14	0.00897341467784881	-0.019811394933869006	0.005361525924104789
Si	1.3766192311684031	6.806916309064608	1.4006058079235508	14	0.010815354529202894	0.03171689811881468	0.0044598392883288575
Si	2.7129970432754638	8.173473560470944	0.061637751026319604	14	0.015678857352795002	-0.032447092029736745	-0.019414416272438142
Si	4.09450426461252	9.514128363975574	1.3970129401499831	14	-0.010645404467541105	0.014925523493991615	-0.0025492509249268203
Si	2.74518822852846	5.464717758664956	2.7428482332349557	14	0.005846436387484717	0.0019319285375592665	0.010970906401071854
Si	4.0945855144491	6.815496291807456	4.093984265658408	14	0.017735484498381446	-0.007692747117883053	-0.002086194856768151
Si	0.0399489196496544	8.167298572890864	2.7496407195730437	14	0.006983122049522182	-0.013880883402415448	0.006445246816547204
Si	1.395717817754898	9.510342121590948	4.1045792443484395	14	-0.0004003210983470559	-0.012368816363636365	0.0011919644264206494
Si	0.030845687959231198	5.447184043930992	5.445087798147228	14	0.014649643893139724	0.01247448879229445	-0.019048805095913085
Si	1.379820474729655	6.805827561254436	6.788976345147743	14	-0.014717778184123648	-0.010214230105352273	0.007775793819723836
Si	2.74518822852846	8.161188585180048	5.4540740300729755	14	0.012467546807930049	0.023940332967494808	-0.006175794978995686
Si	4.087565528568588	9.53418082364352	6.797068828871112	14	-0.012477831229210642	-0.008970072240932617	-0.0021970094960665335
Si	2.7309857570942757	5.464327759449372	8.146628614464912	14	0.0013773411200033259	0.011655077526763258	-0.007003176671019338
Si	4.068553066808868	6.837839996866956	9.487397167740756	14	0.025174977742229918	-0.037116733512189685	-0.016643278958382544
Si	0.027919068845619597	8.144256119236776	8.151146105378759	14	-0.005648461277833315	-0.0102198865370566	-0.0008448652082006587
Si	1.3845329652512952	9.496090900254815	9.493945904569104	14	-0.01735161847408334	0.007190096027794103	-0.009636502739915
Si	0.025803323101076397	5.453521531184232	10.867198142509631	14	-0.019139565113714316	0.012420238470039325	0.01693921318073159
Si	1.3784099775666263	6.800237572497731	12.226621658264243	14	0.01943395667287127	-0.008855400943654014	0.013485190293644658
Si	2.7247295196776156	8.162537332467275	10.876054374696851	14	0.002140959400087305	0.01541531905747982	-0.016377940889343263
Si	4.052433099231395	9.56013202144717	12.212711686241748	14	0.027715744019600246	0.052927745678440295	0.03652357951483152
Si	2.7458544771884155	5.454415279386612	13.576733942746788	14	-0.017632383175043512	0.004365993944143453	-0.009603849702349121
Si	4.066278071384628	6.8448274828128355	14.948377433923032	14	0.0064514174693155605	-0.0044593250672648275	-0.016604969489112338
Si	0.0337853070466956	8.166778573936751	13.572915200427527	14	-0.007878638032529759	0.002498085929055873	-0.002993795034780423
Si	1.3853617135844112	9.52061210093466	14.92795122500682	14	0.002651066695604684	0.03790811972973126	0.009622875881718215
Si	0.0274803197280876	10.873486879860923	0.0236290774741956	14	-0.01360603224369162	-0.002384185963373314	0.00862631545962882
Si	1.399442310263725	12.20396920382574	1.3860945871103627	14	-0.014414644866878192	0.013268960336220208	0.0006741438149428263
Si	2.79044438750352	13.562515221345286	0.10671191036744039	14	0.07851487160348995	-0.0045225742581404705	0.03657114496325426
Si	4.126614200028936	14.952066176503763	1.4184775219776875	14	-0.03450757583330341	-0.009452925820056428	0.009608477691925386
Si	2.744521979868504	10.863639399667429	2.7496082196384117	14	0.022308966641860852	-0.007385500032125358	-0.0017905177449511222
Si	4.090214273241096	12.229709152054284	4.094325514972043	14	0.006695672474729627	0.0019499262748003032	0.005146324408808396
Si	0.12349000162121039	13.556015234418888	2.7838144008385917	14	0.017272171319690763	0.013760555673432519	-0.0048910136505176905
Si	1.4173757741936628	14.954552421503113	4.128011697218112	14	0.022455005424045264	-0.028108094691454845	-0.04520594507043957
Si	0.043491412524542396	10.84417193882286	5.469982748075339	14	-0.0360404688251757	0.02550613610746499	-0.006864336983731341
Si	1.3817932207618175	12.22330666493178	6.80564881161396	14	0.00592845464719744	-0.013567979884953427	0.00010232999174189355
Si	2.74721947444296	13.574052698139647	5.465481507128808	14	-0.0008124692811667931	0.005578784323657302	0.0004530287574100916
Si	4.095186763239792	14.939261202258756	6.806233810437336	14	-0.018253305109859275	-0.022486630019483082	-0.027339591311262585
Si	2.7301245088265276	10.874608127605727	8.160132337304509	14	-0.008365091159101775	0.009775342427202998	-0.001369113582978852
Si	4.065790572365148	12.242546626233922	9.513657114923411	14	0.010190318825874897	0.00021931528380863112	0.028896909803676277
Si	0.0286844423062032	13.583315179509768	8.148367360967724	14	0.009633417413530822	-0.011537320903100475	-0.0009667356003756777
Si	1.381442221467792	14.924993730955308	9.504053384239656	14	0.00013266903451964086	0.012452634397073191	0.024864388219556027
Si	0.0286356924042552	10.847941931240172	10.830521966277418	14	0.03057301336188081	0.021489812486861676	-0.0026906617175349646
Si	1.3457962931634144	12.223534164474202	12.187182987588312	14	0.017635725611959703	-0.000948994973666656	0.0699590044296332
Si	2.7403782382029243	13.61384886809653	10.884861856982123	14	0.0025837037362168047	-0.021420135532685663	-0.14461567538970893
Si	4.121641710030239	15.021209787433342	12.18669548856883	14	-0.09338974432267465	-0.15597199047827098	0.11465947019413163
Si	2.717547034123944	10.913250549883175	13.588336419410412	14	0.004668613040324882	0.008321639479191272	-0.028718217983925983
Si	4.122194208918984	12.222477916598663	14.96142615767778	14	-0.06248480126396271	0.01571613837993715	-0.012587874536912982
Si	16.20149366349637	13.55656773330763	13.52289780102888	14	-0.03343028270416137	0.013494960493861221	-0.07875038485081552
Si	1.725535279384092	14.630934322404972	14.585011914769956	14	0.06551510599428924	0.01814840401279723	-0.0708984863136153
Si	5.454577779059772	0.045841157798436	0.0342695560727124	14	0.009403560597909583	0.009057746932349668	0.0006630880620661896
Si	6.79833632632176	1.3829632184085696	1.4080190430131099	14	0.02549662301778044	0.005633548866976456	0.011393081894640169
Si	8.166161075178744	2.720358278469612	0.0699203593672848	14	-0.030359354509776497	0.020833409298627866	-0.02349013242593688
Si	9.510325871623632	4.096470510657756	1.4062477965756661	14	0.014041063263860676	-0.017653723349200737	0.012404040506522393
Si	8.154168599299537	0.0327339341613504	2.7517532153241238	14	0.022845556322175754	-0.012171355475048993	0.0035622664210651638
Si	9.510683370904584	1.3813447216638959	4.093561766508192	14	-0.030566071377516414	0.007887379790618262	0.016982664860642094
Si	5.45487027847146	2.763339442020432	2.7421494846403682	14	-0.013994269147033979	-0.006512095554871054	0.001087063329358608
Si	6.811141300566768	4.100321752911648	4.10035425284628	14	-0.010592953919010085	-0.006553233239993424	0.0035113585357262316
Si	5.456576525039639	0.029947064766656397	5.454334029550032	14	-0.007497343113551798	0.03846142159462713	0.0052581674902348365
Si	6.791235090604667	1.3717637409343824	6.819250034257451	14	0.0032262229557218094	-0.0098257360914779	-0.03822025191559724
Si	8.139771128257559	2.709535800237156	5.439172810044203	14	0.03548048208644745	0.029277947612122216	-0.007012175539639856
Si	9.466483459805064	4.080025543733964	6.785612601913331	14	0.011781833019046558	0.020644690168128997	0.018900452318940546
Si	8.155208597207759	0.0103951040920452	8.151682354300187	14	0.026346630436621395	-0.04635214382216158	-0.016711670359898484
Si	9.489542163426467	1.3750819842603097	9.510732120806532	14	0.023062814721728272	0.018447937782594483	-0.013534812626323518
Si	5.4059578768503	2.727215764676964	8.14339487096903	14	-0.01833172382212379	0.015454656968878088	-0.013976785630856975
Si	6.767737637865731	4.04445436527924	9.510894620479691	14	0.020995131823265185	0.09829772726830531	0.001725468780351376
Si	5.578548779713536	0.1520623191529332	10.7257909269258	14	-0.1752190277943675	-0.07045934152493401	0.17950917413156656
Si	6.817218788342952	1.4049819241217496	12.289509031777165	14	0.06194924002577588	0.11494434866360405	0.047824101617946355
Si	8.149261109170103	2.7270370150364878	10.886308104073247	14	0.02045494259550207	0.0504170613333157	0.021407537116616936
Si	9.526510839070367	4.068520566874236	12.22886415375385	14	0.010627149619768055	0.07891133604385679	0.0008595205085255028
Si	8.169394818674627	0.027954818773714796	13.60084889424373	14	-0.016802687488231726	-0.012670149907157719	-0.0014447040793912056
Si	9.517703356785095	1.3900563291420034	14.944347442028663	14	0.02226551496195035	0.017481459292750818	0.003627058275132895
Si	5.452059034125791	2.788136892144648	13.587588920913877	14	0.00960436392341315	0.0020617693562267445	-0.00204068629260153
Si	6.847963726504824	4.090149273371831	14.961328657873883	14	-0.024589794171364213	-0.0065594038927617795	-0.015862948493717603
Si	5.454431529353928	5.468179001703264	0.015689343443598	14	-0.0028888939377183817	0.01931002939644013	0.03853084143827113
Si	6.795768831485832	6.800237572497731	1.3976418138851123	14	-0.01060812344039896	-0.01137559837846316	-0.03902963587037985
Si	8.155322346978972	8.147132363451707	0.0502091490129768	14	0.0033514357848130213	-0.008628886564948968	-0.0026376969479399146
Si	9.504930882474719	9.500917140547667	1.3991416858683792	14	0.0023476762678272113	0.0053131891440860056	-0.059205613538645854
Si	8.159986087598664	5.458412771346348	2.748828221207244	14	0.0031269782903640938	0.0023013963720645457	-0.0012428723117595814
Si	9.521473349202408	6.809207554456163	4.094081765462304	14	0.011022842728538844	-0.006131057746425109	0.010578555729217258
Si	5.451474035302415	8.163366080800392	2.743270732385172	14	-0.0060654945607613335	-0.000887545556515117	-0.00041317662494779633
Si	6.8081025566786755	9.516273359661287	4.090880521901052	14	-0.004322799374764966	0.017343905158122896	0.010040166275178248
Si	5.4490852901069635	5.460785266574484	5.437125314162388	14	-0.025192718368938938	0.02060843758311491	-0.004034321357844351
Si	6.78103011113022	6.829243764156792	6.78818009674926	14	-0.029375135393223818	-0.037260972520649985	0.02125429923953611
Si	8.162911081715542	8.162391082761433	5.440716556939224	14	-0.0065509192452052915	-0.0019959490600309536	0.010198803473431385
Si	9.49818714603858	9.554704532363628	6.769947633420708	14	0.04074482022945064	0.037915575935159686	0.01269380407610308
Si	8.0607962871018	5.40498287881134	8.120222417576413	14	-0.030872290021146043	0.020794328497761617	0.032257858678173844
Si	9.824372739972647	6.493665689114076	9.189259017394104	14	0.06293037381594438	-0.06046905469296663	-0.054688952822741735
Si	5.4333065718431275	8.18088354556704	8.143053621655392	14	-0.017719286534864515	0.003327781615867659	-0.01912773802924163
Si	6.75113017126878	9.57800698549477	9.467572207615236	14	0.16653254847024718	-0.16209327802447954	0.17489712540828495
Si	5.394274150350095	5.430186578118456	10.784388309067296	14	0.034628932004414394	-0.04159225654297144	-0.03388485412476355
Si	6.48316821022794	6.500815674733116	12.541026025894212	14	-0.06024588275117777	-0.04943901286953137	0.06067397178698244
Si	9.8170115047785	9.821382745986503	12.525767306584488	14	0.033212510083544824	0.06327104527086401	0.049078543903646604
Si	8.239480927708536	5.414586609495096	13.623501348682234	14	0.04674860826252842	0.03371927494214601	-0.04166296193927552
Si	9.5322308275656	6.788732595638003	14.980666118979922	14	0.017741140930085775	-0.01536492539320492	-0.06538243695976961
Si	5.383841671333224	8.253699649110034	13.610907624012336	14	0.036425620402133874	0.019342425323474	-0.024239609626760045
Si	6.800221322530416	9.510000872277312	14.960483659573452	14	-0.011560975072045837	0.004454439967156547	-0.01122853115415069
Si	5.4659690061482875	10.859495658001848	0.0559145125376244	14	0.008806807053103214	0.016618339236777108	-0.019451183078516263
Si	6.811043800762872	12.22420041313416	1.4027963035177475	14	-0.007003948002615382	-0.007199352006946637	0.0014331341054505391
Si	8.153356100933737	13.599321397316029	0.06609511706109839	14	0.03048816688631592	-0.019379192129552116	-0.028864256766110395
Si	9.514225863779473	14.945858688989052	1.4013614314037448	14	-0.017340562721206702	-0.007619984837322862	0.0024438356068007495
Si	8.168826069818568	10.87277188129902	2.7476419735931756	14	0.010662887983718113	-0.009780741748375309	-0.007516369292920894
Si	9.53328707544114	12.242221626887602	4.0734605569383	14	0.029946692105892736	-0.001923701000534793	-0.011375855488995175
Si	5.461581514972968	13.574735196766918	2.7544507098985798	14	-0.004631332013182735	-0.000821725260319326	0.002481887965538941
Si	6.810068802723912	14.928097474712663	4.104839243825496	14	0.01854769666901623	-0.0004082915248395149	-0.0017884608606950037
Si	5.445689046937919	10.869018138849023	5.43252657341196	14	-0.022119219069233927	0.005728165542757905	0.00031778861757030257
Si	6.795703831616568	12.228230405028526	6.776447620347108	14	0.027685919197886533	0.013403686254995965	0.0002763938219159185
Si	8.171361064719864	13.574800196636183	5.43821406197256	14	-0.020303504492145352	0.0003154746227821693	0.02276225250980296
Si	9.514550863125793	14.929722471444263	6.792388838284103	14	-0.0024620904545738006	0.050067905230839586	0.01957228213909524
Si	8.14501986770063	10.891313094006577	8.132897392082892	14	-0.012887665417242245	0.010720737853421446	-0.01590768572628818
Si	9.503533385285543	12.242709125907083	9.473389695914364	14	0.022877180917613576	-0.016435019427450553	-0.03690204621795732
Si	5.43090157668036	13.557022732392479	8.138032381754748	14	-0.03233036384820202	0.007175697838001274	0.011771548597765965
Si	6.831340009940556	14.856500118718367	9.473779695129949	14	0.07997320254107793	-0.06811912146253522	-0.09379443630006595
Si	5.418242852141195	10.896123084332112	10.859024408949683	14	-0.014679725825385457	0.0331009241126504	-0.016815028793768436
Si	6.75828015688782	12.25548160021746	12.213832933986552	14	-0.040750476661154965	-0.03276102398932682	0.015754447849207355
Si	8.168176071125929	13.561767722848751	10.874933126952048	14	-0.02918281671527674	-0.00933645474905372	0.013595233601346998
Si	9.503257135841173	14.940203700363083	12.21453168258114	14	0.035791328719653355	-0.047422494966939226	0.022307423978668764
Si	8.060861286971063	10.913331799719757	13.601823892282692	14	-0.027830672427410868	-0.024485407295366204	-0.007450548996725103
Si	9.46068222147325	12.232845395746272	14.942234946277583	14	0.012505342056136227	-0.02637182726875885	-0.009481207978578056
Si	5.424937838675388	13.623793848093925	13.575612695001984	14	0.10138253943141898	-0.015355669414052385	-0.01602544234995096
Si	6.806721309456816	14.932403716051404	14.943193694349228	14	-0.007736713018857584	0.007483459144822998	0.009774056874542922
Si	10.865849395222403	0.0343296809517816	0.037266050045782796	14	0.0002812789220241998	-0.019179160135644597	-0.0012053341740854194
Si	12.203855454054528	1.424293385280084	1.3681042482948191	14	-0.0016334232098900745	0.01599330353344911	0.043074241649504796
Si	13.578813938563234	2.747771973331704	0.022228330291556398	14	-0.03598339028706841	0.00327275996201649	-0.012240518208160973
Si	14.93675870729209	4.090344272979624	1.3784246025372107	14	-0.014348053239086356	0.028094210722726044	0.010364125545516906
Si	13.549840246838807	0.14133734072437318	2.7661831863007316	14	-0.015450286089833839	-0.009593308170536512	0.028077241427613066
Si	14.945322440067624	1.4303253731477832	4.111599230228952	14	-0.06396858614422017	0.029666955847060625	-0.0041726468240683165
Si	10.862794401366996	2.75006321872326	2.755945706891652	14	-0.017213807228923406	0.0012135617111098933	-0.008531441673315356
Si	12.213524184607548	4.106269240949303	4.108381736700384	14	-0.011965924159969159	0.01915781996148737	0.0284528799148867
Si	10.852914421238868	0.0486865270754676	5.467122753827724	14	0.012656780159492948	-0.05073896371939823	-0.0332744737217604
Si	12.20156420866297	1.408981041078217	6.815496291807456	14	-0.020904114694931943	0.026667247270043857	0.005012626932160695
Si	13.566008964318229	2.7572132043422997	5.46315776180262	14	0.022617756390810637	-0.00018074870400640994	0.004091142785419623
Si	14.91287125533757	4.12009796313522	6.81101130082824	14	-0.03585046414201676	-0.0048529612917795	0.0003419570075796945
Si	13.564432717488575	0.046432656608738396	8.149212359268155	14	0.010891202136147263	0.001756064933661138	-0.004306344300716017
Si	14.941617447519576	1.3820044703369256	9.49285715675893	14	-0.004941407314792592	0.0064331626215425085	0.05231196595426483
Si	10.83921569879148	2.76062569747866	8.17316481109194	14	0.0025623635620595753	-0.012133560226842815	0.013467706777467652
Si	12.239784131790204	4.077019299780504	9.537885816191569	14	-0.01094236713201821	0.006142113499301746	-0.029910953741942678
Si	10.855059416924579	0.0303354389855088	10.849599427906403	14	-0.006672018305784265	0.048852800856537607	0.005552301938859776
Si	12.200004211800636	1.3990458110612147	12.188482984973591	14	-0.009385048639604519	-0.05518749014431844	-0.00444981197758028
Si	13.604033887837666	2.720862027456408	10.860486906008123	14	-0.03121347569712969	0.028273673874072383	-0.014955348315705328
Si	14.932614965626511	4.092131769384384	12.22228291699087	14	0.00953700096402527	-0.010578555729217258	0.016129829225948977
Si	13.517356562174124	0.0288485669760948	13.524750297302903	14	-0.03772325725721262	0.055615579180123095	-0.041842425090621846
Si	14.847091387642402	1.3844744653689576	14.862236357180915	14	0.04249342895768335	-0.05633883110668075	0.042965998115526566
Si	10.874998126821312	2.734284500459424	13.584387677352623	14	-0.00042063283037622573	-0.0049187815879752905	-0.008460222055947254
Si	12.227352906793463	4.1027104981071	14.926748727425435	14	0.008577978679610037	-0.006838368819997845	0.014362451428879184
Si	10.885089356524547	5.434655319130355	0.0623316246307128	14	0.004587109001676188	0.008020305935669918	-0.024387191072136542
Si	12.236680388032848	6.801765069425437	1.4006919327503256	14	0.01817128685014655	-0.00918141709824879	0.003003308124464971
Si	13.607803880254979	8.154899847828755	0.06693036538114079	14	-0.028060529243032106	0.03879232284933019	-0.03175160804063668
Si	14.944168692388187	9.526965838155215	1.4031343028379204	14	0.004145650218206762	-0.00790589174892333	0.0011058323981956888
Si	13.581608932941588	5.436134066156112	2.74356323179686	14	0.0046943240935263635	-0.002030401871320938	0.010390350819782417
Si	14.943177444381911	6.795606331812672	4.078969295858424	14	-0.004745231978865295	0.036927757271158795	-0.00909374240683174
Si	10.879011868748364	8.161237335081996	2.743498231927596	14	-0.018624572718088653	0.0029158905435799362	-0.005215744252452393
Si	12.241116629110115	9.532620826781184	4.071364311154536	14	0.02153763504581643	0.037895521313662535	-0.007938287675957193
Si	10.85408441888562	5.457681522817127	5.467724002618415	14	-0.006607226451716534	0.0038926534547041912	-0.020093702298021265
Si	12.232942895550167	6.851977468431876	6.771280130740619	14	-0.005861091687809562	-0.005887831183139101	0.0034213698495210486
Si	13.600621394701308	8.16731482285818	5.406640375477571	14	-0.02365982537706665	-0.034592165198336286	0.034871130125572344
Si	14.93103871879686	9.497845896724943	6.799896323184096	14	0.0285240995322548	0.009922152540983453	-0.002460033570317682
Si	13.54572900510786	5.470275247487028	8.158474840638275	14	0.01700554769799141	0.011121316062300516	0.011100747219739332
Si	14.925871229190372	6.799035074916348	9.507709626885756	14	-0.006904189116193637	-0.01360603224369162	-0.003089183042157917
Si	10.898560579429512	8.253000900515449	8.098528711209552	14	-0.04057795549417303	0.002069739782719204	0.0398274498512218
Si	12.257740345674383	9.531597078840276	9.486308419930584	14	-0.04536381093709666	0.016031870113251332	-0.017775336630843745
Si	10.919376787561307	5.409776619169559	10.938048000007392	14	-0.03472714822764406	0.044923894816819326	0.06123190164145457
Si	12.265621579822643	6.7984663260602884	12.228701654080691	14	-0.07396067274991165	-0.01746526132923389	0.003797265447326697
Si	13.584663926796996	8.163934829656451	10.85489691725142	14	-0.008161459617746046	0.0006057524134268874	0.007449520554597043
Si	14.933102464645991	9.51443711335458	12.209721692255602	14	-0.028770154311392977	0.012483230550382954	0.014311029322476222
Si	13.599158897642868	5.4514090354331515	13.5865976729076	14	-0.016485155981193437	-0.0026639222222054246	-0.020496594501688472
Si	14.943924942878448	6.812620047592524	14.938822453141222	14	-0.007930317249464736	-0.013426569092345282	0.00026765206382741504
Si	10.910211805995083	8.076737505038796	13.620267605186353	14	-0.032447863361332784	-0.04778064993803586	-0.04503753767196987
Si	12.238305384764448	9.468660955425408	14.950798679053115	14	-0.0018781924363681717	0.04202265957356423	0.005433516873068936
Si	10.827223222912272	10.831236964839324	0.0040901167734372	14	0.006727554180699463	0.019100484312848064	0.051803915543003565
Si	12.190530480855408	12.206601698530932	1.3249248351427438	14	0.011640165115906398	0.0033910308067433017	-0.023718189467834015
Si	13.525351546093596	13.551400243701142	16.182253702194227	14	-0.014356794997174857	-0.01227831345636715	-0.007558792530703338
Si	14.605665623228592	14.615513103422089	1.700672829390612	14	-0.06562900595997181	-0.0754097477083471	0.050350469705523856
Si	13.583721428692668	10.907351811747468	2.718847031509224	14	-0.0009201985940809975	-0.009437756298667553	-0.0012783535651776248
Si	14.974036132314994	12.211947937777895	4.109941733562719	14	-0.023390373539515136	0.02500297079631201	-0.03415790550976328
Si	10.895505585574105	13.596900152185944	2.722990773174804	14	-0.015669601373642466	0.004047176884445091	-0.0011801373419479681
Si	12.216936677743906	14.984078612116283	4.09954175448048	14	0.02147155763908862	0.016166853142559105	-0.028580406738766044
Si	10.881043114662862	10.884081858550957	5.424450339655908	14	-0.027342162416582726	-0.0003157317333141841	0.011378426594315325
Si	12.23549414041878	12.240222880907735	6.7751476229618275	14	0.011648906873994903	0.010292134596552762	-0.022386099801465293
Si	13.592122661795038	13.599532646891134	5.4197703490689	14	-0.005197746515211357	-0.010493966364184384	0.013862114333578366
Si	14.922946235073491	14.941763697225419	6.803113816712664	14	-0.01755370735224698	-0.0069525258962124204	-0.011559689519385762
Si	13.588726418625994	10.884569357570436	8.126592404764283	14	0.016959782023292774	-0.012486572987299145	-0.001728039885671524
Si	14.934142462554215	12.224379162774635	9.494043404373	14	-0.013879854960287388	-0.0066823027270648564	-0.010774216844080526
Si	10.878020620742086	13.58513517584916	8.13481488822618	14	-0.036428448617986046	0.0017552936020650935	-0.011864622610355325
Si	12.21818792522724	14.935686209449235	9.49859339522148	14	0.012832643763391076	-0.0007844442331771789	-0.0010927197610629336
Si	10.897894330769557	10.909090558250279	10.772477083024668	14	-0.007406840206282587	-0.03228768349988756	-0.012980482319299592
Si	12.22801915545342	12.240011631332628	12.174248013604776	14	-0.013815063106219659	-0.0030133354352135486	-0.003094582363330228
Si	13.589620166828375	13.592268911500883	10.838061951112042	14	-0.024764372222602266	-0.010163579330545357	0.03949192060694248
Si	14.90471377174494	14.958046164476052	12.189246733437445	14	-0.021809657988688096	-0.013291586063037509	0.003229565392638002
Si	13.541585263442279	10.845569436012036	13.549043998440323	14	0.019770000138214627	-0.020477568322319378	-0.02895398834178356
Si	14.906436268280435	12.191164229580732	14.896767537727417	14	-0.01766272221782126	0.02101904310274256	0.012203494291550843
Si	10.83295946137482	13.548800248930585	13.551595243308935	14	-0.006691044485153361	0.025573499066852863	-0.0064131080000453524
Si	12.172086767951747	14.933979962881056	14.884417562567254	14	0.048634771125389054	-0.03655674677346143	-0.02357575023309781
H	10.707883462943567	5.620717444898556	8.302433301090721	1	0.07764789488953602	-0.0997246907209875	-0.07516240737654886
H	7.625882161856375	8.713914973466471	10.351472929801739	1	0.021275382303161325	-0.03135900025825007	0.013232193530142088
H	10.700879727030372	10.696768485299422	13.406938034261904	1	0.09713198811615018	0.1117104123919218	0.10851967068961801
H	15.668559735400835	0.429064137011664	15.688514695264884	1	-0.08344136650742569	0.025052850239522882	-0.09376692547314036
H	0.6428779569621288	0.44335273327262276	0.6285113608580533	1	0.09177791839747382	0.0263970241008963	0.08711239068353312
H	13.720952402676287	13.730539883392726	2.5760260687689	1	-0.06202457341165621	-0.07294971413802943	0.07302376197124968
H	2.624759720749584	13.788844766122535	13.678279988504471	1	0.1365375195843357	-0.17074504742677782	-0.12741806612430245
H	5.6046299772557155	5.622277441760891	13.426827994256687	1	-0.08439370391800853	-0.11678757406761821	0.08478116948975485
H	6.523679378746728	1.0476857677611997	9.769171601000195	1	-0.025438258927013076	-0.0207228517698615	0.026126286710684704
