225
config_type=divacancy sigma="0.001 0.1 1.6509222543151805 0" dft_energy=-23095.54973242226 dft_virial="47.56412109652293 -1.7759719657620998 5.579345636259361 -1.7759719657620998 45.09771508564433 0.7103887863048398 5.579345636259361 0.7103887863048398 46.893641792594764" pbc="T T T" Lattice="16.3199774331 0.0 0.0 0.0 16.3199774331 0.0 0.0 0.0 16.3199774331" Properties=species:S:1:pos:R:3:Z:I:1:dft_force:R:3
Si	1.4560781785676418	1.376115185138682	1.4243619344241554	14	-0.06494252083949227	-0.024994486148755518	-0.06643684725156233
Si	2.738655413048511	2.7414787691444373	0.01040561761134456	14	0.030650403632017265	-0.0019383563008596365	0.024170961114712092
Si	4.092446501056456	4.11426631088451	1.3507131402640618	14	-0.009707722357283101	0.008661282491982834	-0.04018303371699829
Si	2.783388471192638	0.00980504244180648	2.762988499401263	14	0.03931117190293607	0.04875407041224392	0.036010129782397954
Si	4.1038541652821925	1.4054634005566256	4.092511780966188	14	0.02027085145457947	-0.032581817948512504	0.022114076858593627
Si	0.02304544013328051	2.7240490332458864	2.70774537579022	14	0.018338922917020203	-0.012360845937143905	0.03699640578320675
Si	1.365561055732696	4.087860587397754	4.072895168091602	14	-0.021955182549808477	0.014200471793709854	0.004841905538902862
Si	0.00478012139015499	0.01412983646157798	5.441782235225163	14	0.006390482273228051	-0.010263852438031133	0.0007330221267742173
Si	1.3564659323092292	1.3814420257728455	6.796568841856527	14	0.0035018454460416836	0.011774376813618129	0.006053924586820667
Si	2.7196099993840837	2.740140530994923	5.443120473374678	14	0.013128577985740122	0.0012842671074139655	-0.017868410643433107
Si	4.079700598681204	4.095677856588209	6.79821715957727	14	-0.003304898778518341	0.0030040794560610156	-0.005342499744735693
Si	2.7033553018607157	0.0161894176136352	8.158258798942091	14	-0.012141273542803258	0.0024741746495784965	-0.0009585080633512039
Si	4.07462508569951	1.3644072333281758	9.509520290447904	14	0.009248008726040625	0.013219338003541348	-0.006787460934658915
Si	16.317643676327066	2.7417398887833673	8.150947449052063	14	-0.012990766740580185	-0.004928551788191853	-0.005041166201214338
Si	1.361050213970187	4.088480746540212	9.51244156640843	14	0.008611145938239946	-0.01912439559232544	-0.004455982630348636
Si	16.31839439528899	0.00714651811795449	10.868435851369842	14	-0.0012392727643113742	-0.0017149272485387685	-0.0012349018852671222
Si	1.3188402243372175	1.3928692739715023	12.227041332720551	14	0.039001610822390245	0.0025317674087498134	-0.0007250517002817584
Si	2.6954727527605287	2.7066192973473355	10.863980497530607	14	-0.008205682629252593	0.015372638709165365	0.027745311730781954
Si	4.059235346980097	4.074984125203038	12.194042338350823	14	0.02542617473200838	0.025066219987187652	0.0011834797788641608
Si	2.7291082262501476	0.12698084841372118	13.58786633100216	14	0.03301684896868155	0.0063172057716038305	-0.07004333668413404
Si	4.11331975219339	1.4138339169820626	14.967100263828309	14	-0.03487910055206481	0.02841251356136038	-0.05735210371335111
Si	16.308961448332656	2.7345264587579368	13.611644538122189	14	-0.02632554737299618	-0.004414587834694251	-0.01479696822798421
Si	1.370620248736957	4.081593716063444	14.960914992381165	14	0.04104666799403602	0.025609237430802925	-0.02677343391976598
Si	0.01090664091854073	5.437114721679296	16.320303832648662	14	0.006393310489080213	-0.018240192472726516	0.014710321978695217
Si	1.3486502951165178	6.796781001563157	1.3705843447866042	14	0.013015449351653606	0.02912496684557341	0.005009284495244503
Si	2.690152440117338	8.168703584499276	0.02513602924246062	14	0.007414296411711015	-0.0376309545762193	0.00381500607403572
Si	4.0566731105231	9.510254689432394	1.3899071980673947	14	0.018462078861855295	0.041458559066323744	-0.0033066985522424448
Si	2.7245223125914464	5.451835341323953	2.718745040580129	14	0.00864662719165799	-0.003822205168932134	0.005242740858313948
Si	4.079978038297567	6.798608839035665	4.083029874077557	14	-0.004118139391281178	-0.008865685364934607	-0.021382340284479485
Si	16.315995358606322	8.159025837881448	2.719267279857988	14	0.010956508211279024	-0.013928191740306173	-0.004240524004520227
Si	1.3476123445517727	9.504199977804715	4.088986665840639	14	0.011232902033194943	1.3626858196784819e-05	0.007721543497468712
Si	16.31397168140462	5.432153448539634	5.431794409036106	14	0.014211013325522463	0.0054839105373438385	0.01242743756493574
Si	1.3432157426312956	6.78511221769849	6.790677330003178	14	-0.031065122920157145	-0.014439327477951612	-0.036974037166921464
Si	2.692420916980539	8.131559315861539	5.431663849216641	14	0.019620876029646035	0.03446001038488067	0.01853921202145974
Si	4.043307049005391	9.519426516749798	6.750105866104491	14	0.0029225754174123215	-0.004329484248597351	-0.015381123356721853
Si	2.7109604113445407	5.4485550258599	8.150931129074628	14	-0.0010780644607380897	0.019871044577296444	-0.005122156018799003
Si	4.059561746528758	6.838690703611358	9.480209610978058	14	0.03535398370469616	-0.004494292099618841	-0.005033452885253894
Si	0.007556149551525299	8.154782643748842	8.15256312681794	14	-0.001220760806006308	-0.022587931569096917	0.002676777748806165
Si	1.3786725256024486	9.518284118329479	9.490507516738344	14	-0.0178856370490781	0.017768908867543374	-0.015866033820101783
Si	0.00662264684235198	5.440917276421209	10.878031998100505	14	-0.0254056058894472	0.004528487800376812	0.01296968367695497
Si	1.3620636845687828	6.799930757207745	12.237290278548539	14	0.03052339102920195	0.0002771651535119629	0.00601021579637815
Si	2.7156932048001394	8.171853340143864	10.881981432639316	14	-0.008763869594256743	0.009020208794675506	-0.013285929631333184
Si	4.03782353658787	9.588443701314377	12.225311415112643	14	0.02998551579622697	0.018084640600857557	0.006312834892559578
Si	2.731768382571743	5.4448177510277205	13.592027925247603	14	-0.04510258663656961	-0.0007535909693354019	-0.00245566269127343
Si	4.052331996525895	6.842411658466105	14.968960741255682	14	0.007650323880100609	0.005838465960992257	0.0015256938969758702
Si	0.00321829954980732	8.15987447670797	13.592109525134768	14	0.0007703031539163645	0.007794819999092932	0.003494903461677284
Si	1.3560122369365892	9.519116437178567	14.95645963854193	14	0.003980842367185271	0.03984056248835456	0.007924917928292424
Si	16.316011678583756	10.881051193925629	16.30750897034111	14	0.0016845882057610214	0.012779936104328041	-0.006352172803957844
Si	1.3697634499217193	12.214866629555459	1.3599779914528327	14	0.0214121651061932	0.0027027459125396605	0.025560129319188097
Si	2.7702019294266935	13.575283628401243	0.07965944184870441	14	0.0281003813754944	0.00044840076783382495	-0.006735267496659907
Si	4.117628226235728	14.988626314062568	1.3693782984542981	14	-0.04710342079670885	-0.025102986793265766	-0.003860000417138311
Si	2.703241062018684	10.867848332182252	2.7378067742219896	14	-0.02493895027384032	-0.026965495487181038	0.008574379132161828
Si	4.059839186145121	12.259159048308893	4.054763673163428	14	0.0415341495627361	-0.03610603201083948	-0.021534806829964268
Si	0.09484518085020396	13.580946660570527	2.7588758650881218	14	0.01503608102275798	0.01740175502782623	0.0011819371156720718
Si	1.3959439577198982	14.988397834378505	4.102124247674284	14	0.03109340507867878	-0.023394487308027373	-0.039594764819748406
Si	0.00716936608636083	10.852948192785831	5.465462522480592	14	-0.03011227128851027	0.03438673388325646	-0.007675777822770076
Si	1.3539820317439115	12.240929633516119	6.798527239148498	14	0.020780701639564834	-0.015131469030135476	0.018167173081634312
Si	2.719936398932745	13.599763594550891	5.449746384212515	14	0.020062077702583447	0.01363020063370101	-0.002842614041955716
Si	4.0557428718094135	14.992820548262875	6.791248529213336	14	0.0297098933059071	0.014550913448846039	0.03005930651891522
Si	2.7361747764786797	10.905400600255815	8.148107772978703	14	-0.05127066829960486	0.001246214748675774	-0.004425129366506859
Si	4.025860993129408	12.315789370001749	9.536856252648347	14	-0.04005704955631103	0.05334760717722047	0.059545256551437414
Si	0.00064463910860745	13.61107333891203	8.14861369227913	14	0.009110968812476734	0.009606420807669267	-0.011126201162408797
Si	1.3489848546538963	14.970005219811402	9.51116860816865	14	0.010677029062978927	-0.00471077916757531	0.05297788223218319
Si	16.316125918425787	10.854498590641974	10.836269175849203	14	0.03745946185136543	0.01615785427393859	0.031419935454337584
Si	1.2908384070575043	12.233161324257964	12.222912378429978	14	0.017773022636055607	0.05198980645765027	0.021040640387431805
Si	2.666733272500839	13.640384018381878	10.925686332205158	14	0.04072990781859377	-0.03904043451272447	-0.05421561233330247
Si	4.049949279820662	15.045093435981094	12.234009963084485	14	0.009056204269157578	-0.00556104369694828	0.09347639057196364
Si	2.684342528151154	10.924364414033077	13.615463412841533	14	0.01602544234995096	0.010945195347870373	-0.016086120435506453
Si	4.108570638760358	12.228216371095735	14.989491272866523	14	-0.02342714034559325	0.008009764403857311	0.0015424060815568325
Si	16.219038372676277	13.58238281858464	13.553806538099282	14	0.007513026856004702	-0.019107940518276495	0.020939853058881998
Si	1.6768776812510249	14.647261346094416	14.63644120105627	14	0.048447594658082266	-0.09336583304319727	-0.07228328363904706
Si	5.4603870094988975	0.012806286291753571	16.295546426882648	14	-0.0038322324796807115	0.009558855359246528	0.028727473963078516
Si	6.792505167475685	1.3823820564729923	1.3503589967537635	14	0.044535915024008985	-0.022500256877679866	0.0201029582771738
Si	8.177287892629085	2.7125108092006847	0.01881366998487768	14	-0.04514989497446035	0.02838654539762688	-0.027585131869336723
Si	9.524420429844326	4.081789555792641	1.37507397057845	14	0.012337963099794586	-0.025478368170007388	0.0026387253900679733
Si	8.119205092944684	0.035249519257752694	2.7352934976972922	14	-0.015867319372761854	0.003490532582633032	-0.013959559225211979
Si	9.519051157268835	1.3488999907712442	4.096820255008526	14	-0.047715343862904096	0.04324573437435868	0.0178856370490781
Si	5.448897745385994	2.7530822730993716	2.708936734142836	14	-0.012576047452440297	-0.014579709828431696	-0.003489504140504973
Si	6.812497139831232	4.090357543945019	4.078460280396288	14	-0.014017666205447327	-0.011622938710261406	-0.004580681238375818
Si	5.424940018514205	0.02992594261907547	5.4532388593832	14	-0.04033755714673918	0.015804841513482257	-0.00947452310474567
Si	6.80453299084388	1.3808365546100776	6.7857486968183816	14	-0.010482653500775731	-0.04113537112758113	0.008153489191253587
Si	8.168116065311684	2.726448069928552	5.426066096957088	14	0.018749014215583823	-0.004705636956935014	-0.006703900011754101
Si	9.493738872270098	4.092250661327258	6.797499080570213	14	0.0020350298608972045	-0.02463401718287076	-0.029245551685088356
Si	8.1482546527756	0.04587872055993072	8.171151581114241	14	0.02079021472924938	-0.05395901602235169	0.03184005406364978
Si	9.52807610478934	1.3833318791595985	9.513143325438055	14	-0.00764826699584449	0.001407937273313088	-0.001456531163863887
Si	5.4295096121954725	2.7201648786168087	8.144582657853153	14	-0.01138202614176353	-0.023542582974467898	-0.0036010901113993996
Si	6.791591248739431	4.062401422602118	9.500397423062802	14	-0.030235684343877384	0.031131971658480993	0.014654528993248006
Si	5.447902226762576	0.02260480074258681	10.865808335003114	14	-0.019377649466360027	-0.02916661875175981	0.02688476278012839
Si	6.798102919735238	1.3694386823708005	12.237665638029501	14	-0.005547673949283511	0.036107317563499546	-0.0022211778860759257
Si	8.158405678738989	2.7232167143967985	10.876775359838158	14	0.014249579905324685	0.009667870224820808	0.01048882415354409
Si	9.526950026346455	4.040369453067433	12.262863683186206	14	0.010476225737475362	0.08890470820220833	0.011313634740247592
Si	8.16351383167555	0.01586954605594644	13.59491656125326	14	-0.015237398569325575	-0.017395070153993844	0.008323953473979406
Si	9.524045070363364	1.3535136483915815	14.971784097351609	14	0.013073813442420968	0.010210887668436081	0.0064506461377195155
Si	5.457351493696341	2.7622377804393405	13.58079978077363	14	0.019032864242928167	-0.0322223774247558	0.01224077531869299
Si	6.841155020203756	4.073417407369461	14.97736552963373	14	-0.02369864906740089	-0.0009158277150367458	-0.01920718518363421
Si	5.447641107123646	5.459048771349383	16.287892357466525	14	0.004206585414294271	0.01251459803528876	0.07289469248417825
Si	6.795801802917171	6.786352535983406	1.3641950736215456	14	-0.014614419750253696	-0.014905211761962444	-0.03432914112408513
Si	8.180551888115707	8.120624930981363	0.01657456908105636	14	-0.002792220377680814	0.0024831735181990145	-0.05486533064770389
Si	9.522478352529786	9.502551660083972	1.360596518597547	14	-0.0013318325558367048	-0.025308932329409634	-0.05687259257114349
Si	8.16793654555992	5.447918546740008	2.72333095423883	14	-0.0030850692736456796	0.007627183932219276	0.00013909679782001108
Si	9.53675833278375	6.8039291516788545	4.074918845293306	14	0.015544645655083273	0.003420598517925004	0.0011143170457521775
Si	5.437767520776621	8.149266491376453	2.717700562024411	14	-0.010770103075568287	-0.014463752978493019	-0.00544123018902938
Si	6.812284980124602	9.504803816969739	4.054682073276262	14	-0.02134634480999741	0.048139062019664496	-0.026722526034427044
Si	5.442222874615857	5.441423195721636	5.432267688381666	14	-0.007560335193895426	0.019685153662649738	-0.0014004810678846587
Si	6.780134624581395	6.823023525275582	6.780934303475617	14	-0.03616259632788273	-0.010958050874471114	-0.0017866610869709
Si	8.16715318664313	8.157067440589476	5.426115056889387	14	-0.006516723544447321	0.01704205739353751	0.0058950302780355155
Si	9.539222649376148	9.530148741923345	6.7554914586574135	14	0.06417401745930001	0.07965104304446338	0.02115016947407011
Si	8.092358730067234	5.434683045041766	8.128654359878448	14	-0.07101650004781009	-0.027851755491036082	-0.00726054431356616
Si	9.81436114892078	6.525461376737869	9.262419512133338	14	0.09599401690145264	-0.09595056522154212	-0.07471092128233087
Si	5.416943229571985	8.189805315320275	8.115304618338172	14	-0.008153489191253587	0.06459824983712445	-0.019362737055503166
Si	6.743757394883016	9.577133956953238	9.473028820907492	14	0.38743857514045393	-0.20441829958369317	0.20185850712695375
Si	5.387453030350374	5.419554425961281	10.783000769507565	14	0.017416667438683087	-0.00938941951864877	-0.02737995766478891
Si	6.469647053916668	6.48761534907051	12.552951282059558	14	-0.041685330555560805	-0.04000382767618396	0.02944969744750811
Si	9.751039636480352	9.83768239667268	12.55195576343614	14	-0.2516767580312069	-0.04798351014779554	-0.037394927107829705
Si	8.234456773577236	5.407037003270093	13.643794893665396	14	0.08083066616534731	0.07324256303399429	-0.048069127954956464
Si	9.56182581812099	6.788343573230245	14.981461843969438	14	-0.019601078518680894	-0.06512275532243465	0.03330789809092232
Si	5.369680574925728	8.25022187177761	13.612917496361971	14	0.0468265127537289	0.016914530569658165	-0.023739786752523258
Si	6.772823274691366	9.454016047197932	15.024187544889292	14	0.028323553317283253	0.010588325929433819	0.0244211296623625
Si	5.437832800686354	10.837444214224385	0.031096085001028742	14	-0.046674560429308155	-0.024507518801119475	2.5453942669465983e-05
Si	6.816528174257208	12.231741486221285	1.3355665692084016	14	-0.009941435830884561	0.017406897238466525	0.08400366724094206
Si	8.178022291613576	13.642016016125188	0.030493877833747348	14	0.103171514513178	0.05635091530168545	0.05076158944621553
Si	9.504395817533911	14.990796871061171	1.4174667439586708	14	-0.026165110401018942	-0.059257806976644865	-0.056280981236977425
Si	8.162599912939298	10.868615371121606	2.6984266686759195	14	0.019540400433125403	-0.04129477965743031	0.020238969748609635
Si	9.584347386978669	12.176939002000935	4.020752840192847	14	-0.020675800542502794	-0.010354869566364373	0.02724574596707718
Si	5.444230231840128	13.583606816892123	2.691996597567278	14	-0.047007775678799345	0.018607860533507693	0.0336166878398721
Si	6.717792310786953	15.000441977724133	4.050487839075955	14	-0.015334586350427172	-0.0832264221026613	0.03911499656700877
Si	5.395302939495695	10.843776365468429	5.355335314762033	14	0.038695906399824634	0.07072776492035746	-0.08087951716643013
Si	6.501911649301906	11.952490352363512	7.095093869062792	14	-0.13424615052301972	-0.04477091405027052	0.06796305536960223
Si	8.440104809211729	13.875473293305683	5.16600725656064	14	0.09089474372000295	0.07038015148107343	-0.04830361276015397
Si	9.549651114955898	15.006806768923042	6.889755912999528	14	-0.040040851592794094	-0.029060174991505674	0.034769314354894484
Si	8.253159467715568	10.856293788159617	8.18319572445987	14	-0.005273851232687739	-0.05185970852845079	0.07788957878962993
Si	9.554857187757058	12.261101125623432	9.521433873974068	14	0.032083794847999815	0.07797622503891893	-0.1063558284521814
Si	5.388481188928659	13.69061690892096	8.201245619500876	14	0.060964506688159156	0.07131911914399151	-0.06419407208079717
Si	6.8121054603728375	14.996361983365858	9.522347792710322	14	-0.018750299768243894	0.06048576687754758	-0.053964415343524
Si	5.393279262293991	10.926273851392748	10.84278084684501	14	0.03999122926011524	0.01203765799840129	-0.07276819410242698
Si	6.722361904468221	12.32895959179026	12.156294230548063	14	-0.001062637828817201	0.030546788087615295	0.11207268113153065
Si	8.175052055720752	13.627523876164595	10.85489027010037	14	-0.024301573264975614	-0.060200631297543154	-0.01436219431834717
Si	9.517255959751195	14.975113372747963	12.23381412335529	14	0.024018751679759323	-0.006245471933171698	-0.010139925161599993
Si	7.852030742387403	11.197968835698997	13.888202875703502	14	0.3187720653552592	-0.120760188897779	-0.17852264102022575
Si	9.593535534273505	12.309555138622306	15.031188815208093	14	-0.2166860715082477	-0.11486772972506364	-0.12828735683304454
Si	5.396559577758044	13.651759042652747	13.589563608655205	14	-0.008774668236601365	0.028919278419961558	-0.13019948785963867
Si	6.819841129676127	14.957667316871978	14.94609645287191	14	-0.06069068397156338	0.04155523262636131	0.00951617501093207
Si	10.864355857011567	16.314102241224084	0.02112131479391802	14	-0.0065241797498757515	-0.007619984837322862	0.010713281647993015
Si	12.22044806183758	1.3954151904510659	1.3416522887932045	14	0.02383517475990075	0.01764883824909246	0.03297879660994337
Si	13.602195271188425	2.726431749951119	16.309516327565383	14	-0.021499068466014206	-0.024936379168520175	-0.023911279477377135
Si	14.97183305728391	4.069892292243911	1.3499575253089091	14	-0.015032995696373803	0.028713332883817704	0.004706408288531059
Si	13.56168908719947	0.10283544180144971	2.7555302697143365	14	-0.03221852076677558	-0.040976733929328	0.045505993061300855
Si	14.98606407760557	1.3955751262299103	4.088333866743314	14	-0.0743121428471759	0.03850024528496136	-0.0011264012407568734
Si	10.873625604193569	2.7210298374207627	2.7385574931839125	14	-0.02848964672096482	0.004460610619924902	-0.0016735324528843847
Si	12.23567460078266	4.087713707600856	4.091402022500737	14	-0.01199754875540698	0.017303024583532542	0.01690090371146138
Si	10.876497920221794	0.03101448511386324	5.5012032730590805	14	0.05316685847321406	-0.0400477935771585	0.008112351506131219
Si	12.25230465778699	1.4083112366187014	6.812970419176792	14	-0.029313943086604295	0.02072490865411762	-0.01391739309796155
Si	13.611660858099622	2.741054449731177	5.440231837369018	14	0.02815540302934557	0.0220233168407924	0.04217589745064506
Si	14.947499970931156	4.103266646094601	6.808156025834028	14	-0.024330626755093288	-0.002909977001343596	-0.019511089832475712
Si	13.605442946697611	0.02216905734512304	8.14898905176009	14	0.005916884673256774	0.016329604109324478	0.009674040877589161
Si	14.977757209092124	1.3632305629552495	9.50475485703744	14	-0.005146324408808396	0.002540509166838317	0.04492723725373552
Si	10.884347829367115	2.766888974007774	8.174056537097332	14	0.006276839418077506	-0.04211881891253778	0.010266937764415309
Si	12.266813117725016	4.079961718320134	9.565024533697878	14	0.02206831118389499	-0.025167521536801487	-0.024182016867588727
Si	10.872303686021487	0.00285762804853581	10.858611224955116	14	-0.0020897944042163586	0.04118885011824021	0.002869096426753241
Si	12.22286341849768	1.3724774621688438	12.206494481132278	14	-0.00519903206787143	-0.038596404623934905	-0.0035725508423457555
Si	13.634818906077191	2.7041386607775046	10.87963135588895	14	-0.043894424246632036	0.03820456817314433	-0.029275376506802075
Si	14.968585381774721	4.085461550715088	12.240684833854624	14	0.011594142330675747	-0.003466107082091625	0.005236570205545593
Si	13.545450709653535	0.00628645530723012	13.552468299949767	14	-0.02230716686813675	0.06732876368712169	-0.01397447163606884
Si	14.882889180273512	1.3679747803950515	14.887834133435742	14	-0.034005953185342525	0.09965604220893955	-0.06571616643032482
Si	10.890679980611157	2.7030452222894867	13.61396197491769	14	-0.0019198443425545706	0.0006224645980078499	-0.004596622091360736
Si	12.248420503157913	4.08378059303948	14.955855799376902	14	0.014180931393276731	0.0013390316507331196	0.020470112116890947
Si	10.900684126777648	5.426490416370349	0.01837466259192729	14	0.01022040075812063	0.005532504427894637	-0.026654905964507147
Si	12.260187206887178	6.792994766798678	1.3655398397620329	14	0.003979042593461167	-0.000691884441651848	-0.001317177255511861
Si	13.631685470410035	8.1506210495034	0.01784752732083816	14	-0.0006744009254748412	-0.042305224048248505	-0.011286895244918051
Si	14.973546654914385	9.526411467091163	1.3631114271199878	14	0.006968980970261368	0.01380657845866317	0.009444184061967923
Si	13.60802150313204	5.422524661854105	2.7179616816633403	14	0.005124470013587136	0.0010099301697541654	0.009379135097368176
Si	14.969238180872045	6.7865646956900365	4.0653226985626425	14	0.004069802611262395	0.02592934004316136	-0.004542114658573597
Si	10.901075806236042	8.161310634722081	2.7171946427239844	14	-0.01794091581346128	0.0016015415039202386	-0.006794917140087343
Si	12.282186536466996	9.529267463141958	4.048170402280455	14	0.029621447282894002	0.028226879757245686	0.004553170411450233
Si	10.880463674738037	5.455899015704794	5.45919565114628	14	-0.005361011703040759	-0.006459645006340034	-0.03107360756771364
Si	12.258522569189003	6.840469581151566	6.783937179323308	14	0.028099095822834326	-0.003719103845594196	-0.03468703898464975
Si	13.627311716457964	8.159335917452676	5.408163081712977	14	-0.004760401500254168	-0.017724685856036825	0.008652026512830301
Si	14.959070834931223	9.50449373739851	6.8025909135293405	14	0.034841305303858636	0.0015868862035953943	-0.00807172804207288
Si	13.582284898720042	5.459685250469274	8.168344544995746	14	0.040501336555632615	-0.00017689204602618782	-0.0010937482031909927
Si	14.976859610333303	6.794104525264129	9.510091489658064	14	-0.006106889356415716	-0.00023397058413347516	0.005045794190790605
Si	10.91827706245053	8.23359181477328	8.118389094073027	14	0.026276696371913367	0.0651875471765024	0.015281364470300107
Si	12.275495345719424	9.537835451294335	9.503057579384398	14	-0.054900811901121935	-0.021938727475759527	-0.009648072713855666
Si	10.931088244735514	5.394878620082434	10.981386415184328	14	-0.03371336139990967	0.05736881589793207	0.03749082933627123
Si	12.287311009380991	6.804745150550509	12.252027218170628	14	-0.08625646972245582	-0.02834283660718436	-0.04068131392804298
Si	13.618923248057351	8.154178804583816	10.857240346850736	14	-0.05230939484894468	0.007987395787572021	0.034808652266292754
Si	14.968210022293759	9.508769571485983	12.21744518598989	14	-0.011447846437959323	0.028777353406289386	0.014607991986953325
Si	13.623460201783752	5.443022553510079	13.612150457422615	14	-0.024990886601307317	-0.005806584255022422	0.006902903563533562
Si	14.981461843969438	6.800159236891809	14.966545384595584	14	0.00020903086252803884	-0.009813394785941188	3.8823690334235994e-05
Si	10.916449224978022	8.115386218225337	13.615316533044638	14	-0.039422500763298486	-0.13190618757115294	0.030213572838124102
Si	12.267596476641806	9.46958530566911	14.965859945543395	14	-0.02706396882094271	0.18306115613135113	-0.02341325637686445
Si	10.892703657812863	10.828256066929551	16.314167521133815	14	-0.0018288272142213287	0.0475088841056962	0.013241706619826637
Si	12.24904066230037	12.228167411163437	1.2980681570603676	14	-0.026574173257454498	0.06669832866262139	0.029344539239914053
Si	13.565899641377209	13.581240420164322	16.21812445394002	14	-0.008978042667425077	-0.029120081745465126	-0.01282313067370653
Si	14.632850806020988	14.64412791042726	1.6861147884781598	14	-0.08324133451351816	-0.10252308175143665	0.06109768994374283
Si	13.632158749755595	10.91768954326294	2.69911210772811	14	-0.01958102389718374	-0.010691941473835787	0.0016197963516932897
Si	15.017055714751027	12.232688044912404	4.0959063362722725	14	-0.03349713144248522	0.018101095674906507	-0.013529927526215239
Si	10.918897221592987	13.601705671865432	2.695064753324701	14	0.013328867090179655	-0.10013015402997484	-0.03768520489847442
Si	12.219142463642932	15.009793324793298	4.10210792769685	14	0.033469877726091654	0.024518317443464097	0.009861474455427958
Si	10.929554166856802	10.872499525750685	5.420517304629834	14	-0.06546754054586651	-0.034766743249574336	0.012903092049163133
Si	12.26730271704801	12.264724160613579	6.768955440039721	14	0.002383671742309284	0.006455788348359811	-0.01841245652917644
Si	13.62822563519422	13.627393316345131	5.407771402254583	14	-0.0239071657088649	0.001510010154522967	0.008517557704586556
Si	14.962351150395277	14.97537449238689	6.796389322104762	14	-0.015248711432734223	-0.009138479639402317	-0.012592759637021262
Si	13.61232997717438	10.898546209733912	8.135541390355217	14	0.002460033570317682	0.017017631892996106	-0.003783895699661927
Si	14.969825700059637	12.244536348528836	9.500283183220771	14	0.006839911483189934	0.005402663609227158	-0.014794654233196076
Si	10.918146502631064	13.602848070285749	8.162126633593736	14	-0.04787938038232954	-0.004421272708526637	0.03458033811386361
Si	12.256939531377991	14.9771044099948	9.509569250380205	14	0.010324787634118641	-0.0090739448958666	0.005623521556227878
Si	10.920741379042928	10.90079836661968	10.83677509514963	14	-0.023908965482589004	0.024921980978727346	-0.10033892778197087
Si	12.270631992444363	12.25472001444709	12.198187612618831	14	-0.024789826165271735	-0.0260203571714946	0.15053795938413803
Si	13.621485484514348	13.614680053924745	10.853960031386682	14	-0.00022060083646870514	0.012838814416159432	-0.05306787091838836
Si	14.931277913362656	14.993228547698703	12.211896393662636	14	-0.012645724406616312	-0.03573604995527017	0.03525088238135822
Si	13.584618655492976	10.850190116599638	13.570599794877943	14	-0.014521345737664337	0.012753967940594546	0.018878597923719286
Si	14.937365264945202	12.205172562960197	14.931424793159552	14	-0.018807378306351184	0.03857069357073342	-0.023111408612279064
Si	10.894613095172536	13.604137348502963	13.5619502068384	14	-0.03992540896391945	-0.005986047406368758	0.034561054823962496
Si	12.20571112221549	14.982881682006118	14.931490073069284	14	0.0663825969293072	-0.027084537663503893	-0.027277370562515
H	5.6707841585664225	11.040219933830654	8.014838837260008	1	-0.18750942544573934	-0.013131149091060269	0.005934368189433781
H	2.555006706993837	13.765884644842417	13.751245625084925	1	0.06445503927079219	-0.060128383238047006	-0.07706193998707427
H	7.4852718895333465	8.647825481980226	10.425283184151445	1	0.016061437824433037	-0.05851141510220588	0.039987886823199044
H	10.35176168581533	10.80677897662759	13.525426097343122	1	0.42718657783728314	0.17226868443949758	0.18390216468157156
H	15.699589810958138	0.4207339142185479	15.711323874732535	1	0.003217224087101291	-0.06666233318813933	-0.006937870595887576
H	5.595141063164004	5.602729852670396	13.435160302160646	1	-0.09331749626317848	-0.10016434973073281	0.10872330223097376
H	0.6389940284133406	0.43178253894075663	0.5776929291791305	1	0.09243277892251553	0.039765743323538244	0.11100053021302891
H	10.72281269273429	5.628303257308064	8.42163059475746	1	0.046479156424976895	-0.0706989685407718	-0.1766380208205572
H	13.75336722215123	13.761102891454518	2.569090847518602	1	-0.0528166739286099	-0.07446872316117292	0.04396358697974402
H	9.320175912269079	14.765124223116263	4.277874084651337	1	0.08925052186776825	0.09849595948848873	-0.0659498799039263
H	6.935321289992743	12.103466463597119	14.777609005852584	1	-0.228654309663005	0.06686056540832273	0.09726954225077811
