223
config_type=interstitial sigma="0.001 0.1 0.388960189991141 0" dft_energy=-23338.488922907003 dft_virial="5.715250974428501 -3.5785953097834993 4.6045131525431024 -3.5785953097834993 7.347025810943776 5.743524300803764 4.6045131525431024 5.743524300803764 8.40525602670368" pbc="T T T" Lattice="16.3852778749 0.0 0.0 0.0 16.3852778749 0.0 0.0 0.0 16.3852778749" Properties=species:S:1:pos:R:3:Z:I:1:dft_force:R:3
Si	15.530523469277968	15.489822439036717	14.592367999272694	14	-0.20405345973876415	-0.24136996813432934	-0.32380886067742926
Si	0.10520823070694542	0.055808256441909405	0.15418054921944654	14	-0.33565651399267166	-0.2338235169091627	0.17964595693459845
Si	1.4547488723173343	1.455273201209331	1.52879230450622	14	0.011460701964560062	-0.0430413315014069	0.11663587885372947
Si	2.7673587361254857	2.7775667642415485	0.00957555639009156	14	-0.00844608097668644	0.07155514661238112	-0.13030490317776472
Si	4.120848229703726	4.121290632206349	1.3986948367073015	14	-0.012985624529939887	-0.005138096871783921	0.11816851473506973
Si	2.8044058494006348	16.378527140415542	2.793362172112952	14	-0.03957650997197536	-0.09977482727473037	0.00674503769687647
Si	4.133481278945274	1.3898140160991057	4.147294068193814	14	0.004439013335235658	0.017571705089488018	-0.009784341295823515
Si	0.004179884385886991	2.815678920578566	2.8131228172300817	14	-0.12816162978288928	0.11726142877812148	0.10902386444289908
Si	1.3947558159061755	4.159894346879613	4.153340235729652	14	0.0653459272642235	-0.014530344606284855	0.014105083786332361
Si	16.38396705267001	16.37510261733969	5.454380454830337	14	0.0002403983474338454	-0.023813577475211505	-0.0004288603674006996
Si	1.3417412493419365	1.358532882108134	6.8346762630119136	14	-0.0004239752672924182	-0.017903120565255105	-0.006374284309711117
Si	2.723118485863256	2.7338672281491903	5.497506506197074	14	-0.01432362773854495	0.0020386294083454114	0.04672855364103126
Si	4.072659127473645	4.065138284929066	6.906263542047351	14	-0.08130452087585062	-0.08122198839507387	0.05144241813499075
Si	2.6987863482190293	16.371235691761214	8.199061966376961	14	0.0011613682731108875	0.10531813034496966	0.017266771998518456
Si	4.070561811905658	1.336396371699144	9.586124894320871	14	-0.012363417042464053	-0.028893824477292093	0.007834672131555228
Si	16.376462595403304	2.7210375555731434	8.21949440788696	14	0.0957937277970131	0.02355363872734454	0.01486176008205194
Si	1.366561668266835	4.09237061675715	9.573803165358946	14	-0.04792360339383609	-0.027054969952322188	0.008844859411841407
Si	16.32665135066361	16.34370842493138	10.964733018881335	14	-0.0121055351788532	-0.046769948436685645	0.1836926195979795
Si	1.329193403545338	1.323040731703313	12.336852573403334	14	0.06988958458598919	0.10115936748963011	-0.10220992112344263
Si	2.713778877474563	2.7146800677576826	10.944120339314708	14	-0.08956034005884611	-0.08576795971162768	0.05811880731981928
Si	4.086701310612434	4.084882544768321	12.29811777650707	14	0.0019177874582984521	0.003979299703993182	0.03748363024137481
Si	2.7900031901485978	0.02120582662569558	13.679937415531011	14	-0.11228479732044287	0.028627715076656773	0.04682419875894077
Si	4.128926171696051	1.3859978848820413	15.051155779769894	14	-0.016975979986809706	-0.05997128870298596	-7.893293332854602e-05
Si	0.00608713073052535	2.7798934736997847	13.66909036157783	14	0.01246806102899408	-0.1368766483760632	0.00032113105448649507
Si	1.3731616581948447	4.121536411374472	15.038883206641593	14	0.007835957684215302	0.01977051435927865	-0.01234721907894712
Si	16.37921532208629	5.477139605798573	0.0035310273820409505	14	-0.021527350624535837	0.02477979885452316	0.00722737705493625
Si	1.3623555674363481	6.838379335811641	1.3575776204080272	14	-0.032323678974369635	0.001629052330845823	0.0033141547576708737
Si	2.7341457778730636	8.198111620260217	16.377167162351927	14	0.02982070794520548	0.0035756361687299338	0.008469478035099785
Si	4.099842303468105	9.558106069154793	1.3610693231231685	14	-0.023194455314119847	0.017170612659544914	0.002607357905162167
Si	2.733703375370441	5.498194687867819	2.735227206212807	14	0.006653249236947185	0.03771657238338023	-0.011268383286612987
Si	4.082310056141961	6.89164787418294	4.077132308333493	14	-0.07862851445864048	0.046147226728145786	-0.07428026114120606
Si	16.38403259378151	8.190131989935141	2.7327038734200726	14	0.00683374083042158	0.0021193621153980614	0.014793368680536
Si	1.3606875461486834	9.552993862457823	4.10200516014759	14	-0.0076420963430761345	0.018230936493573983	-0.030213572838124102
Si	16.365238680059	5.467570603519632	5.502700639283417	14	-0.029512946638383754	0.014107140670588478	-0.0029742546343472977
Si	1.3677840099963026	6.824894252120599	6.8436390100094835	14	0.010882717488590774	-0.009374764218323926	0.004778399237495205
Si	2.7202674475130233	8.20186384889357	5.475861554124331	14	0.00016660762474559552	0.006419278652813709	0.010985047480332667
Si	4.106068709060566	9.552059901618954	6.823206568499483	14	-0.009522859884764456	-0.002080024203999796	-0.010089274386793077
Si	2.726231688659487	5.470388871314114	8.225835510424547	14	-0.006378912299287384	0.01473063371072439	0.027589245637848963
Si	4.102676956540462	6.829744294371569	9.572918360353702	14	-0.009180388656120732	-0.0031046096740788053	-0.014286089600870787
Si	16.381099629041902	8.188067444922904	8.188985020483898	14	-0.03778316401117206	-0.007092394025628476	0.005562329249608354
Si	1.3642087423639995	9.53829626820404	9.549323560213846	14	0.04618013687624367	0.011323919161528185	-0.011885448563448524
Si	0.0026527764879463104	5.472387875214852	10.923868135861332	14	0.010748505790879045	-0.01549579465400046	-0.01122261761191435
Si	1.371239665100119	6.828318775196452	12.291891370914609	14	-0.03066557315340614	-0.009043862963620867	0.008923278124105923
Si	2.73396553981644	8.19203268216863	10.928718178112304	14	0.009652700703431934	-0.0010089017276261063	-0.0038013792158389345
Si	4.110935136589411	9.536608584582924	12.298412711508819	14	0.017323593426093728	0.01590177218405184	-0.050593182047745835
Si	2.7382748678975384	5.469848157144242	13.661782527645622	14	0.06047856778265117	-0.01405469012205746	-0.004848847523267263
Si	4.106380029340189	6.827024338244335	15.029052039916653	14	-0.009894898824589882	-0.00638456873099171	-0.006202534474325226
Si	0.0061100701195502104	8.1966861010851	13.650099824520819	14	0.003015649430001682	0.015062563407555506	-0.008962358924972175
Si	1.3732075369728944	9.563709834188009	15.007882260902283	14	-0.048962072832643894	-0.009468352451977316	-0.008424226581465181
Si	16.38499932517613	10.900256950443602	0.00040963194687250004	14	0.02109129116223872	0.025174463521165882	0.01351090134684614
Si	1.35260796562857	12.25872756849581	1.3854457010176573	14	-0.0024728890969184223	-0.03367685170436357	0.042949028820413584
Si	2.796409833797684	13.579413735768501	0.08208860362546153	14	-0.10692429983846613	0.1156346904420638	-0.08667607411070398
Si	4.133481278945274	15.020728318756204	1.3848853245143355	14	0.024166590235667838	0.0625400800283459	0.006049553707776416
Si	2.735718764549054	10.909711255777419	2.741666620417643	14	-0.0019692095647014136	-0.0024368936224363493	0.011766920608189697
Si	4.107740007403806	12.28102793168355	4.0946809409375104	14	-0.017154928917092013	0.0006348059035445607	0.01009364526583733
Si	0.020239095231076483	13.656129606778784	2.7466477448916122	14	-0.02155486145146142	0.014169361419336064	0.008881111996855493
Si	1.3898680875160927	15.01904063513509	4.1113119979805335	14	-0.014645787235159502	0.0313906248536879	-0.04650666725190248
Si	16.38005097125791	10.920836859454475	5.459017488468934	14	-0.003174543738786833	-0.00022240061019280884	-0.002581903962492701
Si	1.3774906486093932	12.274719599701713	6.815751267066404	14	-0.0033113265418187104	-0.010199574805027428	-0.010273879748779708
Si	2.7481879610118534	13.643136081423986	5.465653526008269	14	0.0033468077952367547	0.0014081943838451028	-0.022256773203861845
Si	4.087979362286676	15.001295379196574	6.855927968415659	14	0.00015143810335672186	-0.0007049970787846031	-0.02008470342940075
Si	2.7258384419904895	10.89553799041563	8.181791883496818	14	0.0031912559233677955	-0.010669315747018484	0.013953388572443626
Si	4.133481278945274	12.215437664350324	9.526695491468608	14	0.044315571298072294	-0.04047999638147539	-0.04004059448226208
Si	16.36976101675247	13.62262171352461	8.1599994639232	14	-0.0343998465203892	-0.05426343489225722	0.03523082775986107
Si	1.27317541554663	15.033443294387126	9.532299256501826	14	-0.0051681788040296535	-0.014917810178031168	0.0562110471722694
Si	0.015071178589333023	10.916855236930875	10.901666084340842	14	-0.04959122230448414	-0.0024608049019137265	-0.057817473776297916
Si	1.4880585037092184	12.264085554360904	12.167707349900741	14	0.03407768702377466	0.023628457892160847	-0.06859271906250648
Si	2.8907890343571077	13.810724703528464	10.76442299686068	14	-0.1475914726872483	-0.08806524231517998	0.1599777725670617
Si	4.157600407977127	15.038326107193848	12.354089885727728	14	-0.004002696762406529	-0.011454017090727676	0.007826187483998739
Si	2.7553319421653093	10.92031253056248	13.640399740018879	14	0.046222045892962096	-0.0019617533592729843	0.05946246696012865
Si	4.124092514722956	12.26284027324241	15.028118079077784	14	0.015889430878515128	0.024096913281491824	-0.06481165157869673
Si	0.11322554717113399	13.490441676907794	13.62385060936523	14	0.06212587496127005	0.12221414895632274	0.11459879210857615
Si	1.524101199450636	14.966050646487663	15.053629956729004	14	0.16122938663690975	-0.04626061247276431	-0.05518414770740226
Si	5.485905729461646	16.376724759849303	16.385228719066376	14	-0.0025317674087498134	-0.01860194699127135	0.0015172092494193815
Si	6.828843104088449	1.3633993096369792	1.364575772588397	14	0.0014663013640804495	-0.010705825442564586	0.00751559796132485
Si	8.190181145768767	2.7316224450803293	0.00019334627892382002	14	0.005874975656538361	0.014208442220202315	0.002002633933863339
Si	9.560531090280277	4.0987117192947355	1.3569156551818813	14	0.012091908320656415	-0.029440184357823564	-0.0005525305332998221
Si	8.183479567117931	16.38444222572838	2.7328513409209463	14	0.005860063245681502	-0.008925849229426071	0.006884905826292526
Si	9.544457132685	1.3654376382046167	4.095385507886131	14	-0.0007888151122214306	0.002295482829828205	-0.024986772832795077
Si	5.4891991703144996	2.734129392595189	2.745697398774868	14	0.025358297551556472	-0.02282113082163435	-0.015998445744089405
Si	6.895383717538418	4.078213736673236	4.080229125851848	14	0.03931837099783249	-0.06594628035647809	-0.07387274094796258
Si	5.464539327112775	16.37336577788495	5.499112263428814	14	-0.004178560366304659	-0.01625915582355242	-0.01307561321614507
Si	6.821584425989869	1.3643463786981485	6.848521822816204	14	-0.005041937532810383	-0.0016899875269333323	-0.0017336963173758494
Si	8.202945277233313	2.7181373613892865	5.484938998067026	14	0.011647364210802813	0.00610380403003154	0.01410971177590863
Si	9.553878667463067	4.107838319071055	6.8286300954760755	14	-0.009412302355998088	-0.0014400760898149391	-0.01513069769853943
Si	8.176810759022848	16.374283353445943	8.19932413082296	14	0.016794717061739267	-0.0176825197287864	-0.006684102500788961
Si	9.5363628054148	1.3654163373433794	9.554124446631192	14	0.009170361345372153	0.04724765980516916	0.001185536663120279
Si	5.4555274242815806	2.7035380788027505	8.23778037799535	14	0.01810778054873889	0.010940053137230076	0.005916884673256774
Si	6.822616698495987	4.093124339539395	9.569985395614095	14	-0.006657105894927406	-0.012716686913452398	-0.0006846853467554334
Si	5.477139605798573	16.384655234340755	10.943202763753714	14	0.002945972475825669	0.029183330936340773	0.0017270114435434646
Si	6.83931329665051	1.3824914354168127	12.29126873035536	14	-0.016076864456353927	-0.03803564655361061	-0.0055006227219248005
Si	8.199176663322087	2.7432068365378837	10.92991430339717	14	-0.0020753962144235295	0.0065036109073145654	0.025563214645572273
Si	9.552698927456076	4.1125081232654015	12.296806954277079	14	0.009477608431129849	0.012984338977279814	-0.06228965437016348
Si	8.205452224748171	0.009660759835041041	13.64361125448236	14	-0.007974540260971283	0.020408148478675378	0.011322376498336095
Si	9.5565986235903	1.3680150424143385	15.024988491003679	14	-0.01272002935036859	-0.006831683946165461	-0.0033038703363902815
Si	5.476303956626953	2.7430429837591346	13.662765644318117	14	-0.015382408909381926	0.07798188147062325	-0.0003830946927020638
Si	6.83366037578367	4.109624314359419	15.028429399357407	14	-0.014959462084217567	-0.018729473815150697	0.0011639393784310353
Si	5.474337723281965	5.472682810216601	0.013878330360040301	14	-0.003090211484285976	-0.003641199354393709	-0.09561375042460273
Si	6.840640504158377	6.836495028856027	1.3722784917173876	14	-0.0015999988407281497	0.0007877866700933714	0.02198012227141391
Si	8.20568161863842	8.198963654709711	0.005692245533740261	14	-0.014107397781120495	-0.009337997412245808	-0.02608874857301054
Si	9.574327494250943	9.570968512286589	1.355503244229065	14	0.011672818153472278	0.008213138834681024	0.015611237282875107
Si	8.219478022609087	5.474829281618213	2.7246259314277466	14	2.0311732029169824e-05	0.014007124673634718	0.009740889615913012
Si	9.567920850601856	6.840755201103501	4.092731092870397	14	0.0012675549228330029	-0.0023533326995315365	0.0040386922368886025
Si	5.478794518863938	8.215824105642985	2.723642814755253	14	0.018906365861176885	0.0010328130071034834	0.010655688888821698
Si	6.8436390100094835	9.565741608644496	4.09063377730241	14	-0.017322564983965668	0.001340831424457223	0.000821725260319326
Si	5.330786303819967	5.327165157409613	5.343124418059767	14	0.17296802508657783	0.15611391549194314	0.14873381478099013
Si	6.790632636084182	6.793287051099916	6.7941227002715365	14	0.0579874238379597	0.059282489587718284	0.0469028745817373
Si	8.174271040952238	8.172927448166496	5.459099414858309	14	-0.01747657419264254	-0.014842733902682847	-0.0916318796152894
Si	9.54966765104922	9.543637868791254	6.815243323452282	14	-0.012723114676752769	-0.021136285505341315	0.08778190650889967
Si	8.162440870326561	5.457526428182319	8.177449784859968	14	-0.014585880481200053	-0.07916099037044316	-0.01636714224699864
Si	9.543605098235506	6.811671332875554	9.545882651860117	14	-0.0074564625389614446	0.08248054444928635	-0.013128063764676094
Si	5.461770215151917	8.171043141210882	8.178531213199712	14	-0.08426514865200113	-0.012638268201187883	-0.022755310525438558
Si	6.8326772591111755	9.541786332391393	9.539262999598657	14	0.08749754226049129	-0.01763006918025538	0.006193278495172693
Si	5.453856125938341	5.451332793145606	10.934207246200394	14	-0.0055636148022684285	-0.006546291255629024	0.0008253248077675333
Si	6.822256222382739	6.819257716531633	12.289138644231626	14	0.0030645004310844953	-0.0010538960707286976	-0.02945278277389229
Si	8.182578376834812	8.174271040952238	10.912300129681652	14	-0.0005957251026783099	-0.005248140179486258	0.019500034079599077
Si	9.5403444279384	9.538263497648288	12.280978775849924	14	-0.00035944052375670146	0.002428151864347846	-0.014670984067296956
Si	8.191721361889007	5.473633156333345	13.659455818187388	14	-0.0043174000535926545	0.004827250238578018	0.02772140045130457
Si	9.55856485693529	6.83921498498326	15.019286414303213	14	0.021038583503175685	-0.006862022988943208	-0.019476894131717742
Si	5.473272680220097	8.181808268774692	13.661995536257997	14	0.006759178776137285	-0.0007754453645566606	0.043704933784537124
Si	6.84172193249812	9.549094166323597	15.020253145697831	14	-0.007908462854243476	0.023586034654378404	-0.02070176870623629
Si	5.482890838332663	10.907843334099681	0.00436995360923583	14	-0.006568402761382297	-0.02202923038302874	0.023518157473926493
Si	6.840460266101753	12.288089986447632	1.3622572557690986	14	-0.01084826467730079	0.01072845116938189	-0.012950657497585876
Si	8.209237223937276	13.649804889519071	16.382246598493147	14	0.005534818422682769	0.001322576576684172	0.0017084994852383985
Si	9.552223754397705	15.015485029836237	1.377415276331169	14	-0.011862051505035177	0.012382186111301133	0.01831758274286297
Si	8.207090752535663	10.926719174211565	2.7227416244721336	14	0.0036106032010839477	-0.0005093359639213344	0.012091394099592387
Si	9.572459572573205	12.290449466461617	4.080048887795225	14	0.007189838917262088	0.012449034849624984	-0.005900172488675812
Si	5.48344793778041	13.648510452566954	2.7427972045910107	14	0.0007906148859455343	-0.01835306399628102	0.01335946324348942
Si	6.827089879355834	15.024578859056806	4.109034444355923	14	-0.010801470560474095	0.008562037826625119	-0.003437310702505967
Si	5.472404260492727	10.917527033323747	5.456887402345197	14	-0.010772159959824407	0.0006186079400276279	-0.005516820685441732
Si	6.84021448693363	12.28687747588489	6.8075750134068285	14	-0.01414467880826264	0.000804498854674334	0.004385534344576578
Si	8.197505364978847	13.647379868393585	5.441419700031291	14	0.0015413776394287734	-0.02777102278398343	0.0018077441505961142
Si	9.53054603176921	15.012339056484256	6.818422067360012	14	0.00040623464058339655	0.00888676842855982	-0.01984507641356295
Si	8.192819175506624	10.917379565822872	8.176270044852975	14	-0.009637274071511045	0.0025741906465322566	-0.03012101304659877
Si	9.553731199962195	12.280880464182676	9.54596457824949	14	0.013134748638508477	0.004212756067062627	0.0629794819275592
Si	5.47114259409636	13.62462071742535	8.19019753104664	14	0.03350355920578559	-0.01595525117471092	-0.026199563212308926
Si	6.815554643731905	15.003507391709684	9.5648240330835	14	0.004725434467900155	0.0045683399328391066	0.006769463197417877
Si	5.478401272194941	10.88898387926567	10.930274779510418	14	-0.03486547369386802	-0.002930545843904781	-0.003663310860146983
Si	6.836298405521529	12.278963386671313	12.281290096129547	14	0.02631217762533141	-0.0219104453172379	0.012158242837916236
Si	8.198177161371715	13.648920084513827	10.916691384152125	14	-0.007541823235590361	0.0063074355713872675	-0.026406280080048826
Si	9.55843377471229	15.02305502821444	12.273326851082347	14	0.003453251555490885	-0.07314434681076463	-0.005002085400348089
Si	8.197210429977098	10.917117401376872	13.650148980354444	14	1.2598416068725587e-05	-0.013501388257161592	0.002122704552314254
Si	9.567904465323982	12.289744899512998	15.002409578092065	14	-0.016866193789639383	-0.0075806469259245965	-0.0060742363188498365
Si	5.49565496979721	13.633337685254796	13.680379818033634	14	-0.036777861830994164	-0.0007515340850792835	0.0005119070692414826
Si	6.857091323144776	15.021088794869451	15.01730379568035	14	-0.01934268243400601	-0.009492520841986707	0.007066940082959009
Si	10.902452577678838	16.380345906259656	0.01030797831109959	14	-0.003191770144431825	0.0006144941715153909	0.018130406275556194
Si	12.257039884874697	1.3523638249882342	1.3901138666842163	14	-0.0313646566899544	0.034787054981603505	0.0007618185063598758
Si	13.585853149973337	2.7899048784813485	0.08340434143881598	14	0.11487518593049206	-0.12769574549887847	-0.03507321900373599
Si	15.02231769071007	4.127287643908561	1.3924667925870517	14	0.05211244818142134	0.01314297617553295	-0.04132331892648396
Si	13.64652783394409	0.00819755452081247	2.7402574865204015	14	0.08746180389654123	0.008757441830956371	-0.005566443018120591
Si	15.016648384565354	1.3726324137194854	4.102218168759965	14	-0.0529763395689911	-0.006086834734918562	0.1264220199232771
Si	10.909858723278292	2.7392415992921575	2.740667118467274	14	-0.005622493114099819	-0.0024592622387216373	0.023804835717123003
Si	12.285501112543399	4.1116888593716565	4.0877663536743025	14	0.010746448906622925	-0.00825299096714332	0.00970335147823885
Si	10.890016151771789	16.367811168685357	5.447711646735253	14	-0.006747865912728634	-0.011846367762582275	0.009753488031981738
Si	12.203705805391897	1.3976576486178203	6.787535818565826	14	-0.018516586294642434	0.05744723461019659	-0.05847696229091589
Si	13.625685760487219	2.7325727911970734	5.460279154865302	14	-0.006865622536391416	0.04529953330409296	-0.03669635779234548
Si	14.998821202237462	4.071725166634775	6.847030762529588	14	-0.0023111665722811083	0.055331729152778744	0.005084360770592826
Si	13.760094194895023	0.13692029750602688	8.04687550547489	14	-0.07708610837708366	-0.20098561687076347	0.1532098520328359
Si	15.027692061853037	1.37349100228013	9.620239042856413	14	-0.006969495191325397	0.041425391807693834	0.04852421359662268
Si	10.896848812645622	2.7446159704351247	8.203944779183681	14	-0.01749534326147962	-0.0021268183208264907	0.018071270853192788
Si	12.284321372536404	4.107297604901183	9.549372716047472	14	-0.02485950311944775	0.021362542773514348	-0.0018193141245367805
Si	10.915462488311508	16.38373765877976	10.891343359279656	14	0.012467803918462065	-0.000240912568497875	-0.04945032573294002
Si	12.224089091068272	1.438710962333382	12.227185908586627	14	0.07741289586327449	0.038645255625017715	-0.06343276779550132
Si	13.655457810385911	2.768210770574981	10.921918287794218	14	-0.033190655688323564	0.008259161619911673	0.03645133145533536
Si	15.017811739294473	4.1234534888858345	12.295365049824088	14	0.005920998441769011	0.008682108445076032	0.024966718211297922
Si	13.510300633692173	0.08979132275445201	13.66718966934434	14	0.04412788060970148	0.05440613123752544	0.192764764720122
Si	14.998427955568465	1.4980633543796325	15.09678877865149	14	0.012344905084158987	0.16733036245108915	-0.12824750470058222
Si	10.904861213526448	2.7522515099248284	13.66561668266835	14	-0.013244534835678801	0.0035812926004342594	0.08549670810035206
Si	12.27771810555282	4.120520524146228	15.02058085125533	14	0.027694146734911	0.0032223662977415874	-0.04962644644737016
Si	10.917264868877748	5.476844670796825	16.385114022121254	14	-0.008240135440542577	-0.004952977288733259	0.02895501678391162
Si	12.28918780006525	6.83934606720626	1.3605417171755967	14	0.02397581422091285	0.003236507377002402	-0.03171175590817439
Si	13.648756231735078	8.205058978079176	16.375332011229936	14	-0.0007656751643400979	-0.004615134049665802	-0.001981036649174095
Si	15.017287410402474	9.549258019102346	1.3660340623192633	14	0.007757024750886755	-0.007730285255557215	0.030199945979927322
Si	13.652836165925928	5.48739678974826	2.7426825076458865	14	-0.04552913300918219	0.005664916351882262	0.024444269610243832
Si	15.024595244334682	6.832513406332427	4.109312994079796	14	0.008693421308484684	-0.017295054157040083	-0.008391830654431316
Si	10.928996727836175	8.204665731410177	2.7248553253179955	14	0.0004802824738036612	-0.004349281759562491	0.015354383861392314
Si	12.295102885378089	9.569461066722099	4.081474406970341	14	0.003142662032816997	0.0013200054713640237	-0.006439333274310863
Si	10.920771318342975	5.468307941024002	5.4567399348443235	14	0.00704714257199387	-0.014091456928135576	-0.004863759934124121
Si	12.28748373116626	6.830940419656437	6.8168818512397715	14	-0.01348467607258063	-0.006848139020214409	0.01066597331010229
Si	13.649280560627075	8.1971448888656	5.449415715634243	14	-0.009205328377726169	-0.007789163567388607	0.010264109548563145
Si	15.01800836262897	9.544145812405377	6.814211050946164	14	0.01448689292637435	0.0025916741627092636	-0.010422746746816283
Si	13.648149976453707	5.46940575464162	8.187248181029158	14	0.01275473927219059	0.01137019905729085	-0.011395652999960315
Si	15.01800836262897	6.827204576300959	9.553698429406444	14	-0.0154600562900504	-0.025503050781080807	0.00813754833826867
Si	10.910251969947291	8.178645910144835	8.183856428509054	14	0.02312606391260391	-0.007144587463627482	-0.010243283595469947
Si	12.274506591089338	9.539508778766782	9.55050330022084	14	-0.01165687730048736	0.005469512347551009	-0.007457490981089503
Si	10.91844460888474	5.463359587105782	10.920771318342975	14	0.01088785969923107	-0.011181222816259965	-0.007752139650778473
Si	12.286189294214143	6.834053622452667	12.28183081029942	14	-0.00425672196803716	0.013147089944045186	0.013142719065000938
Si	13.657571511231774	8.194801794129488	10.917379565822872	14	-0.002591417052177249	-0.003490532582633032	-0.04651720878371509
Si	15.03137874937489	9.55776197831942	12.277177391382947	14	0.0069813222757980796	-0.007716401286828415	0.05373224453311463
Si	13.650574997579191	5.480088955816056	13.657866446233522	14	-0.007929288807336675	-0.002309881019621034	-0.005561815028544324
Si	15.018778470689092	6.842426499446741	15.018614617910341	14	-0.0047922832062240045	-0.02778002165260395	0.00022934259455720864
Si	10.922753936965838	8.196784412752349	13.648018894230708	14	-0.007275456724423019	0.002403726363806439	-0.0062087051270935814
Si	12.29374290731447	9.571247062010462	14.996887739448225	14	-0.012182668338457643	-0.021355343678617928	0.006059066797460964
Si	10.93846741844787	10.935763847598508	16.369466081750723	14	0.008762584041596667	0.009048490953197135	-0.035044679734682345
Si	12.314339201603222	12.309816864909749	1.3311399745568762	14	0.00050856463232529	-0.010564414649956442	0.06073207876721776
Si	13.70012407787289	13.688179210302087	16.336875764057545	14	0.06302653315491792	0.04967066945887671	-0.1059233685373325
Si	15.03462303439412	15.028380243523783	1.3901007584619163	14	0.03756204895363933	-0.0063812262940755185	0.15313657553121168
Si	13.657260190952151	10.93473157509239	2.710813142179206	14	0.028074927432824935	0.012039457772125395	0.011138799578477524
Si	15.020531695421706	12.288139142281256	4.0902241453555375	14	0.026369256163438697	-0.03555298725647563	-0.028544411264283972
Si	10.941334842075975	13.653163871483427	2.715532102207177	14	0.00031367484905806567	0.02708710876882404	-0.0005440458857433335
Si	12.286582540883142	15.020302301531459	4.097007650395746	14	-0.03572499420239353	-0.03189970370707722	-0.011134171588901256
Si	10.914266363026641	10.911071233841035	5.4486947634077465	14	-0.005661316804434055	0.0034866759246528103	-0.020838037288204134
Si	12.274801526091087	12.272474816632853	6.815292479285906	14	-0.0005774702549052585	0.006307692681919282	0.02436456534531924
Si	13.634648507484789	13.63037194995944	5.446007577836263	14	-0.021058638124672843	-0.022459890524153543	-0.022773051152147582
Si	15.02495572044793	14.969360472618392	6.7795889587964995	14	0.060533846547034365	-0.021432219727690358	-0.013157631475857795
Si	13.634959827764412	10.889278814267419	8.166782968963409	14	-0.024395932830225047	-0.04028484948767615	-0.01355255325303254
Si	15.02241600237732	12.235411318079827	9.501937336599635	14	0.03613894215893737	0.05998645822437483	-0.029421415288986483
Si	10.906679979370562	13.652115213699432	8.163850004223802	14	-0.028525127974382863	0.0012991795182708244	-0.06103135542648301
Si	12.267772241882756	15.063969067068065	9.466151889720853	14	0.04645344537177541	-0.027272485462406716	-0.007671664054257839
Si	10.895685457916505	10.894571259021012	10.909875108556168	14	0.03583143796264766	0.03198557862477017	0.013057615478904033
Si	12.268476808831377	12.27347431858322	12.246192830921512	14	-0.11202742967789604	-0.03857120779179745	-0.0275499077264507
Si	13.546430171406328	13.568959928484315	10.743564538125934	14	0.12072753586021312	0.09887494041267855	-0.11324639071017827
Si	14.815502713373082	14.823105482307035	12.303819853207536	14	-0.002495257713203711	-0.06928228950937021	-0.057795876491608666
Si	13.656473697614155	10.929258892282174	13.616067602374653	14	0.014655043214312036	-0.03489838384196592	0.005137839761251906
Si	15.035737233289613	12.2522062279016	14.999247219462209	14	-0.04800819275886896	-0.10624989891299132	0.035271965444983434
Si	10.924834867255951	13.653065559816175	13.622851107414862	14	-0.01651369525024708	-0.013303670258042207	0.01601824325505455
Si	12.25140334928573	15.021711435428697	15.016140440951231	14	-0.06737864313033258	-0.01448894981063047	0.015572156482008858
H	16.3777734176333	0.6488193177069278	2.0274487431286268	1	0.2880602123060904	0.1675969860727885	-0.2735046708676681
H	16.363649308105135	16.33351678209319	13.636909675831523	1	0.28668749917566333	0.3385304955195332	-0.09549188003242771
H	13.902498644905778	13.878182892539428	13.2314068189835	1	-0.02808186941718933	-0.05412176698911707	0.07771551495945592
H	4.381996788473882	4.39054990352458	4.417143209515542	1	-0.021766463419309608	-0.013848744585913599	-0.01564877542054927
H	3.8231932718282926	14.753205886892713	9.83146165994175	1	0.033057729543271915	0.036490926477265644	-0.07319268359078343
H	14.6939403368192	1.1177315614030285	7.147602299866754	1	0.029661813636420325	0.034356394840478706	-0.045755647387887226
