224
config_type=interstitial sigma="0.001 0.1 0.6354766690059488 0" dft_energy=-23354.19979164625 dft_virial="15.017175351890577 -0.45237322200423474 0.20195233125189047 -0.4523732220042347 17.121518643535275 4.786270250669804 0.2019523312518905 4.786270250669804 15.982507495274614" pbc="T T T" Lattice="16.3852778749 0.0 0.0 0.0 16.3852778749 0.0 0.0 0.0 16.3852778749" Properties=species:S:1:pos:R:3:Z:I:1:dft_force:R:3
Si	16.357668681680796	15.169195321580673	13.80562888210937	14	1.5496434859225172	0.5676018384654662	-0.19374564139975847
Si	0.009020095470132451	0.15987115622539932	0.23578087156423602	14	-0.05718806719392566	0.047515054758464556	-0.02286329694888478
Si	1.4256240408946994	1.4902082521664053	1.52055378679072	14	-0.07596664912069119	0.03858329198680215	-0.054623646747609965
Si	2.748515666569351	2.770603021144716	0.03650803763306469	14	0.016436304980110623	-0.0015182376915474408	-0.024113882576604805
Si	4.114572668277639	4.1173253949606226	1.3973905685884593	14	-0.002542566051094435	0.02421646967887871	0.008697535076996922
Si	2.769619904472222	0.010725802896909541	2.769636289750097	14	0.0507939853732494	-0.02670838495516623	0.0303210450405063
Si	4.181375446173607	1.3398634964974727	4.114687365222763	14	0.0761579393565102	-0.09505556345959858	-0.06649366867913761
Si	16.373988418444196	2.81097634582847	2.8108944194390952	14	-0.004371907486379794	0.09602924104433867	0.0010353841124236315
Si	1.372781519748147	4.18406263174509	4.119308013583485	14	-0.16150320935350554	0.1322075211146743	-0.0696900668131457
Si	16.3816239579339	0.005384202309692141	5.498276614257195	14	0.014338283038869793	0.006045439939264178	0.07221926311657537
Si	1.3428816646820296	1.351567500483514	6.9024457723024994	14	-0.08962616035504188	-0.09550936354860472	0.06297639660117503
Si	2.6286573589144573	2.616646950232156	5.369029542379984	14	0.11477054194396205	0.05317868555768674	0.13158557073773047
Si	4.06692428021743	4.0670881329961786	6.813850574832916	14	0.07620396214174086	0.10416344694569113	0.0618715926451074
Si	2.774699340613441	16.384671619618633	8.207942786985157	14	-0.04758473171264057	0.07954819883165747	-0.002269514666094709
Si	4.099399900965482	1.3785835466436491	9.593105022695578	14	-0.007323279283377775	-0.02518423372138245	-0.01311829356445953
Si	16.363059438101637	2.781581157320899	8.19832462887259	14	0.07391953506478928	0.01231250915712512	-0.03904660516549283
Si	1.3592947975293168	4.115359161615634	9.570804659507841	14	-0.027922460887340156	0.002024488329084597	-0.021245557481447606
Si	0.07008966463767226	0.10867863256084924	10.780300331121458	14	0.09101738544377401	0.11093830946428132	0.17474440175226816
Si	1.3837121386184927	1.419961288861134	12.310980219638868	14	-0.055536389136262534	0.005010827158436591	0.09667124604277964
Si	2.7401919454089017	2.7735032153285735	10.93579661815426	14	-0.041217646497825874	-0.05035201236871595	-0.01346436434055146
Si	4.108968903244423	4.112966911045899	12.307801475731136	14	0.028186770514251374	0.007993309329808363	0.038338265649792036
Si	2.8257394811937546	0.11002386387437853	13.720196043269642	14	-0.15240149652018134	0.16999042801531436	0.048103323655714444
Si	4.186930055373197	1.4500626828451129	15.083336465516197	14	-0.07043028803481632	-0.05379909327143848	-0.0735464676828358
Si	16.373349392607075	2.771274817537587	13.694831633119296	14	0.0323352489483103	0.0231206645914316	-0.10669392880178087
Si	1.3764977007701744	4.123158553884086	15.044618053897809	14	-0.020372153004193306	-0.04108574879490227	0.04801667740642545
Si	16.382410451271895	5.475779627734957	0.0169915331562713	14	-0.026281581472021653	-0.009939121836096429	0.026833340673725423
Si	1.370294234566737	6.8375436866400205	1.368427951416786	14	-0.010086703281472927	-0.024152963377471054	0.017054655809606238
Si	2.73389999870494	8.192049067446504	0.00850887480043557	14	0.030915741701056546	0.05390759391594873	0.0005707853810728736
Si	4.090568236190911	9.561841912510271	1.3774038066366563	14	0.004542371769105612	0.006033098633727468	0.00398187080931333
Si	2.7528249946504495	5.500373929825181	2.735554911770305	14	-0.012636468427463778	-0.025957365091150975	0.06137511220778681
Si	4.113442084104271	6.8449334469616	4.109165526578922	14	-0.01009801614488158	-0.018856743528498025	-0.014868959176948355
Si	0.011022376426445232	8.20256841584219	2.7269198703302324	14	-0.008852058506737821	0.058066870992352276	-0.012072625030755306
Si	1.365006705396507	9.558319077767166	4.111000677700911	14	-0.0042901463371990845	0.01480339599128458	-0.02719766629759041
Si	16.355522210279183	5.494458844512343	5.466784110181637	14	0.09769788839711477	-0.030048764987102614	0.006427763300370198
Si	1.3528668530189936	6.824189685171977	6.819863971813004	14	-0.01783498627427118	-0.010933368263397691	-0.0072052655491829775
Si	2.7219879016898876	8.179907576541202	5.465669911286143	14	-0.012625669785119156	-0.006681274284936798	0.003999354325490337
Si	4.123420718330085	9.501396622429764	6.814784535671785	14	0.06941367299122977	-0.051726011051803085	-0.06179085993805475
Si	2.7180882055556617	5.449710650635991	8.178056040141339	14	-0.07698943481704608	-0.0077788791461080135	-0.027456062382265292
Si	4.097531979287743	6.796252786395272	9.557319575816797	14	0.0883190104102786	-0.010587811708369789	-0.01893284824597441
Si	16.383983437947883	8.183774502119679	8.171780478715252	14	0.04633928829556084	0.01999908562223982	-0.08032672952259831
Si	1.4341361927507101	9.494531191000181	9.475786433111296	14	-0.09168767260073661	-0.012411753822482836	0.10511527013520996
Si	16.37882207541729	5.4729941304962235	10.932552333135028	14	0.0007101392894248995	0.005971649216575928	-0.018253305109859275
Si	1.3698600247030523	6.825484122124094	12.293529898702099	14	-0.05760072959780944	0.01978105589109126	-0.006842739699042097
Si	2.7497445624099686	8.171682167048004	10.919231102222737	14	0.03810403795512655	0.048571264823981386	-0.012826730221154738
Si	4.123666497498208	9.517208415579042	12.302984204035916	14	0.043012535121821245	-0.02291420483422371	-0.02500888433854835
Si	2.7391760581806577	5.47448519078284	13.66751737490184	14	0.035720880433881295	-0.005870090556430079	-0.014545771238205742
Si	4.103823925991705	6.82961321214857	15.038932362475219	14	-0.0033792037222706204	-0.008614488375156139	-0.0029493149127418614
Si	16.383622961834636	8.173713941504491	13.66053724652713	14	0.0010515820759405643	0.04976580035572219	0.008276130915024653
Si	1.3565109388183714	9.540852371552523	15.031952234100512	14	0.016404166163608774	-0.01495740519996145	0.0031897132601757068
Si	0.009049588970307271	10.898356258210114	0.039737575902207486	14	0.05485453200535926	0.012505856277200257	-0.005784986970333177
Si	1.3453181555020273	12.288909250341376	1.4085866289603786	14	-0.00915673448717537	0.020943195495798192	0.005422204009660284
Si	2.7712420469818375	13.610988166233433	0.07472833680405644	14	-0.05597399126175174	0.019753030843101645	0.009117396575777103
Si	4.122421216379716	15.00689914422979	1.4062599195021428	14	0.02867450919348347	0.08605335240216412	0.04012569806835898
Si	2.727755519501853	10.923507659748084	2.747745558509231	14	0.030044651218590374	-0.017856583558960422	0.013706562461709409
Si	4.089732587019291	12.278897845559813	4.126009592234319	14	0.004381677686596357	0.0128642683588289	0.007789163567388607
Si	0.011024014954232721	13.679003454692143	2.778779274804291	14	-0.046886419507688355	-0.024550970481029978	-0.06187904885053583
Si	1.3830124872532346	15.050598680322148	4.129696279756172	14	0.0021874964063819855	0.007518426177177013	-0.001647821399682904
Si	16.373152769272576	10.934698804536641	5.450628226196986	14	-0.018816634285503717	-0.021934099486183262	-0.012481173666126834
Si	1.3132128420339482	12.314371972158972	6.816701613183148	14	0.0023649026734722032	0.02762575533339506	-0.028318925327706985
Si	2.724380152259623	13.657489584842399	5.482202656661918	14	-5.656431704325774e-05	0.00638405450992768	-0.010030910296025715
Si	4.1116397035380325	15.000541656414327	6.850389744493943	14	-0.006497697365078226	0.00086312005597371	-0.02279002044726056
Si	2.852398328296217	11.036664388752143	8.093983179365228	14	-0.17852778323086604	-0.12269031766161417	0.1424790868686659
Si	4.143525454282588	12.311193228251241	9.62808759095849	14	0.05041808977544376	0.06444912572855585	0.02204954211505791
Si	16.356390630006555	13.650280062577442	8.208811206712527	14	-0.0109804194907564	0.04259395917570114	-0.014808023980860847
Si	1.3995108235454712	15.00907838618715	9.531725771776204	14	-0.06297202572213079	-0.10274882479854568	-0.07331609664615053
Si	0.020438995621150265	10.78441303586806	10.822525192205076	14	0.009748860042405471	0.1238941091725075	0.08301302036108901
Si	1.494456954719367	12.065692609851613	12.142965580309642	14	0.15739355460978086	0.3398859822443152	0.04710676323362504
Si	2.7426988929237615	13.669237829078702	10.94479213570758	14	-0.05805581523947564	0.002773708419375748	0.13268548959368984
Si	4.087438648116805	15.031427905208515	12.345176294563782	14	0.05193272791954299	-0.024513432343355814	0.03343413936214159
Si	2.7766000328469294	10.86016217548372	13.68306700360512	14	-0.031157168490618448	0.011815257388208482	0.00936319424438326
Si	4.101759380979467	12.290744401463366	15.019679660972212	14	-0.004531316016228975	-0.0027906777144887248	-0.008968272467208516
Si	16.01121836629391	12.951906748993457	13.187346806777894	14	-0.09725822938736944	-0.5043624177900401	0.18972597534223898
Si	1.6255064071628171	15.355692554352785	15.422315094192129	14	-0.09600970064390554	-0.34086917291873986	-0.018171543960678563
Si	5.48177663943717	16.382443221827643	0.036979933635861814	14	-0.006322862203308156	0.013883968728799627	-0.012524625346037337
Si	6.840607733602627	1.3642988613923113	1.3944887358768145	14	0.0021784975377614675	-0.030553987182511715	0.01799799435156857
Si	8.190623548271388	2.7323433973068245	0.025220219705046083	14	-0.00044454410985360284	0.03237484397024058	-0.014586908923328113
Si	9.550519685498713	4.099678450689355	1.3889390422605858	14	0.005057878385795301	0.01278199298858416	0.008884454433771687
Si	8.184560995457675	0.0036162308269904304	2.775944621731934	14	0.029156077219947202	0.0030629577678924066	-0.005039880648554264
Si	9.547177088812234	1.3736433853643668	4.130433617260541	14	0.005539189301727022	-0.010045822706882574	-0.005333500876115175
Si	5.490870468657739	2.7454024637731202	2.745795710442118	14	-0.02416170513555956	-0.0040739163797746305	0.05236261672907175
Si	6.837756695252394	4.106756890731312	4.121175935261223	14	-0.012698432065679346	-0.004766057931958494	-0.013021105783357932
Si	5.500193691768557	16.36019201447353	5.510860507665118	14	-0.031343059405265154	0.06154120561146837	-0.023464678483267415
Si	6.833037735224423	1.3693193105331805	6.863284958181489	14	-0.009492263731454693	-0.008987041536045596	-0.001751951165148901
Si	8.185200021294795	2.7345226392641866	5.492885857836352	14	0.0020206316711043754	-0.016282295771433756	-0.010476482848007378
Si	9.555599121639933	4.086635769500934	6.856255673973156	14	-0.007067197193491024	-0.007130960605430697	0.011551204871829274
Si	8.195063958575487	0.008720244885021782	8.221657264566447	14	-0.014104055344204303	-0.004623361586690276	0.032094593490344436
Si	9.56020338472278	1.3639859025849006	9.585109007092628	14	0.02459030839242824	0.02147721407079295	-0.02838371718177472
Si	5.443467859765653	2.7327530292536975	8.199406057212334	14	-0.01956662570739091	-0.08771865731802403	-0.015964507153863453
Si	6.8213386468217445	4.088765855624672	9.564922344750752	14	-0.01339854404435567	0.07098513256290429	-0.013962644551596159
Si	5.453331797046343	0.00816478396506267	10.95957165635074	14	0.0018334552037975954	0.007641325011480091	0.027464804140353797
Si	6.832251241886428	1.3720277969659016	12.313077535206855	14	-0.0346183904726018	-0.005851321487592999	0.027750711051954265
Si	8.185478571018669	2.7297545234025904	10.935681921209136	14	-0.010876546835822419	-0.036788403362806775	0.0012855526600740396
Si	9.515684584736675	4.12420721166808	12.301050741246678	14	-0.00920867081464236	0.03330892653305037	0.008365605380165805
Si	8.191541123832383	0.004641949221959171	13.679921030253139	14	-0.005468226794890935	0.004467295493757287	-0.00021622995742445346
Si	9.549290789658096	1.370127104732413	15.046993919189669	14	-0.011011015644066164	0.010622007409127759	0.00576750345415617
Si	5.504535790405407	2.7784515692467933	13.66966384630345	14	0.014167818756143974	0.0031763435125109368	0.03713550258102676
Si	6.84262312278124	4.12253591332484	15.054957164236871	14	-0.0005872404551218212	0.006032841523195452	-0.048668709715615
Si	5.4673248243515085	5.4770740646870735	0.02767964991406857	14	0.030706453727996495	-0.003094325252798213	-0.02404883361200506
Si	6.832136544941304	6.841410612218498	1.385073755209897	14	-0.013929991514030278	0.0015439487447489215	0.009197615061765724
Si	8.191442812165134	8.20985986449652	0.02185304510175413	14	0.0020622835772907745	-0.03638499693807554	0.007542594567186404
Si	9.56351321085351	9.56418500724638	1.3908118795216868	14	0.01969595230499436	0.09997228816331775	0.024113882576604805
Si	8.189886210767018	5.4701922479796155	2.7488597574047238	14	0.008939476087622857	0.013329124200711672	-0.014850190108111273
Si	9.55364927357282	6.831251739936059	4.109984790472667	14	0.008035218346526776	-0.010114471218930528	0.017534681172877885
Si	5.468783114082375	8.208942288935527	2.741928784863641	14	0.006265783665200868	0.0008500074188409548	-0.0015105243755869963
Si	6.8379697038647675	9.564594639193253	4.102578644873212	14	-0.0008674909350179618	0.020513563796801446	0.007599158884229662
Si	5.446105889503513	5.449563183135117	5.476926597186199	14	-0.026446389323043138	-0.012194238312398308	-0.06541508999733549
Si	6.827106264633709	6.812506982047173	6.834823730512787	14	-0.017777393515099865	-0.022618270611874665	0.05916216185873535
Si	8.18470846295855	8.188739241315774	5.471208135207859	14	-0.00022754282083310498	-0.00012469860802718184	-0.022193009791922173
Si	9.543392089623133	9.555549965806309	6.838608729701889	14	-0.010371324640413323	-0.008314183273762843	0.021253013686876036
Si	8.18862454437065	5.455101407056833	8.207877245873657	14	-0.0032707030777603713	-0.006858423441495001	-0.0017869181975029148
Si	9.543572327679756	6.8197001190342545	9.57880067511079	14	-0.013258161693875586	-0.012846270621587861	0.006249585701683935
Si	5.4676853004647565	8.164505415338796	8.21012202894252	14	-0.022924746366036315	-0.0033612059850295834	0.005593182513450132
Si	6.82209236960399	9.548553452153726	9.565168123918875	14	0.010088245944665019	-0.011996777423810938	0.010446400915761645
Si	5.467603374075382	5.456920172900947	10.930422247011293	14	-0.01301570646218562	-0.007252059666009671	0.009943235604608667
Si	6.819618192644881	6.825320269345345	12.297724529838073	14	0.005748734385319089	0.0034280547233534334	0.013987841383733608
Si	8.177777490417467	8.18615036741154	10.93486265731539	14	0.016269954465897043	0.022964084277434585	0.01066905863648647
Si	9.535068368462683	9.55194520467383	12.299281131236189	14	0.006530350402644106	-0.022312823299841075	0.04055738665161184
Si	8.173599244559368	5.4819241069380436	13.673153910490804	14	0.009838334507546623	-0.015748277196439002	0.030881546000298576
Si	9.530333023156837	6.831612216049306	15.039194526921216	14	-0.0076526378748887425	-0.014188130488173144	-0.0411417988908815
Si	5.480531358318678	8.178760607089961	13.67815142024265	14	-0.021206990901645385	-0.0023636171208121287	-0.0029480293600817873
Si	6.824091373504728	9.566233166980743	15.041177145544081	14	0.00036895361344124934	0.02580901231417843	-0.002170012890204979
Si	5.454200216773714	10.93251956257928	0.01639510904162494	14	0.0054201471254041655	-0.03435845172473482	0.04279270561694858
Si	6.8225675426623615	12.289089488398	1.389815654626893	14	0.004385791455108593	0.005352269944952256	0.0030182205353218297
Si	8.191852444112005	13.653737356209046	0.031169714101422274	14	0.0014223354631059172	0.011541691782144727	-0.009920609877791363
Si	9.536215337913927	15.017189098735226	1.4173543911512374	14	-0.014411559540494013	-0.006266554996796913	-0.004363422838823305
Si	8.198963654709711	10.928587095889304	2.7447962084917488	14	-0.004745746199929324	-0.031971437545509344	0.003956159756111849
Si	9.565561370587872	12.281781654465794	4.113655092716645	14	0.01607506468262982	-0.017480687961154776	-0.08333595118929961
Si	5.472437031048477	13.647445409505085	2.7767966561814283	14	-0.003000222798080793	-0.029794996892004	-0.015797385308053826
Si	6.838674270813389	15.00589964227942	4.129319418365049	14	-0.004977145678742652	0.005457942373610343	-0.03375655596928816
Si	5.4656862965640185	10.904926754637948	5.474862052173963	14	0.00674503769687647	-0.0058322953082239025	-0.008472563361483967
Si	6.819405184032506	12.27534224026096	6.849799874490445	14	-0.0015683742452903282	0.010530733170262502	-0.012231005118476428
Si	8.18788720686628	13.632911668030049	5.4786634366409395	14	0.020436944858261037	-0.0015971706248759864	0.054070344882714096
Si	9.525532136739491	15.023677668773686	6.8310715018794355	14	0.004769657479406702	0.0028205025362024426	-0.004741375320885073
Si	8.18711709880616	10.916248981649504	8.2092208386594	14	0.01016049400416118	0.017175754870185213	-0.01368625072968024
Si	9.544637370741624	12.285763276989396	9.575687472314561	14	-0.012670407017689733	0.013745900373107675	-0.01403643527428441
Si	5.4830874616671625	13.656096836223032	8.226654774318293	14	-9.384534418540489e-05	-0.0015933139668957647	0.025976134159988055
Si	6.82954767103707	15.038113098581473	9.58809112766586	14	-0.004979459673530784	-0.023153060518465465	-0.005416290467423943
Si	5.482808911943289	10.904222187689328	10.960767781635607	14	-0.03033338634604301	0.0012379872116513	0.024436042073219356
Si	6.836511414133903	12.288532388950255	12.313110305762603	14	-0.025788700582149264	0.013865456770494559	0.018703248540885186
Si	8.187592271864531	13.656719476782278	10.94148230957685	14	0.00047102649465112815	0.00612308731993265	-0.0017447520702524866
Si	9.542998842954134	15.016418990675106	12.315437015220839	14	0.03027990735538393	0.001687416421613184	-0.00643701927952273
Si	8.194834564685237	10.925441122537324	13.68052728553451	14	0.0048367633282625664	-0.00949740594209499	-0.01350293092035368
Si	9.55609067997618	12.288647085895379	15.048124503363038	14	0.007718715281616547	-0.01354458282654008	0.030790528871965334
Si	5.475730471901332	13.658800407072391	13.679970186086763	14	-0.022443178339572583	0.03351050119014999	-0.049988458076447015
Si	6.8383465652558915	15.02167866487295	15.048419438364785	14	-0.031181336880627842	0.013059415252628137	0.0032383071507265057
Si	10.883412884788203	0.017669883660292162	0.07236721826228334	14	0.04130557829977493	0.032451462908780995	0.0025101701240605695
Si	12.276030421931704	1.3860109931043414	1.4142313571882816	14	-0.01657283067261049	-0.01955968372302651	-0.007994594882468438
Si	13.598879445883883	2.8120413888903384	0.07378126774288721	14	-0.027138530875227	-0.08499457123132713	-0.02134480214680532
Si	15.008898148130527	4.135939070626508	1.3996255204905956	14	0.10799207987792364	-0.02177032007728983	0.042408068261054435
Si	13.653163871483427	0.022726380412486303	2.7714550555942106	14	-0.03963127451529451	-0.01828235859997694	-0.012665264807049438
Si	15.027855914631786	1.3852392465164334	4.136758334520254	14	0.01827927327359277	0.007444635454488762	-0.008306212847270384
Si	10.906499741313938	2.743780321263505	2.770029536419095	14	-0.0014490749584354574	-0.005047851075046724	0.0012588131647444994
Si	12.280978775849924	4.101808536813092	4.127713661133308	14	-0.006579458514258934	-0.026185936354112142	0.0026132714473985075
Si	10.907532013820058	0.00077666217127026	5.48341516722466	14	0.0029511146864659647	0.0035033881092337727	-0.004079058590414928
Si	12.275932110264456	1.3600157497558125	6.84596571946772	14	-0.02211844773763788	0.00760970041604227	-0.0026019585839898557
Si	13.639990108072006	2.7291318828433444	5.487740880583634	14	-0.02413779385608218	0.008078927136969295	-0.0043536526386067425
Si	14.994577415267864	4.124485761391954	6.822387304605738	14	0.026066122846193238	-0.012825187557962647	-0.0023780153106049582
Si	13.636352576383779	16.372349890656704	8.19925858971146	14	-0.03137339844804291	0.02750285649909199	-0.08097130562635942
Si	14.97697962683022	1.4138397490470713	9.512800775830694	14	0.007401440885110275	-0.06920001413912548	-0.00043117436218883284
Si	10.924785711422327	2.7239213644791263	8.220969082895703	14	-0.008860028933230278	0.01342965441872946	-0.01744880625518494
Si	12.2848457014284	4.092501698980149	9.583454094027262	14	-0.02543028850052062	-0.011493097891593928	0.0012238461323904855
Si	10.909514632442919	16.37661006290418	10.954311982152896	14	-0.05167201784007997	-0.003492075245825121	0.022613385511766382
Si	12.195529551732323	1.4531840782802814	12.298445482064569	14	0.00271714410233249	0.003528584941371224	0.002787592388104547
Si	13.648215517565207	2.737258980669295	10.948151117671935	14	0.0012243603534545153	0.05633497444870053	0.05212118993950984
Si	15.012109662594007	4.113278231325522	12.305310913494152	14	-0.022236718582364694	-0.021430677064498267	0.026364113952798404
Si	13.394882736341376	0.25800258541817545	13.901155052120036	14	-0.32267577456284	0.2933340635387781	0.31479636519871423
Si	15.012404597595756	1.4535560240880416	15.152007165089904	14	0.041958639051092546	0.037998622637000476	-0.07092265470362469
Si	10.861669621048213	2.7890528440318536	13.687327175852591	14	0.0029909668189282606	0.01287660966436561	0.030028453255073445
Si	12.259645144056805	4.134071148948769	15.04191448304845	14	-0.01788358016482198	-0.019071687933262405	-0.041340802442660966
Si	10.896947124312872	5.481989648049543	0.02379797758550476	14	-0.02653303557233213	0.0014488178479034426	-0.0002049170940158019
Si	12.269902328006491	6.83359483467217	1.3860830883269908	14	0.011414936289861427	-0.018396258565659504	0.006201248921665152
Si	13.643431016425735	8.177859416806841	0.020216155842051622	14	0.009637788292575073	0.012501485398156004	0.0010328130071034834
Si	15.007095767564287	9.5528136244012	1.383087859531459	14	-0.023742872078907434	-0.03723628990957657	0.019252693747800833
Si	13.622195696299865	5.468488179080626	2.7445176587678755	14	-0.039831563619734035	-0.0013716846882990002	-0.01698163641851403
Si	15.03259125993763	6.8162755959584	4.040494827005216	14	0.05019928871269915	-0.048033132480474396	-0.033382203034674596
Si	10.928783719223803	8.201994931116568	2.7622137588727673	14	0.01604421141878804	-0.06809238196720568	0.023287786437241227
Si	12.308850133515131	9.544194968239001	4.129860132534921	14	-0.06043177366582448	0.04226614324738226	-0.054825478515241596
Si	10.896996280146496	5.454855627888709	5.4794990858125585	14	-0.005878318093454553	-0.0004142050670758555	-0.024838162945290516
Si	12.224908354962016	6.807116225626332	6.871231817950815	14	-0.03904249139698059	-0.053796522166118334	0.039040177402192455
Si	13.744134934244869	8.077155498987706	5.5678321188361455	14	-0.20850969947964482	0.18895258686193844	-0.1389340468532457
Si	15.034852428284369	9.590319525456845	6.83680634913565	14	0.1046838386624891	0.029332455044909358	0.049920838006527114
Si	13.62873342217195	5.461491665428044	8.209909020330146	14	-0.011289209239706185	0.010464398653002683	-0.014269120305757808
Si	15.011339554533887	6.8298753765945674	9.55455046385594	14	0.028361091454957413	-0.006059323907992978	0.05056772810507637
Si	10.888754485375422	8.197161274143474	8.219265013996713	14	0.006774605408058174	0.02589231612655123	-0.017355732242595578
Si	12.27527669914946	9.54809466437323	9.571951628959084	14	0.003571522400217697	0.012121990252902148	0.03672592550352718
Si	10.910006190779168	5.45398720816134	10.938631271226617	14	0.0004838820212518684	0.007404269100962439	-0.005067648586011863
Si	12.273294080526597	6.817324253742394	12.297970309006198	14	-0.016232673438754897	0.00024759744233026	0.03494440662719657
Si	13.640235887240129	8.169928942315389	10.928963957280427	14	-0.03947238020650935	0.033285272364105015	-0.04182597001657291
Si	15.01245375342938	9.516716857242795	12.287795051445883	14	0.046904160134397375	-0.06996003287176124	0.016602141273260176
Si	13.643037769756738	5.468340711579752	13.670843586310443	14	-0.027282512773155295	0.017132560300806725	-0.009593565281068528
Si	15.01396119899387	6.826155918516966	15.033361367997752	14	-0.009615419676289785	-0.0027641953296912	0.004897698524350076
Si	10.882298685892712	8.16253918199381	13.65340965065155	14	-0.00446369594630908	0.005791414733633548	0.045669258249130255
Si	12.218632793535932	9.486780954565353	15.055891125075739	14	0.04559341064218588	0.05191293040857784	-0.06579227114780122
Si	10.925555819482447	10.92840685783268	0.027174983355521654	14	0.0020003199390752056	-0.02902186552223547	-0.03911345390381668
Si	12.303361065427037	12.303442991816413	1.3773743131364815	14	-0.0941929576246889	-0.06481422268401688	0.014901869325046252
Si	13.67274427854393	13.681313778872505	0.01177282215311565	14	0.08552293337461755	0.03480710960310066	0.015814868824230836
Si	15.027446282684913	15.040423422761835	1.4191764340509265	14	0.01780079057351321	-0.04479302555602378	0.04967684011164507
Si	13.647756729784708	10.923098027801213	2.7502688913019653	14	0.1174056677865818	-0.031278267551197426	0.02740361183373427
Si	15.00619457728117	12.303901779596911	4.105822929892443	14	0.01808515482192159	-0.0005900686709739841	-0.009733176299952568
Si	10.928587095889304	13.651492573140185	2.750842376027587	14	0.001270383138685166	0.053928676979573945	0.02493663627905219
Si	12.278815919170437	15.031247667151892	4.117292624404873	14	-0.002130417868274698	-0.003549668004996438	0.006136199957065405
Si	10.924277767808205	10.905746018531692	5.474108329391718	14	0.013744614820447601	-0.026166395953679016	0.08339457239059898
Si	12.265724082148392	12.292006067859733	6.83366037578367	14	-0.01568631355822343	0.004575024806671492	-0.0068360548252097125
Si	13.634025866925542	13.65327856842855	5.474943978563337	14	0.014193529809345453	0.0013981670730965254	0.01727988463565121
Si	15.000230336134704	15.011913039259507	6.836609725801151	14	0.015339471450535455	0.016623738557949422	-0.019321599370380797
Si	13.621802449630867	10.898176020153489	8.169191604811019	14	-0.10457199558106267	-0.005147609961468469	0.007784278467280324
Si	15.017156328179475	12.207654657359747	9.517503350580789	14	0.1549044675493455	0.1064563586701992	0.023534098326911414
Si	10.875367713351627	13.651689196474685	8.179235780148334	14	-0.01721303589732736	-0.05542326050217602	0.0004555998627302396
Si	12.223564762176276	15.02392344794181	9.527744149252603	14	0.05912256683680507	0.05667513168255612	-0.01627072579749309
Si	10.902747512680586	10.914053354414268	10.941580621244098	14	-0.003681565707920034	-0.033220994731101315	-0.06621624641509363
Si	12.258301551271064	12.244636229523397	12.341292983707433	14	-0.02421004191557834	-0.0032082252184807733	0.07529199108468432
Si	13.502927258648468	13.512381563982284	10.78813249394566	14	-0.11168007334914405	-0.053207224826740396	-0.0208686334415139
Si	15.14687857311506	14.804688429975648	11.735545645950253	14	-0.27315242943880785	0.4104003454231004	0.01171575561231875
Si	13.58211730661786	10.80532065043643	13.686442370847347	14	-0.008166601828386343	0.050846693032312436	0.0484046571992358
Si	14.922793512897927	12.144505796429883	15.09351172307651	14	-0.12033312830410241	0.02770134582980742	0.18384842858038047
Si	10.910530519671163	13.656522853447779	13.677496009127653	14	-0.02708865143201613	0.009200443277617886	-0.010719709411293386
Si	12.220582641603043	15.024218382943559	15.095461571143623	14	-0.052498113979443546	-0.08240855350032221	0.028584777617810298
H	14.197073170540731	15.759474957023945	12.90902647679484	1	0.21229256673717864	-0.4673161325636224	-0.5853049270368137
H	15.04663344307642	12.186157172787878	12.298166932340694	1	-0.30361488527192226	0.17393270380269737	-0.22668998519841188
H	16.04983846624505	0.29122701336511014	13.697273039522656	1	-0.16369687641265587	-0.355387690440552	0.10262309774839043
H	1.065197083480524	15.43602957177342	12.766982502897335	1	0.08394941691868694	-0.7494944272288101	-0.35434099346471976
H	3.7824267004755407	11.999561628348518	7.1829453442429125	1	0.057316365349401044	0.04211316248083345	-0.07150963804821449
H	14.71768260445993	7.133101328947467	6.4670233980549074	1	0.06461804734808958	-0.05084489325858833	0.06823122165449368
H	1.6750178013174024	1.7316617069309317	4.388092111843345	1	-0.01122904537521472	-0.0046914958776742	-0.015568299824028633
