224
config_type=interstitial sigma="0.001 0.1 0.32873351698224396 0" dft_energy=-23353.728964017933 dft_virial="7.338947717693699 0.5856617606304825 -2.504208907523442 0.5856617606304825 12.626059749868194 1.1188159151354733 -2.504208907523442 1.1188159151354733 11.220471524355036" pbc="T T T" Lattice="16.3852778749 0.0 0.0 0.0 16.3852778749 0.0 0.0 0.0 16.3852778749" Properties=species:S:1:pos:R:3:Z:I:1:dft_force:R:3
Si	15.477369627851793	15.469406382804593	14.793546441020716	14	0.037187438908493756	-0.2979929063788864	0.5619767742460462
Si	16.070860777758547	0.4145704696239949	0.4223862471703222	14	0.5740229168920039	-0.3061438244648199	-0.13443846920096678
Si	1.5390445728725448	1.3921816887520286	1.4937753271597711	14	0.004444669766939984	-0.06322193715924918	-0.07942864243427057
Si	2.7810404431510274	2.732998808421821	16.381673113767523	14	-0.005827410208115621	-0.09497868741052616	0.12242832202949108
Si	4.106855202398561	4.119111390248986	1.3673858477439425	14	0.03653103572025995	0.015500936864640753	-0.00898524176232149
Si	2.9150720161677097	16.19945243852076	2.923657901774157	14	-0.19893798859379755	0.17631226177649445	-0.22435465023612136
Si	4.126140674457318	1.4478113456651016	4.138970347033365	14	0.05605343841614432	0.025261109770454877	0.04225740148929375
Si	0.06682899434056715	2.7423384168105134	2.7758135395089343	14	-0.006186336510808292	-0.012578618557760447	0.001252642511976144
Si	1.3752835516796442	4.1388556500882405	4.138527944530743	14	0.023109351728022948	-0.011718326717638899	0.012653951943640785
Si	16.354752102219063	0.006660615456146851	5.493344645616849	14	-0.012456491055053413	-0.013950046135527434	-0.0804794531786151
Si	1.360977565567069	1.3646904695335214	6.839804854986757	14	-0.01228191300381536	0.0005859549024617472	0.009333112312137527
Si	2.7187272313927826	2.7573145607881724	5.493983671453971	14	0.0014375049844947909	0.00376152708337664	-0.033126120944787854
Si	4.105446068501319	4.099809532912355	6.843311304451986	14	-0.010686542152663474	0.0059477379370985505	-0.007132760379154801
Si	2.7268051733851086	16.379674109866787	8.195719369690481	14	0.007867068058589093	0.005761332801387816	-0.009324627664581038
Si	4.106396414618064	1.363124036968681	9.541933799892266	14	-0.009011981257651031	-0.029751802322625514	0.005207259604895905
Si	16.379428330698662	2.733949154538565	8.196096231081604	14	0.018925649151077993	0.0023962701583780097	-0.003996526109638174
Si	1.3653000018704677	4.095500204831255	9.559384120829034	14	-0.024592108166152347	0.005944138389650344	-0.003201540344648388
Si	16.372104111488582	16.37778980291117	10.904238572967202	14	0.03102372812450277	-0.03415327752018701	-0.07537529489705713
Si	1.3871497699166468	1.3337370411000478	12.25307464762897	14	0.0850825030332762	0.06918921549678085	-0.06139850926620015
Si	2.7440097151537537	2.722594156971259	10.901338378783345	14	-0.024318285449556578	-0.009222554783371159	0.029666441625996593
Si	4.085456029493942	4.094844793716259	12.28186358085517	14	0.007319165514865536	0.013550239258244405	0.016162996484578883
Si	2.7540375052131925	16.381787810712648	13.639547705569385	14	0.0026335831794276772	-0.007485773139611131	-0.012112734273749615
Si	4.119111390248986	1.3631813854412431	15.002507889759316	14	0.008360720280057523	-0.013193626950339868	0.014029493289920007
Si	0.11327634153254618	2.823380001179769	13.548068699193818	14	-0.06361274516791168	0.07243934973198005	-0.012991023851112199
Si	1.3972250772819228	4.114916759113012	15.046436819741924	14	-0.059319513504328424	-0.027115648037877686	-0.0037412153513474698
Si	16.384786316563755	5.458558700688436	0.015492280230717952	14	0.006372741646519028	0.02967492627355308	-0.0015375209814485512
Si	1.369520849451042	6.827548667136332	1.3686524297236722	14	0.013625058423060714	-0.005738964185102527	0.015416090389075866
Si	2.746483892112863	8.182299827110938	0.008638318495647281	14	0.003170944191338626	0.0015490909553892175	-0.008306727068334413
Si	4.106887972954311	9.55127340828096	1.3730535153608703	14	-0.0038558866486260745	-0.005692684289339862	0.008993469299345965
Si	2.7348175742659344	5.473289065497972	2.7395693048496557	14	0.008111065953471145	-0.021284638282313858	-0.004058489747853742
Si	4.103512605712082	6.83613455274278	4.097597520399243	14	0.003949989103343494	-0.0022155214543715996	0.003022591414366082
Si	16.38708025546624	8.18714986936191	2.7341949337066884	14	0.0024137536745550163	0.0017807475447345594	0.01102258561800683
Si	1.3649722963129696	9.54886477243335	4.101005658197222	14	0.004274205484214167	0.0070877660360522095	-0.0038918821231081475
Si	16.376872227350177	5.475435536899584	5.486888846134139	14	0.004099884543508127	0.0019617533592729843	0.0005198774957339416
Si	1.3731387188058197	6.824042217671104	6.834922042180037	14	-0.007783250025152263	0.015246654548478107	0.011881591905468303
Si	2.7309178781317085	8.18875562659365	5.464817876836649	14	-0.0029030350169791963	0.004570911038159255	0.006140056615045628
Si	4.087160098392931	9.561563362786396	6.827499511302707	14	-0.000208773751996024	-0.009206356819854227	0.0028873512745262926
Si	2.733785301759816	5.459689284861804	8.199815689159207	14	-0.008649198296978137	0.0021358171894470092	0.0024800881918148367
Si	4.090715703691784	6.8294493593698204	9.55943327666266	14	0.0028456993683398943	0.011440647343062906	0.0011197163669244884
Si	0.00180565762181398	8.182250671277314	8.18939465243077	14	-0.019631160450926628	0.023184170892839258	0.004594565207104617
Si	1.3538401385247627	9.535330532908683	9.561465051119146	14	0.03934073961411778	-0.07203362931246067	0.007512255524408657
Si	0.011527042984992152	5.490460836710867	10.910038961334916	14	-0.00036355429226893836	0.012924946444384394	-0.01857443616434577
Si	1.367220356437406	6.83613455274278	12.297003577611578	14	-0.011166053294871092	0.011143170457521775	-0.0697389178142285
Si	2.731982921193577	8.190902097995261	10.928767333945927	14	-0.008322925031851348	0.0016627338105397627	0.010073333533808158
Si	4.112688361322026	9.546751071587487	12.282535377248042	14	0.009431071424835168	-0.004024808268159803	-0.03364214178254157
Si	2.739782313462029	5.471929087434355	13.65973436791126	14	0.03933405474028539	0.015479596690483523	0.015054592981063045
Si	4.107510613513557	6.828712021865449	15.021039639035827	14	0.01271077337121606	0.003473049066456025	-0.0008492360872449105
Si	-0.004096319468725001	8.202257095562567	13.657505970120274	14	-0.04169612919790543	0.029683925142173603	0.07263346818365123
Si	1.388350810784877	9.537313151531544	15.02084301570133	14	0.003979042593461167	-0.007575504715284301	-0.009209956367302433
Si	0.03460570687178881	10.87895608920623	0.01649178218108685	14	0.0015814868824230834	0.03130192172014278	-0.027227748229836143
Si	1.3673596312993426	12.254565707915587	1.3895928148477945	14	0.012839585747755476	-0.014482779157862115	0.053079955113393064
Si	2.7394709931824064	13.59165353834105	0.022549419411437382	14	-0.14437579126333913	0.1059683628804351	-0.10451825947987158
Si	4.136332317295507	14.990120619685891	1.2942010041157017	14	0.01281618868934213	0.003451966002830811	0.0243308838656253
Si	2.7426825076458865	10.907155152428935	2.7459759484987414	14	0.01254930795711076	-0.014097627580903932	0.010234541837381443
Si	4.0902077600776625	12.307948943232011	4.086881548669058	14	0.0028891510482503963	-0.038018163037433605	0.014301516232791673
Si	16.389865752704974	13.616804939879023	2.7540866610468173	14	-0.01136428551505451	0.007394498900745876	-0.01258941720010507
Si	1.297573094302356	14.986319235218915	4.15530646907464	14	0.03164902093836278	-0.019304887185799837	-0.016035726771231554
Si	16.384474996284133	10.908564286326175	5.4672920537957586	14	-0.0024417787225446304	0.007204494217586932	0.0031848281600674253
Si	1.3644332206708853	12.263249905189282	6.838428491645265	14	0.029131651719405797	0.025960450417535155	-0.012955028376630127
Si	2.712926843025068	13.641005995300251	5.47512421661996	14	-0.02227991315174318	-0.01657668733059071	0.0030148780984056373
Si	4.083260402258706	15.03205054576776	6.808508974245698	14	0.006763549655181537	-0.020505336259776973	0.039815622766749124
Si	2.722659698082759	10.908793680216425	8.208073869208157	14	-0.01821088187207683	0.022028716161964713	-0.004976631457678622
Si	4.1113119979805335	12.288466847838755	9.532020706777951	14	0.00044223011506546963	-0.013027276436126287	-0.005177177672650172
Si	16.37972326570041	13.633976711091918	8.185773506020418	14	-0.004647015755635638	-0.005038337985362175	-0.008635057217717323
Si	1.3565043847072213	15.005244231164424	9.54893031354485	14	0.007646467222120387	0.020799470708401914	-0.016350430062417678
Si	16.34875509051685	10.882970482285582	10.912054350513529	14	-0.03531001780372163	-0.006641165041942488	-0.012617442248094683
Si	1.444478580145347	12.190679509481352	12.185190441393258	14	-0.10348673202542816	0.11415759043563875	-0.022989023999040018
Si	2.7570851668979235	13.653802897320546	10.891474441502655	14	-0.024310572133596133	-0.0006373770088647088	-0.005801956265446155
Si	4.112344270486652	15.01058583175164	12.275473322483958	14	0.015510707064857318	-0.00868030867135193	0.012807446931253625
Si	2.7539555788238177	10.894112471240515	13.649854045352695	14	-0.03222983363018423	-0.009271662894985986	0.041475785471968736
Si	4.1068224318428115	12.273261309970847	15.006997455897038	14	0.01765398045973276	-0.017968940861450896	-0.0587636405341124
Si	0.07150699117385109	13.529340326582806	13.54446393806134	14	0.20432008336046353	-0.20639933623286727	-0.008877512449407288
Si	1.4573016986102436	14.935721497141223	14.963412616749805	14	-0.20187933308004696	-0.030752990734291174	-0.13336143318235677
Si	5.491722503107234	0.00503519589095677	16.360175629195655	14	-0.05428966016652274	-0.015415576168011839	-0.03158448619482706
Si	6.828679251309699	1.3660946878474003	1.3698305312028776	14	-0.005077675896760441	-0.0014822422170653676	-0.0008078412915905265
Si	8.183348484894934	2.737996318173665	0.0051466157805060905	14	0.009409731250677941	-0.002993537924248408	-0.002944172702101565
Si	9.554599619689563	4.095729598721504	1.3704810267345109	14	0.0016861308689531103	0.01468152559910956	-0.0028608688897287676
Si	8.188903094094524	16.381476490433023	2.7322942414732	14	-0.011561489293109866	-0.0005008513163648457	-0.0015400920867686993
Si	9.550585226610213	1.3707562994028095	4.092452543146524	14	0.017397384148781975	-0.12152509273052306	-0.004762201273978271
Si	5.47455073189434	2.757003240508549	2.722692468638509	14	-0.005359211929316657	0.006072436545125732	-0.006551690576801335
Si	6.835397215238409	4.106543882118938	4.099416286243357	14	-0.006413622221109383	0.018301384779346043	0.005576727439401183
Si	5.457002099290321	0.027499411857444672	5.464883417948148	14	0.011493097891593928	0.03915047782042682	0.031450531607647346
Si	6.838379335811641	1.3640252272518005	6.8298262207609435	14	-0.016764892240025548	-0.04860571763527138	-0.02253985189961015
Si	8.190623548271388	2.7317371420254535	5.460901795424547	14	0.009628018092358512	0.04084715022119253	0.0006936842153759517
Si	9.548979469378473	4.099514597910606	6.824255226283477	14	0.021650249458838915	0.011049582223868384	-0.0005908400025700285
Si	8.185560497408044	16.379428330698662	8.186559999358412	14	-0.013238878403974474	0.03131940523631979	0.012256459061145893
Si	9.53575655013343	1.3765812656873362	9.526859344247358	14	0.03775513896318245	-0.02337314713387014	0.02530404722930135
Si	5.474976749119087	2.7274605845001045	8.189984522434267	14	0.007770908719615554	0.006893390473849015	-0.011374827046867117
Si	6.8213386468217445	4.097581135121367	9.559941220276782	14	-0.0028331009522711685	0.0062799247444616825	0.014308972438220102
Si	5.46455571239065	0.0021907116518741303	10.914151666081516	14	0.0068003164612596536	0.011092776793246871	-0.0084401674344501
Si	6.8245993171188495	1.3719065459096274	12.278684836947438	14	-0.006509781560082921	0.009928323193751807	0.012341562647242794
Si	8.189968137156391	2.734915885933184	10.915134782754011	14	-0.006797231134875476	-0.010643090472752975	0.0020815668671918847
Si	9.5362972643033	4.112590049654776	12.286959402274265	14	-0.008281016015132932	0.002761624224371052	-0.013579035637830063
Si	8.18300439405956	0.012387270073424403	13.650067053965069	14	0.01121027630637764	-0.006897761352893267	-0.021507038892506665
Si	9.542720293230262	1.375072181595058	15.020154834030583	14	0.014880272040357006	-0.003752528214756121	-0.01842479783471315
Si	5.462343699877539	2.7389138937346598	13.641661406415245	14	0.006375312751839176	0.01450077689510315	-0.027905748702759192
Si	6.817389794853894	4.097237044285995	15.022055526264072	14	0.0041646763975758585	-0.004847561970607188	-0.0006574316303618638
Si	5.4713883732644835	5.474255796892591	0.004758284694870961	14	4.57656746986358e-05	0.002538966503646228	0.0030483024675675625
Si	6.835380829960534	6.830399705486565	1.3762617527687757	14	-0.006202791584857241	-0.0037147329665499444	-0.014722920394763944
Si	8.184528224901925	8.205452224748171	0.01588880395529053	14	0.007439236133316452	-0.0007193952685774325	0.0035604666473410596
Si	9.55043775910934	9.55364927357282	1.3983278064829037	14	0.02864956947187803	0.015150238098972556	0.0011613682731108875
Si	8.2053702983588	5.473911706057218	2.7435017715396315	14	0.008739444093715337	-0.01743466517592412	0.004906954503502608
Si	9.56659364309399	6.84349154250861	4.111574162426533	14	-0.002473146207450437	-0.010305761454749545	0.0030737564102370288
Si	5.480760752208926	8.200045083049456	2.744058870987378	14	-0.009879215082136978	0.004617190933921921	-0.00021468729423236457
Si	6.835561068017158	9.570247560060094	4.120274744978104	14	-0.023478562451996216	0.003328552947463703	-0.01357132232186962
Si	5.4543312989967125	5.457395345959319	5.459312423470682	14	0.0038890539072559847	-0.006992378028674716	0.018451280219510674
Si	6.810032805088064	6.818290985137014	6.827532281858456	14	0.009118167907373147	0.0057327935323341715	-0.007775022488127791
Si	8.188444306314027	8.192229305503128	5.489641572817122	14	-0.02103832639264367	-0.018192627024303777	0.009378106655240118
Si	9.525810686463364	9.537411463198794	6.896628998656911	14	-0.06642861971453787	-0.06702048815923595	0.033260332642499585
Si	8.179268550704082	5.457428116515069	8.188804782427274	14	0.0002331992525374308	-0.0033401229214043695	0.002555678688227191
Si	9.541769947113517	6.819323257643132	9.556483926645177	14	-0.008631971891333147	-0.00906160359032989	0.014002753794590468
Si	5.44987450341474	8.191442812165134	8.187412033807908	14	0.013615288222844154	-0.005327073112814805	0.0019756373280017843
Si	6.8119662678773025	9.555762974418682	9.555123948581562	14	-0.0008242963656394742	-0.014390990697932827	0.012613585590114459
Si	5.450513529251861	5.459001103191059	10.918903396665238	14	0.005048365296110753	0.006885934268420585	0.0037126760822938265
Si	6.815816808177904	6.821240335154495	12.281011546405676	14	-0.002924375191136425	0.004465752830565198	-0.001337231877009016
Si	8.176728832633472	8.18618313796729	10.914807077196514	14	0.009553713148606232	0.002908434338151507	0.0018398829670979652
Si	9.539836484324278	9.546669145198111	12.281240940295923	14	-0.012444921081112746	-0.010615065424763358	-0.0013793980042594446
Si	8.170240262595012	5.465833764064892	13.655556122053161	14	-0.006590257156603556	-0.0027150872180763718	-0.002353075588999522
Si	9.523139886169755	6.836282020243654	15.021727820706573	14	-0.005866233898449857	-0.005508593148417259	0.009833706517970357
Si	5.465194738227771	8.183430411284307	13.649804889519071	14	0.004828021570174063	-0.0015647746978421208	0.026149169548034024
Si	6.817963279579516	9.545309167134496	15.01987628430671	14	-0.0061477699310060726	0.0035103300935981725	-0.035218229343792345
Si	5.458755324022936	10.910366666892415	16.378904001806667	14	0.0112755823815094	0.010897372788915618	0.018316811411266933
Si	6.8294657446476945	12.264085554360904	1.355316452061291	14	-0.00812366436953987	0.028204768251492412	0.024581823744871754
Si	8.198783416653088	13.622326778522863	16.375495864008688	14	-0.009311000806384254	-0.0014994686227103595	-0.012260058608594101
Si	9.540033107658777	15.00776756395716	1.3601697713678365	14	-0.01998005944287072	0.005125755566247211	0.07096507794140713
Si	8.189984522434267	10.93392869647652	2.7438130918192547	14	-0.0218549094423227	-0.011459930632964016	-0.02819396960914779
Si	9.5322501006682	12.35543347851347	4.063696380476075	14	-0.07048685235185959	0.025510764097041255	-0.08741475266918253
Si	5.4652930498950205	13.646937465890964	2.7006051140631433	14	0.03319245546204767	-0.06376983970297272	-0.012049999303938002
Si	6.792353090261047	15.038014786914225	4.080147199462474	14	0.03947392286970144	0.0036106032010839477	-0.003786209694450061
Si	5.446417209783136	10.935223133428638	5.459902293474179	14	0.004886385660941424	-0.01047236907949514	-0.0019910639599226725
Si	6.824763169897599	12.29487349148784	6.811638562319804	14	-0.015447972095045703	0.007020145966132315	0.0014948406331340932
Si	8.166471648683785	13.68454167861386	5.449120780632494	14	0.023036332336930743	-0.0016025699460482975	0.031380340432407304
Si	9.544506288518626	15.020220375142083	6.822846092386236	14	-0.038827546992216216	0.03886585646148642	0.005905057588784093
Si	8.168765587586272	10.941252915686603	8.20976155282927	14	0.01034509936614781	0.017415381886023013	0.002226577207248237
Si	9.54118007711002	12.301034355968802	9.564709336138376	14	-0.015017826174984929	-0.01557549891892505	-0.021064037445845153
Si	5.460131687364426	13.663830687379985	8.166012860903288	14	0.009029978994892069	0.006575601856278712	0.007851127205604175
Si	6.818717002361761	15.019728816805836	9.547603106036982	14	0.0013876255412839183	-0.0032041114499685363	-0.007648009885312475
Si	5.459885908196304	10.928095537553057	10.918149673882992	14	0.001984893307154317	0.01491575329377505	-0.0018661082413634759
Si	6.829318277146821	12.288958406175002	12.282420680302916	14	-0.010996617454273334	-0.033831632244636485	0.003684908144836227
Si	8.183282943783434	13.671892244094435	10.925965451429319	14	0.030234398791217303	0.021107489125755656	0.00011904217632285606
Si	9.549126936879349	15.049435325593029	12.284862086706276	14	-0.0402318847180811	-0.013248905714723052	0.005804270260234288
Si	8.170010868704763	10.901780781285968	13.644774609211476	14	0.006543977260840891	-5.039366427490235e-05	0.052446948983572605
Si	9.546849383254736	12.238803070599932	15.00770202284566	14	0.0160017881810056	0.041390167664807805	-0.052158728077184004
Si	5.470110321590242	13.650689694524317	13.651492573140185	14	-0.02481193767102501	0.02177366251420602	0.015786072444645173
Si	6.849554095322322	15.006227347836917	15.012060506760383	14	-0.02558815436717771	-0.0007019117524004255	-0.003886225691403821
Si	10.88888556759842	0.005659474977990461	0.01272152974207236	14	0.05930125865655537	-0.004932922667236104	-0.015618950598835552
Si	12.291039336465113	1.3085217369783642	1.3985981635678395	14	-0.03863959919331339	-0.11027959228125939	-0.10899661072650549
Si	13.552033936439543	2.878467305395183	0.13248480278529146	14	0.06356055172991268	0.17067845579898597	-0.06912956585335342
Si	15.057513267585355	4.14801502042031	1.4680356941460908	14	-0.08530413231187296	0.0686120023524076	-0.0023631028997480995
Si	13.646871924779465	16.353031648042197	2.784071719557884	14	-0.0034231696232451523	-0.10095625016933842	0.058609631325435535
Si	15.037392146354978	1.3684132046666986	4.087979362286676	14	-0.047612242539566155	0.021266126324008792	0.13099601628782054
Si	10.927735061439808	2.7215454991872656	2.7263300003267363	14	0.007136874147667037	0.17229799504014726	0.016482327765341274
Si	12.282666459471038	4.085079168102819	4.111852712150406	14	-0.002336620514950574	0.018698620551308918	0.00993757917290434
Si	10.904058334910578	0.005385840837479631	5.466734954348012	14	-0.0029002068011270334	-0.04253559508493378	0.012140759321739228
Si	12.286500614493766	1.3656916100116778	6.816488604570774	14	-0.007540023461866255	-0.012953999934502067	0.008767983362768978
Si	13.66497765683123	2.725985909491363	5.4608198690351735	14	-0.02175437922430491	0.009399961050461376	-0.017947086466229636
Si	15.01084799619764	4.100890961252097	6.83687189024715	14	0.015402977751943112	0.006388682499503946	0.0010685513710535417
Si	13.633141061920298	16.37792088513417	8.187919977422029	14	0.00394227578738305	-0.01870916208312153	-0.006975408733561738
Si	15.00580133061217	1.3614347148197787	9.542195964338264	14	-0.0005507307595757185	-0.002352047146871463	0.027281227220495217
Si	10.919444110835109	2.7338344575934403	8.176433897631725	14	-0.013600118701455277	0.00026148141105905966	0.0047922832062240045
Si	12.27350708913897	4.115146153003261	9.535953173467927	14	0.0006381483404607532	-0.0006643736147262636	-0.0067126417698426056
Si	10.89958515405073	0.03443202292631486	10.901338378783345	14	-0.027221320466535776	0.007553650320063041	-0.011251671102032023
Si	12.222696342448906	1.498459878104205	12.209145717646363	14	0.026854680847882655	-0.015271337159551531	-0.05285909716639234
Si	13.673874862717298	2.7821054862128958	10.88336372895458	14	-0.01645481693841569	-0.017998508572632597	0.08575356152183485
Si	15.02449693266743	4.145278679015202	12.264953974088272	14	0.0006031813081067393	-0.0217073279969462	-0.04560652327931864
Si	13.330816299850518	16.173252379198797	13.395718385512996	14	-0.11067451405843413	0.01714901537485567	0.06682945503394895
Si	15.071375212667519	1.4603411676560376	14.775113003411452	14	-0.12759264417554053	-0.22125955365172711	0.0642848320985984
Si	10.890589636497412	2.770275315587218	13.669270599634453	14	0.041048467767760125	-0.036272639635585066	0.01966664170434467
Si	12.248601466769122	4.150931599882042	15.015386718168987	14	0.029093856471199615	-0.009383505976412429	-0.02433294074988142
Si	10.886050914526063	5.483742872782158	16.384474996284133	14	0.017683033949850428	-0.01564569009416509	0.05746368968424554
Si	12.288089986447632	6.797219517789892	1.3680494514978758	14	-0.04017377773784575	0.03422244025329899	0.04486193117860376
Si	13.664174778215358	8.147776046628524	0.01353915510802987	14	0.010304475902089471	0.00033115836523507256	-0.015373410040761409
Si	15.02031868680933	9.53723122514217	1.3614232451252664	14	-0.0169011608219934	0.005764161017239978	0.040007941444696195
Si	13.646069046163595	5.480875449154051	2.786676978739993	14	0.011363514183458465	-0.00013781124515993703	-0.006087606066514607
Si	15.025824140175297	6.840247257489379	4.11771864162962	14	-0.002110877467841573	0.008889596644411983	0.00897392889891284
Si	10.94087605429548	8.180317208488077	2.7294104325672177	14	0.006043640165540074	-0.018115750975231347	-0.006925015069286836
Si	12.340817810649058	9.524401552566122	4.069824474401287	14	0.034635873988778806	-0.03839174464045112	-0.05849238892283679
Si	10.91626536692738	5.459001103191059	5.465129197116271	14	-0.004435670898319466	-0.016320348130171945	-0.008796265521290609
Si	12.27832436083419	6.8301866968741916	6.823386806556107	14	0.00949843438422305	-0.012025059582332565	-0.0011248585775647845
Si	13.663289973210112	8.18631422019029	5.477090449964948	14	0.018610688749359856	0.016871850221343708	0.03454254286565742
Si	15.025545590451426	9.544309665184127	6.828335160474327	14	-0.016740723850016157	-0.0038116636371195267	-0.013208539361196725
Si	13.647035777558212	5.480547743596553	8.19119703299701	14	-0.023978642436765014	-0.010300362133577235	-0.010746963127686955
Si	15.01428890455137	6.843131066395362	9.560891566393526	14	0.06855903758281255	0.008724274572326463	-0.002015746570996094
Si	10.92496594947895	8.178760607089961	8.21397256924312	14	0.030531361455694413	0.0013012364025269429	0.00013935390835202586
Si	12.289581046734247	9.548422369930726	9.56338212863051	14	-0.032273542420626744	-0.002462347565105815	0.007412753748518927
Si	10.909858723278292	5.459541817360931	10.917658115546747	14	0.02443167119417511	-0.0005669287230926515	-0.005076133233568353
Si	12.281142628628675	6.822518386828738	12.2726386694116	14	-0.012341819757774809	-0.023225822799025655	0.029766200512418343
Si	13.658046684290145	8.208270492542656	10.945300079321703	14	-0.07462684613836203	0.034305486955139776	0.002461576233509771
Si	14.980535232129075	9.583699873195386	12.341768156765804	14	0.03460270673014889	-0.04726462910028213	-0.05248088757379856
Si	13.652229910644555	5.478302960527691	13.652066057865808	14	0.010308589670601708	-0.016809629472596125	0.02096016479091117
Si	15.034852428284369	6.817619188744143	15.018860397078464	14	-0.019924009346891494	0.0033349807107640734	0.020606894919922826
Si	10.893473445403393	8.159622602532078	13.633845628868919	14	0.027742226404397774	0.005936682184221914	-0.008452251629454795
Si	12.244275753410149	9.455550614935794	15.055710887019115	14	-0.054076258424950445	-0.0095583411381825	0.07016906373428929
Si	10.909711255777419	10.878808621705359	16.386097138793748	14	-0.02458850861870414	-0.004425643587570888	0.0019812937597061095
Si	12.291678362302235	12.253828370411215	1.3453722269190143	14	-0.01198469322880624	-0.021815571530924435	0.0726437526049318
Si	13.687146937795967	13.609595417614067	16.363845931439634	14	0.08176860538613734	0.16257124650349503	0.0010780644607380897
Si	14.976586380161224	14.945896754701536	1.437095373934917	14	-0.024845619150718947	0.11203745698864463	0.09824810493562645
Si	13.667419063234588	10.916019587759257	2.7215127286315157	14	0.034606049167065084	0.022684862239666502	0.010616350977423434
Si	15.01065137286314	12.272163496353228	4.1125245085432764	14	-0.019831192444834146	-0.044158990984075275	-0.023442309866982126
Si	10.943137222642214	13.663027808764117	2.703193987967378	14	0.01569479820577992	0.013599861590923265	0.01750665612488827
Si	12.26637949326339	15.009619100357023	4.127287643908561	14	-0.03920138570576575	0.03957471019825125	-0.0251538946786047
Si	10.789476086731403	10.797570414001603	5.33424359745157	14	0.16556992663838374	0.18721092011807014	0.16188836093046374
Si	12.246635233424135	12.246291142588762	6.803806399495603	14	0.05457351019386708	0.04341517021495644	0.05655197573772102
Si	13.627307902996833	13.62635755688009	5.475271684120835	14	-0.008220852150641469	-0.009545485611581757	-0.10905523192780488
Si	14.997346527228723	14.999804318909957	6.837461760250647	14	-0.023018077489157695	-0.002666236216993558	0.08385711423769363
Si	13.630781581906312	10.895488834582006	8.162129550046938	14	-0.02920132867358181	-0.08380517791022662	-0.021015957776358382
Si	15.011470636756885	12.244439606188898	9.514799779731431	14	-0.004302487642735796	0.08793360172278841	-0.029752573654221556
Si	10.905680477420193	13.638089415838518	8.173976105950489	14	-0.06677751870648195	-0.01465041522473577	-0.023898423950776394
Si	12.258891421274559	15.022137452653446	9.54548940519112	14	0.034804538497780514	0.05185970852845079	-0.059083486035938826
Si	10.895193899580258	10.905516624641445	10.905057836860948	14	0.037434265019227975	-0.010240455379617784	-0.001667618910648044
Si	12.243866121463277	12.293316890089724	12.245897895919764	14	-0.10017206304669327	0.06595810744095076	-0.0020733393301674108
Si	13.610758772343186	13.584673409966344	10.836239669786368	14	0.07816494416941779	0.01781364610011395	0.09771460058169573
Si	15.009586329801273	14.923711088458923	12.177112499400934	14	0.008609860385579874	0.13713555868180213	0.01727242843022278
Si	13.496618926666631	11.032551684005544	13.812117452147831	14	0.1414100212765483	-0.10389245244494753	-0.2174885134786659
Si	15.109700377616912	12.263184364077782	15.02690556851504	14	-0.0009022008568399608	0.06353818311362738	-0.019847647518883096
Si	10.876023124466625	13.636352576383779	13.637860021948269	14	0.008580292674398169	-0.07992280887680303	0.10472420501601545
Si	12.20662238485363	14.940620695225817	15.09274161501639	14	0.0327746508475236	0.03248103061996269	-0.05398729818087332
H	16.066813614123443	0.15577647528446179	13.829027058914727	1	0.3126204387662729	0.14645041614616658	-0.24164456218252117
H	12.236394434752322	15.327411564740707	12.636719543791878	1	0.11893316145728178	-0.269560852417093	-0.3213837941394656
H	15.107127888990552	1.3119691994432432	1.1472578321335984	1	-0.5298623832447367	0.48062365947964486	0.13946780831770844
H	14.92262966011918	2.914023358383716	15.635307321287954	1	-0.10490829615693804	-0.16194441102644294	0.18319819604491502
H	3.8611907312201854	15.262722487690603	3.855734433687844	1	0.008761812710000623	0.004646758645103623	0.00918244554037685
H	9.8559084945311	9.842652804730307	4.414554335611308	1	-0.014429814388267063	-0.011642222000162517	-0.019293574322391187
H	12.551647181065398	11.936527464363778	14.792104536567726	1	0.02008676031365687	-0.002645924484964388	-0.0294772082744337
