224
config_type=interstitial sigma="0.001 0.1 0.3044543589361834 0" dft_energy=-23354.90174253186 dft_virial="13.946827996255557 -7.722657147072291 0.5169979680048397 -7.722657147072292 16.168303640026352 -0.6906769728814653 0.5169979680048397 -0.6906769728814653 13.078432971872425" pbc="T T T" Lattice="16.3852778749 0.0 0.0 0.0 16.3852778749 0.0 0.0 0.0 16.3852778749" Properties=species:S:1:pos:R:3:Z:I:1:dft_force:R:3
Si	16.136172495367898	15.665144912298146	14.01606500585671	14	-0.24470417751349738	0.8299137165429337	0.36520931276351765
Si	16.11662485886314	0.3499633189632642	0.292811469735613	14	-0.08964492942387897	-0.22757290276535072	-0.16920958332958538
Si	1.3944444956265523	1.4860660539196306	1.4632511930066199	14	-0.01398192784149727	-0.009248522947104655	-0.06344742309582617
Si	2.7250355633746195	2.7600017463596562	16.380542529594155	14	0.005432488430940876	0.031668818449327917	0.0074644329654539035
Si	4.099842303468105	4.094762867326884	1.376841791605547	14	0.007262601197822278	0.0061817085212320265	0.023830546770324486
Si	2.712943228302943	0.006852323207283181	2.751776336866456	14	-0.011029527602371228	-0.04632797543215219	0.02208039537889969
Si	4.079819493904976	1.355455726923228	4.123781194443333	14	0.018495760341549237	0.04967658300111305	-0.030682028227455083
Si	16.363583766993635	2.802390460222022	2.7843338840038823	14	-0.03765126630824847	0.022042857241225525	0.048339608234636046
Si	1.3641890800305494	4.147490691528313	4.117276239126997	14	-0.004880986339769113	-0.002848270473660042	0.015552616081575729
Si	16.350721323861837	0.004768115861595901	5.454822857332959	14	-0.015678086021198957	0.0049720034681023555	0.017436207839116213
Si	1.2878549859947528	1.4084784861264041	6.800562114476372	14	-0.009085514869807267	0.02758693164306083	-0.0025222543190652653
Si	2.703947710749623	2.742649737090137	5.464260777388902	14	-0.02555550132961183	0.009750659816129574	-0.0015840579877432317
Si	4.079672026404102	4.090125833688289	6.838739811924889	14	0.01427451962693012	0.0053661539136810555	-0.007259515871438102
Si	2.8481873118823677	0.13210302581080627	8.061245394171177	14	-0.1514494162201305	-0.11357420663849714	0.220961819655654
Si	4.107494228235683	1.4087603129058526	9.609080668623607	14	0.026429934248994195	0.007860126074224693	0.018183371045151244
Si	16.354113076381942	2.7820235598235215	8.182922467670185	14	0.020004742053944143	0.017848098911403935	-0.014397675571765212
Si	1.357376081490166	4.104053319881952	9.566233166980743	14	-0.02349013242593688	0.03014003922596787	-0.0047282626837523165
Si	0.03244612724787699	0.09132170770796767	10.831242160034524	14	-0.07364416968500143	0.07553676031116244	-0.039485235733110094
Si	1.3387001417683548	1.3857504671861305	12.320221516360311	14	-0.06273394136948507	-0.03450577605957931	-0.015723851695897594
Si	2.710501821899583	2.7541358168804417	10.955934124662512	14	0.04848796101160859	-0.008813234816403585	-0.021607569110524458
Si	4.092862175093397	4.113671477994519	12.299838230683935	14	-0.010035538285601981	0.00805681563121602	0.01890405186638875
Si	2.8427146290721512	0.04379129364845774	13.551755386715671	14	0.04549365175576414	0.20516314879494005	-0.03732319326939757
Si	4.09230507564565	1.379265174203245	15.030821649927143	14	0.03581421155700267	0.04579267130449736	0.06035541183781608
Si	16.36527145061475	2.7756333014523102	13.674759667722544	14	-0.0278173026797461	-0.0005892973393779397	0.004055404421469565
Si	1.354085917692886	4.129778206145546	15.033984008556997	14	0.016074293351033775	-0.026383654353231527	-0.002599130368137693
Si	16.37728185929705	5.483251314445911	0.01863169947154879	14	-0.023573179127777663	-0.006905731779385725	0.002283398634823509
Si	1.3654900710938165	6.83941160831776	1.376967958245184	14	0.01778047884148404	0.016153997615958367	0.024196157946849543
Si	2.739978936796528	8.18888670881665	0.006924418429932741	14	0.01982579312366184	0.015381894688317896	-0.013842316822613228
Si	4.1064455704516885	9.55181412245083	1.3716329117691166	14	0.00999208660569148	0.015087246018628925	0.07418230202850842
Si	2.7346864920429352	5.473846164945718	2.7306557136857097	14	-0.02175360789270887	0.0003360434653433539	-0.007860897405820737
Si	4.098465940126612	6.826303386017839	4.105216674611071	14	0.0056482041673013	0.008186913560415511	0.004099627432976112
Si	0.005459574587916681	8.179760109040329	2.769996765863345	14	-0.013201340266300312	0.0021998377119186964	-0.014538057922245298
Si	1.3726832080808975	9.554878169413438	4.119750416086108	14	-0.012302481846376542	-0.0013806835569195185	-0.005787300965121311
Si	16.374824067615815	5.485315859458148	5.474812896340337	14	0.014488692700098454	-0.010197003699707281	-0.007567791399323854
Si	1.3671892244094437	6.819552651533381	6.8310715018794355	14	-0.028172115213926527	0.023952931383563532	0.006886962710548644
Si	2.7345881803756864	8.184085822399302	5.474042788280218	14	-0.008783667105221882	-0.007913347954351758	0.001270383138685166
Si	4.1064455704516885	9.552272910231329	6.824943407954223	14	0.0015645175873101062	-0.009327198769901186	-0.0014207927999138285
Si	2.7263627708824862	5.46050854875555	8.201618069725447	14	-0.0073916706848937115	0.0051846338780786	-0.014658899872292259
Si	4.09802353762399	6.821076482375747	9.5608424105599	14	-0.0034136565335606043	0.007362617194776039	-0.018010078546573265
Si	0.01623944890181339	8.184184134066552	8.188903094094524	14	0.04063889069026053	-0.005978334090408313	-0.005494966290220475
Si	1.434730978337569	9.511834044436075	9.51773274447104	14	0.08960096352290443	-0.08091834085676437	-0.08477294195273037
Si	16.37407034483357	5.467439521296632	10.928456013666304	14	0.01584135120902836	0.009869959102984447	-0.020895887157907467
Si	1.3561504627051235	6.828138537139828	12.293775677870222	14	0.011125172720280739	-0.003636314254285428	0.0122392326555009
Si	2.7504491293585893	8.176909070690096	10.94312083736434	14	0.014146478581986746	0.01504456567031447	-0.002233776302144651
Si	4.135054265621264	9.518453696697534	12.30457357598978	14	0.0017210979013071242	-0.003383831711846887	-0.06060429483280641
Si	2.7264283119939856	5.476910211908325	13.663027808764117	14	0.015648518310017255	-0.015769874481128245	-0.01386005744932225
Si	4.100137238469852	6.816980162907021	15.037310219965603	14	0.007207836654503125	0.002546679819606672	-0.007478316934182702
Si	0.0005456297532341701	8.177384243748469	13.681281008316754	14	0.00754876521995476	-0.0020381151872813823	0.014824736165441808
Si	1.3745118050917364	9.54195018517014	15.025676672674425	14	0.00920918503570639	-0.04885999995143402	-0.003056787115124051
Si	0.01057997392382293	10.832798761432638	0.07165118161915021	14	0.011576915925030757	0.0219608389815128	0.006260641454560572
Si	1.339719306052174	12.260202243504553	1.4087898064060271	14	0.029463324305704898	-0.002883751727078085	-0.009708236578347131
Si	2.8190379025429206	13.54089194748461	0.10246533519068717	14	-0.16256327607700258	-0.032328564074477914	0.05083255195305163
Si	4.090387998134287	15.037261064131979	1.3888849708435986	14	0.030375038252229404	0.043828089729372216	0.040299761898533
Si	2.739782313462029	10.908973918273048	2.746516662668613	14	-0.015011655522216573	-0.007352332773495447	0.003415713417816723
Si	4.1129177552122735	12.2851734069859	4.086504687277936	14	0.012846527732119879	-0.08035398323899187	-0.0027603386717109774
Si	0.00715708937575632	13.662224930148245	2.769521592804973	14	0.005162522372325328	0.008309298173654563	0.001349058961481697
Si	1.3669450837691077	15.026545092401793	4.128188834191681	14	-0.017129474974422545	0.008495189088301268	-0.04559752441069812
Si	16.380706382372903	10.922278763907467	5.471257291041485	14	0.011177109047747729	0.014125138407829517	-0.006911131100558036
Si	1.3654491078991293	12.283829814200157	6.829269121313197	14	0.013314211789854811	-0.016384625763175644	-0.005433259762536921
Si	2.7338344575934403	13.629814850511695	5.45639584400895	14	-0.012016317824244062	0.028675537635611526	0.003328552947463703
Si	4.1292211066978	14.95163160195775	6.810081960921688	14	0.03222032054049968	-0.02260078709569766	-0.030601552630934448
Si	2.75443075188219	10.92847239894418	8.183856428509054	14	0.00904771962160109	0.029614248187997592	-0.006900846679277444
Si	4.117423706627871	12.28269923002679	9.555140333859434	14	0.0079904811139562	-0.06357854946715372	-0.012194752533462338
Si	0.02749121921850722	13.707268059026346	8.164718423951172	14	0.019943549747324617	0.03002202549177307	-0.024442726947051744
Si	1.3992961764053102	15.061773439832828	9.52505696368112	14	-0.046767120220833486	-0.03961636210443765	-0.12560543687359804
Si	16.221425096151002	10.761883278790071	10.745792935916919	14	0.08475700109974545	0.17645804344814683	0.16819862471770314
Si	1.4563513524934995	12.108064938436105	12.101232277562271	14	-0.09298196701889916	-0.13970435000716208	-0.026040926014055787
Si	2.7521859688133286	13.677266615237404	10.881315569220217	14	0.06004405098354614	0.066448417225503	-0.10598173262809985
Si	4.1736907508502785	15.024333079888683	12.21840339964568	14	0.012552650394026952	0.052702002631331304	0.001993635065242821
Si	2.7639669836053815	10.870583212212157	13.645856037551221	14	0.00965681447194417	-0.04217615456117708	0.08827581584090012
Si	4.143640151227712	12.22689097358488	15.031477061042139	14	-0.06608100627525383	0.04507481869911202	-0.027931202645428657
Si	0.15822607432675934	13.111040567714484	13.717181152140661	14	-0.13851289980180548	-0.42371250032869906	0.3979194288675056
Si	1.8479644092869718	14.567462376902846	14.618223967759285	14	0.589946800581809	-0.22531907184170893	0.13529233327778797
Si	5.440256345302173	0.0031377807130433502	0.00538092525411716	14	0.011337546019724969	0.006445503927079219	0.032890093476398256
Si	6.814964773728409	1.361783721238514	1.3706448795132602	14	-0.036188821602148244	0.018596547670099044	0.03262424118629494
Si	8.176876300134346	2.7314585923015797	0.009365824833292841	14	0.010845950682512656	0.01171781249657487	0.0018774211047721274
Si	9.537182069308544	4.098105464013365	1.3776020684989425	14	-0.012291940314563935	0.01770771656092385	-0.007791220451644723
Si	8.179481559316455	0.016475396903211953	2.755217245220185	14	0.002688604833278846	-0.029378734940672026	-0.0188510870967937
Si	9.537050987085545	1.3827011669736113	4.1169485335694995	14	0.008419084370824885	0.004723891804708066	0.018690135903752427
Si	5.448367057850248	2.7166463011026707	2.7494332421303453	14	0.007791991783240768	0.017231290745100408	-0.011875421252699947
Si	6.813080466772795	4.092092067033276	4.107559769347182	14	-0.012086508999484104	0.0014778713380211158	0.001784347092182767
Si	5.458247380408814	16.362682576710515	5.46542413211802	14	-0.0039322484766344725	-0.01739584148558989	-0.005471569231807126
Si	6.796547721397021	1.3641759718082496	6.8379533185868935	14	0.011658419963679448	0.00916701890845596	-0.010200346136623474
Si	8.169732318980891	2.7367838076109225	5.484873456955526	14	0.0073045102145406935	0.005658745699113907	-0.005978334090408313
Si	9.549684036327095	4.101824922090967	6.837347063305522	14	-0.005548959501943584	-0.003488732808908928	-0.0041819028032208504
Si	8.185986514632791	0.013489999274405171	8.178187122364339	14	0.007658551417125083	-0.044591965119988204	-0.01692095833295854
Si	9.531496377885954	1.3821473445814398	9.55124063772521	14	-0.005123184460927062	0.0064694152065565965	-0.010579584171345316
Si	5.453217100101219	2.745795710442118	8.209728782273523	14	-0.004100398764572157	0.012447492186432894	-0.00039337911398265607
Si	6.825893754070966	4.1178169532968685	9.551961589951706	14	0.013568751216549471	0.009835249181162447	-0.015618950598835552
Si	5.51544838547009	0.015556182814430062	10.87908717142923	14	-0.04349693136413714	-0.06284475600878346	0.032028516083616634
Si	6.828105766584078	1.387631497086169	12.277800031942194	14	0.013905566013488871	-0.015203202868567606	0.03055501562463977
Si	8.181202013493321	2.755987353280305	10.916937163320249	14	-0.023274416689576458	0.01643707631170667	0.012245403308269256
Si	9.519977527539899	4.129073639196925	12.29005621979262	14	-0.001841939851354084	-0.008507530393837979	-0.0411088887427836
Si	8.164882276729921	0.009016818414557471	13.651967746198556	14	0.00043194569378487724	0.02623992956583525	-0.01762646963280717
Si	9.532430338724824	1.357864362770838	15.033738229388874	14	-0.009546514053709817	-0.005238112868737681	-0.012574504789248209
Si	5.453938052327715	2.737521145115293	13.654786013993041	14	0.004090371453823579	0.009601021486496957	-0.05857029341403727
Si	6.818127132358264	4.09471371149326	15.02475909711343	14	0.008077384473777205	0.00679363158742727	0.025397121241890707
Si	5.464965344337523	5.455216104001957	0.014948289005271271	14	0.00011621396047069318	0.015342813887451647	-0.006165253447183079
Si	6.825942909904592	6.823485118223356	1.3787244600333732	14	-0.0005723280442649623	0.011821170930444823	-0.00589040228845925
Si	8.195358893577234	8.193916989124244	0.026544150157338003	14	0.004318685606252729	-0.0028287300732269165	-0.028446709262118345
Si	9.55756535498492	9.561972994733267	1.3888964405381112	14	0.012078281462459631	-0.0074898869081233685	-0.015836208998388064
Si	8.181185628215445	5.459001103191059	2.748384584346352	14	-7.430494375227948e-05	0.009888985282353541	0.0017578647073852416
Si	9.552289295509205	6.824697628786099	4.10792024546043	14	-0.005020083137589124	0.0016329089888260449	-0.002624070089743129
Si	5.463588980996031	8.188329609368902	2.741633849861893	14	0.0033804892749306945	0.0068350263830816525	-0.00706642586189498
Si	6.832955808835049	9.559744596942283	4.092173993422651	14	-0.06478311230964308	0.0028832375060140556	-0.004957862388841541
Si	5.4506937673084845	5.454036363994964	5.47441964967134	14	-0.009312800580108357	0.015077475818412367	0.0031586028858019153
Si	6.8209290148748725	6.827548667136332	6.829727909093694	14	-0.021444561033227068	0.006533178618496269	-0.011996263202746906
Si	8.188378765202527	8.192180149669504	5.4668660365710116	14	0.029056832554589487	0.009986687284519168	0.004951177515009155
Si	9.55615622108768	9.55130617883671	6.83597069996403	14	0.004087029016907387	0.006218989548374174	-0.002607615015694182
Si	8.196538633584227	5.47853235441794	8.195817681357731	14	-0.0014297916685343467	0.00978562684848359	0.010298305249321115
Si	9.561284813062523	6.840443880823878	9.5607768694484	14	0.0035818068214982885	0.007875295595613566	-0.009701551704514748
Si	5.461868526819167	8.191541123832383	8.201093740833448	14	0.004570396817095226	-0.0018481105041224394	-0.00847127780882389
Si	6.827220961578834	9.556385614977929	9.564398015858753	14	-0.008989098420301713	0.002475717312770585	-0.006570202535106402
Si	5.462458396822663	5.46625978128964	10.927489282271685	14	0.003668710181319294	-0.016826084546645075	0.010930025826481497
Si	6.828056610750454	6.827483126024832	12.288925635619252	14	-0.006670218532060161	0.0023335351885663967	-0.004170589939812199
Si	8.193163266341998	8.193703980511868	10.92689941226819	14	-0.0036874792501563752	6.684873832385005e-06	-0.012119676258114014
Si	9.563922842800382	9.555238645526686	12.283125247251537	14	0.009236695862631974	-0.00810643796389488	-0.004519231821224278
Si	8.170649894541885	5.47525529884296	13.668221941850458	14	-0.0038042074316910982	-0.008975985783168959	-0.005287478090884525
Si	9.531496377885954	6.840443880823878	15.030149853534272	14	-0.004273177042086108	0.000982162232296566	0.015003942206256131
Si	5.478794518863938	8.165570458400666	13.674431962165045	14	0.004169047276620111	0.012387842543005458	0.036153083238198186
Si	6.847129074196838	9.531283369273583	15.026381239623046	14	-0.00513269755061161	-0.011708042296358308	-0.0044870930047224275
Si	5.511352066001365	10.890868186221283	0.014918795505096451	14	0.012175983464625256	0.03936876466210738	-0.08653851997607606
Si	6.8549612370210395	12.314191734102346	1.3391294360486774	14	-0.04646038735613982	-0.03395890195798382	0.039681668179569404
Si	8.316085620959498	13.77375951664269	16.269352033935082	14	-0.20505207704510967	-0.13161102468039995	0.17860825882738668
Si	9.577031065100302	15.046453205019796	1.4352733310352281	14	0.05108606293761823	0.05292054658354388	0.051815228406412214
Si	8.186265064356665	10.94071220151673	2.7266413206063596	14	0.07678888860207454	0.0358530352473369	-0.023089297106525793
Si	9.555402498305433	12.285222562819524	4.100022541524728	14	0.018066642863616523	-0.009734204742080626	0.006876164068204022
Si	5.476172874403954	13.658456316237018	2.7176294177751648	14	0.035397178274074646	0.039292659944631	-0.014024608189811726
Si	6.8286464807539495	15.01563249733711	4.093730594820767	14	-0.01514663855152435	0.05038158007989765	0.01237241591108457
Si	5.467914694355004	10.915691882201758	5.457526428182319	14	0.0054998513903287555	0.027583074985080606	-0.013862885665174412
Si	6.842246261390117	12.270197263008242	6.818356526248514	14	0.0038713132805469623	-0.008915307697613463	-0.009084229317147193
Si	8.186641925747788	13.650574997579191	5.452791082876472	14	0.004379363691808223	0.0008759755825744505	-0.013840774159421138
Si	9.52900581564897	15.02787229990966	6.812654449548048	14	0.012199894744102635	0.05062789196956784	0.017590731268857112
Si	8.19517865552061	10.91462683913989	8.199209433877835	14	0.016030327450059244	0.005118042250286766	0.0011251156880967993
Si	9.55432106996569	12.289499120344873	9.559564358885659	14	-0.015051764765210885	-0.0013506016246737859	0.012202722959954797
Si	5.489412178926874	13.621261735460996	8.192606166894251	14	-0.001397138630968466	0.0590256361662355	0.018781153032085673
Si	6.848620134483453	15.013715419825747	9.529628456208217	14	0.040691084128259544	0.027852012601568093	0.008028276362162376
Si	5.469340213530121	10.91597043192563	10.93894259150624	14	-0.009277576437222329	0.01918507367788094	0.005030110448337701
Si	6.838510418034639	12.287172410886637	12.297626218170823	14	-0.037619641712810646	-0.0399089538898705	-0.04445826764334051
Si	8.190033678267891	13.653524347596674	10.92252454307559	14	-5.090788533893197e-05	0.01350215958875764	-0.02151372376633905
Si	9.535838476522803	15.016451761230856	12.302525416255419	14	-0.009653729145559993	0.02190401755393753	0.007380357821485061
Si	8.189968137156391	10.895783769583753	13.647543721172335	14	-0.01421358443084261	0.01064823268339327	0.03596667810248745
Si	9.58284783874589	12.223253441896652	15.00435942615918	14	0.06628643759033367	-0.08696918011720087	-0.057685576073374316
Si	5.452365065651724	13.638646515286265	13.649428028127948	14	0.020476539880191314	-0.020311217808105794	-0.0019792368754499912
Si	6.7750830073809025	15.042487967774072	14.994413562489115	14	-0.07895401639217126	0.06156331711722164	-0.02547194040670702
Si	10.905090607416696	0.004653418916471601	0.024682782590749363	14	0.058764411865708445	0.0713952238614679	0.029678782931533303
Si	12.257662525433943	1.3937300975112066	1.3803728189875883	14	-0.004674012361497192	-0.0292272968373153	-0.01044074448405732
Si	13.54606969529308	2.861410231127412	0.05475632160234082	14	-0.028797408027786547	-0.08047559652063488	0.007951143202557935
Si	15.003179686152185	4.144344718176333	1.393808746845006	14	0.039198043268849556	0.01819005591898363	-0.0010996617454273334
Si	13.599797021444877	0.03193162952260512	2.7766164181248043	14	-0.013323981990071374	0.009787683732739708	0.006874621405011934
Si	15.001262608640824	1.3914492668310205	4.106576652674688	14	-0.001765578023345686	0.004648301308295712	0.000982676453360596
Si	10.899470457105606	2.745533545996119	2.7522351246469534	14	0.004569111264435151	0.013504730694077784	0.0006252928138600129
Si	12.277865573053694	4.106887972954311	4.106953514065811	14	-0.030242369217709765	0.0137307308517188	0.010312960549645958
Si	10.899339374882606	0.014337118140537501	5.476385883016328	14	-0.0003872084612143007	-0.023794294185310396	-0.018305241437326262
Si	12.274867067202587	1.376232259268601	6.831563060215682	14	-0.018443309793018215	0.005610666029627138	0.003039560709479059
Si	13.638777597509263	2.746795212392487	5.47512421661996	14	0.004661928166492497	0.017227948308184218	0.0053041902754654875
Si	14.996281484166852	4.133514049501024	6.823108256832234	14	-0.004457011072476696	0.02349244642072501	-0.004113254291172897
Si	13.635795476936032	0.0096017728346914	8.192393158281877	14	0.004548028200809936	0.018982727689185283	-0.048363519514113426
Si	14.990333628298265	1.420687156670992	9.51824068808516	14	-0.019851504176863315	-0.014359880323559036	-0.0015966564038119573
Si	10.917084630821124	2.7402902570761514	8.200405559162704	14	-0.007943944107661518	0.014287118042998845	-0.005198260736275386
Si	12.27912723945006	4.124485761391954	9.549946200773093	14	-0.01668467375403693	0.009302259048295751	-0.0009713635899519442
Si	10.870878147213906	0.009449389750454831	10.918919781943114	14	-0.01623293054928691	-0.020100130061321636	-0.03490789693165047
Si	12.170607544084598	1.4738393595693802	12.230594046384608	14	-0.0012891522075222468	-0.029893727336297686	-0.038850172719033516
Si	13.639924566960508	2.7677192122387337	10.914168051359391	14	-0.002632040516235588	0.01329852804740191	-0.009056204269157578
Si	15.002163798923942	4.1161292696757545	12.29490626204359	14	-0.004749859968441562	0.03552804753487018	-0.028615887992184088
Si	13.455606576145756	0.16574855539912595	13.662257700703995	14	0.09317917079695452	-0.19140953510587194	0.08017734830349768
Si	14.872031922041486	1.5390724278449321	15.02793784102116	14	0.16193541215782245	-0.07808112613598096	-0.018766754842292843
Si	10.85216615988077	2.7732738214383246	13.669188673245078	14	-0.026972951692609468	0.06434602440521792	0.08497117417291378
Si	12.216617404357319	4.158976771318618	15.016779466788353	14	-0.008095639321550257	0.01139848121581248	-0.0011636822678990205
Si	10.879267409485854	5.495425575906962	0.023853687530279423	14	0.00471077916757531	-0.023339465654176203	-0.0159809622279124
Si	12.270688821344487	6.83777308053027	1.3826241561675994	14	-0.013064814573800449	0.003166059091230344	-0.017926774734200467
Si	13.642660908365615	8.188100215478654	0.015020384227920831	14	0.012355960837035622	-0.012667835912369585	0.010034252732941907
Si	15.003425465320309	9.515225796956178	1.4203561740579191	14	0.002453348696485297	0.00840982839167235	0.007763195403655109
Si	13.638482662507515	5.493082481170851	2.7615419624798965	14	-0.022577904258348342	-0.007843928110707759	-0.008320611037063214
Si	15.006030724502418	6.847194615308337	4.128614851416429	14	0.035192261180058845	-0.005717109789881269	0.023204739735400444
Si	10.917674500824619	8.199504368879584	2.754283284381316	14	-0.005682656978591284	0.004856046618163677	0.011863079947163237
Si	12.28581243282302	9.572803663408576	4.10611786489419	14	0.00158611487199935	0.004476808583441835	0.009800025038276419
Si	10.917117401376872	5.468144088245253	5.476009021625205	14	0.0027276856341450968	0.009766343558582477	0.0031429191433490116
Si	12.281077087517176	6.8484890522604545	6.830547172987439	14	-0.006105089582691614	0.0008536069662891622	0.003558152652552927
Si	13.652950862871052	8.224721311529056	5.487085469468638	14	-0.017239518282124885	-0.006213076006137833	-0.015207573747611858
Si	15.026938339070792	9.577883099549798	6.860089828995883	14	-0.002764452440223215	-0.002798133919917154	-0.041800258963371424
Si	13.645954349218469	5.497588432586448	8.198160776093843	14	0.011512638292027054	-0.0064871558332656185	-0.0010009313011336471
Si	15.023808750996686	6.8476861736445835	9.57003455144772	14	-0.017180639970293496	-0.006800830682323683	-0.007594273784121381
Si	10.93409254925527	8.210482505055767	8.20764785198341	14	-0.005746420390530957	0.012967883903230865	-0.0018182856824087215
Si	12.308833748237255	9.582307124576019	9.5690678200531	14	-0.021774433845802067	-0.022925003476568333	0.006658134337055465
Si	10.908613442159801	5.467242897962134	10.927522052827436	14	-0.0044611248409889325	0.008573607800565784	0.02328650088458115
Si	12.268771743833124	6.829105268534447	12.289646587845747	14	-0.005090274312829167	-0.010932339821269631	-0.0158056128450783
Si	13.643709566149608	8.192786404950876	10.94312083736434	14	0.003676937718343768	0.01963707399316297	-0.001065208934137349
Si	14.992070467753004	9.522533630888384	12.348404194305138	14	-0.029772885386250725	-0.01647307178618874	0.03842131235163282
Si	13.632403724415928	5.4758451688464564	13.659259194852888	14	-0.005285678317160421	0.004924438019679616	0.023478819562528227
Si	15.003638473932684	6.825287498789596	15.034901584117993	14	-0.0029477722495497728	0.003514958083174439	-0.00641130822632125
Si	10.904074720188452	8.183725346286055	13.660832181528878	14	-0.003853829764369955	-0.008954131387947699	-0.003415199196752693
Si	12.2644788010299	9.535609082632554	15.031935848822636	14	-0.00475885883706208	0.0012680691438970327	0.015310417960417783
Si	10.937091055106375	10.909842338000418	0.028140076222353264	14	-0.038330295223299574	0.002775765303631866	-0.018174372176530725
Si	12.304688272934905	12.31620712328096	1.3512922278152155	14	0.0780523297563953	0.01756347755246354	-0.02295637096147414
Si	13.699370355090643	13.700222389540139	16.368204415354356	14	-0.1296446433315507	-0.06263058293561512	0.10604395337684744
Si	14.983517352702306	15.040521734429083	1.469230180903171	14	-0.05923852368674375	-0.004080087032542986	-0.1843695916287745
Si	13.645954349218469	10.938385492058494	2.733752531204066	14	0.02605018199320832	-0.01244723507590088	0.022998794199256583
Si	15.012633991486004	12.291448968411986	4.112278729375153	14	-0.04027945016650383	-0.0067658636499696705	-0.012368816363636365
Si	10.935649150653385	13.644217509763731	2.7507112938045877	14	-0.03337603238190625	0.024663584894052463	0.013371033217430085
Si	12.259415750166557	15.030706952982019	4.126746929738689	14	0.017838585821719388	0.01629643685069457	0.011467129727860433
Si	10.908056342712053	10.919902898615605	5.467013504071885	14	-0.0012960941918866466	0.02103292707147136	-0.0036535406599304205
Si	12.262627264630037	12.293890374815346	6.823419577111856	14	0.01910074142338008	-0.019992914969471465	-0.009317428569684623
Si	13.634877901375038	13.656244303723907	5.468520949636376	14	0.013719675098842166	0.0024847161813911036	-0.0029009781327230776
Si	14.995544146662484	15.030166238812146	6.822502001550863	14	0.004552141969322174	0.028365205223469653	-0.003450937560702752
Si	13.655064563716913	10.967190810562569	8.199455213045958	14	-0.0344240149103986	0.012210693386447256	-0.032711401656647966
Si	15.008554057295154	12.392333124287745	9.51837177030816	14	0.018596804780631054	-0.025374752625605422	0.04417544605812422
Si	10.881512192554716	13.660225926247508	8.16732368313328	14	0.007295768456452189	-0.04451046108133951	-0.005082818107400738
Si	12.219304589928802	15.046207425851673	9.518404540863909	14	-0.026700928749737802	0.1016072540363999	0.01571793815366125
Si	10.926096533652318	10.930160082565294	10.924523546976328	14	0.00721554997046357	-0.014952777210385182	-0.007493743566103591
Si	12.285959900323894	12.295070114822337	12.295954919827583	14	-0.05485093245791106	0.04819768322096387	0.0397580300075778
Si	13.560472354545118	13.67043395436357	10.86096505409959	14	0.08182079882413636	-0.006563260550742	0.08497091706238177
Si	14.72574416117438	15.361116081329376	12.029005972689712	14	-0.14688596138739968	0.2429974778019831	-0.44152100421817275
Si	13.616723013489649	10.896963509590748	13.665829691280722	14	-0.02661273983725672	-0.07455999740003817	-0.015018597506580975
Si	14.972965233750871	12.125416947705624	15.126528057994435	14	0.02322453724636558	0.11926097738560067	0.05006430568339138
Si	10.904173031855702	13.644004501151356	13.66050447597138	14	0.08550107897939632	-0.017077538646955555	-0.03693161392913902
Si	12.258809494885186	15.02983853325465	15.022760093212693	14	-0.06678960290148665	-0.05259684442373724	0.008059129626004153
H	2.682777931735252	13.68765488141009	13.682329666100747	1	-0.08012155531805049	-0.10190113137449285	-0.23364019709983616
H	15.212157520168661	14.975160860986106	15.007079382286413	1	-0.14305809978676323	-0.28092642348480756	-0.046981807515065845
H	0.5855737836376013	15.998913022609859	15.604011440546895	1	0.5674524572463656	-0.2187452697591543	0.12833620783412733
H	15.54032186544716	14.103513233875052	12.90119431397064	1	-0.021591114036475508	-0.10030190386536074	-0.041415621607477277
H	9.269676022722928	14.682585339251894	15.324970158337349	1	0.0444163586266221	0.05868085094280363	-0.04448500713867005
H	15.305340595443218	9.832952720228365	9.798428939745952	1	-0.04079675655691763	-0.058113922219710984	-0.07863879887992109
H	3.763944107032654	1.0056054663773004	7.053567190142702	1	0.0706519173134131	0.07322816484420147	-0.04484599032561884
