224
config_type=interstitial sigma="0.001 0.1 0.4236062343747987 0" dft_energy=-23353.876319441664 dft_virial="9.451369102588474 0.8966683507583937 3.877484760036297 0.8966683507583937 11.939421823611767 -1.4379005985134603 3.8774847600362965 -1.4379005985134603 10.061265142969184" pbc="T T T" Lattice="16.3852778749 0.0 0.0 0.0 16.3852778749 0.0 0.0 0.0 16.3852778749" Properties=species:S:1:pos:R:3:Z:I:1:dft_force:R:3
Si	15.64081277465392	15.560246363343037	14.468020125480077	14	0.48342667849967025	0.5832840382551774	0.10055747173418346
Si	16.317934382834164	0.09224256032453705	0.1679802302456873	14	-0.3121283292079966	0.012276256572111033	-0.1277466533842174
Si	1.4278639083801983	1.4277836205186114	1.4038185130987826	14	0.16616719440425415	-0.15070842366686382	-0.12298393788917507
Si	2.7538900377123183	2.7751417431160634	16.38229575432677	14	-0.0019931208441787912	0.0017861468659068705	0.00848670444074478
Si	4.099039424852234	4.124043358889332	1.3891045335671224	14	0.0761597391302343	0.03225965845189795	0.03569825470706398
Si	2.7442882648776266	0.0048975595568076105	2.751301163808084	14	0.0426749489932858	-0.02493020851575182	0.030570442256560658
Si	4.106593037952562	1.3742873267848503	4.103283211821833	14	0.0009641644950555294	0.047522768074425	-0.0014117939312933102
Si	0.007148896736818871	2.7503999735249645	2.743960559320129	14	-0.14890247928999178	-0.054625703631866085	-0.04589988639634753
Si	1.362154028518487	4.104462951828826	4.11286859937865	14	0.07595225093089836	0.007518426177177013	-0.0014243923473620359
Si	0.007489710516616791	0.007576552489353761	5.463375972383657	14	-0.0024057832480625574	0.001784347092182767	0.0014693866904646271
Si	1.3836105498956683	1.3710938361270324	6.814718994560286	14	-0.060068733594619575	0.05385077248837345	0.03313614825553642
Si	2.7443538059891264	2.7401591748531517	5.4587880945786855	14	0.0013284901189205124	-0.01900226808961841	0.030113042620106313
Si	4.1047742721084495	4.100792649584848	6.828990571589323	14	0.0034663641926236397	0.008355835179949242	0.0055823838711055096
Si	2.702948208799254	0.00499259416848203	8.223344948187565	14	0.0015277507812319884	0.23163473495012069	0.011523436934371675
Si	4.098564251793862	1.3747297292874725	9.556385614977929	14	0.022710059071803953	0.0009628789423954555	0.04221369269885124
Si	0.030438930708201736	2.775059816726689	8.145138016890666	14	-0.01267400656513794	0.00148558465398156	0.001615682583181053
Si	1.3745855388421735	4.115588555505883	9.564856803639252	14	-0.06596839186223134	-0.055637947796408384	-0.026181565475067888
Si	16.276709023700914	0.1470791697884649	10.989114312359185	14	0.5206143745186961	0.25782555640434107	-0.2850255366967196
Si	1.3905169445199388	1.4192812998293256	12.319910196080688	14	0.13646629996696757	0.21788832035594893	-0.1104030053366265
Si	2.7584123744057907	2.7645404683310035	10.914266363026641	14	-0.0744304136919027	-0.09863479917577674	0.14850395796536886
Si	4.107526998791433	4.117161542181873	12.294054227594094	14	0.01671038480723841	0.004465752830565198	0.02201046131419166
Si	2.865375468373138	0.10190659721515306	13.61067684595381	14	-0.21067611282240156	0.010078732854980468	-0.008083298016013546
Si	4.157420169920503	1.4162582160614068	15.052974545614008	14	-0.013849515917509643	0.001313063486999624	-0.03334852155498066
Si	0.02573635595810543	2.816367102249312	13.685836115565976	14	0.00340645743866419	-0.2180371873539855	-0.09619713422174433
Si	1.3876855685031562	4.159861576323863	15.046256581685299	14	-0.026933870891743216	-0.014700808889010672	-0.003210024992204877
Si	16.380329520981782	5.484136119451156	0.021643313544955415	14	-0.009206871040918257	-0.0019134165792542002	-0.009149535392278953
Si	1.3696732325352785	6.8346926482897885	1.3802892540704261	14	-0.021086406062130438	0.011799316535223564	0.012336163326070484
Si	2.7402574865204015	8.190508851326264	0.01295092363232096	14	0.013229365314289926	0.010682171273619223	-0.0015457485184730251
Si	4.107395916568433	9.558220766099916	1.3712134486555192	14	0.002029630539724894	0.019011781179302953	-0.003585149258414482
Si	2.7287222508964715	5.485840188350146	2.7638522866602573	14	-0.08106669363373692	0.023894310182264157	0.013249162825255067
Si	4.06762884716605	6.866168767087471	4.138134697861745	14	0.06094445206666202	-0.0559490515401463	-0.05463958760059489
Si	16.375594175675936	8.181415022105694	2.737160669002045	14	-0.00600970157531412	-0.013711704672349705	-0.0004949377741285052
Si	1.3418215372035236	9.586993314048241	4.053521122915762	14	-0.052953970952705806	0.06404777618808073	-0.034476208348397604
Si	16.35788169029317	5.444532902827523	5.465587984896769	14	-0.004344653769986224	0.00942310099834271	-0.03517477766388184
Si	1.3400797821654216	6.761221062298737	6.853601258957423	14	-0.05592102649215669	-0.026390082116531897	0.04374812835391561
Si	2.611747752147561	8.317756919302736	5.59644081400572	14	0.1447241760342192	-0.17695838054344765	-0.1711669658098141
Si	4.15697776741788	9.597152186330678	6.861843053728498	14	0.04399752556996997	0.06626149786872823	0.04931739958788837
Si	2.7501869649125905	5.455298030391331	8.2053702983588	14	0.012134588668970873	0.00027896492723606655	-0.01452160284819635
Si	4.101906848480341	6.840640504158377	9.559810138053782	14	0.008258133177783615	0.006160111236542782	0.03759007400162895
Si	0.00474026088920857	8.173337080113368	8.185003397960298	14	-0.01731742277332537	-0.022700031761055377	0.013590091390706702
Si	1.3898402325437054	9.53700183125192	9.523402050615754	14	0.0169654384549971	0.011854595299606748	0.025320245192818284
Si	0.010629129757447632	5.487183781135887	10.924736555588703	14	0.014571996512471253	0.017411011006978762	-0.0113884539050639
Si	1.380974158685597	6.841738317775995	12.290383925350117	14	0.0001758636038981286	0.014163704987631738	-0.006529579071048062
Si	2.7462381129447397	8.20848350115503	10.928488784222054	14	-0.0097979681540203	-0.01631906257751187	0.00844119587657816
Si	4.1141302657750165	9.565774379200246	12.303983705986283	14	-0.024116453681924954	-0.0045606266168786635	-0.040266337529371074
Si	2.750580211581588	5.4892319408702495	13.657866446233522	14	0.021968295186941232	0.002586789062600982	-0.009756830468897932
Si	4.112753902433525	6.840591348324753	15.030100697700648	14	-0.014336483265145687	-0.008233707677242208	-0.00015400920867686996
Si	0.008223770965412311	8.190820171605887	13.661045190141252	14	0.00260324413664993	0.009748602931873457	-0.0025441087142865242
Si	1.3733320650847436	9.54542386407962	15.034262558280872	14	-0.0014804424433412639	0.02656337461510988	-0.032625012517890996
Si	0.006840853512770751	10.874089661677386	0.044715423320602105	14	-0.005675972104758899	0.028465221220423415	0.019768714585554552
Si	1.3414774463681505	12.27517838748221	1.403104114983437	14	0.025664773305718126	0.04316371611464595	-0.011435762242954626
Si	2.8047990960696323	13.585951461640585	0.11054491571080036	14	-0.10232716352604138	0.0493387397620456	0.006714698654098724
Si	4.129991214757919	15.038326107193848	1.4019587840599814	14	-0.061815028328064146	-0.01058086972400539	-0.0353737812156613
Si	2.7466313596137373	10.931110428682038	2.7305246314627105	14	0.011133400257305212	-0.032716286756756245	0.01891742161405352
Si	4.099072195407984	12.293759292592346	4.108608427131175	14	0.006091205613962814	0.019068088385814197	0.011136228473157374
Si	0.0007783006990577502	13.660619172916507	2.7689153375236013	14	-0.004325370480085113	-0.02065574592100564	0.011726040033599344
Si	1.3752966599019443	15.027462667962787	4.114703750500638	14	0.018295728347641715	-0.018419655624072852	-0.028662682109010785
Si	16.37969049514466	10.930455017567041	5.452610844819848	14	-0.020935996400901775	0.019847133297819067	-0.007925689259888468
Si	1.3752688049295567	12.28433775781428	6.827466740746957	14	0.04532421591516638	0.021492126481649807	0.005812240686726747
Si	2.7384387206762875	13.66073386986163	5.476254800793329	14	0.00039003667706646357	0.00913179476556993	-0.0010883488820186819
Si	4.085243020881568	15.033279441608379	6.853388250345049	14	-0.027636553975739685	-0.1431776561841501	0.00026045296893100037
Si	2.757527569400546	10.944038412925336	8.202912506677563	14	0.005428888883492669	0.02674797997709651	0.012238718434436871
Si	4.093976373988889	12.329905215584377	9.577768402604672	14	-0.02066397345803011	-0.00588885962526716	-0.037097707332820584
Si	0.00299195173995674	13.655998524555784	8.192016296890754	14	-0.07209970671918847	-0.03338991635063505	-0.02716347059683244
Si	1.309026403536911	15.047125001412669	9.58979519656485	14	-0.17922609543581827	-0.2181994240996869	0.21814234556157958
Si	0.01122719239988148	10.880561846437972	10.88259362089446	14	-0.004869159255296432	0.03241958120281116	0.04118807878664417
Si	1.4381833563858104	12.209424267370236	12.218550867146556	14	0.04532473013623041	-0.15046082622453355	-0.2066813864864875
Si	2.7281159956151004	13.713232300172809	10.933633761474773	14	0.03821562392602097	-0.011762292618613432	0.03356398018080907
Si	4.155290083796766	15.056218830633238	12.268607891054376	14	0.032464575545913754	0.058984241370581114	-0.016472300454592696
Si	2.754709301606063	10.914151666081516	13.683427479718366	14	0.009729833863036375	-0.09559626690842572	0.030270651376231392
Si	4.129876517812796	12.266625272431513	15.055334025627994	14	0.03534755594139579	0.044214526858990466	0.024786740838887558
Si	0.04929019290327418	13.392769035495515	13.668041703793834	14	0.002759824450646948	0.07061849294425117	0.24238606895685186
Si	1.765874167133723	14.713832064159327	14.72580970228588	14	0.15611700081832736	0.023133263007500328	0.05006096324647519
Si	5.487757265861508	0.00969353039079084	0.016549130653649	14	-0.006829369951377328	-0.011277125044701488	0.010303447459961413
Si	6.836396717188777	1.381301864243095	1.3824930739446002	14	-0.008556124284388778	-0.0025978448154776192	-0.005925626431345278
Si	8.194572400239238	2.743944174042254	0.00884477299687102	14	0.007550564993678864	-0.003574864837133889	-0.02040249204697105
Si	9.552059901618954	4.10869035352055	1.3759537095447276	14	0.009722891878671975	-0.0019183016793624817	-0.007376501163504838
Si	8.179940347096952	0.0058937844516015305	2.754234128547691	14	-0.012365473926720173	0.013794494263658473	0.003201026123584358
Si	9.543293777955883	1.377121979857208	4.1085920418533	14	-0.014816251517885319	0.0035887488058626883	-0.028766040542880737
Si	5.461082033481171	2.745418849050995	2.73888112317891	14	0.015587583113929744	-0.006624967078425555	-0.008754613615104209
Si	6.814309362613413	4.122322904712467	4.099072195407984	14	-0.0255462453504593	0.0200682483553518	-0.07555321538521137
Si	5.450202208972238	0.0043027739699487404	5.476303956626953	14	-0.015807669729334416	0.02407531599680258	0.03037015315212112
Si	6.812687220103798	1.371403517878868	6.828908645199949	14	0.01479388290160003	0.006112031567056013	-0.01365154080785824
Si	8.159360438086079	2.737537530393168	5.458247380408814	14	-0.005262024148215059	-0.027309252268484834	0.024055518485837445
Si	9.494580346833805	4.130204223370294	6.803593390883228	14	-0.056623452465621144	0.0903311574338265	-0.07809346744151768
Si	8.203748155849182	0.02093383101297224	8.172059028439127	14	0.027375072564680625	0.003416484749412767	-0.08829741312558936
Si	9.56271033223764	1.4152849305556376	9.502543591881008	14	-0.059707493297138765	-0.05243795011495209	0.08965264273983942
Si	5.4600169904193026	2.7374392187259184	8.195457205244482	14	0.001179108899819909	-2.571105320148079e-07	-0.024027493437847828
Si	6.8152597087301565	4.1060523237826905	9.566413405037366	14	0.0039489606612154345	0.014122053081445339	-0.006778462066038395
Si	5.506715032362768	0.02209718574209014	10.891851302893778	14	-0.03032027370891025	-0.04259241651250905	0.004070316832326424
Si	6.847358468087086	1.3857357204360428	12.279602412508433	14	0.006840168593721949	-0.07500685550467989	-0.016491583744493808
Si	8.207877245873657	2.7508915318612117	10.907466472708558	14	0.007726428597576991	0.08143796124196631	-0.025518220302469682
Si	9.537755554034167	4.120700762202851	12.30152591430505	14	-0.00153957786570467	0.014467866747005256	-0.02490244057829422
Si	8.19537527885511	0.01249541290739874	13.651738352308309	14	0.0242457802795284	-0.004086771906375371	-0.007445406786084807
Si	9.55191243411808	1.3750312184003708	15.025299811283302	14	0.001587400424659424	0.010676000620850869	-0.009165219134731858
Si	5.491984667553233	2.761132330533024	13.650820776747315	14	0.010830524050591768	0.06632423283853985	0.0006749151465388708
Si	6.836855504969275	4.12002896580998	15.035081822174616	14	-0.008533498557571474	-0.008561009384497059	-0.009884357292777276
Si	5.467013504071885	5.477090449964948	0.01773706329957925	14	-0.008844345190777377	0.006028984865215231	-0.031538977630660436
Si	6.822338148772114	6.843868403899732	1.3827175522514863	14	-0.0060390121759638085	-0.0743383681214414	0.013444823940118334
Si	8.198177161371715	8.198259087761091	0.01735692485288157	14	0.005056592833135227	0.03704217145790539	-0.03380180742292276
Si	9.565594141143622	9.570263945337967	1.3696699554797034	14	0.022041057467501422	0.008068642715688702	-0.013062757689544329
Si	8.190066448823641	5.4778933285808185	2.7366035695542985	14	-0.005879603646114628	0.007649809659036579	0.028548010811732184
Si	9.558794250825539	6.8472765416977115	4.091371114806781	14	0.012426152012275666	-0.009590994175748378	0.006124372872592724
Si	5.44987450341474	8.197357897477971	2.758461530239415	14	-0.032852555338724096	0.09705819739346193	0.022227205492680143
Si	6.836495028856027	9.563890072244632	4.098007152346115	14	-0.02044877194273372	0.026664161943659684	0.014204071341158064
Si	5.449153551188244	5.489674343372871	5.47040525659199	14	-0.0214695007548325	0.019950748842221037	0.09546668320029027
Si	6.828925030477823	6.845457775853598	6.829695138537944	14	-0.006841711256914039	-0.005789872070441459	0.006914216426942214
Si	8.196931880253224	8.203764541127057	5.464146080443778	14	0.0011253727986288143	-0.00012572705015524106	0.00874767163073981
Si	9.549749577438593	9.569182516998223	6.837379833861272	14	0.014875386940248727	-0.0005882688972498805	0.011736324454879937
Si	8.171862405104628	5.47863066608519	8.20648449725429	14	-0.029236809926999854	-0.017924460739412333	0.009592793949472484
Si	9.548242131874101	6.838887279425762	9.561645289175772	14	-0.02503459539174983	0.029784712470723403	-0.005454857047226164
Si	5.481596401380546	8.203076359456313	8.21189163895301	14	0.023110894391215036	-0.0251382109361518	0.0004689696103950096
Si	6.823304880166733	9.582159657075145	9.578358272608169	14	-0.0002545394266946598	0.029456382321340496	-0.009262149805301441
Si	5.4612295009820455	5.477352614410947	10.927423741160185	14	0.02185208122647054	0.008582606669186301	0.015022711275093211
Si	6.825205572400221	6.835937929408281	12.291940526748233	14	0.008508044614902009	-0.0007319936846461581	-0.009466038457189184
Si	8.183446796562182	8.197833070536344	10.925195343369198	14	-0.02330141329543801	0.013679565855847854	0.035393321616094424
Si	9.544244124072627	9.54786527048298	12.295791067048835	14	0.0037856954733860317	0.002688604833278846	0.012840871300415552
Si	8.187330107418534	5.485250318346648	13.667042201843465	14	-0.026740523771668082	-0.0009165990466327902	0.01701557500873999
Si	9.554042520241818	6.837035743025899	15.034836043006493	14	-0.0018349978669896841	-0.010331215397419012	0.005017512032268977
Si	5.473321836053721	8.198193546649591	13.660701099305879	14	0.015111671519170334	-0.007098307567864817	0.031131457437416972
Si	6.847178230030462	9.547734188259982	15.022170223209196	14	-0.007563677630811619	0.005496251842880548	0.006859708994155074
Si	5.497588432586448	10.898290717098615	0.011762990986390711	14	-0.00879112331065031	-0.0005856977919297323	-0.029640987683327128
Si	6.834627107178289	12.28905671784225	1.3755457161256426	14	-0.0005805555812894363	0.004554713074642321	-0.019119767602749173
Si	8.193212422175623	13.65354073287455	0.0036981572163649304	14	-0.0028456993683398943	-0.007461090528537711	-0.003299242346814015
Si	9.533462611230943	15.018925938189964	1.3915377473315451	14	6.710584885586486e-05	-0.010557215555060027	0.019146507098078712
Si	8.200815191109577	10.92770229088406	2.736718266499423	14	-0.004016837841667343	0.001810572366448277	-0.012321508025745638
Si	9.558335463045042	12.29126873035536	4.10216901292634	14	0.007484230476419043	-0.005379009440281797	-0.0008132406127628374
Si	5.4741902557810915	13.651754737586185	2.75035081769134	14	0.019669984141260866	0.0076778347070261925	0.011457359527643868
Si	6.819913127646628	15.02398898905331	4.11685022190225	14	-0.008685965103056255	-0.028855772118553905	0.013700134698409038
Si	5.4847587600104015	10.93890982095049	5.459296038192807	14	0.010554130228675851	-0.005672115446778677	-0.03840562860917991
Si	6.827401199635458	12.30229602236517	6.836413102466653	14	0.007304767325072708	-0.01439433313484902	0.0006898275573957296
Si	8.188182141868028	13.654359996768294	5.462999110992535	14	0.008595205085255029	0.028366490776129728	0.00023499902626153446
Si	9.546652759920239	15.012437368151504	6.823026330442859	14	-0.006497183144014196	0.017243889161169135	0.0002825644746842739
Si	8.185822661854042	10.936779734826754	8.202339021951943	14	0.007328678604550085	-0.011733239128495759	-0.0035833494846903772
Si	9.552584230510952	12.295053729544465	9.568133859214232	14	-0.008047816762595503	0.011052667550252561	0.007242546576325124
Si	5.469602377976119	13.67130237409094	8.201503372780323	14	-0.0030195060879819042	0.02390767992992893	-0.019569968144307105
Si	6.859893205661384	15.032378251325259	9.542900531286886	14	0.018430711376949488	0.055917684055240495	0.08802153352473746
Si	5.458853635690185	10.955917739384637	10.943268304865214	14	0.013524013983978896	0.0047380328839688795	0.002022174334296464
Si	6.832808341334175	12.314617751327093	12.305032363770279	14	0.0018892481892448082	0.0003342436916192502	0.0066396223787504
Si	8.207303761148037	13.676938909679906	10.935583609541885	14	0.009171904008564241	0.01440127511921342	-0.008041646109827145
Si	9.584142275698008	15.055841969242115	12.288139142281256	14	-0.1334231397100403	-0.03625027101929978	0.008004365082685
Si	8.186887704915911	10.923081642523337	13.653000018704676	14	-0.008529384789059237	-0.021759007213881177	0.03727177116299461
Si	9.546718301031738	12.277193776660823	15.019728816805836	14	-0.004731862231200525	0.029940521453124376	-0.06162759475022534
Si	5.456674393732824	13.66805808907171	13.675103758557917	14	0.07859971807905483	-0.022798505094817047	-0.004202471645782035
Si	6.839788469708882	15.030002386033397	15.024709941279806	14	-0.018866256618182576	-0.01618253688501201	-0.016030841671123276
Si	10.882298685892712	0.015520135203105282	0.043650380258733606	14	0.03225554468338571	-0.001991321070454687	-0.004169818608216155
Si	12.264265792417527	1.3635648009435157	1.3980869428981424	14	-0.018401143665767786	0.015220686384744615	0.01664353606891456
Si	13.59248918751267	2.7744863320010675	0.060073344272745875	14	-0.04504036588782204	-0.0474741741838742	-0.20644767301288605
Si	15.017746198182973	4.113753404383894	1.385661986685606	14	0.07917307456544785	-0.006668675868868072	-0.024507261690587458
Si	13.629093898285198	0.015898635122015472	2.77242178698883	14	5.682142757527255e-05	-0.04766417886703315	0.0655403028264267
Si	15.033246671052629	1.3738269004765655	4.100055312080478	14	-0.016796773945995384	0.0013614002670184078	-0.011066551518981362
Si	10.907155152428935	2.741896014307891	2.7454680048846196	14	0.006787460934658915	0.009907497240658609	0.03848816108995667
Si	12.2768824563812	4.0950414170507585	4.115162538281135	14	-0.004523859810800545	0.012581703884144625	-0.008471534919355907
Si	10.894915349856383	16.37162893843021	5.4555601948373305	14	-0.037392613113041574	-0.021142713268641682	-0.0014264492316181543
Si	12.29487349148784	1.318864124373001	6.789764216356812	14	0.10226468566676179	-0.08082115307566277	-0.04972466267059982
Si	13.651377876195061	2.718596149169784	5.463425128217282	14	-0.012312252046593107	0.023326867238107476	-0.045542245646314934
Si	14.980568002684825	4.109788167138168	6.834856501068537	14	0.06964790068589527	-0.03000839863357629	-0.00475191685269768
Si	13.655457810385911	16.366860822568615	8.163129051997306	14	0.006371456093858955	-0.02599798855520932	0.012449034849624984
Si	15.018385224020093	1.4154389521676616	9.445113192929483	14	-0.0578606683456764	0.19467689574671612	0.09634985787776114
Si	11.030143048157935	2.858952439446177	8.07168281617749	14	-0.10518468997885395	-0.11124889898695521	0.18241940824344216
Si	12.28741819005476	4.169758284160302	9.60534482526813	14	0.0592045850965178	0.05892896260619793	0.044628731926066326
Si	10.908203810212928	0.07283911426508047	10.895816540139503	14	0.12638293912241083	-0.11721874842980705	0.010809698097498568
Si	12.240539910054672	1.5120334422957722	12.213455045727462	14	0.17628809338648505	-0.011500039875958327	0.02718301099726557
Si	13.690489534482447	2.788643212084981	10.878300678091236	14	0.06408325744149877	-0.08050670689500868	-0.02915402033569108
Si	15.03670396468423	4.128221604747431	12.288073601169756	14	-0.006629337957469807	0.01914239332956648	-0.006844282362234186
Si	13.34777506245104	16.17571017088003	13.421852903723462	14	-0.16764018064216699	-0.07085374908104472	0.29042897163754283
Si	15.011913039259507	1.5079289301881098	15.073767463237257	14	0.01728425551469546	0.08599575964299279	0.14091251239709965
Si	10.903484850184958	2.7733885183834492	13.672121637984684	14	0.03768443356687838	0.046769434215621616	0.07873187289251045
Si	12.276603906657327	4.127680890577559	15.031903078266886	14	-0.04787140995583709	0.05085954855891318	0.009625189876506348
Si	10.913103008297524	5.48020365276118	0.017027580767596084	14	0.008257361846187571	-0.014114339765484896	-0.019568168370583
Si	12.287811436723757	6.831563060215682	1.3788997825066347	14	-0.003957702419303938	-0.004192187224501443	-0.014042091705988734
Si	13.645511946715846	8.191606664943883	0.0071194032366440506	14	0.01469206713092217	-0.004052833316149416	-0.010413490767663751
Si	15.001770552254946	9.539312155432283	1.393189383341335	14	0.0008669767139539323	0.02025799592797873	-0.006086320513854532
Si	13.646134587275094	5.465669911286143	2.7503999735249645	14	-0.04937910611557192	-0.0081380625593327	0.02152812195613188
Si	15.01509178316724	6.825205572400221	4.107068211010935	14	0.0024752030917065556	-0.005939253289542063	-0.023443081198578172
Si	10.926178460041694	8.204780428355301	2.7305901725742103	14	-0.022588188679628935	0.01633294654624067	0.020761161239131708
Si	12.282174901134793	9.563873686966756	4.104299099050077	14	0.010452314457997986	0.0104664555372588	0.008115693943047411
Si	10.90109259961522	5.472322334103353	5.463523439884531	14	-0.0013737415725551187	0.0009004010831158572	-0.026942869760363735
Si	12.272212652186854	6.828351545752202	6.833791458006669	14	-0.012947057950137666	0.03437644946197586	-0.028099867154430372
Si	13.640661904464876	8.180792381546448	5.45873893874506	14	-0.018402172107895846	0.02372718833645453	-0.01415522034007525
Si	15.033213900496879	9.527514755362354	6.7994479155808785	14	-0.013364091233065683	-0.004305572969119973	0.01210656362098126
Si	13.647297942004212	5.495949904798959	8.209253609215148	14	-0.00396901528271259	-0.021010301344654054	0.024154763151195156
Si	15.019368340692587	6.846309810303093	9.568985893663728	14	0.01861968761798037	0.03290886254523534	0.01406214632748589
Si	10.914938159419512	8.198128005538091	8.197423438589471	14	0.012645981517148326	0.021575944515086633	-0.01361477400178012
Si	12.283420182253286	9.556434770811553	9.56174360084302	14	-0.00018871913049886902	-0.010954708437554922	-0.004106569417340512
Si	10.895849310695253	5.501209578996802	10.960292608577236	14	0.02949083513263048	-0.04442998548481888	-0.040113099652290256
Si	12.285894359212394	6.844671282515603	12.307146064616141	14	0.020238455527545603	0.009471180667829478	0.019438584662447536
Si	13.649526339795198	8.19871787554159	10.932830882858903	14	-0.002179011758825497	-0.004669898592984957	-0.0004399161202773363
Si	15.034704960783493	9.548537066875852	12.28584520337877	14	-0.02247788826139458	-0.01103441270247951	0.004705379846403
Si	13.656113221500908	5.471027897151235	13.657145494007027	14	-0.024544542717729607	0.01387882651815933	0.032063740226502664
Si	15.01913894680234	6.836085396909155	15.026725330458417	14	1.0798642344621933e-05	-0.004927009124999764	-0.009545485611581757
Si	10.913627337189519	8.197161274143474	13.669057591022078	14	-0.02136588521043054	0.02396295869431211	-0.006954325669936525
Si	12.281650572242796	9.55378035579582	15.025365352394802	14	0.00659848469362803	0.010413490767663751	-0.008544554310448111
Si	10.928095537553057	10.933076662027027	0.0006308331981836501	14	-0.0011518551834263392	0.00584232261897248	-0.026699643197077728
Si	12.299985698184809	12.300329789020182	1.3578660012986257	14	-0.022924746366036315	-0.03563089174767611	0.06588405960773049
Si	13.692209988659311	13.672613196320931	0.01036860383923672	14	-0.03196758088752912	0.042860582797400494	0.03032567303008256
Si	14.997264600839348	15.02613546045492	1.4441590672267863	14	-0.032941001361737186	0.05733641997089821	0.0019488978326722439
Si	13.643873418928356	10.93078272312454	2.73968400179478	14	0.021238615497083207	-0.01636534247327454	-0.006853538341386719
Si	15.003441850598184	12.296315395940832	4.1076253104586815	14	-0.008594690864190999	-0.011595170772803807	0.004917753145847231
Si	10.92165612334822	13.649428028127948	2.7294104325672177	14	0.00815837429136187	0.04115799685439843	0.0009662213793116481
Si	12.269246916891497	15.01666476984323	4.107903860182555	14	-0.005560015254820221	0.010041194717306306	0.003164259317506241
Si	10.917281254155624	10.928947572002551	5.470716576871613	14	0.005028567785145613	-0.016553033161645348	0.00048773867923209064
Si	12.285337259764647	12.286795549495514	6.835184206626035	14	0.007055370109018344	0.004799739411652434	-0.0018694506782796685
Si	13.638744826953513	13.653786512042672	5.466063157955141	14	-0.007649552548504565	0.008091782663570034	-0.014284804048210713
Si	15.03044478853602	15.00666975033954	6.806133108953838	14	-0.04210596338593703	0.03788703666610605	0.061055266705960384
Si	13.652033287310056	10.87725202030724	8.15331427055024	14	-0.027765623462811116	-0.0006366056772686644	0.006902903563533562
Si	15.031821151877512	12.223843311900149	9.4911230532022	14	-0.010161265335757223	0.030065734282215595	0.015504536412088961
Si	10.909416320775671	13.655851057054909	8.191082336051885	14	-0.02570591099084049	0.018407571429068154	-0.028691735599128458
Si	12.251845751788354	15.055022705348371	9.5362972643033	14	0.06860865991549141	-0.00203425852930116	-0.13090242805416713
Si	10.895996778196126	10.904779287137073	10.924539932254204	14	0.038294042638285494	0.00874561474648369	0.0018640513571073572
Si	12.269607393004744	12.265298064923646	12.2852389480974	14	-0.019698266299782493	-0.033406628535216	0.03177346243585795
Si	13.546249933349705	13.52707915823607	10.754657371247239	14	-0.07971814889331925	0.028134062855188338	-0.25495928819344
Si	14.868509087298383	14.62572842502599	12.332461318932861	14	-0.41440047108018674	-0.20261595475426936	0.12116205265931816
Si	13.652082443143684	10.896144245697002	13.646232898942342	14	-0.05575056220943087	0.004320485379976832	-0.024003325047838437
Si	15.00168862586557	12.202116433438032	15.077388609647608	14	-0.04352984151223504	-0.029767743175610425	0.0434285399626212
Si	10.912480367738276	13.649428028127948	13.66143843681025	14	-0.01534127122425956	-0.01720789368668706	0.022862268506756718
Si	12.208310068474743	14.982255686305939	15.11301020374764	14	0.11548942299147542	-0.00449094966270265	-0.11698683472992968
H	2.5862194892184664	13.807545959620732	13.77336626997369	1	0.17276876442426636	-0.1464349895142457	-0.13923666594942713
H	13.99800842963857	13.680887761647757	13.26735611864103	1	0.11183331122622488	-0.021603198231480204	0.05622081737248596
H	12.454531639100866	15.253776125970907	12.459938780799583	1	0.17460736183870426	-0.07482996345865371	-0.1394891484918657
H	0.16855699202688382	0.025654429568730933	13.574301529071532	1	-0.24129154942206485	-0.06578635760556487	0.013834089285588755
H	15.151318983419158	0.6545852969911051	11.926876535695461	1	-0.1822859678773265	-0.3850569602824008	0.1470286577326679
H	1.679998925791372	9.250980420667666	6.537316240138229	1	-0.02151578065059517	0.026939270212915527	0.03460656338812912
H	12.002527363643875	3.7841799252081554	7.15474628102021	1	0.011698272096141745	0.011944841096343944	-0.0006633451725982044
