72
config_type=liquid sigma="0.003 0.1 -0.9313084115072453 0" dft_energy=-6965.378511767261 dft_virial="-36.180422087685066 -2.6920035767915067 3.066923366275757 -2.6920035767915067 -30.387050216962 6.438551861814332 3.066923366275757 6.438551861814332 -30.877228033602186" pbc="T T T" Lattice="11.2999927403 0.0 0.0 0.0 11.2999927403 0.0 0.0 0.0 11.2999927403" Properties=species:S:1:pos:R:3:Z:I:1:dft_force:R:3
Si	10.842456034245252	8.193025836376295	6.529621705033173	14	0.11853618279585093	-0.0038024076579669937	0.0424301797668077
Si	11.152753834893891	4.675439796255567	1.5164251257700392	14	0.18701577322427088	-0.12729285329521126	-0.15962733091192552
Si	10.534700731963182	5.979402458522486	7.289512316840128	14	-0.09316091594918145	-0.05956248295708242	0.0032334220506182237
Si	4.902140250611465	4.332824016369671	0.44597681348142015	14	-0.10532172989241786	-0.17423866533579502	0.39935924784678856
Si	1.1664982505811692	2.8606270621851664	0.4963058511474423	14	0.0199900867536193	0.13110734514818292	0.09252713848776496
Si	3.7031658208946743	7.928063606601739	0.7194920077611077	14	-0.027363759701271972	0.31058206646845954	-0.057201179831058414
Si	1.6229501573328473	0.2733129244096361	3.4630861751342605	14	-0.2190630583767246	0.08592685402041284	-0.12272965557301242
Si	4.857731279142087	2.781549712988547	4.674524496843603	14	-0.21805672775441867	-0.1613844242877147	-0.09139610925743182
Si	9.252467955735861	2.7617408257148006	8.205919128092976	14	-0.3212295278202567	-0.11963713009393834	-0.13558955305279707
Si	2.2585069490182805	10.851258728589947	7.241001448006019	14	0.19533484159814204	0.0017676349076018044	-0.07264118149961166
Si	4.172940419087166	5.9961264477781295	2.0072403104449696	14	0.020735707296462243	0.13701060296324294	0.02357086513298953
Si	1.8475375130463099	8.537020215376506	6.766910252586733	14	0.06609694712823876	0.07842771113313693	-0.031094433520806833
Si	9.835242481331354	9.94771130907556	10.154715876085115	14	-0.17627138120190408	-0.07221874889551133	-0.03191872988644631
Si	4.63336992328343	10.669102845616312	6.91744875587301	14	-0.6054420810147456	0.19327101535765917	-0.045504707508640774
Si	5.552567832743134	9.42087174754455	8.815192136664471	14	0.17055504274361888	0.08536815283434465	0.11589591474259085
Si	9.634667610191029	9.848531272793945	7.79545819179432	14	-0.02693489933387128	-0.08349973059819304	-0.08112762882982441
Si	0.8938802757250613	5.604864199145242	9.048887286526616	14	0.055611465411610855	-0.010955993990214994	0.10409119888619497
Si	1.230151109687279	3.098537109339442	9.136191030438175	14	-0.6098471557597552	-0.20913062141446057	0.07662099542466887
Si	7.923012509846826	5.900517209202452	10.04979544349143	14	0.14807818292435235	-0.3234630470118694	-0.06808595420390531
Si	9.883143150557485	0.7360690971111277	6.83234851054581	14	0.15987621390691584	0.33849732826090323	-0.22823110572730865
Si	10.666503847286041	8.022158646150217	4.154408430993074	14	0.01855129621646443	0.19693252644408202	0.027992652062580194
Si	10.793685265578118	4.468288329340387	5.43451680858522	14	0.10327513005757999	-0.06310778008303461	0.10468229599929701
Si	8.369486523008819	8.74957307882155	3.9293577755772597	14	0.17267131953263273	-0.19875981099511128	-0.16499502748879866
Si	5.8894319163242175	1.3650391230282402	6.298423853566635	14	-0.3217427204421583	0.6580021586324046	0.6025891825515093
Si	5.5405898404384155	10.791380067059098	3.18582955325826	14	-0.13398389778036462	-0.15628926487477726	-0.27216872454331914
Si	2.7280894473341872	5.849746341820284	3.954737559271973	14	-0.005216772694580453	-0.03851387214315815	0.18223480288145555
Si	7.485691490804475	8.917208471123901	7.585097526940894	14	0.14468535234388494	-0.513478014592093	0.7174741386822179
Si	3.9019891931602526	1.2893065716827494	2.992305877587882	14	0.01906834549634621	-0.013393658944247388	-0.008004365082685
Si	1.980323727737575	0.5301617593966551	9.406724156633697	14	0.3161960749350028	-0.1670796796823747	-0.08886511318027805
Si	8.453242069199923	5.069357543182425	7.869812144025493	14	0.16024413907822901	0.007363645636904099	-0.07398715513470919
Si	6.884938676759167	7.914175915523912	5.595123605403103	14	0.0010749791343539119	-0.4202646480943805	-0.08858666247410603
Si	4.453361038930451	5.396594032948773	7.3199092973115345	14	-0.2826061265904603	-0.0789776705611166	-0.25729847981371073
Si	5.830717154045619	1.929055660674834	8.697943411991119	14	0.48563628641180545	-0.09420195649330942	-0.3890701985766199
Si	7.814577779510906	2.410966451070408	10.0177938640509	14	-0.3576605475435629	-0.21228356786855815	0.015333557908299112
Si	0.8791575151837245	0.864899184344014	5.770804592536548	14	0.005035509769510012	-0.007956028302666215	0.17556869811790762
Si	9.09648285594876	3.366482537197436	1.9685378353094423	14	0.055828723811163376	-0.1992498636691315	0.07765895064241266
Si	4.292019742584448	7.582442028646924	9.742220941093203	14	-0.42566345504562747	0.06691764394643002	0.17468063834032846
Si	7.424366430202868	8.078862009721044	1.8815843911728336	14	-0.40085331714832656	1.0730438633794364	0.0035093016514701125
Si	1.4064196964432187	8.509030133358785	0.8863725605484061	14	0.22553684446232547	-0.24550944769976776	-0.18312157710637464
Si	3.564650509884077	2.399937658155875	0.8139972370460585	14	0.012789706304544604	-0.1401270397217944	-0.1324589752149848
Si	4.8518439829243905	9.351817491908578	4.969827207125863	14	-0.41443106723349654	-0.05713741641911875	-0.16572033629961241
Si	9.15783051653585	0.9262208549477999	1.7530695737374018	14	-0.06780338972922105	0.11337803130256983	-0.13415307651043037
Si	8.136842272471522	1.2513385960753416	5.36148495550466	14	0.051728325046591216	0.23542814373946716	-0.0944135584611576
Si	6.495145427182518	5.820355060702763	2.4178142466710297	14	-0.1733130674205417	-0.05659774141241966	-0.23551838953620435
Si	5.456506594457843	9.379807573926302	1.3134772561542511	14	-0.09619507733748821	-0.4187253273392079	0.0649273513181034
Si	1.2293940101736789	3.113622599647743	6.46544904626101	14	-0.06283395736643883	-0.02090514313706	-0.09614314101002124
Si	1.2350440065438288	9.173944306183516	3.1995251444595034	14	0.17724223057079197	0.006104575361627584	0.17959376349659945
Si	0.17020614065076875	6.547814693345056	11.239221379342666	14	-0.037081252258771645	-0.09878443750540934	-0.1340013812965416
Si	3.2344873219979915	4.18025151439014	5.665217460371184	14	0.1717853166393097	-0.19047879497997836	-0.06373333000742663
Si	2.833913879347097	8.117835684682337	4.644997615813199	14	0.012670407017689733	0.09568419871037478	-0.09740195417476573
Si	0.2677420279886682	0.8313653258878997	1.4757677518904397	14	0.07945795303492026	0.03811946458704744	0.0645817947630755
Si	8.81363273766631	3.389557122373128	4.3853576826193255	14	-0.007166184748316725	0.014007381784166734	0.013491618056945029
Si	8.19508243505503	0.2526531476825456	10.964529855818714	14	-0.14992577920741076	0.07203285798086462	0.3071581255136183
Si	4.199574501976053	1.024265241959013	10.257918709782274	14	-0.0641079400525722	-0.03811432237640714	0.07290009180535058
Si	9.402102459602915	7.635653694460998	10.808115356307482	14	0.2188889945465506	-0.15962604535926542	0.029240923695512087
Si	5.921636895634072	10.720834212381405	10.762497285614891	14	0.035090702519912996	-0.09008484554415631	0.06893287629636208
Si	7.364408668722836	4.253113867579595	0.45736720616364246	14	0.357852609110978	-0.30089902672224983	0.007567791399323854
Si	0.33452837508166333	5.773358390895855	3.627003869825052	14	-0.08222394813833557	-0.14676640499001278	0.034094142097823604
Si	6.668340415913096	4.395911875838766	4.354022802750474	14	-0.006000702706693602	-0.10478154066465474	-0.022956628072006154
Si	6.634485637663157	5.673059655332952	6.337092428723942	14	-0.08099007469519649	0.22046611054992943	-0.16183153950288845
Si	0.7010278196234574	10.514123445183097	11.0438784048411	14	-0.005980390974664432	0.25586123193974797	-0.022681776913282322
Si	7.882276036018045	11.09092027461897	3.5425138241058294	14	0.4308563164607305	0.14228265442220658	-0.2838325438281709
Si	2.7428246378675385	6.852733697449311	8.159046758206213	14	0.05185893719685474	0.22140122155486727	0.15225777173278504
Si	5.13844569879662	5.374197447337498	9.611683424957258	14	-0.3485318381043772	0.17127392379113227	0.0827420258603454
H	10.63742896596525	2.928506118576148	8.936915658462983	1	0.8718271041403916	0.22145418632446232	0.3930153025798552
H	3.5502882191111556	10.38208303001269	4.686186089351592	1	0.07905094706274081	0.06933782538428541	0.11261312746982578
H	7.010843195871589	10.693397830007957	5.87035752857859	1	0.1302213422548599	0.38645924112400953	0.0030269622934103336
H	6.469449243691075	6.525723207537769	9.799850904068734	1	0.2724623447708801	-0.013198254939916134	0.029828678371697937
H	8.051436927340335	9.383016771864547	1.2375978049031366	1	-0.00392093561322582	-0.013010821362077341	0.08606569370770083
H	8.91943456969374	7.611121410221806	1.0315921572518234	1	0.1381837983208265	-0.37165764490644904	-0.14705899677544568
H	6.664441918417693	0.620822731151356	8.595972277502652	1	-0.12246611727769724	-0.1287768952860007	0.1441816728116679
H	7.00370160045972	10.013951866519196	6.3642350112861426	1	0.11178883110418632	0.4764132174073703	-0.34252213652906305
