220
config_type=vacancy sigma="0.001 0.1 1.3881261609352336 0" dft_energy=-23112.88572056159 dft_virial="56.44826886512811 -44.51617871515352 -8.700153149087429 -44.51617871515352 78.61746020006433 33.413803443157306 -8.700153149087429 33.413803443157306 29.47068226114584" pbc="T T T" Lattice="16.260550856000002 0.0 0.0 0.39376549952889606 16.090579317902233 0.0 0.10236016763852002 -0.286559687735288 16.446961811013185" Properties=species:S:1:pos:R:3:Z:I:1:dft_force:R:3
Si	12.621673726359527	14.497689251828131	15.025890481614091	14	0.047863696639876635	-0.028192426945955702	0.02956796829223492
Si	1.5120084600612729	1.3161826461024648	1.4377644109078624	14	-0.20161270945834758	-0.18478971023808669	-0.14546208326110166
Si	2.7972375215542566	2.693740741410902	0.04152619477605281	14	0.06384851552576926	-0.01957408191281934	0.0326512377921565
Si	4.203554027106614	4.008580266012661	1.3807223985050145	14	-0.021508581555698757	0.020300676276293186	-0.021888333811484625
Si	3.184131312291407	16.036899987416405	2.810390681141675	14	0.07355289544613618	0.07047605370951496	0.06205594089656202
Si	4.173042729480416	1.2790012705151352	4.1401590174843275	14	-0.0007394498900745875	-0.06055235850533943	-0.0009117139465245089
Si	0.10459599338122001	2.6268139401426915	2.748746932846579	14	0.0004635702892226986	0.016025185239418947	0.022543708557590372
Si	1.5021415578018522	3.9419916842022555	4.105506157555106	14	-0.010816897192394983	0.0076348972481797206	-0.008076870252713175
Si	16.687026079630826	15.990570425917491	5.507362394007664	14	0.01999137230627937	-0.00042063283037622573	0.004516917826436146
Si	1.4445531908902425	1.2135395448790505	6.849121260551531	14	0.0032102821027368915	0.017136674069318965	-0.014772285616910788
Si	2.813169609282965	2.5897593968520387	5.509944569483596	14	0.01043277405756486	-0.0002170012890204979	-0.01407500185408663
Si	4.2233593780492225	3.9032444175674934	6.8520823068624095	14	-0.00841034261273638	0.01260818626894215	-0.004278833473790433
Si	3.1547793919412412	15.94383272459209	8.234168965584242	14	0.009046948290005047	-0.010333786502739159	-0.00833115256887582
Si	4.182212054108114	1.1662571150999737	9.56545115921159	14	0.026109831636635758	-0.02162016752659318	0.012485544545171085
Si	16.375730841933393	2.535933721408507	8.23814954843379	14	0.01839060213395518	0.020857320578105246	-0.02156566009380604
Si	1.5218834925961218	3.85743519369597	9.579233602117133	14	0.010408605667555469	-0.005485196090003912	0.012331278225962201
Si	16.703579320402238	15.879401917880276	10.951453358579545	14	-0.12027296443961093	0.017666321765269465	-0.04531136038856564
Si	1.4662415136219753	1.1276789581941138	12.268410006902757	14	0.24260846956704468	0.054804138341084364	-0.07102035670579031
Si	2.8592942878410947	2.5008678434875438	10.95173304005427	14	0.06490241159649797	0.05154063435822041	-0.047405268561294234
Si	4.2699230914804644	3.8019265512388425	12.32732360870913	14	-0.11123501501822641	-0.006968723859729353	0.03598081918174826
Si	2.814042800863932	-0.1213346044323864	13.706416700018373	14	0.08309221040494957	0.02984693321947099	-0.024722977426947887
Si	4.22738874255134	1.1073272527427442	15.094310001450884	14	0.03663927925423818	0.06256579108154738	-0.048432682247225405
Si	0.19163709605830243	2.500578405682307	13.684360888837295	14	-0.406643189218768	0.1369406688985349	0.0761473978246976
Si	1.567034164157977	3.777405640547995	15.127351440790276	14	0.09751508280885224	0.06915142024857468	-0.02072053777507337
Si	16.378239844930473	5.3797804859364025	0.04480269577353681	14	-0.07715321422593953	-0.0012906948707143357	-0.034354337956222586
Si	1.5445328138834442	6.679590383381961	1.3766897818927266	14	0.06069016975049936	0.003169401528146537	0.010094416597433372
Si	2.905186440521984	8.04081312930046	0.015914201122767202	14	-0.0038142347424396754	0.012744711961442013	0.008277930688748755
Si	4.3205763334519895	9.3419124884289	1.368931873079329	14	0.014487150036906368	-0.00032395927033865795	0.012551364841366878
Si	2.863435850144118	5.323510849699215	2.766493698050817	14	0.020125326893459087	-0.011885448563448524	0.016890619290180788
Si	4.276015919886207	6.628613556448401	4.115111264945745	14	0.0015313503286801958	0.006567631429786253	-0.007121704626278164
Si	16.4689233109993	7.993293295478886	2.7654579009612896	14	-0.015317359944782182	0.014228753952231483	0.000582098244481525
Si	1.6224793904667658	9.29527072435355	4.118925990176562	14	0.02198526448205421	0.005891944951651338	-0.007883780243170053
Si	0.16657958718920643	5.2568442172447005	5.496622300167276	14	0.02479882503389225	0.005606552261114901	-2.4168390009391945e-05
Si	1.5778506825873881	6.569101566370526	6.8436284464723744	14	-0.019602621181872986	0.0004337454675089809	-0.012954514155566097
Si	2.9446768143308653	7.945139300173928	5.507131494185509	14	0.006802630456047788	-0.004808481169740938	-0.0010649518236053343
Si	4.352022612752409	9.260011345877398	6.856539323852038	14	-0.011299750771518792	0.007244603460581242	-0.0035836065952223927
Si	2.897657805475655	5.226950820551029	8.243905783436816	14	-0.010199574805027428	-0.0200821323240806	-0.01209962163661686
Si	4.307642691301127	6.5333592495339525	9.595993351884413	14	-0.012282427224879388	0.006145198825685923	-0.0040384351263565875
Si	0.24851812900767603	7.888412742457685	8.23282096591828	14	-0.01022477163716488	-0.013356120806573224	0.005824581992263458
Si	1.663475491284913	9.190629201429932	9.57994093607937	14	-0.030429288574484535	0.0016321376572300003	-0.009045148516280941
Si	16.445386163635238	5.178378929089072	10.964281307149845	14	0.022415153291582966	-0.0244836075216421	0.052599672639589395
Si	1.6041586278173106	6.46913820392818	12.327043927234408	14	0.005477482774043467	-0.005802727597042199	0.017036143851301172
Si	2.974942577639138	7.8475516042116436	10.98992256979467	14	-0.012907977149271416	0.008180228686583128	0.009332083870009469
Si	4.3653774031704415	9.176906922562553	12.344772805832704	14	-0.006536521055412461	0.033069042406680564	-0.0018609660307231793
Si	2.924978783023907	5.115876623708779	13.729607497649202	14	0.033190398577791554	0.019561483496750617	-0.060709453040400464
Si	4.336326303011112	6.435486993931688	15.069343551666583	14	0.021282581398057738	0.0022258058756521922	0.03688713380710046
Si	16.540113628701953	7.793672268950287	13.719459287859971	14	0.0038890539072559847	0.029993486222719433	-0.005086674765380959
Si	1.6880354272978155	9.107149159390314	15.070330567103541	14	-0.0002373130210496677	0.03528379252945612	-0.00888034066525945
Si	16.514613832849573	10.712620013661704	0.017899614382284802	14	0.011873621478975844	0.017060055130778545	-0.0049588908309696
Si	1.6823604950490714	12.008252575592357	1.3725238287634194	14	0.018456165319618956	0.034773685233938735	0.0064064231262129685
Si	3.0605560039510635	13.402472857362936	0.0913615310395216	14	0.020433859531876857	-0.01844151001929411	0.07800502141850459
Si	4.485573769042908	14.723332037891586	1.3963504139327163	14	-0.07105532373814433	-0.013670566987227335	0.019966432584673937
Si	2.992772271652742	10.658348799124717	2.7670530610002637	14	0.012177269017285332	-0.00847770557212426	-0.006874107183947905
Si	4.4009197152314865	11.978325031741887	4.1106705085069715	14	0.005677000546886959	0.004103741201488349	-0.002694518375515187
Si	0.4365974165386856	13.329272735574481	2.8095191156157933	14	-0.00017149272485387688	-0.019205385409910104	-0.0031971694656041357
Si	1.7948217168793386	14.685523005041215	4.141754177523301	14	0.01900715318972669	-0.03198326462998203	-0.044005495996462425
Si	0.29616642118101283	10.600485628903641	5.525684782712204	14	-0.05892793416406987	0.022614928174958474	0.006252928138600128
Si	1.7072765371257204	11.926509160384157	6.85563361116936	14	0.02847344875744788	-0.013114951127543338	0.004462410393649007
Si	3.0821565197081737	13.2960605604511	5.516440659550569	14	0.01544257277387339	0.01614345608414576	0.002476231533834615
Si	4.490464942740393	14.615840040402912	6.855651497775301	14	-0.0072759709454870486	-0.007764995177379215	-0.0007998708650980673
Si	3.0265958434883076	10.582346984423774	8.253148280543364	14	0.005296476959505043	-0.005381837656133959	0.010747991569815015
Si	4.421643787297459	11.905890781898751	9.608969271467501	14	-0.007912833733287728	0.004555998627302396	0.02099101805475295
Si	16.63751432832939	13.255163648993175	8.235928357186861	14	-0.04919630052730939	0.014311286433008236	0.0018676509045555643
Si	1.7935338812515433	14.565471358071367	9.577605920976449	14	0.08596233527383088	-0.0059212555523010255	0.032531167173705584
Si	16.580469063816373	10.503338593869556	10.955580286386798	14	0.03281373164838986	0.02077504520786051	0.021029841745087183
Si	1.694747782691172	11.83315083369952	12.314642005096536	14	-0.0009399961050461378	0.014557084101614394	0.030735250107582154
Si	3.0920982205015326	13.232242776506556	11.009708408076252	14	0.0005880117867178657	-0.00036226873960886434	-0.03331921095433097
Si	4.513967942947655	14.589023139931198	12.3253170567335	14	-0.027620356012222756	0.00796425583969069	-0.027442178413536494
Si	3.037053003743801	10.509307842088793	13.73807761859009	14	0.0003129035174620212	0.0026394967216640175	-0.0003568694184365533
Si	4.4733734777356515	11.794161284857003	15.112089287756834	14	-0.043883111383223386	0.0229643413879666	-0.002620984763358952
Si	16.580111331697545	13.148271665831087	13.678324972359547	14	-0.03325981842143555	0.004281404579110581	-0.007995109103532466
Si	2.101116835188554	14.20975229543534	14.760666262656963	14	-0.012694575407699126	-0.0882233652923691	-0.03659325646900754
Si	5.82231950775787	16.089748403753493	0.018231329619747202	14	0.017122275879526132	-0.017886665491206155	-0.0018956759525451787
Si	6.835564839302884	1.3096361483278394	1.3699953131053113	14	-0.017535452504473928	0.0220372008095212	-0.0013999668468206291
Si	8.193925728270727	2.6818282618537963	0.0178638411704016	14	-0.0011922215369526642	0.0024075830217866615	-0.0025495080354588353
Si	9.603250435731447	3.9908839085160763	1.3685269853630144	14	0.001153654957150443	-0.0020882517410242695	0.006691301595685375
Si	8.540807181516518	16.03534547875457	2.7592561268648117	14	0.002031173202916982	0.0006895704468637148	-0.002002119712799309
Si	9.556683470190032	1.2548250835024346	4.109304622235068	14	0.013070471005504776	-0.008601375738023383	-0.014175017851040389
Si	5.517995168212402	2.6398044942215497	2.7650302484737774	14	-0.007917204612331979	-0.009815708780729323	0.009027665000103935
Si	6.923723041823774	3.9495772311765798	4.112446160660447	14	-0.0005378752329749781	0.01950466206917534	-0.01025999578005091
Si	5.864364414106229	15.98311333729493	5.513365789383698	14	-0.0062079337954975364	0.04926906280786958	-0.006474557417196892
Si	6.873777133814484	1.2148664058289003	6.848924507886173	14	0.009381706202688325	-0.042522739558333036	-0.00586854789323799
Si	8.234071402279106	2.584099099099065	5.497708504964456	14	-0.004589422996464321	0.011645307326546695	-0.005829467092371739
Si	9.643511559650902	3.893891348715122	6.845864272215074	14	0.0019668955699132804	0.004661671055960482	-0.004526945137184723
Si	8.573243728364067	15.944962832876582	8.238609722023014	14	-0.005158151493281075	-0.030199688869395305	0.010330958286886996
Si	9.587466319015526	1.1681530953297834	9.578609196964264	14	-0.01139899543687651	-0.030326187251146594	-0.00651826620763941
Si	5.543270568462969	2.5415972712716526	8.230780266785851	14	-0.0048362491071985364	0.020362125693444724	-0.007613299963490475
Si	6.950687913308278	3.8479894397037193	9.585664649980682	14	-0.00855355317906863	0.0019242152215988221	0.005835123524076065
Si	5.502521628017833	-0.183858048528792	10.954396518284481	14	0.0014968975173902115	-0.05694946862021592	0.01741923854400324
Si	6.901860731197882	1.116795771506193	12.32079337148536	14	0.0008762326931064652	0.018000308346356703	-0.004490435441638619
Si	8.264119274205909	2.4894854578883434	10.976024676978048	14	0.008315725936954932	0.0006034384186387541	0.013652826360518316
Si	9.66487954953077	3.808014501479329	12.324230851936319	14	0.004601764302001032	0.006429563074094301	-0.0008919164355593687
Si	8.603969665261564	15.84576371632447	13.7159892863073	14	-0.004080601253607016	-0.001252642511976144	0.003075813294493147
Si	9.614208420953306	1.0697979013670962	15.06738578134352	14	0.01814891823386126	0.012480145223998774	-0.00998514462132708
Si	5.586978929163896	2.447749502006248	13.718703172245167	14	0.024049862054133116	-0.007381386263613119	0.023413513487396467
Si	6.990301867303665	3.760966223632579	15.07080700124362	14	-0.014298945127471527	-0.013881140512947464	-0.016647135616362767
Si	5.555412321787144	5.367211080124715	0.012614935354084802	14	-0.008641484981017692	0.0008348378974520812	0.02944686923165595
Si	6.961886554682806	6.6699267380082405	1.3661854660397506	14	-0.005515792243313673	0.00010824353397823413	-0.0229435154348734
Si	8.322884904999492	8.031778767244866	0.013597072625787202	14	-6.324919087564274e-05	-0.016702157270213937	0.009410759692806
Si	9.725715148448325	9.331665089279449	1.3724750471108513	14	-0.0017537509388730048	-0.001456531163863887	-0.047704030999495446
Si	8.280869267642673	5.318044052501427	2.757908127198849	14	0.004036892463164498	0.0019812937597061095	0.004799996522184448
Si	9.694024960885066	6.6254232363704535	4.1061305627079765	14	0.005903257815059989	0.004118396501813192	-0.009160076924091562
Si	5.639189931907427	7.99202009434686	2.7609667368148627	14	-0.004320485379976832	-0.002538966503646228	0.010738221369598452
Si	7.049467507648307	9.305618938918307	4.108613548823688	14	0.002511969897784673	0.008589548653550702	-0.012335906215538468
Si	5.589588747576284	5.26748024355961	5.502149261403231	14	-0.0026333260688956627	0.0026163567737826853	0.004053347537213446
Si	6.998435394841836	6.578604232290773	6.851472536205309	14	-0.0002915633433047922	0.007996137545660526	-0.010769588854504257
Si	8.363240340113913	7.945240115589235	5.4985800704903385	14	-0.0018074870400640996	-0.0015611751503939136	0.009760172905814124
Si	9.771563397641902	9.25973003834759	6.844943925036625	14	0.011947412201664094	0.01812320718065978	-0.017931145613244718
Si	8.315058701872498	5.21684326213894	8.237590185484343	14	-0.004575024806671492	0.0024325227433920978	0.003303099004794237
Si	9.720225586479339	6.530848620481786	9.587754130765678	14	0.0062179611062461145	0.006568659871914313	-0.0022597444658781466
Si	5.6692800812664546	7.901136623502506	8.244185464911538	14	0.007801504872925316	-0.0064514174693155605	0.0009492520841986708
Si	7.071900563609245	9.216475347015544	9.59531853902389	14	-0.008803207505655008	0.02135585789968196	0.005171264130413832
Si	5.627407536757169	5.173738167874769	10.979429636327295	14	0.007352846994559477	0.008564608931945267	-0.022104306658377065
Si	7.026205163593714	6.490836282990427	12.331270044401881	14	-0.008012849730241488	-0.001481727996001338	0.008938447645494799
Si	8.390588960598619	7.854608683283147	10.979247518157708	14	-0.0020170321236561675	-0.007307338430392855	-0.01013761116681186
Si	9.794572077103142	9.165706655132942	12.330990362927157	14	-0.00048233935805977967	0.0024510347016971634	0.004912610935206935
Si	8.34445289965489	5.132488402463268	13.719163345834392	14	0.0007060255209126625	-0.00553430420161874	0.004399161202773364
Si	9.759943608000205	6.4283746289872745	15.072155000909584	14	0.0040302075893321136	-0.006071408102997673	0.011075807498133895
Si	5.689280558819335	7.8093767089670125	13.719394245656547	14	0.022287112246639592	0.00309201125801008	-0.004997714521303836
Si	7.112929185529104	9.102469372853957	15.067484970703742	14	0.015831323898279785	-0.0025495080354588353	0.02706448304200674
Si	5.695804291822761	10.702120575973986	0.024829861157112002	14	-0.013879854960287388	0.02738432854383316	-0.032552507347862816
Si	7.100766293488816	12.021862656658827	1.3671285779893985	14	0.015257196080290717	-0.018545382674228093	0.005103644060493937
Si	8.4522229525632	13.400601267959411	0.014130418693864001	14	-0.0012814388915618027	0.013358691911893374	-0.004185759461201073
Si	9.862090762422511	14.711733386966003	1.3629902677965466	14	0.019934550878704098	-0.005351755723888226	0.0079765971452274
Si	8.419592905160467	10.67500773347669	2.7631049992524264	14	0.008537869436615726	0.0007710744855124089	0.001976151549065814
Si	9.83949997911827	11.99532381160675	4.096427892012201	14	0.014602592665781015	0.005831266866095843	-0.01716392778571253
Si	5.782726692478596	13.340220964465827	2.7694531183066093	14	-0.0067293539544235675	0.014019208868639414	-0.0023695306630484698
Si	7.185265872067105	14.662018378778866	4.113828307483207	14	-0.0062889236130822005	-0.0015544902765615286	-0.011944069764747902
Si	5.716754385545633	10.621534911986734	5.501573637902927	14	0.00024476922647809717	-0.0037535566568841806	0.004335654901365705
Si	7.124771744717529	11.93471260829101	6.848430187140151	14	-0.0025448800458825684	0.011658419963679448	-0.006914473537474229
Si	8.496768731633214	13.298268743257346	5.49777354716788	14	0.01087346150943824	0.006193792716236723	0.012679148775778236
Si	9.890717462204499	14.60988054851419	6.856900308081041	14	-0.004789969211435871	0.0472900830429516	-0.0042901463371990845
Si	8.43950720179381	10.57743304595509	8.239580476909119	14	3.3424369161925027e-06	-0.012744711961442013	0.0031956268024120474
Si	9.847692044639523	11.88827735321153	9.588362275367693	14	0.004502519636643316	0.009440070293455687	-0.004591479880720439
Si	5.796834346401261	13.255080720183809	8.246240798539736	14	0.015779130460280774	0.007674235159577985	0.008584406442910406
Si	7.214227539196727	14.569201528437732	9.578690499718544	14	-0.0026317834057035736	0.038009678389877115	0.0013107494922114907
Si	5.736919094662158	10.536528004221738	10.989083525370502	14	0.012974825887595265	-0.008324467695043436	-0.010297791028257086
Si	7.134942719277957	11.85882786955623	12.339740165342773	14	-0.030084246240520657	0.005412433809443721	-0.01102309983907086
Si	8.511009722072897	13.207575520858006	10.978310910428402	14	0.003218509639761365	0.008294385762797701	-0.012098078973424771
Si	9.921843408653054	14.51953042373791	12.317783543521916	14	-0.0005802984707574214	-7.404783322026468e-05	-0.0006774862518590188
Si	8.456006782747394	10.487943104319095	13.715709604832577	14	0.0013685993619148224	0.003872341722675022	-0.0005972677658703987
Si	9.8721983208346	11.7836146915718	15.067221549779873	14	0.007390128021701623	-0.0063812262940755185	0.007523568387817308
Si	5.799792140601968	13.190306815848933	13.729656279301768	14	0.025609237430802925	-0.004306344300716017	0.03234913291703911
Si	7.243405471652734	14.47604808469388	15.06741830244523	14	-0.01730816679417284	-0.003228022729445913	-0.0027001748072195127
Si	11.219157311542217	16.08732070351069	0.011634424137468001	14	-0.00790820574371146	0.0055826409816375246	-0.016912216574870034
Si	12.237197879534664	1.333023698624024	1.3339164028660186	14	0.034081029460690845	-0.06231150876538475	0.04305675813332779
Si	13.724787870375483	2.3891074513991697	16.434325736942988	14	0.013079726984657309	0.1130281038684977	-0.022154186101587935
Si	15.031432077345817	3.968930538805391	1.3569218302170873	14	-0.011849710199498468	0.018253562220391286	0.05400478169705032
Si	13.535994744661894	0.049178410008886404	2.7872161440617034	14	-0.014190187372429261	0.019759972827466048	0.015813583271570758
Si	15.00562170497209	1.2847884005647858	4.118317845574548	14	-0.05088268850679452	0.014565311638638867	-0.031212190144469618
Si	10.917994023083155	2.6277033922745145	2.7558853146723625	14	-0.016073522019437732	0.05845253679037448	-0.02059815316183432
Si	12.33353513913612	3.9334126175706303	4.104667113130937	14	-0.0010847493345704745	0.014323370628012934	0.004365736833611438
Si	11.243123737448876	15.989876100395941	5.52231234446467	14	0.001217932590154145	-0.04549236620310407	0.008215967050533186
Si	12.282823359181515	1.207936159054073	6.846030129833805	14	-0.009456782478036649	0.015134554356519652	-0.010503222343336917
Si	13.6505405691119	2.5818567691360226	5.500832156783894	14	0.012627212448311245	0.0220372008095212	0.024281775754010474
Si	15.058928668843313	3.895154793516633	6.849088739449819	14	-0.016914273459126154	-0.010277479296227916	-0.01254879373604673
Si	13.992299948838053	15.942229434277689	8.236603170047385	14	0.0019571253696967173	-0.014823707723313751	-0.00238932817401361
Si	15.006480262057286	1.1702116810681529	9.581783256491354	14	-0.04118293657600387	-0.0076526378748887425	-0.041511523835918794
Si	10.958928333808048	2.5358280278279435	8.234925081199046	14	0.0021059923677332914	0.0005142210640296158	0.010538960707286976
Si	12.365075729631506	3.854064381503521	9.577770152540094	14	-0.005575184776209094	0.011951268859644315	-0.001203534400361316
Si	11.28153441068092	15.885967928315928	10.959676319147427	14	0.009514375237207967	0.042608614476025986	0.012868639237873151
Si	12.276543534440929	1.1374922006357098	12.291386165262285	14	-0.027859983028060555	-0.0396017068041128	-0.0351202702310947
Si	13.675129774116344	2.4924692689704195	10.965482961858104	14	-0.04052216250872581	-0.007798162436009124	0.027309509379016852
Si	15.073289987359333	3.8173155365689615	12.31034921967055	14	0.05642367758224564	0.035996245813669156	-0.009979231079090739
Si	13.965962734616589	15.853690734866769	13.651747101985416	14	-0.03835960582394926	0.07204802750225349	-0.12595485008660617
Si	14.965721565281635	1.084229140251796	14.958523019417685	14	0.22347764621141888	-0.2794662927734955	0.2155344734353534
Si	10.970113966741891	2.445214482127798	13.715561633819789	14	0.03479245430277582	0.0017131274748146653	-0.006949183459296228
Si	12.396504122325982	3.747725257070538	15.059622994364865	14	-0.019988286979895197	0.03885994291925008	0.006581258287983038
Si	10.970761136665962	5.351947301036187	0.015117434130823202	14	0.010901229446895842	-0.0009004010831158572	-0.025480425054263504
Si	12.384811160205434	6.6577459593620105	1.3643155026913105	14	0.0059755058745561505	0.007724628823852889	0.0014660442535484345
Si	13.743802958546489	8.031541363202368	0.013374303079060002	14	0.003910908302477243	0.00952645943221266	-0.009960462010253657
Si	15.149875555836008	9.343423093603421	1.3681220976467001	14	0.0010407834335959423	0.0319202725496384	-0.010512478322489449
Si	13.702699538092693	5.293014186568786	2.7510494268477883	14	-0.004238724230796123	0.00518669076233472	-0.007501713992596051
Si	15.108142852064082	6.610320436735401	4.1038443292576225	14	-0.005166893251369579	-0.0011225445827766512	-0.009737547178996818
Si	11.064028404265805	7.989076934641925	2.7562967066090196	14	-0.006974380291433679	0.006039269286495823	-0.003456079771343048
Si	12.47751581274566	9.316677739555473	4.089881394237576	14	0.005837694629396213	0.026470814823584547	-0.01636431403114648
Si	11.004966831446643	5.260559753115295	5.493020588152672	14	-0.0003890082349384044	-0.004057975526789713	0.0006080664082150207
Si	12.41044104046466	6.578859522939212	6.8367697461213135	14	0.004545971316553819	0.0009479665315385966	-0.006966666975473235
Si	13.777637912767654	7.9426985914904416	5.484698438224571	14	0.005413462251571781	0.009068288464162274	0.01031784564975424
Si	15.180962476962508	9.238633599667015	6.854236829850829	14	0.04013906781602375	-0.007410439753730793	-0.00038566579802221183
Si	13.72639278674497	5.2223311980528395	8.227409454593403	14	0.004099113211912083	0.005861605908873591	0.008345550758668649
Si	15.13307027652633	6.533141358152482	9.574332672089135	14	0.024384619966816394	-0.010183633952042512	0.016597256173151893
Si	11.084123193013651	7.897733290208345	8.234481168160677	14	-0.0053939218511386555	-0.00017740626709021747	0.002403469253274424
Si	12.49090475032049	9.212756559034778	9.581602764376854	14	0.006367342325346717	0.005009798716308532	-0.004314057616676461
Si	11.036294408725812	5.169271394554626	10.975317343015812	14	-0.006091205613962814	0.0036018614429954438	0.002980682397647668
Si	12.44243692638401	6.482818205363333	12.3222568210624	14	-0.008901937949948693	0.006525722413067839	-0.005566700128652606
Si	13.805054827565955	7.848541871758774	10.969149716076132	14	-0.00010258710227390835	-0.0049272662355317794	0.010543331586331228
Si	15.221386206390525	9.144280127269989	12.319542935124534	14	-0.014250094126388713	0.006470957869748686	-0.006805715782431964
Si	13.75559185791709	5.127743573723487	13.717156793858763	14	-0.02751108403611646	-0.02644896042836329	-0.0035584097630849414
Si	15.176973763837532	6.423517602446587	15.066481694715925	14	-0.042478773657358505	0.06433831108925747	0.021307006898599146
Si	11.111323842485568	7.799644769279696	13.715529112718075	14	0.009498177273691035	-0.004862731491996062	-0.001688187753209229
Si	12.521564018959479	9.09809691072878	15.06901508853929	14	-0.0038651426277786075	0.008736615877863174	-0.011622424489197376
Si	11.06826915592905	10.690999985243566	0.006461942910174401	14	0.009237210083696004	0.022340077016234642	0.04677560486838997
Si	12.488925841281315	12.020737426539593	1.3125451608759777	14	-0.01644196141181495	0.0033596633218374947	0.02037498122004547
Si	13.91990472431697	13.091626410869127	16.35962314025544	14	0.025806698319390302	-0.002816902988754235	0.015179548699622243
Si	14.96558335059936	14.397590926813681	1.6736594742860258	14	-0.09275313864540598	-0.1541961280336447	0.10933291130238086
Si	13.839245887850867	10.70395476611054	2.7391093043542276	14	-0.0007499914218871946	-0.011012815417790266	0.009260607142109351
Si	15.28309337083396	11.973074499870485	4.122067528601942	14	-0.01200809028721959	-0.0004707693841191132	0.0054206613464681955
Si	11.20849039018068	13.372103026529183	2.741363016702869	14	-0.024116453681924954	-0.022859183180372538	0.003694421234520775
Si	12.586128162188311	14.717910770236196	4.111394103020063	14	-0.0008505216399049846	0.014571482291407223	-0.01668647352776103
Si	11.140797716967151	10.625164266937793	5.489978239087515	14	-0.0016311092151019414	0.009751174037193605	0.00574822016425506
Si	12.553270467073592	11.94754380897148	6.8249109263820325	14	0.00902200856839961	0.008753328062444134	-0.01762158453269889
Si	13.921295001415157	13.32604664228465	5.469732227216709	14	0.009241066741676227	-0.023280330231812797	0.03090879971669215
Si	15.321087773964088	14.616651441890626	6.848809057975096	14	-0.0162830671030298	-0.004437984893107599	-0.01853972624252377
Si	13.85371940416779	10.580498159791446	8.226225686491086	14	0.005032424443125835	0.003784409920725957	-0.01019263282066303
Si	15.271276828526902	11.878508014257246	9.576487195077554	14	-0.012315851594041312	-0.022375044048588658	-0.006339574387889118
Si	11.215451532002133	13.250478984291561	8.231455079646375	14	-0.0042281826989835165	0.008351721411437005	-0.009548056716901907
Si	12.619902952371309	14.567900684369253	9.573905019601622	14	-0.0013737415725551187	-0.005083332328464767	2.313994788133271e-05
Si	11.160180293587503	10.527430226017804	10.977439344902521	14	0.0039859845778255675	-0.0009369107786619599	-0.0018943903998851048
Si	12.572516455066754	11.835097221636984	12.323835720550518	14	0.00018614802517872092	-0.0038000936631788604	-0.0010911770978708447
Si	13.928124432774677	13.196812662246419	10.95604208603111	14	-0.0027721657561836587	0.022067025631234916	-0.013505502025673832
Si	15.313573773413532	14.533938897851412	12.29056338138897	14	-0.02521662964841631	-0.05631440560613935	0.061742780268567984
Si	13.881703812190969	10.460625378881014	13.707206962789975	14	0.009590222844152336	-0.013208282250664711	0.002775765303631866
Si	15.291597638931647	11.761708477458598	15.052798441170602	14	-0.013786523837166014	0.032293339931591884	-0.02520017457436737
Si	11.227575398720367	13.151920533443175	13.706236207903872	14	-0.0007798162436009124	0.021341202599357116	-0.028951417236463415
H	2.9794808973830476	13.344295858510339	13.867135984679077	1	0.10226725677208193	-0.12071313767042027	-0.09845096514538614
H	14.078620709112215	13.496338513234281	2.535445904882827	1	-0.06940518834367329	-0.09056821334434413	0.07100621562652949
H	15.800213035211556	0.1228923652043912	15.781906907057872	1	-0.08659688406684342	0.07066631550320593	-0.20752265214723997
H	0.677674717474656	0.39652491500915926	0.5594605127515361	1	0.1979247159871272	0.1051697775679971	0.20952194364418708
H	1.6007943198452044	3.106722959941419	12.910680626998642	1	-0.08204525631858528	-0.3998966088586995	0.04467938270087324
