219
config_type=vacancy sigma="0.001 0.1 4.135616033846787 0" dft_energy=-23095.641447480084 dft_virial="-6.290166619207648 6.270210506837065 122.48263528568799 6.270210506837065 59.4771973092845 16.71523972160002 122.482635285688 16.71523972160002 28.08224132788389" pbc="T T T" Lattice="16.5208001046 0.0 0.0 -0.0651580356125424 16.081396384217953 0.0 -1.0703165555766154 -0.14662210092832498 16.361870007593748" Properties=species:S:1:pos:R:3:Z:I:1:dft_force:R:3
Si	11.326060846669963	14.64590241104925	14.979135209559084	14	0.06822659366491741	0.0044500690881122944	-0.04257698988058816
Si	1.3860323497355425	1.3346774426103933	1.4071921905095142	14	-0.17207070932984614	-0.24318593982194994	-0.15100075834176466
Si	2.7617391994057097	2.6540252348037283	0.0037237883435768397	14	0.060391664422830164	0.03672566839299516	0.013064557463268433
Si	4.046528781940243	4.032230029449711	1.3771028572790063	14	-0.018251762446667184	-0.013074327663484996	-0.03676680607811753
Si	2.570106178592402	16.022360957124175	2.7754977217328207	14	0.03174003806669602	0.053464078248223176	0.042380043213064815
Si	3.89736578195583	1.3386391304754766	4.125990526283347	14	0.014640130803455177	-0.05035278370031199	0.024926094747239582
Si	-0.17491727526747342	2.5896056789558615	2.690040579031756	14	-0.003662025307486909	0.0756056659337424	0.09664424943691809
Si	1.1020315355374162	3.9806355707230456	4.07672550037143	14	-0.02965718564684406	-0.015969906475035763	-0.012978682545575488
Si	16.096527785033757	15.996583552720969	5.470856346318247	14	-0.002555421577695176	0.017214064339455416	-0.051335717264204606
Si	0.935572909923498	1.3001241891916224	6.828352318033114	14	0.01126761195501694	0.0007607900642318165	-0.010469026642578948
Si	2.3887160538439467	2.597720695967241	5.461611306579714	14	0.016387711089559828	0.01483913435523464	-0.014368879192179555
Si	3.6751626726289706	3.9857735395555762	6.8252265826533245	14	-0.0010017026327296915	-0.0005185919430738676	-0.0038018934369029645
Si	2.159380915111931	15.96968769015068	8.177895176577627	14	-0.002262315571198295	0.013539183505367768	0.01731665144172933
Si	3.516007892741296	1.2732051975011873	9.541412979930621	14	-0.009299173721911573	-0.00499951429502794	0.01928920344334693
Si	-0.543289815599792	2.577500888719221	8.1809234392368	14	0.0002301139261532531	0.009902612140550326	0.005223971789476867
Si	0.7482732949776268	3.9651886226252446	9.542263801136007	14	0.015585526229673626	-0.022206379539586943	0.009787683732739708
Si	-0.7703533443174247	15.950688770030391	10.892216375523114	14	0.00824990564075914	0.021271011424117074	0.03883114653966442
Si	0.5598007032243292	1.288288687996687	12.250923321885649	14	0.028374718313154197	-0.03689947511263717	0.0024430642752047045
Si	2.0350718068048788	2.5568399761084084	10.895849299466116	14	-0.000456371194326284	0.0533810315463824	-0.03929291705516302
Si	3.3264664052212307	3.92990349776184	12.273895494431095	14	-0.02714238753320723	-0.009728548310376301	0.006207676684965522
Si	1.9767038200353273	-0.028731323461909857	13.539142622521897	14	-0.10248220117684631	-0.011532950024056222	0.08159659844021942
Si	3.199588312497913	1.2666563523397238	15.02067841350211	14	-0.011592342556951645	-0.019762543932786193	-0.03605126746752032
Si	15.607142036015254	2.512015741264608	13.654707271333583	14	-0.02389122485587998	0.044886356679145166	-0.02990375464704626
Si	0.3902543400708612	3.8980200056399723	15.008193644863065	14	-0.04750991254782426	-0.030929625669785344	0.010024482532725344
Si	-0.020320584128658	5.318438748713229	0.0020915332932423597	14	0.00270326013360369	0.0039029378759847843	-0.0045236027002685305
Si	1.2684042529907904	6.698964715773908	1.3711917150015802	14	0.011018471849494591	0.012663979254389363	0.009518489005720204
Si	2.720362855543739	7.998021661278774	0.00370396338345132	14	-0.002199323490854667	0.00028487846947240715	0.0030655288732125544
Si	4.015160738781638	9.375028697917173	1.3724241666893833	14	0.007724628823852889	0.0004427443361294992	0.0031056381162068644
Si	2.5572480398709923	5.296441303373954	2.7297334533630684	14	0.017521054314681102	0.010790157697065443	0.011351429988453768
Si	3.8436021421754307	6.67849874860433	4.100188340679983	14	0.011034155591947495	0.003658425760038701	0.005300847838549295
Si	-0.20803652323716504	7.976219161380733	2.7291453128793446	14	0.005908400025700285	-0.006578944293194905	-0.00809898175846645
Si	1.0822776148523459	9.353127073218506	4.101956066291176	14	0.002893521927294648	-9.178845992928642e-05	0.009345710728206252
Si	-0.37345764260451436	5.25903821193714	5.441175076850324	14	0.008552781847472584	0.01163168046834991	-0.003929677371314324
Si	0.9108891824872152	6.647115836725631	6.809110542151288	14	-0.011493355002125944	0.004792797427288034	-0.0036067465431037257
Si	2.369238030520623	7.9513768342634465	5.458355056879097	14	0.0055145066906536	-0.0016262241149936601	-0.00976968599549867
Si	3.658645176684392	9.336683920874396	6.825112589132603	14	-0.011166567515935122	-0.004044348668592928	-1.6969295112977322e-05
Si	2.200378932651507	5.262168903556962	8.180267563472649	14	-0.0025844750678128492	-0.003155517559417738	0.0028063614569416285
Si	3.491362163145254	6.636975369621428	9.55412573561111	14	-0.0038114065265875126	0.003707276761121515	-0.004706408288531059
Si	-0.5637425661292866	7.9120408092143935	8.177421029614626	14	-0.009344168065014164	-0.023772696900621153	0.00989592726671794
Si	0.7370474113065512	9.292655988595639	9.532888247076647	14	-0.03976445777087818	-0.013207253808536653	-0.007362360084244024
Si	-0.7342157461686227	5.21841686863995	10.914747442705767	14	-0.017390956385481608	0.005482882095215779	0.010479568174391555
Si	0.556111608560972	6.604236100054143	12.278019086137204	14	0.0036198591802364807	-0.005780101870224897	0.015139953677691964
Si	2.013358519227403	7.904875738209029	10.916989315279961	14	-0.003170687080806611	0.008723760351262433	-0.0025384522825821986
Si	3.2856352477627118	9.301522702011777	12.290601327496866	14	-0.006435733726862657	0.010953937105958874	0.00047873981061157233
Si	1.8392871089252854	5.193676970483311	13.63785440314688	14	0.023775010895409288	0.016354029609865886	-0.0313263472206842
Si	3.128013598124744	6.5783149646900245	15.005723785247426	14	-0.0020090616971637086	0.006631651952257941	-0.0029760544080714014
Si	-0.9240248706503826	7.876856461231627	13.636332837457246	14	0.00013832546622396667	-0.0022258058756521922	0.003636571364817443
Si	0.36514437599187965	9.257412165732495	15.005756826847636	14	0.007421238396075416	0.027091479647868292	-0.010605295224546797
Si	16.479298202657233	10.681906590191556	0.00062613832396434	14	0.0034270262812253743	-0.00475885883706208	-0.0023289071989901298
Si	1.2538940342589204	12.054348929761055	1.372756234771486	14	0.029579538266175594	0.062432864936495726	0.01802267696264199
Si	2.750293589093243	13.341705844631843	0.07787409545305302	14	0.07464921475464731	-0.02238481424880522	0.03391904982552151
Si	4.029221591750663	14.763376864353027	1.3957631009971518	14	-0.03769934597773524	-0.030466569601626678	0.013714275777669854
Si	2.5377435832675013	10.650564980313119	2.7336604475479316	14	-0.0033645484219457763	0.007746740329606162	-0.0044076458503298525
Si	3.8246065262151614	12.03935630366613	4.097422758742473	14	0.003990098346337805	-0.0016401080837224597	-0.0003550696447124497
Si	-0.15580601370647215	13.330570825361342	2.7670060304790565	14	0.02290726284985931	-0.020982276296664444	0.06531584533197778
Si	1.0861467862368432	14.747054313849683	4.121752941056518	14	0.030675857574686737	-0.027718572235452408	-0.009330541206817379
Si	-0.3946307000185697	10.601412295841914	5.48383013064039	14	-0.04256567701717951	0.0218183997467766	-0.024826850081881867
Si	0.8915648026048645	12.007621498745204	6.829546771880677	14	0.0036928785713286863	-0.009761458458474197	-0.011867193715675474
Si	2.346237772614999	13.307306234654044	5.463573977632141	14	0.014678697383257397	0.014231582168083649	0.008725817235518551
Si	3.638380763276089	14.69230933854307	6.82668206514254	14	-0.0014758144537649974	-0.01665536315338724	0.0026348687320877514
Si	2.187344021368977	10.612230115750405	8.18705761231564	14	-0.008051930531107738	-0.0031850852705994403	0.01005405024390705
Si	3.460719383111242	12.002255542871229	9.563991957433577	14	-0.008049616536319606	-0.001189907542164531	0.01185048153109451
Si	-0.5875936452402977	13.285037848193054	8.18200224748363	14	0.0048825290029612025	0.010518391864725791	0.004085743464247313
Si	0.7082235713640556	14.670067385362247	9.542083724414868	14	-0.0002637954058471929	-0.015180320031218287	0.02393467653579048
Si	15.76202618907589	10.54612543829187	10.874758846052583	14	0.038523128122310686	0.035549901930091436	0.03480196739246037
Si	0.4893940094185553	11.94870667349219	12.255668095675688	14	0.00557492766567708	0.027032601336036906	0.05838723071524273
Si	1.9771251004379944	13.274847818688537	10.92890081215538	14	0.022476602708734507	0.014177074735296506	-0.04520491662831151
Si	3.3256882755363044	14.68602317410327	12.231797191604553	14	0.016437847643302715	-0.012957856592482287	-0.015715624158873117
Si	1.802782749014161	10.581147882433612	13.651320507312139	14	0.012775308114751775	0.002670349985505795	0.002527396529705562
Si	3.130471893180309	11.91814319329868	15.050800788332827	14	-0.03679148868919095	-4.242323778244331e-05	-0.0055458741755594065
Si	15.517420874807192	13.237051532209232	13.599813608826029	14	-0.0802678512107669	-0.046804658358507646	-0.09831238256863015
Si	0.7721078532885333	14.319092899620083	14.622299143939806	14	0.15287355145696055	-0.0335524102068684	-0.08902812125757543
Si	4.3970869435197715	15.89979644530817	16.359733868140225	14	-0.03562523531597179	0.015420204157588106	0.000136525692499863
Si	6.807227170939363	1.3500004847074099	1.3734121105356387	14	-0.011620110494409244	-0.002890179490378456	0.007182639822365673
Si	8.250776686239071	2.6513026069464902	0.0025937656164222	14	0.008153489191253587	0.013876769633903214	-0.0009834477849566402
Si	9.526848242558405	4.041415594307869	1.3749221116651988	14	0.009481207978578056	-0.01848958968878088	0.014972574721350324
Si	8.01542467210896	16.018587606380287	2.7353951315589144	14	0.02195543966034049	0.012894864512138662	-0.002918718759432099
Si	9.359530535339049	1.3233937361389516	4.1088766294549925	14	0.019551199075470024	-0.004824936243789885	-0.003998325883362278
Si	5.333603191129241	2.6245901252573627	2.7340701633905256	14	-0.009381706202688325	0.02286072584356463	0.009928323193751807
Si	6.61309785723025	4.013457444290855	4.1018569414905475	14	-0.004474494588653702	-0.0012559849488923366	-0.0009693067056958259
Si	5.098834361242823	15.98541383977025	5.466422163570173	14	0.005544074401835302	0.06584549302792828	0.009563997569886825
Si	6.441540912704053	1.300651202714959	6.826568071621818	14	0.008759755825744505	-0.0382665318113599	0.007245889013241316
Si	7.888425977544878	2.602163139115368	5.461071076416293	14	-0.0011048039560676295	0.0029009781327230776	-0.016622967226353372
Si	9.184601695511502	3.9779707656661736	6.827238816106065	14	0.00039003667706646357	-0.0007299368003900396	0.006580486956386994
Si	7.665035022690498	15.980441078938764	8.182068330684048	14	-0.006633708836514058	-0.053019277027837576	-0.004029436257736069
Si	9.019134317903859	1.2765308345622433	9.549053849978998	14	-0.00873378766201101	-0.03161251124281667	-0.010603238340290679
Si	4.9604577916467045	2.5750607665437717	8.176996445051937	14	-0.009177817550800584	0.009272691337114046	-0.0027991623620452137
Si	6.252108462464678	3.9522776173435	9.547352207568224	14	0.008517043483522528	-0.0024417787225446304	-0.0017550364915330787
Si	4.775153889353469	15.950842413471364	10.866004474077156	14	-0.01528033602817205	-0.04487272982094838	0.012136902663759008
Si	6.098268423970652	1.2488584943870382	12.266074547661578	14	-0.012540051977958227	-0.004741375320885073	-0.0030873832684338133
Si	7.544542219207608	2.5518655631969134	10.90527276384578	14	0.0017450091807845011	0.012604329610961928	0.013980642288837195
Si	8.824316086830386	3.9399679691855622	12.274156523072747	14	-0.006625738410021599	-0.006211276232413729	-0.005884488746222908
Si	7.307372917065992	15.91962140543369	13.630443172219957	14	-0.006322347982244127	0.014013809547467105	-0.0053574121555925525
Si	8.649446721883214	1.227488839451738	15.001730707862144	14	0.01834200824340438	-0.0024368936224363493	-0.006061895013313125
Si	4.632975883653281	2.5367275540610685	13.626564088355398	14	0.016683645311908867	0.030965364033735406	0.015687856221415518
Si	5.909970952698464	3.9187684784913395	15.000668420415419	14	-0.005561557918012309	-0.006386882725779843	-0.008556895615984822
Si	4.421963964317278	5.177247034779286	16.361452031351103	14	-0.015403234862475126	0.00468403967224577	0.020211458921684047
Si	6.771856137915415	6.708338617753258	1.3696024140315177	14	-0.001291209091778365	0.007057941214338491	-0.01602904189739917
Si	8.232864834765662	7.993979021493178	0.00435488290757256	14	0.0016673618001160294	-0.02396938645761248	-0.012011432724135782
Si	9.510796633176776	9.370528431968681	1.3829297434758987	14	-0.006595399367243852	-0.017421295428259355	-0.04935159528864633
Si	8.058317625420532	5.314990857731399	2.7342981504319694	14	0.00527333701162371	-0.0026328118478316327	-0.008067871384092658
Si	9.358397208451871	6.687492672181274	4.101579392048791	14	-0.0017694346813259079	0.002276970871523139	-0.0010808926765902523
Si	5.297424290980178	7.974613339610566	2.7342667609117703	14	-0.006805972892963979	0.002376729757944884	0.0006494612038694048
Si	6.588837062276644	9.360211192303357	4.099140921953352	14	0.0009451383156864338	-0.0022977968246163387	-0.008904509055268841
Si	5.130765763684995	5.278924299023046	5.459812191448323	14	-0.003448109344850589	0.0015791728876349503	-0.006186336510808292
Si	6.421952200020028	6.660560463850755	6.827124822585343	14	-0.002246631828745391	-0.003026705182878319	-0.0055898400765339385
Si	7.875526536823207	7.956552800936217	5.458715210321378	14	0.00223531896533674	0.004140250897034452	0.0036810514868560046
Si	9.164021734821201	9.342054832988403	6.823491898642342	14	0.01592002703182489	0.002393184831993832	-0.011194078342860708
Si	7.7061999003111294	5.251602199810059	8.183950049815962	14	-0.003039303598947044	0.0006535749723816417	-0.001504610833350656
Si	8.993054582858738	6.63658713081897	9.55085296511039	14	-0.0014408474214109835	0.007602244210613839	-0.0071147626419137645
Si	4.944305405384436	7.933590540870834	8.186239832710461	14	0.0022646295659864276	0.00047822558954754277	0.0013110066027435053
Si	6.229104900399032	9.3189951002024	9.55473204897495	14	-0.010860348872305487	0.0020041765970554275	0.010249197137706289
Si	4.7771479499260945	5.225958613887699	10.905748562888792	14	-0.0032964141309618517	0.0039762143776090044	0.003771040173061188
Si	6.058347562597897	6.613173852910731	12.274860309157203	14	0.0017864039764388855	0.00348024816135244	0.0002694518375515187
Si	7.514464450537173	7.909423914477825	10.909986148115623	14	-0.00018769068837080978	0.002200351932982726	-0.007212978865143421
Si	8.806078775594917	9.289935012818411	12.277135223331607	14	-0.002849813136852131	-0.0019234438900027778	0.0020995646044329216
Si	7.3539830504011	5.217417360233621	13.633813415441296	14	0.0032208236345494987	-0.0025219972085332508	0.004903097845522387
Si	8.646192124262608	6.587488964988109	15.006655558373325	14	-0.008787009542138074	0.011807029851184007	0.017886922601738173
Si	4.574882142165466	7.879437010207965	13.633666380320365	14	0.004618990707646023	0.012300939183184456	0.005546388396623436
Si	5.889610718649554	9.244172396528668	14.993714815651392	14	0.003085583494709709	-0.013627629528380862	0.048178399931062765
Si	5.498153664331078	10.641658616976729	0.009162435738011161	14	-0.029887813794061344	0.03469912317965444	-0.050821753310707
Si	6.764590290029411	12.050529320776873	1.3700385631542793	14	-0.011833512235981534	-0.00447655147290982	0.0045326015688890485
Si	8.20685448708098	13.356843853767687	0.00187345873186164	14	0.010459770663426416	0.009638302513639103	0.005076647454632382
Si	9.487398223988631	14.742375623260061	1.3758208431908892	14	0.01780130479457724	-0.01285861192712457	-0.00028307869574830345
Si	8.049102323122186	10.658658520284364	2.740433975590818	14	0.012717972466112474	0.001305093060507165	-0.006701328906433953
Si	9.348390559828516	12.050405414776087	4.091876726147359	14	0.0022198923334158516	-0.002662379559013336	-0.007898949764558927
Si	5.29304627895246	13.326258896534041	2.7331532589847205	14	0.0031696586386785516	0.012246688860929332	0.015986104438552695
Si	6.572230354011501	14.715197255007983	4.103689098222149	14	0.001790774855483137	-0.016286409539945992	-0.0057055398159406015
Si	5.108850922346242	10.63005605906327	5.454821257736723	14	0.0030860977157737396	0.007701231765439541	0.0026803772962543724
Si	6.39854387835182	12.011067737647023	6.821773735431464	14	-0.004982802110446977	0.005985790295836743	-0.003186370823259514
Si	7.857513908469161	13.307522657135413	5.457454673273396	14	0.007505827761108286	0.005780101870224897	0.004161076850127651
Si	9.123666376405694	14.688294784117652	6.843845524371209	14	0.0023373918465466187	0.06732927790818573	0.002268743334498665
Si	7.684518002253853	10.610726722940887	8.184490279979384	14	-0.0016838168741649768	-0.0040656888427501574	-0.004626189802542439
Si	8.9769699318769	11.987788278219632	9.55244061400044	14	0.002702231691475631	0.0051062151658140854	0.004294517216243337
Si	4.920784742275518	13.283740965384844	8.18311574941068	14	0.005797071165337874	0.00717389806427717	0.00979693971189224
Si	6.2323281084994395	14.663658967001673	9.528520147528992	14	-0.0010122441645422984	0.06415679105365502	0.005569528344504768
Si	4.746087193649436	10.588659890241173	10.916088931674262	14	0.0017807475447345594	0.002534852735133991	7.713315960444236e-06
Si	6.028104585926416	11.977908839757081	12.284432460737808	14	-0.011608026299404547	-0.002422238322111505	0.0020710253353792775
Si	7.493127837202083	13.258791253066876	10.908120949783813	14	-0.006499240028270314	0.013687793392872329	-0.0014511318426915758
Si	8.78155695199966	14.643657234315032	12.272177331220217	14	-0.013293642947293627	-0.025856834873133186	0.012059769504154563
Si	7.3218352254775585	10.562495899115518	13.62775854220296	14	-0.011563803287898	-0.004223297598875235	0.007791991783240768
Si	8.60956881459073	11.932014057066501	15.006688599973534	14	0.011294094339814468	-0.008514472378202378	-0.003342179805660488
Si	4.5411962307521865	13.248758171163352	13.646592254322202	14	0.041756550172928904	0.01074182091704666	-0.024689295947253942
Si	5.8614691877513785	14.618330847754681	14.997853276077594	14	-0.022699517539991346	-0.008196169539568046	-0.00016403651942544742
Si	10.928304411271602	16.04586179527297	0.00387577970453916	14	0.020053593055026957	0.025251853791302344	0.005407034488271409
Si	12.257563031447686	1.3928950900989934	1.3496717207853284	14	0.021537120824752398	-0.02456716844454691	0.0236762804511156
Si	12.665636706511371	2.512660052468687	16.353631084581583	14	-0.012372930132148602	0.04886642771473439	-0.006341117051081208
Si	15.046616069666333	4.018184045200781	1.3651913604035897	14	0.01809003992202987	-0.04917547457421619	-0.04612100145388027
Si	13.477572904692073	0.07065615788735327	2.8173019543175006	14	0.11591339825876786	-0.018281330157848885	-0.07329938446156957
Si	14.898649175609494	1.354547008896196	4.119953825925127	14	-0.020027882001825478	-0.007560078083363411	-0.001170881362795435
Si	10.801849251030962	2.6331743329917128	2.7379310743749707	14	-0.041493268988145746	0.05995637629212909	0.0011068608403237482
Si	12.112460844128986	4.00255702038184	4.101496788048268	14	0.00724820300802945	-0.007558792530703338	-0.020188061863270698
Si	10.55244299225187	15.999876148181816	5.494646298468871	14	0.021030098855619198	-0.056783632327066375	-0.024019780121887383
Si	11.944062676582787	1.2971735742929411	6.831492922132999	14	0.0001951468937992392	-0.007031973050604995	-0.016261984039404584
Si	13.39861669683217	2.60396721048679	5.467894166859493	14	0.018767783284420903	0.0313785406586832	0.020643918836532958
Si	14.689439675564902	3.98736779676567	6.828532394754255	14	-0.00810489530070279	-0.005049650848770827	-0.003277645062124771
Si	13.166420155522037	15.969218499427708	8.185405532305177	14	-0.004206071193230242	0.014509004432127626	-0.012384757216621281
Si	14.523622056995041	1.2768381214441888	9.543408692583256	14	-0.00944932627260822	0.004150535318315044	0.014300487790663615
Si	10.472555011266065	2.5753399680655393	8.187107174715953	14	0.015996645970365306	0.015191890005158954	0.003585663479478511
Si	11.761028732223924	3.964805340062818	9.547433159488737	14	-0.001953268711716496	-0.005626092661548026	-0.00881400614799963
Si	10.227150090272305	15.93701450378381	10.898139082360613	14	0.01285809770606054	0.08363394229590476	0.01355306747409657
Si	11.564978049462646	1.2675930817056547	12.249352193795701	14	-0.0203338435349231	-0.06053050411011816	-0.03172666831903125
Si	13.043953116426646	2.552736209362426	10.899645779330152	14	-0.021859280321366956	-0.0003725531608894567	0.004587880333272233
Si	14.3299305444887	3.921244946427019	12.283761716253562	14	0.04566000226997772	-0.004787655216647737	0.02083675173554406
Si	12.764852371539545	15.93212434695285	13.590077901324387	14	-0.08983673388076201	-0.03537480965778936	-0.1047062072787744
Si	14.074632968392306	1.2286469475390704	14.952645758671368	14	0.12104583869884745	-0.014199443351581796	0.05688467676614819
Si	10.099138670661812	2.52667795135744	13.63184909230886	14	-0.004918524477443275	0.008300042194502028	-0.02694904041313209
Si	11.385079752963636	3.9147027095855975	14.993108502287555	14	0.032387442386309306	-0.0078123035152699374	0.05704794195397759
Si	10.989059653656268	5.325512955318019	0.00602678787815808	14	0.014837848802574565	0.006287895170954142	-0.0292810329385064
Si	12.287578021077724	6.701510571070028	1.3707142638785574	14	0.012300424962120426	0.0002607100794630152	0.0009898755482570104
Si	13.73891709362675	8.000327964973376	0.0011812372074789	14	0.0038044645422231124	0.0006923986627158777	0.00345248022389484
Si	15.028605093392297	9.382889294606942	1.369136527468568	14	-0.010647461351797225	0.01934268243400601	0.006282495849781832
Si	13.573662834340459	5.290333563575284	2.7276072263896065	14	-0.027184039439393626	0.012856297932336442	0.024809880786768886
Si	14.859628697842439	6.676357652910774	4.09514949664808	14	-0.0017090137063024281	0.007935202349573017	-0.003531156046691372
Si	10.817494448730018	7.979642271162406	2.734854901395494	14	0.0001858909146467061	0.012606386495218046	-0.004177017703112569
Si	12.111274650681475	9.381413987157602	4.084006216977528	14	0.005762361243515875	0.0013896824255400367	-0.0061364570675974195
Si	10.635725997659168	5.275540839161624	5.460563887853082	14	0.005853892592913146	0.0009919324325131289	-0.008017477719817754
Si	11.925552772145593	6.664163650353569	6.819695418778305	14	-0.001710556369494517	0.0029220611963482915	0.0003401572338555908
Si	13.377896309340978	7.956295076454586	5.4460834065614	14	0.010991475243633036	0.004382706128724416	0.0019951777284349095
Si	14.659188438493368	9.320202770690049	6.837432149770604	14	0.049227668012215196	-0.0076174137320027145	0.0007484487586951057
Si	13.212518144053902	5.262849560521271	8.18146201732021	14	0.0045228313686724855	-0.002070768224847263	0.0029053490117673295
Si	14.505017983997252	6.628833919329881	9.5581832441168	14	0.015504536412088961	0.0062439292699796095	-0.00012238461323904858
Si	10.446590921821677	7.932875190226305	8.181724698041874	14	-0.00400809608357884	0.003104095453014776	-0.0038615430803303993
Si	11.736995924311763	9.314157809931775	9.548906814858068	14	0.0033416655845964587	0.0005371039013789337	-0.00299842302435669
Si	10.279839878045907	5.231288224001443	10.906779460815319	14	0.009761201347942183	-0.0038173200688238528	0.012171098364516977
Si	11.568967822687906	6.609894474089968	12.274680232436063	14	0.0033249534000154954	-0.0022173212280957033	-0.0026068436840981373
Si	13.020300286916891	7.903704413481612	10.9058129940092	14	0.00032318793874261354	-0.0028701248688813006	0.008502902404261712
Si	14.312094688695774	9.27987549763472	12.27276712378395	14	-0.004322799374764966	0.0017339534279078646	-0.0026986321440274235
Si	12.851913683930766	5.202404909178571	13.634631195046474	14	-0.017965855535066716	0.025789729024277324	-0.02284992720122001
Si	14.145427901000538	6.578415741570663	15.005102603163493	14	-0.010535875380902797	-0.00101070150135021	-0.015094959334589373
Si	10.092959891422693	7.882572658067819	13.633747332240876	14	0.006149569704730175	-0.007068996967215128	-0.0019339854218153852
Si	11.38100076741781	9.258421586618885	15.004316213078514	14	-0.002165384900628712	0.004014780957411226	-0.002984796166159905
Si	9.875987267408949	10.503478644901856	16.358965650935357	14	0.01941518760403419	0.0290432056963927	0.04243557908798001
Si	12.250900192765501	12.055915101610971	1.319965670117247	14	0.03739287022357359	-0.0025361382877940653	0.003750985551564033
Si	12.610645571283198	13.211551677247781	16.285681033751363	14	-0.08796419787609816	-0.05291823258875575	-0.02720640805567891
Si	14.609835852340897	14.45782136225843	1.737761836042487	14	-0.17315957243292887	-0.11667495965459572	0.17271425699147924
Si	13.567789689903272	10.688572733033762	2.7113590194867325	14	-0.009803110364660595	-0.010384694388078092	0.006982864938990168
Si	14.888404627464631	12.030793572971916	4.110839300507419	14	-0.020576555877145075	-0.019028750474415934	-0.007875809816677596
Si	10.805454089613786	13.349351670920251	2.716906704161857	14	-0.039244323164612224	0.009144650292170672	0.013217024008753216
Si	12.02930009264246	14.761491841061092	4.1328466583267565	14	-0.05599507432537696	0.0040122098520910775	0.05428888883492669
Si	10.62226484973394	10.635882945260162	5.452529822762215	14	0.0047832843376034865	0.009222554783371159	-0.006878992284056186
Si	11.914138551353325	12.028064336794637	6.80768644918227	14	0.008884968654835717	0.002371330436772573	-0.009314857464364475
Si	13.370635417695008	13.32665209157653	5.4295411294166644	14	-0.017645495812176268	0.0035964621218231327	0.04459890710435261
Si	14.642269487106248	14.692808266706228	6.830248905885123	14	0.003016420761597726	-0.007406840206282587	-0.025635976926132467
Si	13.182519675223968	10.613023114155427	8.17581851200448	14	0.009427214766854946	-0.0032658179776520898	-0.010129897850851416
Si	14.481249508886764	11.982597442826766	9.54499634147331	14	-0.002272599992478887	-0.006462987443256226	0.005457428152546313
Si	10.429301904512212	13.284028427306662	8.181528100520628	14	-0.0005391607856350522	0.011948697754324167	-0.009049776505857208
Si	11.71400723096621	14.668696158953566	9.54974111526335	14	0.013937961940522737	-0.024733261848228476	-0.01516643606248949
Si	10.261009470086682	10.582486067242085	10.910673413399973	14	0.005560786586416265	0.012293482977756023	0.0051959467414872534
Si	11.549184164562648	11.96777663305293	12.279114415184138	14	-0.005122670239863032	-0.0022078081384111553	-0.0070353154875211895
Si	13.003655580811506	13.259412435150809	10.90355625271491	14	-0.03026525205505908	-0.0017725200077100857	-0.02054004618159897
Si	14.27210609204259	14.67179876521321	12.250596210043577	14	-0.03221672099305148	0.0026549233535849066	0.07872878756612627
Si	12.834717183101889	10.557650348444838	13.633763853040982	14	0.004103998312020364	0.005565671686524546	-0.0003568694184365533
Si	14.124083027265394	11.941031109763593	15.000029065451372	14	-0.0031115516584432055	0.05717983965690119	-0.022122561506150117
Si	10.057575641758659	13.231713661695435	13.63551505785207	14	-0.012029944682440846	0.006803916008707862	-0.03412036737208911
H	13.699932961619927	13.578908188373669	2.6080181106724383	1	-0.03469475230061019	-0.08112634327716435	0.04004805068769051
H	14.828308565004138	0.25811602459423905	15.817731022868578	1	-0.050958793224270896	0.036845996121978086	-0.06778050689187173
H	0.6571280408005487	0.34720278707828406	0.5196882005703604	1	0.1247744556341262	0.12161199609034407	0.1744590090617317
H	1.6901984525413436	13.451716200448363	13.760290052722072	1	0.07371281819704939	-0.0997195485103472	-0.07156285992834156
