220
config_type=vacancy sigma="0.001 0.1 0.9600610463296981 0" dft_energy=-23113.3547284278 dft_virial="65.36495119635353 10.98713573465733 -5.9426279702755895 10.987135734657333 34.35804347128709 -39.15329320495821 -5.9426279702755895 -39.15329320495821 54.900070383185145" pbc="T T T" Lattice="16.1821797423 0.0 0.0 -0.1112524857283125 16.377741384485695 0.0 0.0794706847144353 0.3464281039231584 16.259239282232834" Properties=species:S:1:pos:R:3:Z:I:1:dft_force:R:3
Si	12.06489758570941	15.323779835689955	14.878153351728523	14	0.0011451703095939545	0.02803198997397846	-0.022843499437919638
Si	1.4481545926642467	1.4122576633419026	1.5277110429313163	14	-0.2647989082536467	-0.2823682993483466	-0.8616804941049592
Si	2.674237896288962	2.7146140529639746	0.02785114955447253	14	0.09616962339481874	0.10834920640689222	0.04971720646517139
Si	4.013615876725468	4.109954865603277	1.3702487247308917	14	-0.02589437301080735	-0.030320787929974283	0.013779838963333629
Si	2.687809890438829	16.36269033910738	2.769648028049563	14	0.31476782592966057	0.016164282037238957	0.20486052969875865
Si	4.081226641906772	1.4293703184193849	4.105931975719341	14	0.018939533119806794	-0.011387168352403828	-0.0017192981275830205
Si	16.152372167214683	2.8093930797146256	2.708270638504993	14	-0.026101604099611285	0.17782612858899766	0.15173275202641082
Si	1.3258642421337112	4.179128829347687	4.0795258948158555	14	0.03256947664297579	-0.0012945515286945577	0.01138356880495562
Si	-0.06707189859588504	16.484042123212863	5.443546098563936	14	0.0033696906325860728	0.05684122508623768	0.003777725046893573
Si	1.3707616998287226	1.5012806887582175	6.7941205291641396	14	-0.006327747303416438	0.003460964871451329	0.005974734542960106
Si	2.7143243919465876	2.8325157963483982	5.419190299833801	14	0.04627346799936505	0.056042382663267686	0.039445126490115785
Si	4.039617403135395	4.2270410271286885	6.787877444219561	14	0.008123150148475842	0.015862948493717603	-0.002334306520162441
Si	2.645716804493158	16.54473662477231	8.136825565755663	14	-0.0194761228001217	0.013123949996163856	0.007651609432760684
Si	4.083171739911797	1.5568179296337912	9.497123868163014	14	-0.003739672688155381	-0.00720063755960671	0.007932117023188839
Si	0.03521080490127057	2.905840489196708	8.136467939583358	14	0.01232639312585392	-0.02298593867265584	-0.005291848969928776
Si	1.3659879568047442	4.291688835199177	9.497659498312483	14	-0.009089114417255476	-0.034896584068241816	0.0020188318973802717
Si	-0.04598490017369391	16.60329831504172	10.832299336520446	14	-0.016578744214846827	0.0022258058756521922	-0.008667453144751189
Si	1.3656821136076147	1.6394845948473307	12.193654335264968	14	0.0488196335979077	-0.004106312306808497	0.013993754925969949
Si	2.745110988906313	2.9553595774261203	10.843405166477586	14	-0.019789283428115735	0.005574413444613051	-0.013447137934906466
Si	4.067178891672481	4.337795101720938	12.214205703537688	14	0.014176046293168447	0.013977299851921003	-0.021750779676856707
Si	2.794387344439591	0.3700201037694576	13.531074271952656	14	0.00402840781560801	0.038727016774198424	-0.005166636140837565
Si	4.106778303719864	1.6911591494184173	14.947727015312568	14	-0.007275199613891004	-0.004497634536535035	-0.0727720507604072
Si	16.215958424294076	3.0080309542693326	13.559105043702269	14	0.004501491194515257	0.017802076126173284	-0.015620236151495622
Si	1.3705950233773772	4.381584080103602	14.929695212425724	14	0.015101644208421758	0.020947052153778414	-0.04195992460375262
Si	-0.02516814415319919	5.463079607730867	0.00266196856760835	14	-0.010982990596076549	-0.041596884532547715	-0.009963547336637835
Si	1.3026978336146346	6.840175012710726	1.3703474360273198	14	0.024380249087772147	0.016193078416824616	0.014286346711402801
Si	2.6557950660366627	8.1735769141684	0.0048514174867415405	14	-0.014522888400856424	0.02373824408933117	0.017235918734676677
Si	3.9923848569035703	9.552861768067393	1.369230865625101	14	0.021341973930953162	0.004186530792797117	-8.921735460913833e-05
Si	2.685474801902015	5.511207028502441	2.7203344535028777	14	0.021985007371522192	0.002192381506490267	-0.003044188699055326
Si	4.0174251618368055	6.8931409052252475	4.086061877213771	14	-0.028287043621737153	0.02314740408676114	-0.009771485769222774
Si	-0.029390074847965263	8.239614771478752	2.715261340153667	14	0.011127486715068871	0.013244534835678801	-0.0029557426760422317
Si	1.3024599555724228	9.616727976856328	4.086176770689941	14	0.03105843804632476	-0.01944964041532417	0.014151363682095028
Si	0.0006230139200785501	5.581504035520967	5.434620008218084	14	-0.017132560300806725	-0.017213550118391388	-0.029323970397352867
Si	1.3351301582541524	6.955919671535501	6.791926225591084	14	-0.01785221267991617	0.00817122981796261	-0.027523425341653168
Si	2.68960449417225	8.293066129385544	5.436864476548341	14	-0.008561523605561089	0.007504027987384184	-0.03611914464797223
Si	4.014622408305439	9.688471670743816	6.793795267351319	14	-0.015741078101542582	-0.010763932422799934	-0.0013279758978564829
Si	2.713287114225106	5.631286893280178	8.141605781651538	14	0.03254916491094662	-0.03750188508914787	-0.03014081055756392
Si	4.0421272592134265	7.01495549967136	9.502716429481953	14	0.023770897126897048	-0.0013135777080636535	0.00501236982162868
Si	-0.00558608844704196	8.340488007120355	8.133704023283373	14	-0.010318359870818269	-0.004072116606050528	0.015520734375605895
Si	1.3353486176806735	9.717958838670235	9.482977406632296	14	-0.06021965747691226	0.002767280656075377	-0.014942749899636606
Si	0.02761327151226072	5.67680412845932	10.849763144898334	14	-0.032863611091600735	0.019124138481793427	-0.004742917984077161
Si	1.3562786489593641	7.061725235562555	12.211229800683082	14	0.0023085954669609604	-0.0061968780426209	0.01600924438643403
Si	2.7085085165472047	8.405126105882996	10.855323341857789	14	-0.0011168881510723256	0.014886185582593348	-0.0034627646451754327
Si	4.021567799850835	9.810694056119432	12.216498718407173	14	-0.01950286229545124	0.030827809899107477	0.03162382410622533
Si	2.7295760963537052	5.724400773735346	13.56788549443044	14	-0.03696555251936497	-0.02724060375643688	0.005144524635084291
Si	4.061607367187207	7.117099036422731	14.919256088273967	14	0.003291014809789541	0.008694449750612745	-0.007594273784121381
Si	0.02322628258412319	8.467493844827795	13.549560794090262	14	0.0006355772351406051	0.015550559197319612	-0.008931505661130396
Si	1.3562980675750549	9.850686695134554	14.909826732138127	14	0.0034663641926236397	0.03965518579477188	-0.0005880117867178657
Si	0.02299649563178253	11.246967692416883	16.260221540543192	14	-0.0362402437085512	-0.006321319540116067	-0.010532018722922577
Si	1.286785896274031	12.262394616592285	1.3784757449118772	14	-0.05536926729045291	0.029706550868990905	0.06251771141206063
Si	2.675194263111732	13.589678035889396	0.08939683376836212	14	-0.041063637289149	0.04040826254304326	0.008909908376441152
Si	4.002212294661069	15.004685051569515	1.3847479577799926	14	-0.022339048574106582	0.03619087848640436	-0.024796768149636134
Si	2.664698501330876	10.946867550877956	2.725894650462332	14	0.0009266263573813677	-0.041198363207924756	0.027316965584445282
Si	3.9864913070414247	12.347040362388308	4.082127989318418	14	-0.0016493640628749927	0.0007327650162422026	0.0009577367317551594
Si	0.02245439261041548	13.67482866569338	2.7514220390058104	14	0.05559732433235005	0.00420864229855039	-0.015373924261825439
Si	1.2924868781972434	15.087256241922576	4.127035156321274	14	-0.09896929997792799	-0.05357617844018164	-0.10572796453300125
Si	-0.02492702967503892	11.001676593665124	5.449709890827779	14	-0.006335974840440912	-0.0037237318351704633	-0.013296214052613777
Si	1.2981959512103267	12.405286500152743	6.795843931306695	14	-0.01199754875540698	-0.017166498891032677	0.021328089962224357
Si	2.667430053271376	13.740419894842844	5.45083131588392	14	0.025717995185845187	-0.011536806682036447	-0.011994463429022804
Si	3.9844960442791995	15.143081525597562	6.800169427951811	14	0.027517254688884815	0.003298985236282	0.008519614588842674
Si	2.6836623977708776	11.082763878135816	8.146939428094601	14	0.006674589411104413	0.0061817085212320265	0.010834123598039975
Si	3.9961617776554235	12.482582299909811	9.51426079651011	14	-0.025017626096636856	0.02849196071575295	0.022996737315000463
Si	-0.03672383870717562	13.811611776401117	8.132663509125942	14	-0.007051256340506107	0.006164996336651064	0.000981133790168507
Si	1.2893410624553403	15.202868206873463	9.489319202873304	14	0.02244060723425243	-0.005406006046143351	0.03174698005106042
Si	-0.013911819924455312	11.104784588329139	10.807715369055943	14	0.036552890115481206	0.013121378890843706	0.008014906614497608
Si	1.2749211220869767	12.507179213118109	12.172175728093015	14	0.03735044698579114	0.0017365245332280124	-0.0034054289965361304
Si	2.659406928555144	13.889376859370715	10.867712418668495	14	0.007752910982374518	-0.024709607679283114	-0.04104512533084394
Si	4.005018284628385	15.313868250597796	12.198499279879814	14	-0.0011834797788641608	-0.042732541752457116	0.0240963990604278
Si	2.688413485743217	11.226055461535909	13.563852895238659	14	0.009419758561426517	-0.0417650348204854	-0.009644216055875444
Si	4.058875815246707	12.565001377773294	14.95826323254278	14	0.0564056798450046	-0.01910716918668045	-0.09455239814844561
Si	16.067206973448933	13.879042919387283	13.481906337023652	14	-0.0042546650837810415	0.032006147467331346	0.06060917993291469
Si	1.6359746800612258	14.96280880683239	14.585097313031419	14	0.028780952953737598	-0.10590871323700767	-0.11810243732834193
Si	5.309941167957585	16.368069295653722	0.00281408105718597	14	-0.027930945534896643	-0.011331889588020644	0.032742254920489745
Si	6.736887395851573	1.3808075970127425	1.3692680846385086	14	-0.015569585376688708	0.03561623644735126	0.026191078564752435
Si	8.081171813185945	2.724663186583943	0.00600844333831599	14	0.006459645006340034	-0.0010448972021081793	0.013344807943164574
Si	9.404796441643322	4.1170636971640695	1.3679718920411503	14	0.01911693938689701	-0.012268029035086558	0.015084932023840796
Si	8.007796955580433	16.428713632455967	2.716887649217768	14	0.013728159746398653	0.008411113944332426	-0.004242066667712315
Si	9.440819591967657	1.442717380270834	4.080192600621239	14	0.01697675131840575	0.0066187964256572	0.01657385911473855
Si	5.399498205305396	2.7764704350289167	2.719619201158268	14	0.02188164893765224	0.023469563583375694	0.005637919746020708
Si	6.72583011243366	4.1726559574507665	4.0816392874902006	14	-0.00131177793433955	-0.03287363840234931	-0.03761989882334266
Si	5.350958138950393	16.4758264305577	5.449188824640077	14	-0.008306984178866429	0.024383591524688338	-0.005075361901972308
Si	6.770975157478729	1.5070803819778578	6.798234039254632	14	-0.0078914935591305	-0.058951331222483215	-0.018195712350687957
Si	8.110558651597962	2.8434112579688886	5.426344441497872	14	0.004142050670758555	0.003351692895345036	-0.01472112062103984
Si	9.43866736206193	4.231139973257413	6.785764051545216	14	0.004296831211031469	0.0019977488337550578	0.0110567813187648
Si	8.035784035444742	16.547503777508243	8.136061766871826	14	0.005258938821830881	-0.035061649029795326	0.007483459144822998
Si	9.464835564923204	1.5610738429060163	9.494067054409694	14	0.0022155214543715996	-0.03347836237364814	-0.009532887195513033
Si	5.427291099012796	2.899246250951721	8.13750845374079	14	-0.0388272898816842	0.015979676675252324	-0.03799296620529615
Si	6.75203553430834	4.286330915486501	9.496732259413251	14	-0.001758636038981286	0.023438967430065932	0.008064014726112435
Si	5.3742216405479235	16.605657676848146	10.822332732017163	14	0.004828021570174063	-0.039917695647959	0.004136908460118259
Si	6.7872754671331466	1.614004134625105	12.207035379693878	14	-0.009979745300154769	0.002624070089743129	-0.006088120287578636
Si	8.132477414058908	2.95739853207365	10.84530819081528	14	0.014674326504213147	-0.006821399524884868	0.008959787819652025
Si	9.454166653819104	4.35292220334404	12.2001579533034	14	-0.001442904305667102	0.000982162232296566	0.00600327381201375
Si	8.059874446427104	16.659143017332394	13.552471968225898	14	-7.713315960444236e-07	0.008034961235994762	-0.013581092522086183
Si	9.490961694117146	1.6768330656925592	14.912297750984777	14	0.03194495516071182	-0.011765892166061638	0.0010572385076448902
Si	5.451989959953469	3.010277040817564	13.561545316407408	14	0.006095576493007066	-0.01266603613864548	0.018026276510090197
Si	6.779071102003801	4.401104643526739	14.91732231779476	14	0.005225257342136941	0.00422998247270762	-0.020469855006358933
Si	5.367535163878405	5.447444385663856	0.00907172996353338	14	-0.0065943709251157934	-0.012667835912369585	0.03960967723060526
Si	6.693854125262876	6.832998215995016	1.3701775231400257	14	-0.014856617871411645	-0.0003877226822783303	-0.016314948808999634
Si	8.047629391016105	8.16118945557567	0.0068450620309929	14	0.003590291469054778	-0.011039554913119807	-0.004983059220978992
Si	9.366036884724565	9.54947483784733	1.3686450707184297	14	-0.00014809566644052936	0.005907371583572226	-0.029122909961317292
Si	8.077312363317406	5.5118446063842885	2.7210011593082606	14	0.014193786919877471	0.00043914478868129186	-0.0017892321922910483
Si	9.411076745601308	6.902638226516004	4.076761978515871	14	0.007180068717045525	0.000305190201501577	-0.013501645367693606
Si	5.369781250426636	8.22928083149532	2.724545056671824	14	-0.001503325280690582	0.00871244748785378	-0.0037908376840263282
Si	6.6998237313698095	9.627561946193799	4.0773639556022845	14	-0.004661928166492497	0.0032570762195635867	-0.024626818087974345
Si	5.3994334765864265	5.568288049325431	5.433124774809895	14	-0.024252465153360783	-0.02302064859447784	0.02296665538275473
Si	6.727307545444132	6.961305100953738	6.788673607462881	14	-0.015832609450939856	-0.005404463382951262	0.009221783451775115
Si	8.07929953498976	8.298537324356415	5.426946418584285	14	0.008209539287232817	-0.006140570836109657	-0.00226848622396665
Si	9.407652596367837	9.693941247496712	6.777682670981911	14	0.007547736777826702	0.020395292952074637	0.005660802583370025
Si	8.105019491472172	5.627442007373408	8.13791462645232	14	0.008730959446158848	-0.009295831284995379	-0.012688661865462783
Si	9.43191130201952	7.021504427813069	9.492602567143017	14	-0.007694032670543126	0.0008839460090669096	-0.008398515528263699
Si	5.393174209462105	8.355514779229054	8.141053969322325	14	0.011734524681155833	-0.0025142838925728064	0.013658225681690625
Si	6.715123982316154	9.751795776511383	9.500651583346835	14	-0.00245617691233746	-0.004953234399265274	-0.017308423904704853
Si	5.418725871275196	5.677333285736893	10.850771294696282	14	0.0015164379178233371	0.010705311221500556	0.00014552456112038126
Si	6.743465451916817	7.075772985796846	12.204873440480306	14	-0.01526105273827094	-0.016913759238062126	-0.006427506189838183
Si	8.09569208306871	8.413781953827153	10.842673731953234	14	-0.00506636303335179	0.0013012364025269429	0.0030752990734291175
Si	9.421339483993874	9.80332469146479	12.201214649640571	14	0.014542685911821564	0.008063500505048405	0.006732953501871774
Si	8.123093368026346	5.743405125624704	13.554358810383851	14	0.004455211298752591	0.001068294260521527	0.0021309320893387277
Si	9.458979234074466	7.120547458925816	14.914314050580668	14	0.018679337261407806	-0.008143718991037024	0.010183376841510496
Si	5.402391579043319	8.462915906178699	13.554536814361017	14	0.014788740690959734	0.01596296449067136	-0.00945035471473628
Si	6.758696119490271	9.830693612062941	14.904624161350977	14	-0.011107174983039701	0.019969517911058117	0.049723634228471765
Si	5.3687633913208455	10.871984514120463	0.01231140234794184	14	-0.02298208201467562	0.005354583939740389	-0.035399235158330766
Si	6.679843594041992	12.282575412948907	1.3663569105028686	14	0.0019152163529783043	-0.02814306172380886	-0.03134588762111732
Si	8.012473605525958	13.637019002725495	0.0037542657002136003	14	0.01718886750731797	0.008919421466125703	0.006425963526646094
Si	9.333636924444532	15.028862846322486	1.3679977835287378	14	0.04508176068347642	-9.898755482570104e-05	-0.018253047999327254
Si	8.06019809002195	10.965778046124807	2.720253542604166	14	0.008380774901554677	-0.013106723590518862	0.024491063727070526
Si	9.390868439539124	12.370760201454571	4.065461962401822	14	0.03299473746292829	0.0030560157835280064	-0.015643376099376955
Si	5.36392168314195	13.670155252183802	2.73342260047845	14	-0.0192226118155551	0.03050976417100517	0.03168501641284485
Si	6.673723493663454	15.082565028015281	4.083671769265834	14	-0.01454088613809746	0.0021358171894470092	0.029657699867908092
Si	5.3680109199628285	11.01879086696058	5.430474133768106	14	0.000999645748473573	0.004139222454906393	-0.0055271051067223255
Si	6.691009298064179	12.414461796066627	6.785226803177772	14	0.0004142050670758555	0.008731473667222876	0.006539349271264624
Si	8.050682968333478	13.749776431169842	5.426507881513269	14	-0.0013871113202198885	0.004261864178677455	0.005931797084113633
Si	9.359465301531218	15.143691593773847	6.7934700055385	14	0.013750271252151926	0.038799779054758614	-0.009803110364660595
Si	8.071287737799349	11.083116649654198	8.133526019306208	14	-0.0042106991828065096	-0.014004553568314572	0.001658362931495511
Si	9.398080837050268	12.472863282756588	9.491610599524812	14	0.014504119332019342	-0.005498565837668681	-0.0035769217213900075
Si	5.356765923259904	13.804515890584119	8.142435927472318	14	0.014429814388267063	0.002827958741630872	0.017130760527082622
Si	6.693981964482839	15.195398512704418	9.486230024760498	14	-0.018454108435362836	0.04484393344136272	-0.0021612711321164755
Si	5.377721846026183	11.143464852567158	10.85291705173011	14	0.0055186204591658366	-0.008393116207091388	-0.009479151094321937
Si	6.697428768767948	12.539745849849487	12.210255633462594	14	-0.03572756530771368	0.029561540528934553	0.046787174842330644
Si	8.059937556928098	13.86281057488778	10.84225137706196	14	-0.013947989251271314	0.010463113100342607	-0.009229753878267575
Si	9.38045358865698	15.258062385538501	12.195117204313673	14	0.010483939053435807	-0.0027410553818098668	0.016552518940581316
Si	8.083625031634877	11.198453517549467	13.547431219236174	14	-0.014379934945056192	-0.007302710440816589	-0.005691141626147774
Si	9.412437666917635	12.57638877765795	14.911550134280683	14	-0.008183056902435292	-0.0078117892942059074	-0.004328198695937277
Si	5.359599422932781	13.945943286877899	13.564861045036604	14	0.015350012982348062	-0.026652591969719017	-0.007064368977638861
Si	6.716206570140914	15.3179558692007	14.913077732048354	14	-0.02907997250247082	-0.03586151989489339	-0.024670269767884848
Si	10.67982922077052	16.374153795236825	0.00320730802492386	14	0.0003157317333141841	-0.027877209433705547	-0.006259355901900498
Si	12.112042748170627	1.4152772580818156	1.3453265497097755	14	-0.018552324658592495	0.0016406223047864892	0.013093096732322078
Si	13.549356898625508	3.0690814637831076	16.235279946906385	14	-0.055384436811841777	-0.0006304350245003089	-0.011470986385840654
Si	14.779982540103887	4.125505940335627	1.334565400181146	14	0.038515414806350234	0.021633023053193923	-0.025082932171768615
Si	13.497245425201378	0.15509162886817743	2.729601987841293	14	-0.02613220025292105	0.00938247753428437	0.01859320523318285
Si	14.855100218467642	1.4679842357204609	4.1107121916152165	14	-0.010999188559593483	-0.06367470880612726	-0.01612597256796875
Si	10.788350154558334	2.7881264590972954	2.7178634346562283	14	-0.03639553846988815	0.009012495478715061	-0.012143073316527362
Si	12.121459158562672	4.173024911148891	4.07668106761716	14	-0.00975143114772562	-0.001574030676994654	-0.008923021013573907
Si	10.81212501303572	0.11760884593108793	5.445075314549584	14	0.008528870567995207	-0.03692415772371059	-0.029478236716561756
Si	12.153867209932576	1.5048747508789824	6.789340313268265	14	-0.03873010210058261	-0.029139622145898256	0.001496383296326182
Si	13.501655069181155	2.858531886720094	5.4411236262565135	14	0.03660508355348021	0.005103386949961922	-0.026880649011616152
Si	14.834692871594628	4.241512750472228	6.792934375389029	14	-0.0073199368464615805	0.0065594038927617795	0.02634688754715341
Si	13.422857563144001	16.549089631122985	8.133590748025178	14	0.023204996845932458	-0.021737924150255963	-0.0019452982852240367
Si	14.863453459650618	1.5604492107679633	9.490066819577399	14	0.003047016914907489	0.01773779849316958	0.013849258806977629
Si	10.820138428444107	2.8988675879457513	8.135166892332078	14	-0.006353715467149932	0.03630657822581102	0.015362611398416787
Si	12.144377979731692	4.295040164623807	9.489644464686123	14	-0.0015537189449654843	-0.0044791225782299686	-0.007045857019333797
Si	10.728089335415982	16.595314027556867	10.829617949337145	14	0.001076007576481971	0.03977731329747892	0.0045688541539031366
Si	12.148671112017322	1.6339470529395157	12.171979923718132	14	-0.008387973996451093	-0.05071865198736906	-0.000527333701162371
Si	13.528289318819008	2.9629182735837487	10.832218425621733	14	-0.018410142534388305	0.0027649666612872444	0.0048182513699575
Si	14.849263306234594	4.344792276241509	12.206726300060799	14	0.0012503285171880107	0.012333077999686306	0.007206293991311036
Si	13.392901112005054	16.654519768580023	13.496848961797692	14	-0.043850715456189515	0.029171503851868088	-0.024892670378077655
Si	14.809129882255716	1.6594922418807105	14.842089745954834	14	0.15841634030613574	-0.05694689751489576	0.10338388781262225
Si	10.832160169774662	3.0203666298868876	13.54621270110158	14	0.006087863177046622	0.0023898423950776395	-0.01754136604671027
Si	12.168539592304919	4.406278086390351	14.90029866470586	14	0.014565311638638867	0.01857443616434577	0.011090977019522769
Si	10.762696545012865	5.448310132280069	0.005099004836798731	14	-0.004655243292660112	-0.0065136382180631435	-0.02197780827662578
Si	12.089316494940542	6.840197667762365	1.3637564342182809	14	0.0012744969071974029	-0.001842711182950128	-0.026822542031380806
Si	13.43904783397617	8.178868486944133	0.00185771423441604	14	0.013101581379878565	0.023258218726059522	0.011594142330675747
Si	14.768242368700847	9.566474217666615	1.3647662022342004	14	-0.002371330436772573	0.04029487679842472	-0.0010163579330545358
Si	13.469672609138472	5.511368850299864	2.714806620902908	14	0.0040919141170156674	0.002006233481311546	0.029057603886185532
Si	14.801940139796214	6.900699601382876	4.073363720769987	14	0.0015879146457234538	-0.00794342988659749	0.00845996494541524
Si	10.766591595676836	8.24049022740281	2.7148551674421353	14	-0.01899429766312595	0.003155517559417738	0.020947823485374457
Si	12.100661821157868	9.645629349876076	4.057479293134946	14	0.004647529976699667	0.026428648696334118	-0.0074289517120358604
Si	10.790458692578754	5.569734736194391	5.424930118988395	14	-0.010732050716830097	0.004823907801661826	0.00889319619186019
Si	12.117098061122121	6.964560955517889	6.778512816802692	14	0.006372741646519028	0.0031740295177228035	0.001353172729993934
Si	13.466330989021689	8.302210679157916	5.412541042177689	14	-0.003664596412807057	-0.0028176743203502798	0.009024579673719758
Si	14.791581926543167	9.672537078351573	6.7915524172390365	14	0.02538169460996982	-0.020506364701905037	0.02526625198109517
Si	13.496520463548924	5.634622040525066	8.132110078578757	14	-0.0041911587823733835	0.005610923140159153	0.008778267784049571
Si	14.826371994771138	7.008281968745635	9.50076485860503	14	0.03261112854916219	-0.013004136488244956	-0.010185947946830644
Si	10.782836885920132	8.358977765693906	8.1282894659416	14	0.0016164539147770973	-0.006974380291433679	-0.001151083851830295
Si	12.113052516186547	9.746866684561878	9.485335150220749	14	-0.010097501923817552	0.019111282955192686	-0.006796459803279432
Si	10.808953305806229	5.6866704034482	10.839324020746577	14	0.01370604824064538	-0.0061469985994100276	0.006038497954899779
Si	12.135348323435487	7.075887879273016	12.194906835977022	14	-0.0005569014123440739	-0.009186816419421102	0.029863902514583967
Si	13.487387241302368	8.40831399529223	10.832755673989178	14	0.0009695638162278406	-0.009082172432891075	0.009419758561426517
Si	14.820457408075328	9.784732985158861	12.188728479751413	14	-0.007530767482713724	0.020523591107550025	0.013826633080160324
Si	13.52133907261969	5.753284346357378	13.548342275955665	14	-0.02557632728270503	-0.01151083851830295	-0.024198471941637673
Si	14.854221526107636	7.13458549985226	14.912135929187354	14	-0.026130400479196944	-0.01823607870421428	-0.019433442451807243
Si	10.798768241876425	8.463703978332148	13.547724116689508	14	0.006333403735120763	-0.011493869223189972	-0.008916593250273538
Si	12.126977281854797	9.842704025867675	14.908786217980698	14	-0.016835854746861636	-0.0010006741906016324	-0.021341716820421144
Si	10.779223405183675	11.225209133535387	16.252873212722214	14	0.03369716343639274	0.02941524463621813	0.04695532513026832
Si	12.035687133056586	12.287756946902391	1.3174802548092257	14	0.0147776849380831	0.01402049442129949	0.03987347263645245
Si	13.441960626329784	13.957552382625025	16.167413503285154	14	0.007037886592841337	0.007471889170882333	-0.005002342510880103
Si	14.431873107705503	14.734989607548396	1.6613046460118481	14	-0.03724400322553702	-0.12441167267345331	0.08321459501818862
Si	13.454064896777027	10.9985760880265	2.6983687627206794	14	-0.028964529873596174	-0.028593776486430817	-0.03419775764222557
Si	14.810139650271637	12.345532183236326	4.093622191589374	14	-0.01150389653393855	0.05964887209583939	-0.045420632364671934
Si	10.746758716184674	13.717015608281555	2.702872263342962	14	-0.015223000379532748	-0.020479625206575498	-0.02328650088458115
Si	12.049628080904576	15.143392223448615	4.073721346942293	14	0.011915016274630227	-0.013263046793983865	0.01931311472282431
Si	10.76294736879887	11.0320456903875	5.414507177016379	14	-0.01193918466463962	-0.01330984091081056	0.009088343085659428
Si	12.09078583686114	12.430394770240897	6.763602556388136	14	0.0202505397225503	0.015559815176472144	-0.032317251211069264
Si	13.44586862273755	13.774496328944178	5.395273038174681	14	-0.021503182234526443	0.006689501821961272	0.04491875260617902
Si	14.756749784647866	15.144236933231163	6.792934375389029	14	-0.03069025576447956	-0.023799179285418682	-0.025239255375233617
Si	13.458128242110316	11.088084578835085	8.118436136696513	14	-0.0017210979013071242	-0.006525465302535825	-0.00558726897121379
Si	14.792002663216467	12.462817385572569	9.480619663043843	14	-0.005480053879363616	-0.014756087653393856	0.0008962873146036205
Si	10.748480500109254	13.809610040766996	8.124794115117263	14	-0.014747860116369381	0.0026988892545594385	-0.0034432242447423075
Si	12.066478584670234	15.202473361687751	9.482326883006655	14	0.0050699625807999965	-0.006112545788120044	-0.004631846234246764
Si	10.776762095644871	11.136987126016315	10.837925880416842	14	-0.006218475327310144	-0.01058472638198561	-0.004090628564355593
Si	12.102312403491581	12.52620783827708	12.19591498577497	14	-0.0023669595577283215	-0.010302161907301337	-0.004502776747175331
Si	13.445441413192354	13.857907374425864	10.8181544932077	14	-0.010614808314231344	0.01498517313741905	-0.003146775801329234
Si	14.745064632655952	15.27470413918548	12.161330431229723	14	0.0005957251026783099	-0.03185933735355089	0.04603615497831539
Si	13.473085430846124	11.171769103154414	13.53414726788572	14	0.019827850007917956	-0.0028112465570499096	0.022234404587576556
Si	14.798537027396408	12.547497113946049	14.896168972435627	14	0.006511581333807025	-0.009992857937287523	-0.0404853957026477
Si	10.752029252126741	13.912986659614731	13.538472764530836	14	0.0026068436840981373	0.023469049362311666	0.004682497009053681
H	15.669450613601175	0.7301172949209368	15.683100282213804	1	-0.08330381237279776	0.07820068253336784	-0.034980144991146635
H	13.543872757910842	13.86367146685007	2.5519054720910965	1	-0.056589770985927206	-0.04267854854073401	0.062300453012508104
H	2.513286700136098	14.075056044387788	13.701179727185739	1	0.06831889634591072	-0.07549510840497602	-0.053002307732724595
H	0.6417981943234119	0.4029670217247804	0.6294851737574958	1	0.09857154998490109	0.24769205900604147	0.45732867394750715
H	2.091841247363585	2.2658190982090005	2.8336453124944105	1	-0.11642993331758561	-0.018655683092462447	0.18594027986885295
