68
config_type=vacancy sigma="0.001 0.1 0.6014738673261777 0" dft_energy=-6825.511145836207 dft_virial="18.154767087081954 -0.6703879668094234 2.9199644892368193 -0.6703879668094234 14.903149395955262 0.24903496654364143 2.9199644892368193 0.24903496654364143 16.0775085983767" pbc="T T T" Lattice="10.868925156100001 0.0 0.0 0.04538863145187361 10.868925156100001 0.0 -0.0219117531146976 0.009303799933621602 10.881478764655297" Properties=species:S:1:pos:R:3:Z:I:1:dft_force:R:3
Si	6.977484754330956	9.526128145259689	9.644978754949127	14	0.07791349006910732	-0.029437099031439387	-0.0032650466460560456
Si	1.6946425953160347	1.3215113078146061	1.5159411623620165	14	0.08412348074886096	-0.13560266568992985	-0.07099361721046077
Si	2.9492545819023297	2.7298501111312325	0.1529551230442485	14	0.03319091279885558	0.086172908799551	0.07032538693775428
Si	4.278803459869871	4.068025654995171	1.544734031993041	14	0.026639479332586265	0.02908820003949529	-0.05310000973489022
Si	3.0263120005815316	10.858030145523527	2.9213051408634185	14	0.04120504808175714	0.13369567687397602	0.040728622265933705
Si	4.2886702701265795	1.3900007527932545	4.267093279906689	14	-0.022615699506554517	-0.06820473926969614	0.04797836793715524
Si	0.3494229010584277	2.5876497895289448	2.9608484643663413	14	-0.17241240922689383	0.07549305152071992	-0.14775139543816154
Si	1.6112388112381857	4.125761385424374	4.252240893680878	14	0.11592291134845241	-0.004458296625136769	0.05303881742827069
Si	0.2173513308091098	10.886538249315462	5.602554853159149	14	0.016839968515373872	-0.041440304218550696	0.008769268915429054
Si	1.5159618133198132	1.4181360524523348	6.944577996528348	14	0.06649752533711784	-0.030706967949060526	-0.0069255292903508655
Si	2.934986943849917	2.7594190220184025	5.626287151237493	14	0.010599381682310456	-0.02170989910226635	-0.026507581629662665
Si	4.294560140668669	4.108396103702473	6.990280739917233	14	-0.02566991551635842	0.049047176418740804	0.0027721657561836587
Si	2.9134371259429175	0.10925769634666405	8.290681334401146	14	0.008407514396884218	-0.006000445596161586	-0.01031244632858193
Si	4.284110756023595	1.3939266085596378	9.687014322990343	14	-0.040938424460057785	-0.018896338550428306	-0.06558169762208108
Si	0.1718920513437215	2.7144879723156006	8.361171748501032	14	-0.03263066894959532	-0.0018519671621026615	-0.044377792046819874
Si	1.5535987273503562	4.084302957308946	9.689298971058156	14	0.005717881121477313	-0.013290300510377434	-0.034702979837634665
Si	0.22904520738455775	5.423249107966452	0.18267402509857272	14	0.07681357121314797	-0.06086526202280144	0.025565528640360408
Si	1.593234436717106	6.784822187013927	1.532034779840654	14	0.03626775453547679	0.052524596364241075	0.03569568360174384
Si	3.0188830902373374	8.12099350107908	0.2603270608763292	14	-0.008826604564068355	0.02322376591476954	-0.019917067362527092
Si	4.375744490229643	9.512263744330568	1.563341631860284	14	-0.07504567919501413	-0.05213275991345051	-0.022685119350198513
Si	2.960248499697725	5.471029989845184	2.892752474478344	14	0.01548422468005979	-0.07424015189821175	-0.045422689248928054
Si	4.305895342713966	6.830367330988048	4.257702528571819	14	0.002600415920797767	0.027642724628508045	0.04293308796742867
Si	0.30834814600101024	8.126337751578335	2.9403594535545774	14	0.015970163585567777	0.01546288450590256	0.001882049094348394
Si	1.6173362782507579	9.542232631663483	4.26218596019871	14	-0.013372832991154188	-0.008564866042477281	-0.0032097678816728615
Si	0.20263371925523477	5.382368906669329	5.622500417713109	14	-0.08341899789114039	-0.0011842511104602053	-0.010390607930314431
Si	1.5409625149638744	6.7650635679726525	6.950247227889769	14	0.07884962951617323	0.046792059942438916	0.01570174019014432
Si	2.9266048287695328	8.163954014651083	5.634524709613301	14	0.01020651678939183	0.0014331341054505391	-0.018836688907000868
Si	4.288124650083743	9.551187539099594	6.969267846912944	14	-0.03643204816543425	0.014843762344810904	0.04310458069228255
Si	2.9195128551051774	5.456023264882156	8.350834313785064	14	-0.0022836557453555237	-0.005730993758610068	-0.002115762567949854
Si	4.31237865656958	6.76511139124334	9.73925581175314	14	-0.03327138839537621	0.018309612316370513	-0.00703223016113701
Si	0.14336220970147462	8.113415686460248	8.281650344488943	14	-0.036316862647091615	0.021021614208062707	0.021877792279672018
Si	1.9203771280980444	9.179563771517316	9.354650199964414	14	0.07187576344580358	-0.045724537013513436	-0.05224331744221687
Si	5.6815165075257	10.871558696665325	0.15792983008819547	14	-0.006642450594602562	-0.02900875288510272	-0.004863245713060091
Si	6.965855004413929	1.4016718046258747	1.4927425285088367	14	0.024448640489288083	0.006858423441495001	0.05781695955523388
Si	8.391027599012324	2.7134956394488485	0.16974435173287616	14	0.04015398022688061	-0.11895578718409908	0.00021185907838020172
Si	9.769776840483983	4.038050246307162	1.5456046328980446	14	-0.07883343155265629	0.10621544610170133	-0.009697180825470495
Si	8.267709861083729	0.08380158673856224	2.9041018061263433	14	0.11576144593434712	0.02586711929441378	-0.0508268955213473
Si	9.667855668617687	1.3653804635296567	4.252697388537435	14	-0.08628706587576558	-0.09357743501104546	0.0732407632602702
Si	5.644700197344443	2.7335781524597746	2.8993683892208617	14	-0.032843813580635595	0.013428883087133416	-0.007881466248381923
Si	7.00632218655512	4.112973008085707	4.231826878452692	14	0.0020939081727285955	0.025036652276005947	0.0028259018573747537
Si	5.653030141584079	10.868511050051554	5.6083327737721325	14	0.007115276862977794	0.04219183830362998	-0.0011508267412982801
Si	6.962746491819285	1.37074971255677	6.934294906438161	14	-0.025268565975883308	-0.0879906802608957	-0.04812723493519182
Si	8.3281867344373	2.7352628358589706	5.594981386110379	14	0.018934390909166498	0.053026990343798014	0.06637308383962266
Si	9.69634203455931	4.052865678187443	6.976428294805784	14	0.020240769522333737	0.017678405960274163	0.04002928161885343
Si	8.331414805208661	10.862943986586599	8.274772488650163	14	-0.028379346302730465	0.09552196196467345	-0.03759778731758939
Si	9.61681302229961	1.3417296823899831	9.630081806130177	14	0.08245483339608486	-0.06491860956001488	0.012256201950613877
Si	5.645894692219098	2.726953542577132	8.321988186420777	14	0.03566148790098587	-0.00025248254243854135	0.008053473194299826
Si	7.021738669996533	4.062617277837496	9.674511798383282	14	-0.0004756544842273946	0.0949015542509217	0.05623650111493886
Si	5.670342165572714	5.354178175491952	0.17094971553268765	14	-0.0009471951999425524	0.06135891424426987	0.004421529819058652
Si	7.023459220848743	6.746137508598337	1.4782151231451934	14	0.019692095647014136	-0.002641810716452151	-0.069174303085924
Si	8.335168931957577	8.110200658399075	0.07028607830695187	14	-0.0025155694452328806	0.026626880916517534	0.03177140555160183
Si	9.400107305644772	9.17792365071126	1.8540614681506158	14	-0.07306644231956415	-0.1119274136809423	0.04595079428168647
Si	8.412111140030126	5.431513838655151	2.8705439997068845	14	0.034072287702602344	-0.0290275219539398	0.06562129264401137
Si	9.772969043802329	6.769180716821784	4.263818472757157	14	-0.013091296958597972	0.043773325186053064	-0.023764726474128695
Si	5.7158057926081645	8.128051781075452	2.8849833667767633	14	-0.0036705099550433974	-0.0032421638087067276	-0.009673783767057149
Si	7.009029635811505	9.539832772989016	4.252219155830566	14	0.04933771131991753	-0.0028876083850583076	0.022499485546083824
Si	5.650485726205035	5.455921096985689	5.612173851922298	14	0.0006273496981161313	-0.021632508832129894	0.003819634063611986
Si	7.0050320451390915	6.825287195370087	6.9615204770616765	14	-0.016670532674776115	0.03297519706249516	-0.012789449194012589
Si	8.3813129537078	8.154788250066943	5.579638811360028	14	-0.009011724147119017	0.003514443862110409	0.008198226423824166
Si	9.713297557802825	9.519217682645442	6.9391044058197355	14	-0.007443092791296674	-0.026557718183405552	0.06574959079948675
Si	8.348704004454468	5.441782799142634	8.310289962275265	14	-0.0022589731342821024	-0.057232290205432204	-0.012414324927802986
Si	9.715752847995589	6.7627310966341545	9.676306257926553	14	-0.09132617519272379	0.03142430633338184	-0.022525196599285306
Si	5.6133911715397815	8.152086235273137	8.330812666755014	14	0.005120870466138929	0.00819694087116409	-0.011134428699433272
H	2.8079107316023424	8.28931076293896	8.48803927738561	1	0.04129837920487852	-0.055158950875264796	-0.09197846461244537
H	10.417956061093163	0.36459265989879647	10.44928356407059	1	-0.07078510056899677	0.03249182926230732	-0.07290060602641461
H	8.519371127933098	8.288628194439157	2.7312500286913384	1	-0.04440761686853359	-0.061100775270127014	0.061181250866647656
H	0.9411891394299016	0.3694804155414947	0.637526587063686	1	-0.06650266754775812	-0.02839348738199128	0.0421072489385971
H	1.2740043228498084	1.7265700629620784	4.002554510532371	1	-0.048476391037667925	0.09870756145633691	0.053133434104052135
