220
config_type=vacancy sigma="0.001 0.1 -3.28135185252281 0" dft_energy=-23111.57537088953 dft_virial="-23.619282185638284 -25.39334913027482 -46.22250784843927 -25.39334913027482 -9.027581566002752 -81.81270994004548 -46.22250784843927 -81.81270994004548 44.18233086210726" pbc="T T T" Lattice="16.5691139647 0.0 0.0 0.20197749922969302 16.444829040850788 0.0 0.4467198816022767 0.7406891015639842 16.11652861675422" Properties=species:S:1:pos:R:3:Z:I:1:dft_force:R:3
Si	12.957280744902304	15.725293727085536	14.722716524018296	14	0.02861537377112006	-0.01758841727406898	-0.00946963800463739
Si	1.5585024578994573	1.4747720973902423	1.469105460414315	14	-0.07088923033446276	-0.0020738535512314403	-0.04222911933077212
Si	2.846192689514272	2.7702580971254487	0.02961397738910831	14	0.07158008633398655	0.045768760025019985	0.027278141894111044
Si	4.231511454431892	4.176468857841159	1.3641964584354205	14	-0.018316040079670887	0.020057963934071207	-0.02899152647945772
Si	2.946787094216759	0.13293731516158105	2.7652078311890076	14	0.03576304656113172	0.0731903695959953	0.02321682393040514
Si	4.320757672979956	1.5694099056224193	4.056271534407036	14	0.017357789126851698	-0.14991960855464237	0.0057595330276637114
Si	0.15770979745020403	2.8918488830440032	2.7139098543542968	14	0.058850286783401394	0.04549056642937996	0.03545579947537402
Si	1.5450367389803457	4.29786412821493	4.046422853066418	14	-0.03771940059923239	0.018524813831666907	0.0018010592767637294
Si	0.18686812420528306	0.25933314412989855	5.3892203008164286	14	-0.013439938840010055	-0.02248791557214316	0.00876695492064092
Si	1.5869764802477944	1.6686953503216948	6.716883519871082	14	0.003797265447326697	-0.010311417886453872	-0.012884580090858069
Si	2.9890714730546732	3.005509691019052	5.388865721777584	14	0.008462793161267402	0.03591242778023233	-0.023813320364679494
Si	4.371633137408566	4.413110600396401	6.731177694488429	14	-0.011268640397145	0.004661156834896452	0.00817611491807089
Si	3.0149971656752395	0.37091121447958486	8.066190972497823	14	0.00977611375879904	-0.0002799933693641258	0.001307664165827313
Si	4.40859054610683	1.7789644606681698	9.405682882011876	14	-0.016003587954729705	0.010726651395657785	0.009633417413530822
Si	0.2894922453684455	3.1147332902743545	8.067446911336347	14	0.00704714257199387	0.009888985282353541	-0.009102484164920245
Si	1.678041987509182	4.522592677829553	9.40856756475313	14	0.009333112312137527	-0.008728131230306684	0.010391379261910477
Si	0.5260743391134145	16.936504242462085	10.74768998302577	14	-0.00021005930465609803	-0.012568848357543884	-0.00021931528380863112
Si	1.6971163515053447	1.9191640184804788	12.09678700790516	14	0.042984252963299614	0.005856206587701279	0.013115465348607367
Si	3.1101353611491502	3.2283841567810247	10.756473270338457	14	-0.009782798632631425	0.01609049131455071	-0.02469392393683021
Si	4.504906805583632	4.645999438638638	12.081944395615581	14	-0.0074909153502514285	0.0036381140280095318	0.005972420548171972
Si	3.1722778230737574	0.6881020476628193	13.439196738388395	14	0.0234957888576412	0.03117825155424367	-0.10375772652617177
Si	4.568613391866506	2.0453245660304975	14.803847190546449	14	-0.08028559183747593	0.03254787935828655	-0.03836346248192948
Si	0.40976578672680636	3.3307497997663376	13.481550707504962	14	-0.041326147142336116	-0.013768783210456994	-0.04921224138029431
Si	1.8199829591991812	4.758596509497153	14.794934664144836	14	0.018204196998244444	-0.0033033561153262515	-0.0017380671964201016
Si	0.09639413431243521	5.4921840888158675	0.012299253295996812	14	-0.0009402532155781525	-0.029752830764753567	-0.005875746988134405
Si	1.494949964376454	6.901818028476685	1.3451767725153414	14	0.004798196748460345	-0.009873301539900639	0.019598507413360746
Si	2.8879733672876595	8.229280761252365	0.00343146350208937	14	0.007788135125260546	0.0015956279616838977	0.005541246185983139
Si	4.2943763297253605	9.627399166707715	1.3444394469439123	14	-0.01445423988880847	0.01377289697896923	0.013410114018296336
Si	2.9359045001647437	5.628309301504257	2.7058672064358316	14	0.018602718322867397	-0.03480916648735678	0.01319157006608375
Si	4.336786633829407	7.026245446705996	4.042572190981021	14	-0.0168178570096206	0.002114734125821795	0.009584566412448009
Si	0.20752318167367811	8.351368620589861	2.698195706670175	14	0.00011055752876636741	0.0016763606687365475	-0.014477894057753833
Si	1.6093166166063995	9.752351825849708	4.037526895778771	14	0.003988041462081685	0.0046858394459698745	0.019912439372950827
Si	0.24478877589168488	5.736828713416059	5.3913146368215665	14	0.03806264315947216	0.0013601147143583337	-0.006784118497742721
Si	1.6437588338048212	7.1397538188325695	6.720606599778949	14	-0.03578130140890477	-0.004880729229237098	-0.0018460536198663207
Si	3.0449640651917957	8.472871590204402	5.391717266290909	14	0.014304601559175852	-0.00978356996422747	-0.00840442907050004
Si	4.442058499404128	9.887575678738418	6.720412741145562	14	-0.020678114537290924	0.00826430383055197	0.0034406531394221593
Si	3.0760112709388503	5.858818814981163	8.079293827821107	14	0.0032061683342246546	0.0026022156945218707	-0.008473077582547995
Si	4.475365732295968	7.269528090138289	9.407664548042055	14	-0.011995234760618846	-0.007495286229295679	0.007337420362638588
Si	0.34254323446062196	8.575228948632732	8.066512413308738	14	0.026295208330218433	-0.00932308500138895	-0.0032660750881841048
Si	1.752500271843751	9.976061374955501	9.38284567223433	14	-0.04764001047702376	0.011197420779776899	0.007327650162422025
Si	0.38286085947092646	5.9583842777064415	10.771025923133653	14	-0.022449863213404968	0.007541566125058346	-0.009709522131007205
Si	1.7849459108094263	7.374281342445916	12.091662180955877	14	0.003484104819332662	0.010758275991095608	0.014126166849957576
Si	3.182095023097842	8.713112144312776	10.762194585390468	14	0.004400446755433438	0.0026014443629258266	-0.015325073260742627
Si	4.565365845529426	10.13998790396526	12.098076084971614	14	-0.0161095174939198	0.036715126861182557	0.01863614269202932
Si	3.2166764208535676	6.085570453410876	13.447560827117778	14	-0.003430625828673582	-0.005286963869820495	-0.015491423774956208
Si	4.615373088386287	7.512936658836715	14.7697926906148	14	-0.025937053359121807	-0.013393658944247388	0.0110290133813072
Si	0.49331223007101316	8.829800129409177	13.434282339186465	14	-0.0014824993275973824	0.01077344551248448	-0.0014971546279222267
Si	1.8925076279340696	10.24491844579231	14.765570880376595	14	0.0003229308282105987	0.036043554151559874	0.008895767297180338
Si	0.16635059038279507	10.959043943848085	0.005333597785236931	14	-0.006935299490567428	0.01324556327780686	-0.010499622795888711
Si	1.571114867449387	12.364623421321742	1.3576649137105357	14	0.009420529893022563	0.02442652898353481	0.016561517809201835
Si	3.013737913013922	13.691630503463394	0.09512494018273918	14	0.025720052070101303	-0.06800753549164079	-0.0045058620735595085
Si	4.409798434514857	15.14845659351847	1.370984824426758	14	-0.08153926279158014	-0.012677863223118162	0.09943004205129852
Si	3.008619713710226	11.080318259689916	2.699920551433901	14	0.00205457026133033	-0.015347698987559926	0.0021551004793481194
Si	4.404922144275046	12.499779340843197	4.029066706188395	14	-0.01545157164249391	0.01330341314751019	0.004331798243385483
Si	0.3350241705434411	13.84214764854152	2.7060610650692185	14	0.1175429648106777	-0.06321319540116067	-0.0005031653111529791
Si	1.7013663292372903	15.259085253637979	4.055464618556955	14	0.014851732771303363	-0.0037471288935838104	-0.08553630312228233
Si	0.32535112181084924	11.192012313837354	5.40111361082029	14	-0.02664796398014275	0.014084514943771177	-0.01873435891525898
Si	1.713721917520767	12.616505434901715	6.722394407175741	14	0.008020305935669918	-0.013268960336220208	0.02177469095633408
Si	3.11791787397837	13.944001305905324	5.3913792563660285	14	-0.0071579572112922514	0.00012932659760344836	0.0001439818979282924
Si	4.512081231930347	15.365440739265992	6.717769967468193	14	-0.015270051606891455	0.005713253131901046	-0.013013135356865472
Si	3.1500503566901124	11.334115662844207	8.073764714491087	14	0.00817611491807089	-0.007148958342671734	0.005757476143407593
Si	4.537400494979805	12.754615627443075	9.408325655689247	14	-0.023019363041817766	0.014744003458389159	0.03889079618309186
Si	0.4202258683727214	14.07235560414427	8.065077528039396	14	-0.0022839128558875387	0.008868770691318783	-0.005248654400550288
Si	1.8168431121028703	15.483025113427882	9.396511877432413	14	0.002417096111471209	-0.00043863056761726224	0.033764012174716584
Si	0.4462178374491463	11.412944879442664	10.712893186788502	14	0.044278033160398134	0.02441264501480601	0.01900123964749035
Si	1.8152541340736557	12.83343158875036	12.04395804494011	14	0.04010410078366974	-0.004180874361092791	-0.012872238785321358
Si	3.2474734329797554	14.210850200129611	10.766191055678755	14	-0.0008374090027722294	-0.01420869933073433	-0.023013706610113437
Si	4.656499286158068	15.65596855425723	12.084297209798569	14	-0.0541641902268995	-0.0037353018091111287	0.03526116680263882
Si	3.2797086441980796	11.606631194044422	13.449817540439769	14	-0.0010302419017833354	-0.03292943138779652	-0.02070125448517226
Si	4.712269266851853	12.977276351634904	14.823171748163478	14	-0.010927197610629335	0.015004713537852175	-0.01525308231177848
Si	17.021409353151398	14.243285897626908	13.35155606698351	14	0.014234153273403796	0.07689790346764883	0.0691308514060135
Si	2.263947397149128	15.333853380403689	14.419195209855937	14	0.08534244178114317	-0.10818979787704303	-0.05652806445824365
Si	5.591007255235527	0.028724215969203923	0.00928201764302494	14	0.014762515416694226	-0.006240843943595432	-0.07501379748904431
Si	7.005714657592336	1.4691568246676054	1.297099831435368	14	-0.08068899826220716	-0.0533653478039295	0.07685805133518653
Si	8.94426122558872	3.634292653776849	15.985655813192642	14	-0.0723223644399133	-0.09300047897720422	0.11025516678071798
Si	9.77408387572581	4.202139386106669	1.4271905728178136	14	0.020396835615266725	0.013422198213301031	0.07405760342048125
Si	8.392748325805302	0.15075408340782298	2.675101675626176	14	0.11859146156023409	0.02541409053700369	-0.0442775189393341
Si	9.78060713589371	1.5355940009318632	4.045763402330623	14	0.0003956931087707894	0.02886451387664241	0.028309926459086466
Si	5.701427144519081	2.886154078574336	2.6801933643475286	14	0.004385791455108593	0.09001928235849253	-0.0260949192257789
Si	7.063984917583393	4.290934924754892	4.047373920207992	14	0.0033290671685277324	0.009989001279307302	0.007967084055542853
Si	5.725467271970464	0.25015882572764414	5.396118022959933	14	0.004529773353036885	0.04589217308038709	0.0012004490739771381
Si	7.103247090034145	1.66699370231752	6.729567176611059	14	-0.007336649031042544	-0.037055284095038145	0.008684165329332152
Si	8.497546314720633	2.996149798540393	5.390928576466188	14	0.005079989891548574	0.001971780670021562	-0.019121824487005293
Si	9.89646003764629	4.405362882706507	6.721443340034167	14	-0.005687027857635536	0.0003931220034506413	0.003353235558537124
Si	8.53578285901697	0.371426513923887	8.06623902292832	14	0.016326775893472315	-0.015770388702192273	-0.008805264389911126
Si	9.924465154069425	1.7843991300485915	9.394738982238191	14	-0.014978231153054647	-0.02596559262817545	0.0038443166746854078
Si	5.803025637527828	3.1158782160493153	8.0740878122134	14	0.011825541809489073	0.0015658031399701801	-0.013272559883668412
Si	7.200032255436148	4.525069760367274	9.404489905806416	14	-0.0035699797370256077	-0.0019455553957560513	0.011579744140882918
Si	5.868886208626114	0.495747889823824	10.730945236453044	14	0.009242609404868315	-0.04051599185595746	0.019693895420738242
Si	7.243191483491398	1.9022916897302247	12.082040496476576	14	-0.0010027310748577508	0.010978876827564312	-0.024102569713196152
Si	8.637373067468737	3.2350615097087987	10.749671649055948	14	0.020864262562469645	0.007754196535034592	0.0025019425870360956
Si	10.01392677109903	4.638979105051795	12.104168548176434	14	0.0007782735804088234	0.0094038177084416	-0.04066485885399403
Si	8.870242022774217	17.03453706214563	13.418939339655154	14	0.01894390399885105	-0.026628937800773658	0.03069976885416411
Si	10.091569639137614	1.9609678930134171	14.743361640018312	14	0.03934151094571381	-0.0375180830526648	-0.040680285485914916
Si	5.934158576178654	3.348125829581119	13.423805688426585	14	-0.006609026225440637	0.016528350550571926	0.03352927025898707
Si	7.283900139591269	4.789975097523502	14.75130818707578	14	-0.07233959084555829	0.03517092100590162	-0.04203654354229303
Si	5.604395099319005	5.504160244389552	0.01742408024527852	14	-0.009350338717782519	-0.026534578235524218	0.02750285649909199
Si	7.014678548247238	6.898590365076361	1.350449064578909	14	-0.010519163196321835	0.0126038153898979	-0.013533784184195458
Si	8.411340528585091	8.212603948046896	0.00804761865265479	14	0.010706596774160628	-0.020181891210502345	-0.0010338414492315428
Si	9.798629361153115	9.614553132650885	1.3512029592643027	14	-0.010888373920295099	-0.002083880861980018	-0.033838060007936856
Si	8.450052606452218	5.6419373977402225	2.7301061632547907	14	0.005882174751434775	-0.0171356456271909	0.00038926534547041917
Si	9.866226375394902	7.040299369170854	4.044570426125164	14	0.0026508095850726696	0.008478476903720306	0.0025158265557648956
Si	5.731094143072876	8.351012384639619	2.7019187865780436	14	0.003298213904685956	-0.005470283679147052	-0.004414844945226266
Si	7.130508253240267	9.763646990839444	4.032821267412795	14	-0.005695769615724039	0.007516112182388879	-0.0032087394395448024
Si	5.7697266891929715	5.738127731950891	5.393796690093479	14	0.002144044726471483	-0.00018614802517872092	-0.011224674496170468
Si	7.1702923527809075	7.148498997183139	6.722329787631279	14	-0.011699043427737789	0.0006422621089729901	0.005363068587296878
Si	8.567307255246211	8.48328859215401	5.389026442183042	14	0.003097153468650376	-7.481916481630911e-05	0.001814943245492529
Si	9.965042914168977	9.891529069330396	6.716270462654388	14	0.0013863399886238441	0.01233436355234638	-0.005042194643342397
Si	8.602284654825691	5.854580435628993	8.07118656035818	14	0.0039417615663190205	-0.002953685791786113	-0.005702968710620454
Si	9.998111551819724	7.263090989363003	9.40608551148122	14	-0.008185370897223425	0.004573739254011417	0.009477865541661863
Si	5.874625749703487	8.597698324080262	8.07092808218033	14	0.01292906021289663	-0.0039852132462295225	-0.0052676805799193845
Si	7.2663203096747235	10.013966536972545	9.401475983976239	14	-0.010950851779574697	0.019236495784283898	0.009177303329736552
Si	5.909964355967399	5.977838074412396	10.752041032352901	14	0.0004252608199524923	-0.00018717646730678016	-0.007344105236470972
Si	7.302089712901718	7.399337156583335	12.074708663547195	14	0.006431362847818404	-0.017946315134633593	0.027045971083701673
Si	8.705380995736848	8.723419790110217	10.744932882462043	14	0.0003288443704469393	0.001307664165827313	-0.021114945331184083
Si	10.10072076078032	10.120651747968457	12.08956784495074	14	-0.011478699701801098	0.004767343484618568	0.013209824913856801
Si	8.71699263080331	6.098906933241063	13.437891092207979	14	-0.02446843800025322	0.0010490109706204162	-0.017306109909916722
Si	10.128674512950163	7.477430704521759	14.788714618762489	14	0.017643696038452162	0.06114859782908176	0.012702545834191585
Si	6.010179327960094	8.841426676678207	13.430010821606366	14	0.011200248995629061	0.004928808898723868	-0.008419855702420929
Si	7.425728441306309	10.229184415171432	14.765280920882212	14	0.0014462467425832943	-0.0025711053201480792	0.05025790991399853
Si	5.71578593868089	10.934670777206012	0.014595732491504232	14	0.0011767949050317758	0.02735733193797161	-0.051481498935857004
Si	7.093199579325952	12.363644186686429	1.3467375830508161	14	0.0003260161545947764	-0.007887122680086248	0.01494943477346899
Si	8.480046016551118	13.699792449002405	0.00935326483307315	14	0.011195106784988767	0.009452154488460382	-0.01469746645209448
Si	9.873269905741296	15.107989846482482	1.351024012833484	14	0.0489916405438256	-0.002356675136447729	-0.002150729600303868
Si	8.53475060321697	11.089762654649796	2.6993240633311713	14	0.017740626709021743	0.00027485115872382965	-0.004036378242100469
Si	9.939090710966067	12.511434055605967	4.017171739273136	14	0.027980310757043485	-0.00018614802517872092	-0.005443801294349528
Si	5.8190844227824154	13.82534491006992	2.7029344732640794	14	0.0029184616489000845	-0.002654666243052892	-0.017716715429544366
Si	7.209516416269542	15.254750773424814	4.0237480206057255	14	-0.11737841407018822	0.021521951303363526	-0.01857237928008965
Si	5.8394163825284995	11.213691342548769	5.3804850639342385	14	0.0036185736275764066	-0.011956925291348642	-0.003937133576742753
Si	7.236765981095888	12.628846110982623	6.705005122069788	14	-0.03404606242833683	0.02108897716745059	-0.004612048723281624
Si	8.640353851070987	13.957440514242094	5.368204036663603	14	0.05377081111291685	-0.0032007690130523435	0.0030318473935186147
Si	10.020609094760994	15.359515624112214	6.720187401195643	14	-0.006192764274108664	0.029748202775177302	0.013973443193940782
Si	8.665606837664585	11.33829273647471	8.060163128837464	14	0.022228748155872235	-0.012789963415076619	-0.009592279728408454
Si	10.06422065962748	12.736025081574683	9.396367726140921	14	-0.006797745355939506	0.021005930465609807	0.010416061872983898
Si	5.9416163343741655	14.070277837253096	8.062096744437145	14	0.013629172191572952	0.002102392820285084	0.008657682944534626
Si	7.342425563937383	15.476708967184537	9.388600125514271	14	-0.009642159171619325	0.029827392819037866	0.0004324599148489069
Si	5.970052247760384	11.460165197330662	10.756698610288378	14	0.01899275499993386	-0.0016444789627667114	-0.010597839019118366
Si	7.357972363570462	12.87486762895328	12.095385260863747	14	-0.02158160094679096	0.011826827362149149	0.013594719380282968
Si	8.763697649247007	14.182200545173249	10.741420230301527	14	-0.0011289723460770214	0.006058295465864919	-0.01564183343618487
Si	10.158430984719368	15.594382814561836	12.059960495207216	14	-0.005360754592508745	-0.0021453302791315573	0.008513186825542305
Si	8.80319013238187	11.576715658781156	13.430461501506207	14	-0.006428020410902212	0.0007739027013645717	-0.004278833473790433
Si	10.198087502082481	12.97517041724999	14.77164677446745	14	-0.011260927081184556	-0.008921478350381819	-0.0034038863333440417
Si	6.063555071685978	14.333347316582033	13.451607004747956	14	0.019151906419251026	-0.016667704458923953	-0.0023638742313441437
Si	7.48457862028613	15.722525028142034	14.775563713008706	14	-0.009560398022438618	-0.004692524319802259	-0.01831963962711909
Si	11.274695506344	16.428959143495398	0.014333940490861972	14	-0.018374404170438247	-0.03823747832124223	0.00022857126296116421
Si	12.446449990636411	1.4411616497128483	1.334845929958351	14	0.03494697773251672	0.02292114681858811	0.018810206522203346
Si	13.854614249888561	2.7504729181402006	0.00020877083595522	14	-0.06585140657016461	-0.002521482987469221	-0.04037843772132954
Si	15.278056889127559	4.14480859487741	1.337649424041178	14	-0.02654152021988862	0.004666813266600778	0.01943781333085149
Si	13.90420063725072	0.21479867961557786	2.696810528742726	14	-0.08592736824147687	0.020456742369226174	0.05171032730935018
Si	15.331493938575113	1.566168986930924	4.043006301766897	14	-0.04199052075706238	0.0003915793402585524	-0.03028324979230012
Si	11.189341372666243	2.8694822361030545	2.733201273743397	14	-0.006608512004376608	-0.008607032169727708	-0.03187296421174768
Si	12.593563839706192	4.287723830468534	4.041539935181021	14	-0.0007975568703099341	0.007505056429512242	0.01842325517152106
Si	11.210884534643148	0.25526376974016823	5.402225398367321	14	0.029138850814302206	-0.04247645966257037	-0.028721560420842177
Si	12.62063777192451	1.6642680830703271	6.719478243117954	14	-0.023550810511492378	0.014067802759190217	0.02319985463529216
Si	14.0239489376964	2.9986235672553225	5.392507613027025	14	0.021420906864281705	-0.01082049673984319	0.0018421969618860985
Si	15.416897779594763	4.406817650912608	6.7277130927584095	14	-0.012406097390778512	-0.009065974469374143	-0.006014329564890387
Si	14.058604896464965	0.37448682927316707	8.066883561461546	14	0.013985013167881446	-0.005603981155794753	-0.010100587250201729
Si	15.458837520862213	1.783734708578607	9.400122287365324	14	-0.013095153616578195	0.019350909971030488	0.006983379160054197
Si	11.331655149420449	3.1154871849597483	8.069880914177762	14	0.016883934416348403	-0.0006178366084315834	0.002096222167516729
Si	12.721021748879647	4.529275001491516	9.405457542061956	14	-0.005081532554740664	-0.0003355292442793243	0.010224000305568835
Si	11.556852604960273	16.931458947259834	10.72988149933651	14	0.022954056966686003	0.032262229557218094	0.004405846076605748
Si	12.738553528365694	1.9216560132207698	12.042781637848616	14	-0.04043731603316093	-0.04647041466688839	-0.0023561609153836993
Si	14.170070296839691	3.243442167552144	10.742402778759635	14	0.006726782849103418	-0.013999925578738305	0.008136262785608597
Si	15.555437112187809	4.6318444445785945	12.118528999249639	14	0.003019763198513919	0.005486224532131971	-0.004990772536939436
Si	14.336134241550898	17.048733478990588	13.374328657216594	14	-0.02530687544515351	0.04546922625522273	-0.03475645882829375
Si	15.484039143202521	2.0008182690099168	14.721154056571423	14	0.129059973981749	0.033600232765823156	0.10257861762635186
Si	11.459021928467099	3.343582578531998	13.43408848055308	14	0.037382328691760974	-0.03555710102498786	-0.03336986172913789
Si	12.841532228567702	4.764970647639373	14.78225100740486	14	0.06801756280238937	0.013959559225211979	0.028434882177645664
Si	11.144664413771828	5.491856020359366	0.035928466721055485	14	0.025849892888768787	0.013500359815033534	-0.016433219653726447
Si	12.556092788475022	6.900923296322591	1.3471750076594842	14	-0.009040520526704674	0.004147707102462881	0.0023175943355814785
Si	13.942471976686384	8.230067794165688	0.00733680366356916	14	0.006785146939870781	0.008449680524134646	0.0037126760822938265
Si	15.336549175245743	9.636762373009168	1.348157556117591	14	-0.001757607596853227	0.04196738080918105	0.0031089805531230572
Si	13.992031853466196	5.602526103263787	2.690878785943364	14	-0.01005353602284302	0.0029521431285940247	-0.003648655559822139
Si	15.380256840973225	7.017309723544833	4.030983752674111	14	-0.0018977328368012974	-0.017247488708617344	0.000965192937183589
Si	11.26572498804351	8.355308755890666	2.6944891958762716	14	-0.0009474523104745672	-0.006321319540116067	-0.0004648558418827727
Si	12.663392713599023	9.776488054162087	4.015206642356923	14	-0.0043608517335031564	0.03496780368560992	0.002498857260651918
Si	11.294349789328928	5.736159321211885	5.386769728861049	14	0.0019293574322391187	-0.011174023721363552	-0.012472174797506315
Si	12.689696182017983	7.148144418144294	6.714610237435125	14	0.003040846262139133	0.005711453358176943	-0.0004499434310259138
Si	14.084217432831599	8.47372655648498	5.369864261882866	14	0.0059117424626164775	-0.002528424971833621	0.0055271051067223255
Si	15.478700574683094	9.868708428666814	6.718156027823571	14	0.01801779186253371	-0.005706054037004632	0.014948406331340933
Si	14.119705161121193	5.856984614065271	8.069090567441645	14	0.004395304544793141	-0.008290271994285467	-0.0020833666409159884
Si	15.520429888203193	7.246654428310021	9.411629537013805	14	0.008291043325881509	-0.00044685810464173615	0.007819759720698366
Si	11.394291370941206	8.59316501449952	8.064964858064435	14	0.0005923826657621174	-0.008830461222048579	0.000491081116148283
Si	12.792835602625448	9.999771777038987	9.394594830946698	14	0.010876289725290405	0.007259515871438102	0.003070928194384865
Si	11.421231093336411	5.9654808292175225	10.765481897601065	14	0.019406960067009715	0.008600347295895323	-0.004545714206021804
Si	12.820911966238633	7.376667294856833	12.091001073308686	14	-0.0017246974487553314	0.0045503421955980705	-0.0017267543330114498
Si	14.218828228503614	8.698132008377291	10.745047209348401	14	-0.00012598416068725587	-0.0031010101266305983	0.010316817207626183
Si	15.621491541919482	10.099024083510333	12.069100018470147	14	-0.017173955096461108	0.0001437247873962776	-0.007011404208043812
Si	14.253437793753081	6.09482430356016	13.451027085759192	14	-0.005137325540187877	-0.014009181557890838	-0.024020294342951415
Si	15.664644142329147	7.50564459178085	14.776450160605817	14	-0.02135791478393808	-0.000967506931971722	-0.003999097214958321
Si	11.52038895585816	8.813535887141427	13.445739881493056	14	0.017606929232374044	-0.00363425737002931	-0.01643553364851458
Si	12.920416123242243	10.222548485028568	14.771517535378527	14	-0.010429431620648667	0.0004260321515485367	-0.0054651414685067574
Si	11.177671745700906	10.931638629350473	0.00047221974799395005	14	0.0296890673528139	0.017089108620896222	0.02669655787069355
Si	12.58098456838419	12.35094727465528	1.3016430824844887	14	-0.005072019465056116	-0.0011585400572587242	0.024268148895813687
Si	14.37754708499427	14.381669480548686	16.00267560705718	14	0.05481545120449301	0.040779273040740624	0.0037723257257212613
Si	15.065794940859977	14.808771531216758	1.608923928605436	14	-0.0965802289144464	-0.07610188926053098	0.017378872190476912
Si	14.06261130822163	11.120604403383686	2.681949690427787	14	-0.0045500850850660555	-0.04305624391226376	-0.015873232914998193
Si	15.491889589398996	12.503484194725704	4.042409813664168	14	-0.028022733994825924	0.06265552265722055	-0.04286881033442497
Si	11.348673286373593	13.843915573001555	2.6833365252666326	14	-0.05827410208115621	-0.014343168138978072	0.005234513321289474
Si	12.72182700781833	15.290023103232866	4.033369705085027	14	0.04624467161977939	0.009547799606369891	-0.014510804205851727
Si	11.364833143223366	11.216965399468194	5.372265126496351	14	0.005163550814453387	-0.0012773251230495655	0.01095522265861895
Si	12.763380688730402	12.63379033458969	6.697398241848595	14	0.004082915248395149	0.0045953365387006615	-0.024348110271270294
Si	14.168897203570992	13.971409934225733	5.364078327286393	14	-0.0006399481141848569	0.0014243923473620359	0.010328901402630878
Si	15.555637598466783	15.369621126719284	6.721073848792755	14	-0.01576807470740414	-0.015522019928265969	-0.026572887704794428
Si	14.184919536774856	11.331671718534414	8.05062263301659	14	-0.0025968163733495597	-0.0050702196913320115	0.002165384900628712
Si	15.585546506084462	12.73042140723182	9.384263988389709	14	-0.00963264608193478	-0.009705922583559	0.0020651117931429373
Si	11.460009447659395	14.066924248586641	8.055666271307446	14	0.0015053821649467002	-0.0036635679706789976	-0.006167824552503227
Si	12.850491148488414	15.480470156054524	9.382426473651023	14	-0.01632317634602411	8.613202822496065e-05	0.008048845204723562
Si	11.497593168865524	11.44408984296211	10.74575636742609	14	0.0068021162349837586	-0.007318394183269493	-0.0031390624853687896
Si	12.891638886108352	12.854427969966428	12.07462747488877	14	-0.006567888540318268	0.004238210009732094	0.005520420232889941
Si	14.280226737211207	14.179839446433279	10.722612629040196	14	-0.0004314314727208476	0.011180194374131905	-0.005229885331713208
Si	15.650600161332669	15.612885544126216	12.041427941237702	14	-0.013544839937072093	-0.023039160552782906	0.030468626485882798
Si	14.31140980969277	11.533587912042437	13.412717637361409	14	0.014248551463196625	-0.0016745608950124438	0.010407063004363379
Si	15.709314473577978	12.922659581273063	14.742604431510125	14	-0.043665595873138854	0.011913987832502169	-0.007263886750482354
Si	11.576589733515025	14.297157057860337	13.413426795439099	14	0.01445912498891675	0.020500708270200705	-0.008465621377119566
H	3.114393623438078	14.421379019076486	13.537184821464235	1	0.05309229641892976	-0.07881132004690303	-0.06397655657071263
H	14.189186083620767	13.948191634826998	2.515514597563772	1	-0.07114196998743332	-0.06148001330484885	0.0914999819123658
H	0.6994767443995858	0.53386347958822	0.65765298692989	1	0.07642919096778583	0.05516203620164898	0.05388496818913143
H	16.282542854123534	1.0812887789565468	15.612607183011612	1	-0.07531435970096961	-0.04402606483902361	-0.04782204473369024
H	9.89344114508192	4.5640949944883324	15.06846422511969	1	0.005372581676981426	-0.01708088108387175	-0.000409577077499589
