72
config_type=amorph dft_energy=-6962.464957256835 dft_virial="-6.77165891509488 8.54758432150535 0.9910971814811972 8.54758432150535 12.649066439284772 -5.305136943512297 0.9910971814811972 -5.305136943512297 6.184295483937877" pbc="T T T" Lattice="11.105996452100001 0.0 0.0 0.0 11.105996452100001 0.0 0.0 0.0 11.105996452100001" Properties=species:S:1:pos:R:3:Z:I:1:dft_force:R:3
Si	10.732657275366208	7.961844432524682	6.491210594330505	14	0.008538383657679754	2.0610815855536053	-0.8669240062948691
Si	10.53974611699323	4.815970983499288	1.5154354278819493	14	1.887413191377819	-0.5061187398342332	-0.39521436896017775
Si	10.081146205496665	5.991063150106633	7.1480303305041515	14	-0.45856871804341454	-2.349966608446399	0.978686097903726
Si	5.361719649155482	3.972026313104209	0.7835891326761416	14	-1.736410119041266	-0.3775531894055486	-0.29258535766955096
Si	1.1139425501420823	2.8639144110994796	0.9483154932529793	14	1.2188350481215169	3.256957177387264	-1.2484284703564215
Si	3.6480643965964523	7.666502668873987	0.6249521899539904	14	1.004731137686294	0.44339585421762473	-1.1829398467469296
Si	1.3810084468257309	0.46392523679534725	3.3573538334662825	14	0.8006792206107219	-0.166251269548223	1.4195139321275867
Si	5.087623656717654	2.4967501683930533	4.700657422337134	14	-1.2573736028757485	1.4683626192156123	-0.7544764580076609
Si	10.048439045945232	2.358258392635366	8.429784487037464	14	-0.22856432097679982	2.1666897365786872	0.5352228807267134
Si	2.124077351446386	10.51874467770231	7.074453104008987	14	2.5831488916887166	-0.026955211065900445	1.0996674018590378
Si	4.552192461765461	5.80816960053345	2.0205472525199095	14	-0.7240417701120041	0.9561267056036826	-0.5777402209638741
Si	1.8700721065904067	8.348277579075502	6.479160588179977	14	0.4318909292415581	-1.4807599748483022	0.2817208950287333
Si	9.681685725107533	9.813291783064917	9.94668590645109	14	-1.280109630111286	-0.7544150085905095	0.08840539954903558
Si	4.7478134832727505	10.397178440537623	6.6288583143578315	14	-1.9323715390059284	1.1532446087413473	0.6526370331608516
Si	5.680017507472669	9.189290266407227	8.29252547688596	14	-0.11925043585378804	-0.5530743220750335	0.022592559558673186
Si	9.329114761739165	9.471282622322498	7.690824801104086	14	2.0548759657528954	1.122974214475648	-0.5338648228966112
Si	0.6393977595392369	5.569635008735246	8.962927846720524	14	-0.4479603374924836	-0.5571145569751141	0.028071584995908738
Si	0.8031501242272254	3.181046139789195	9.721745054310258	14	0.4840550566399144	-0.6370795319791677	-0.6922066011484627
Si	7.6378047740417605	6.223389489888113	10.455840313797616	14	-0.9130887165391919	-0.6940153737411867	-0.7825231032819642
Si	9.816945655897658	0.6184018732465418	7.022876856485436	14	0.17820510951318747	-0.7326174347968261	-2.0321517656018306
Si	10.745051567406751	8.151768077852045	4.125122474196408	14	-0.7679976437757877	-0.45098884244908605	-0.6989809494459888
Si	10.525397169577117	4.352151253670236	5.337086549024725	14	-0.4972671955485593	0.9429762732227213	-1.247400799559958
Si	8.44521071610943	8.971579417956711	3.6861246464377984	14	0.9411289340501949	-0.035979533629088185	-1.4140577895277004
Si	6.012375557298213	1.223547629127857	6.300309621315358	14	-0.21399155313273252	0.17779733220941196	1.2602403853077135
Si	5.313586260532081	10.752759128944508	2.9539951483224627	14	0.5725525017594113	-0.29560332109434084	-0.7584850683123039
Si	2.811949453700103	5.916541913913043	3.5664797466593257	14	-0.9628917979220563	-0.648493439826901	0.2004533980694928
Si	7.469493397810186	8.467022893141355	7.072565084612131	14	-1.0951851939544235	-1.0455402355487484	0.43136153865613963
Si	3.7432427861909487	1.3606622613254837	3.073040324292522	14	-0.15427171853005703	-0.44369898753487014	-0.3499996821316497
Si	2.41904151121771	10.7090792448984	9.449359385326051	14	0.28542740045825876	0.5212700063753337	-0.18019128837300186
Si	7.879027016981373	6.472474778315811	8.182653853985336	14	0.549523882738441	-0.5893040242517721	-0.6755849194747693
Si	6.86191764990515	7.9879102061977605	4.886072033104943	14	-0.7930960025794771	-0.06635585743397766	0.23657871337023337
Si	3.7944858538209383	4.881640740520555	6.997399700624317	14	1.472911161637486	-0.4004589095922158	0.19410816724989938
Si	6.1945027931162	2.769224685348875	8.138940651949868	14	-0.002588331725793071	-0.19321367970901987	-0.17649506736475695
Si	8.016063907203835	2.2967311722907326	9.525157811111635	14	-0.2635280108938975	0.33694746597391795	-0.047113190996925416
Si	0.8980164353214184	0.8979864491309977	5.914742742487802	14	-1.0468790100889493	0.08573427823193373	-1.3809681782784589
Si	8.775658534545215	3.3151621529447546	1.9113975193886708	14	-0.2448748989067552	0.05970003709171034	-0.34689532956810293
Si	4.330672256531875	7.471125979288644	9.085526941555257	14	-1.186180725002976	-1.0379698730441045	1.9389216869195371
Si	7.510963188562326	8.377230911826127	1.477863841884495	14	-0.1810150705175773	0.5357075340795613	1.210636821697693
Si	1.4100506275479723	8.469121926470802	0.8316147931339576	14	0.21798165147907034	-0.315956705029697	-0.5767225774781595
Si	3.5836607231707243	2.231961000982085	0.910580649107679	14	0.23835046204634744	0.5900524730104671	-0.5227805307509208
Si	4.9598047435504355	9.320907430361064	4.693782810533284	14	-0.14567677055533404	-1.012560924717741	-0.6314526679860236
Si	8.894092880710408	0.9386610505371686	1.6662104357156589	14	-0.7760493171963634	0.32343296507962366	0.12906254508706916
Si	8.155588540631568	1.3781875237268975	5.382188000616702	14	0.4289722104821261	-1.4369110591658367	1.1714755452349213
Si	6.2289535941106156	6.174489787509517	3.565324723028307	14	2.062235497621287	-0.9485180336297684	-0.214711976843438
Si	5.331233688894468	9.331558080958628	0.9803174220297055	14	-0.07001891118359264	-0.307742280642356	0.18339308582818223
Si	1.3202031162504835	3.189486697092791	5.960699355806592	14	-0.7109278474265888	0.061111573912471635	0.9396081252533274
Si	1.4399701819899298	9.240122412168489	2.9827485731369494	14	-0.3298753836803187	-0.24072462069897216	1.491936826785518
Si	0.25237932697539167	6.546973802516499	11.09292469427588	14	-1.6211623799498844	0.17530773092791258	0.6746757766335649
Si	3.203846750505356	4.024857538226849	4.960060181468833	14	0.6044758596354339	-0.2580518136725141	0.06478002698325891
Si	2.952040492946893	8.115273773510443	4.412989902234839	14	0.0403483557890838	-0.02856883676482538	-0.11407120129688178
Si	0.09807705466849512	1.0767741118158392	1.5055288790466763	14	-0.7491025907780194	-2.741678874850003	0.2465016372428129
Si	8.568709396656782	3.242162438265101	4.256606366192819	14	0.2718851316265068	2.574549572834949	0.7455552367678111
Si	8.025215248280364	0.27671811820016884	10.619464959526406	14	0.6091596421971477	-0.14593799485586106	0.4336904458551297
Si	4.210161089030137	1.2577874161896816	9.690748218212446	14	-0.4234546184650882	-1.2062255762999148	1.505463154764285
Si	9.0973881457661	7.70396319490692	11.078553534866861	14	2.352785568319409	0.9378723720516954	-0.08164390677811015
Si	5.939542432565341	10.547420360541631	10.098393817986777	14	-0.8953570886987907	0.991918291433868	1.005460046044556
Si	7.534952140898863	3.9859421266586903	11.089059807510548	14	0.26353829531517814	-0.17682725417212009	0.9846037539085788
Si	0.3309520306747088	5.730727487272957	3.414260959286843	14	-0.11746146077202904	0.6623108169279088	1.6510854178868317
Si	6.583834604741018	4.350174386301762	5.1889880863359705	14	0.3859373067440195	-0.1916825864908717	-2.7739382761913687
Si	6.312715019352353	4.992278677176376	7.340463931029688	14	-1.0690187980007446	-0.3608870276098167	-0.05218366779878945
Si	0.517052992023258	10.499753423769217	10.900468881757439	14	1.4982051815560389	-0.20927306064919676	0.24690607210967216
Si	7.641114360984487	0.06911483712070873	3.5622372560146234	14	0.46399632137424723	-0.35565971338342367	-1.1933623363832142
Si	2.488298505093005	6.444365501295547	7.89837366280093	14	0.3466737002895061	2.2567133898162237	0.4902835592779731
Si	3.8600778688670414	3.2803004300816125	8.747804695443348	14	0.5303413801658803	0.3135162118598125	0.19921772485262965
H	3.5650803911063607	9.717080535800376	9.919165247242788	1	-0.8089859476790565	0.05404514805057665	-0.2980355867272009
H	4.9797955371642155	6.195557862779151	9.624911871244397	1	0.5648265873828983	0.16120727513115649	-0.3604283424207024
H	7.557386253732105	6.041228936080769	2.486677029610999	1	-1.1261924670048775	0.05190367442942531	1.0876883650619358
H	7.512295908136578	9.814369064720772	0.8670273734211237	1	0.46042737007934964	0.1608216093331343	0.0799603470144772
H	1.9854745157241775	2.1438127071417674	9.09290132319945	1	-0.9492924505521971	1.0782441809999679	0.2871369283856252
H	9.738315201016789	3.729793424487456	7.62447757829924	1	0.2613513131298602	-1.1283681363267868	0.22546588195548936
H	1.031925876942969	3.80200461341901	7.413730189624191	1	0.6041801825236168	-0.521361537724731	-0.5948283011426422
H	4.8404708116726205	4.444331024222666	10.495522039120969	1	-0.37950542967513706	-0.051508752652250564	-0.37338208524467237
72
config_type=amorph dft_energy=-6960.375289258063 dft_virial="2.4387530899645196 4.150533881837501 -15.31672776152033 4.150533881837501 10.80270773063706 -10.134849096923208 -15.31672776152033 -10.134849096923208 -0.4326617137430607" pbc="T T T" Lattice="11.105996452100001 0.0 0.0 0.0 11.105996452100001 0.0 0.0 0.0 11.105996452100001" Properties=species:S:1:pos:R:3:Z:I:1:dft_force:R:3
Si	10.970825369281492	7.870430975727447	6.397120592388314	14	1.3866798887471676	0.7512978005003619	-0.50707159146588
Si	10.801247909454377	4.64590485982828	1.4197794804400121	14	0.5111930732940775	-0.09407417255889806	0.2718301099726556
Si	10.193050225748024	6.062385859322019	7.422537244810707	14	0.008039075004506999	-1.578147273722743	0.46356488990152633
Si	5.115266481886931	4.130364504521799	0.7134791982733247	14	-0.02373078788390274	-0.30788600542975225	-0.4592474898479336
Si	1.1691171405161151	2.7330635609008374	0.38560686041478326	14	-0.7074144320066065	0.09259141612076867	1.9459742288127033
Si	3.838421175785446	8.104112247076083	0.6856764467551376	14	-0.8538347662205273	0.37022142547461434	-0.2055529283614745
Si	1.3496451128450004	0.3045397499123246	3.4584406131732965	14	1.298426698633085	3.0331110917834674	0.4835814590399432
Si	4.685297829243879	2.7323527771279026	4.709331205566224	14	0.3101773744910682	0.05041114779107935	0.6409886405079208
Si	9.717980121512996	2.275629779031742	8.29020432362747	14	0.3853125281512235	1.6107054375023102	-1.1318404140616467
Si	2.452759316446285	10.412382549680547	6.850589533524008	14	0.2416085667080391	-0.08065968766155748	2.146489076299348
Si	4.396930631365103	6.178077024363545	1.5633022725905004	14	-0.31153594654223443	-2.1004873741323222	2.0400008359231787
Si	2.280571947452927	8.070427759836864	6.4754845033543305	14	-1.098753373917725	0.34863185410133096	-0.09377823833654901
Si	9.684484436213461	9.736771467509948	9.778019138333047	14	-0.1328690665135484	0.9189765477223311	-0.5622544536206223
Si	4.751956019949384	10.438048507481351	6.518764571528164	14	0.8738248529741466	0.7860154356383213	0.2538190029839543
Si	5.877104520511635	9.156894074756451	8.286039574957933	14	-0.5933715128682464	1.918876321401535	-0.2033335502491227
Si	9.687416419276815	9.402425444319478	7.3932063081807105	14	-1.3604911241772035	0.8878101232525601	1.0400450121479958
Si	0.8416446185298492	5.7456539465045795	9.129839867399136	14	-0.7813663629984297	-1.2444244880413546	-1.5040978978392863
Si	0.696662498445555	3.2621976558646897	9.282947134487786	14	0.13707333793305454	-1.7629426403925341	-0.7401641431325247
Si	7.346438957120917	6.451828730911358	10.443112841863508	14	-1.0144470875806015	-1.4805730554915273	0.2810922597779571
Si	9.786148727735986	0.48938795486107695	6.6171748060902225	14	0.49720857434726	-0.2574964549233621	0.9619482022695619
Si	10.614267353186822	8.075836380109036	4.135684276822355	14	-0.34969140660376397	-0.313491015027675	-0.7936693590658702
Si	10.446766714696249	4.668005792767961	5.507696866521885	14	-0.567790043374901	-0.7358734825742617	-0.4371465256264728
Si	8.5531943196132	8.900034588812282	3.383986012958418	14	-0.4310159821011117	-0.6440695960130542	1.0485844242478037
Si	6.118693261334166	1.4426245151419819	6.228698156192217	14	-1.4950535206546014	-0.5378315241845356	0.5466990093231943
Si	5.614903050274005	10.70183813521163	2.9727198583407035	14	-1.264140237857314	0.9630136683142313	0.21029198968757146
Si	2.4311581533469506	5.8403325662587315	3.197283106602165	14	1.209962163661686	-0.13133823040593223	1.2592733925968058
Si	7.601654755590175	8.158631583659442	7.292208376445313	14	0.7270507346681735	0.8399713663342889	-2.005455207731137
Si	3.7802590723657987	1.35736378037921	3.0532161206255237	14	0.16277179271846662	-1.2326130873111265	0.11165564784860263
Si	2.3902769804067705	10.725360635697179	9.537974131017359	14	-2.0330228560842967	0.1286930772525639	-1.8239624258450766
Si	7.918830908265699	6.138417511033095	8.116284419187584	14	0.21350947088520475	-0.5444683183474339	0.7614166425983367
Si	6.892203702230027	7.916220999099456	4.819480478378152	14	0.46585985851029055	0.6500188766133449	0.6275463876731225
Si	3.7990282063698473	4.993367064828681	7.2502388158528275	14	-0.6701889407393745	-0.4738061166127402	0.47308595001256665
Si	6.1483573778577245	2.847077720478096	8.168282694576318	14	0.30774279486342004	0.155104242432721	-0.42967797889250664
Si	7.985555734949916	2.581977585166469	9.69827808380697	14	-1.161120675668557	-1.652862051663054	-0.25365753756984905
Si	0.869699476167499	0.6307472989026962	5.800373191024076	14	-0.34395732751876973	1.1434062742338007	-0.6342065788944342
Si	8.736965242906097	3.580184546281217	2.2136916368183805	14	0.8990062584796769	0.03777750757946774	-0.004703065851614866
Si	4.392143946894248	8.171747765469373	9.601033978872382	14	-1.7551174813506631	-2.0465905788587184	-0.5212949460969392
Si	7.632462789748301	8.024993128351323	1.435194603515527	14	-0.8333669680984245	0.34584811837120666	0.3476152390577444
Si	1.5806942630344891	8.36006104131118	1.0489247151125531	14	-1.1617148581080432	-0.5485466056062528	-0.12446823699049654
Si	3.4865276782006576	2.4082020586804602	1.026759367393452	14	0.140363067190184	-0.0030801841735373986	-1.371559989690973
Si	4.9398472679260115	9.164423940350975	4.567429888897743	14	0.7310593449728162	0.45295136713995504	0.3846008461986065
Si	8.961228629263353	1.3146723300173375	1.76315467874604	14	0.7257646677870353	-1.3760329416164345	-1.392344033767454
Si	8.189828327693391	1.224536062812094	5.194452236590404	14	-0.5701055808262264	-0.7406169147794027	0.18036406665051583
Si	5.9231721937949455	6.277109194726921	3.452365633113998	14	-0.6117849978395509	-0.2670532533983525	0.5763986182078208
Si	5.581307411006404	9.389820138346344	1.145916713927678	14	0.6627869856332003	0.42062408861813727	-0.6882491558396907
Si	0.8996934407856855	3.0500731236295797	6.069682498991049	14	-0.18622207301194119	-0.824830384214469	0.6535842283607942
Si	1.2360640871293738	9.30920171010055	3.227569158927042	14	0.850632968765347	-3.6490191141144077	-0.18619893306405985
Si	0.14402922558870407	6.613976279112017	11.024989313978384	14	-0.6879017995109388	0.13957013830945034	2.5408722069095218
Si	2.743070063704179	3.9705492155760798	5.268196053032348	14	2.2820153801612695	1.7048883678162505	-0.8261969266921276
Si	2.993454753716774	8.022827459043164	4.220245333808644	14	-0.9259131327655585	-0.9159899517824471	0.14767271961536502
Si	0.214430137098566	0.604964728139146	1.4626930507309264	14	-0.8158852516951417	2.3780662184902974	-0.3550588460701051
Si	8.604148631335434	3.3437156698231036	4.6177289468293035	14	-0.7618660718082986	2.626720127996606	-0.5165677118553149
Si	8.15571070659254	0.2874542849704139	10.68883301336622	14	1.0259810660467859	1.294952621124501	0.34612785463003876
Si	4.007421123797052	1.0393002585871634	10.100726077241717	14	1.458065599518951	0.5277383931397623	1.5613759537194172
Si	9.168844126938911	7.751263633796414	10.733667921043349	14	1.858596242949599	-0.19704925462561676	0.6353638333990328
Si	6.1166053340011715	10.544088561606003	10.240839328481412	14	-1.8272197591751722	0.6345611343180826	-0.2141249934988482
Si	7.518204298249096	3.9849314809815493	0.3132923857162246	14	-1.2944065183545015	1.99884283906878	0.1917355512604667
Si	0.09337366517103075	5.7965083042587455	3.563470021620806	14	0.05303316099656637	0.14584646350646382	-0.6978494059945916
Si	6.337592451405057	4.47809325343705	4.931917586459212	14	0.43551181686392265	-0.7172548233984093	-0.881036032065566
Si	6.10358910615931	5.060969265232615	7.151828581290769	14	0.49538257534889085	-1.1569837672084389	0.03899492594855785
Si	0.5419748480617705	10.076159613089672	10.991049388820766	14	0.9473255549822839	0.3251378650174139	-0.9708840788097367
Si	7.861390694615438	11.095778935364068	3.2887298813887567	14	0.39391801765775913	0.1652184565411195	0.04888699655729557
Si	2.7289876602029164	6.7311889656674815	8.347033707472868	14	1.4907996269024164	0.8507507253890098	-0.04479071156123566
Si	3.839154171551285	2.863847775120767	8.663221426464153	14	-0.7610536025271318	-0.6024020060842025	-1.9368012963620111
H	3.215252608861663	9.430245965431988	9.818345011450623	1	0.43802378676170733	-0.6322965047520962	-0.22205016853767268
H	9.433244584474055	8.183808877616354	1.2869073388870877	1	-0.17900832281520174	-0.424527283604654	-0.9969836260250917
H	7.004685234296897	5.79764111589686	2.643904621383378	1	1.5877405818932795	-0.45199671573458405	-1.0389273526653275
H	7.624555320274405	9.486120233582504	0.8332906879985796	1	0.5432424153307872	0.13739549742966908	-0.09138093973604294
H	1.3782097357198018	1.615267229989876	8.742695937075382	1	-0.27710164721055525	0.9454314216929308	0.6669179805510821
H	8.988949196407795	3.3768115392503617	7.235323462617657	1	0.9191529255472933	-0.7779766177443463	0.6791124759740125
H	1.1704942840761754	3.4640491413816075	7.621900987122353	1	0.1438929376842153	-0.11049119424910757	-0.9184756964059663
H	3.0499953816544148	1.9511125627013803	7.338220519746363	1	1.023726206681016	0.8346057266416719	1.217551552345699
72
config_type=amorph dft_energy=-6958.014558747633 dft_virial="-8.644430112081558 2.8789612289472846 -9.840538512574728 2.878961228947285 11.925867353813087 -3.390860407707243 -9.84053851257473 -3.390860407707243 9.766331997717634" pbc="T T T" Lattice="11.105996452100001 0.0 0.0 0.0 11.105996452100001 0.0 0.0 0.0 11.105996452100001" Properties=species:S:1:pos:R:3:Z:I:1:dft_force:R:3
Si	10.449598743791535	7.9738611206858545	6.307295293083729	14	1.7341655440967767	-0.01008413217615278	-0.23951620119850256
Si	10.79681661686999	5.070542634174324	1.4580729562068526	14	-0.12375424104309143	-2.1545466632621597	1.131985424401703
Si	10.104779765946734	5.796541622248101	7.152150655187879	14	-0.3680359859524885	-0.007925689259888468	0.01455785543321044
Si	4.587231880571837	4.554347025077169	0.6735076064425716	14	-0.0007003690892083367	-0.6565631109847178	0.30285666631301056
Si	1.0830401150141138	2.970720778979325	0.7548223806659122	14	-0.2502137991040427	0.8959684975439219	0.16373647143458617
Si	4.0036117670139815	7.836968608417269	0.6287726527335129	14	-0.5361050269620561	-0.3529022029275649	-0.4887918039712233
Si	1.8930948372356098	0.24477283000534839	3.7713076392254057	14	-0.7174530556185926	1.0645921259710458	-0.7031142583586588
Si	4.9108939351753875	2.3805481275147313	4.922677397411065	14	-0.22680079983771026	1.2871328614038027	-0.03237021598066431
Si	9.811570353614842	2.283503930516281	8.446710025630464	14	-0.11212461745899764	1.3709961462942644	-0.21175032062515944
Si	2.2025967463627327	10.442279892129601	7.0905345868716285	14	0.6926686287744932	1.258525200948643	0.6952592744950744
Si	4.629690105008215	6.409192810531746	2.3351023900327377	14	-1.150045639502019	-1.5889713700100343	0.13201057444715095
Si	1.809022444093213	8.220169910000529	6.768516219742989	14	-0.7855315536170696	-0.30595484822378904	-0.1482216506012166
Si	9.47451446729006	9.860314572043109	9.940077838562091	14	-0.030197889095671202	-0.3434783305976261	-0.11424835045343996
Si	4.537688030399019	10.36697013018791	6.475284595418193	14	0.4611318529370702	0.5163982760147172	-0.29195337998185866
Si	5.436451899281663	9.025032578880667	8.188329018172357	14	-0.9677781835829979	0.8287667464596156	1.456776447311429
Si	9.276861048432036	9.540039846357448	7.593813922094992	14	0.8297296254020111	0.1489130208218044	0.5659712434714284
Si	0.36875128959943115	5.427045120286735	9.057617572471129	14	0.8999886778225055	2.986611880736994	-1.5875068684196783
Si	0.5074674064854505	3.351245535417627	9.560274971893174	14	0.90312336942883	-2.8533640904097877	1.0539801458726663
Si	7.290364781034264	6.336759501671151	10.311106968033847	14	-0.1977257124353477	1.8025913984240056	-1.7175829432239498
Si	9.531066201224153	0.5892241993675847	6.885218030461656	14	0.856990026669413	-0.48528353076188124	-0.150502992351784
Si	10.509360110700284	8.101146946023372	3.8019379774402977	14	2.212162562381358	-0.3598177049071672	1.4463650134280213
Si	10.530939061806714	4.293767030321546	5.266874439454549	14	-0.6162078132112695	1.8681496989876731	-0.2787846927531242
Si	8.590499361695803	9.083516756197426	3.747007718988211	14	-0.47042691289046956	2.285014574517222	-2.5005634461423685
Si	6.276298456985918	1.1128319504968722	6.334927012256553	14	-1.0960398293628408	-1.4477207572633353	-0.8565508818807317
Si	5.465727305929399	10.800070673830454	2.7734449640006726	14	0.91791596677777	-0.5814935205102263	-0.7913293961140034
Si	2.8698228012119964	5.836556527465018	4.028766848977988	14	-0.4577577914254399	0.10732539226840924	-0.4981477991207101
Si	7.37474814207732	8.422398999396817	7.269396659732699	14	-0.0015344356550643736	-1.69237994043373	-0.2957545020871655
Si	4.017660852525888	1.4923904852438419	2.9925440620077017	14	-0.6214675233646965	-1.261511796888527	0.6332498706048071
Si	2.3507174210443904	0.07450679839820327	9.369007500995108	14	-1.4649119387654415	-0.6322905912098598	-1.5653660520657549
Si	7.881359276236314	6.133453130619007	8.028724743159229	14	0.12439650315206444	0.7503812014537291	-0.303801290407633
Si	7.059193464883802	8.230709500633571	4.956806124508368	14	-2.557921720508488	-1.2121807704424419	1.3495590414664658
Si	4.104365366827432	5.142742717109427	7.218808845893384	14	0.10334686389601212	0.05831446843468254	0.6176237209110751
Si	6.116349896082774	2.4860328818167767	8.08484334323169	14	0.9093966092994593	1.115694643982713	0.1266930144240207
Si	7.834181003307792	2.3264286068036477	9.658751842433945	14	-0.7551444311698354	2.0923392842622413	-0.21482356281433243
Si	0.5330378527167656	0.4776500272108525	5.91362103684614	14	1.4668574941611976	0.03974671714416916	-1.084616922646487
Si	8.537379380665408	3.6213655811256036	1.626773042314252	14	1.6325636893815492	0.3041969835164038	1.381857009387634
Si	4.479248277068068	7.217442808329776	9.49128452193273	14	0.8354426214233801	0.3812944047568961	0.3264447578516451
Si	7.927426949519624	8.007723303868307	1.7534480378469044	14	-0.7540051744024778	1.7005313727407274	-0.9078765718341879
Si	1.7609779034414283	8.384272113576758	0.6531214393550968	14	-1.3306465049525207	0.09400835226270228	0.8807807213072751
Si	3.4288764506178064	2.4616885375937736	1.035330975455183	14	0.1576822897372335	0.948805483204561	-1.4401197986053815
Si	4.93121790868273	9.216988621558764	4.400329066279446	14	0.7542311745601188	0.5770503934064783	1.0482710065092777
Si	9.393718343101032	1.3547094472271581	1.6882336266801734	14	-0.5246710644928257	0.23631106130640597	-1.1346737721244498
Si	8.291226075301065	1.0067707949789624	5.080893422867682	14	-0.8717869948973973	1.9219148536688855	0.5441813829937053
Si	6.512745121451126	6.225321933270778	3.782646861603	14	0.13624158536198663	-0.45568419498474044	-0.15302884621829746
Si	5.5770982383510574	9.391108433934788	0.8056423098310767	14	1.2138684439745868	-0.052762166495822764	2.444731379894289
Si	1.04705668650931	2.7550645398724476	5.589981194235494	14	0.8382803503652275	-0.44504496116996767	1.50339650030795
Si	1.482939282263105	9.096721785978973	3.2181623799321133	14	-0.7047173425257711	-0.15721280590577447	-1.8467915270932032
Si	0.13097523735890573	6.64587270092245	10.996180359181636	14	0.60683999097731	0.7409318751811208	0.37725982628851973
Si	3.104270386315828	3.798384058575625	5.696987470051477	14	0.637275964425627	-0.17646627098517131	-1.9269483065541397
Si	2.9151241607401124	8.132687975947336	4.696448249681788	14	0.19908865536555823	-1.3674475067313963	0.14248114375292198
Si	0.6087529835289573	0.7882858585757347	1.438681886401486	14	-0.558812772039072	-0.2251306098217421	-0.05761384223494218
Si	8.61888628862737	3.345203873347685	4.261881714507567	14	1.0335712260623948	-0.7683306019147469	-0.8651815682194048
Si	8.031967694123242	0.5407509672527491	10.913962667446741	14	-0.0025957879312215005	-2.347870386278882	0.26469297871445663
Si	4.079043694916645	1.2954589561552046	9.955126463754686	14	0.7720767023662026	1.8466938250910374	1.4425443509222813
Si	9.163113432769627	7.621578913225243	10.871637714967788	14	-0.2764987230129805	0.8982709223581147	0.06378192389797742
Si	5.712191579194402	10.635924046268418	10.135932085994874	14	1.2732059552161565	0.9716672374902537	-1.6029180737086457
Si	6.907096843472293	4.374685320471547	0.055244558151681035	14	0.059966917823941715	-2.752753396795477	0.5373419857315794
Si	0.30689199996087935	5.951814558644911	3.627029639316175	14	0.4160138396685797	-1.5019235140700369	-0.22622461513546505
Si	6.625715317361888	4.060785436749392	4.843780398615347	14	-1.4869432260327262	0.8398050158200753	-1.1262983965440674
Si	6.415567652495252	4.731532092473972	6.951820691184899	14	-0.4384202512020741	-0.393481958195462	1.438583048955529
Si	0.6855031932104848	10.083300768808373	10.438337263389105	14	-0.15863411292675228	0.17306958374672368	1.7067984419585887
Si	7.943097510513537	0.2536676225638353	3.0283053705834635	14	-0.9590222844152335	-2.09933089095932	-0.10541248991021908
Si	2.6240470997270235	6.5408210804820355	8.218215254624958	14	-0.9885429443695777	-0.09788480775388952	0.6428218386011864
Si	3.845284681592844	2.9283514025145636	8.135753230968115	14	-0.3197711968826687	-0.18681548411983134	0.6749087187755703
H	3.483862239052154	10.224802269604579	9.525557626983911	1	0.288678820246118	-1.164421203568031	0.18844787888759337
H	7.6335733893935105	6.317945943681292	2.659664030348908	1	-0.056419049592669364	-0.3350764726324462	0.18147966924892805
H	8.451596664069388	9.403236182060482	0.8895869840142744	1	-0.36294622586072334	-0.38156797036295986	0.4008247778792729
H	1.0189562942862065	1.6499623629062368	3.09476365335283	1	0.09742535123317908	-0.9659609263427171	-0.13039977696407817
H	2.0171599236020192	3.3470363627622812	9.09802118756387	1	0.020548273718623448	-0.5243661314018561	-0.2885404947798941
H	9.525213341093895	3.5438235138970415	7.565604691106659	1	0.15233439067132545	-0.5438792781185879	0.047929774046604444
H	1.4856935693832256	2.6876844593975564	7.155471348127057	1	-0.5470422518834341	0.29280107340591144	-0.3366422757724164
H	3.6349260027936174	4.6871747426442845	10.543744275715987	1	0.6121452096949036	0.4850662723623287	0.293783749859272
72
config_type=amorph dft_energy=-6961.85781087489 dft_virial="-1.5696564498585461 0.6615699460140986 8.948802596749642 0.6615699460140986 6.053490779782998 0.7433228861108979 8.948802596749642 0.7433228861108979 -6.7754321277147325" pbc="T T T" Lattice="11.105996452100001 0.0 0.0 0.0 11.105996452100001 0.0 0.0 0.0 11.105996452100001" Properties=species:S:1:pos:R:3:Z:I:1:dft_force:R:3
Si	10.823137828461467	7.962499686315357	6.585189536308175	14	0.36566748373156804	0.3273873250620114	-1.4431804423784858
Si	11.068669198024494	4.4585689116742575	1.5336381560669412	14	0.41632185808593347	2.9403911203966917	0.571921038292783
Si	10.263006897399803	5.815710572124426	7.153394526790515	14	-0.1690401474889876	-1.1144993371193759	0.09157685796143823
Si	4.771158287815065	3.8450070316815417	0.7627676105277446	14	2.364677444646158	3.3098460993753696	-0.48343927691573907
Si	1.4176027051354005	2.8878478334537547	0.7746776811229765	14	-0.5317925120085718	0.24835026196799936	-1.2251949342414354
Si	3.8204738855188527	7.565393677174069	0.8119816126059353	14	-0.2923382744482848	0.6073557547045317	-1.2423146390156414
Si	1.5439667327673943	11.020813459312395	3.0172993280994325	14	0.27952902774330707	1.8016601440770477	1.9507989079459611
Si	4.675702248309266	2.7588627906590655	4.781353592558093	14	0.10235261746871084	-0.21818656857308613	-0.12372415911084571
Si	9.948340699922452	2.1381930729370047	8.209597001378128	14	0.7096708340355684	-0.9630149538668916	0.5243211370587535
Si	2.4783475322719237	10.623574178213682	6.908307397085572	14	-1.0028848269558956	0.8557805787268155	-0.5729787910214919
Si	4.35656033426172	5.795142266695137	2.198276513742866	14	0.39644387152427263	-0.5996779199975055	0.8136525038351251
Si	2.061139669552335	8.43150591648754	6.451095735145519	14	-1.1913838708393598	-0.6595954725993004	1.3129274755281881
Si	9.605765133360977	9.898907909714156	9.87602955702283	14	0.07073290713099777	0.0008250676972355185	0.7077725869777031
Si	4.681877182336633	10.408151165032297	6.326719680878452	14	0.9930259236057879	0.7710042943371689	1.233611961728004
Si	5.575854366748422	9.281358976995135	8.339725961807384	14	0.21734401735967362	1.1416265551311944	0.07022794204612068
Si	9.38049110132658	9.478057280158279	7.616470154857277	14	0.48160685015406945	0.30378097867560383	-0.5811618479239272
Si	0.7414851895265854	5.805226511473644	9.003553581742306	14	-1.1248871168338381	-1.1723738894337812	0.968669071576429
Si	1.3980339393868002	3.4288875566142587	9.491106825989498	14	-0.6124840813760991	0.17938164730768721	0.432375325483874
Si	7.485974696545101	6.138439723026001	10.167684129851429	14	-0.3976440634877177	-0.2761685930898735	-1.1055824867585706
Si	9.740369810360429	0.23188209992339595	6.261782919623022	14	0.3676526341492544	1.2461180751157364	0.30379769086018477
Si	10.526641041179753	7.92137418145323	4.152398801482765	14	-0.10346899139871914	-0.6186040833696477	0.8186941842574035