72
config_type=liquid dft_energy=-6935.055427191253 dft_virial="-12.207278581714762 10.827439524272476 -4.1777134092110755 10.827439524272476 -26.221716621013975 3.6942922861452225 -4.1777134092110755 3.6942922861452225 -20.821723631508" pbc="T T T" Lattice="10.914011036500002 0.0 0.0 0.0 10.914011036500002 0.0 0.0 0.0 10.914011036500002" Properties=species:S:1:pos:R:3:Z:I:1:dft_force:R:3
Si	9.303364943777478	3.3584376481297076	9.883488286411598	14	-0.2619953750125572	-0.23162573608150017	-0.006387139836311858
Si	1.2512149672574697	2.6412561548992195	6.2709397193190615	14	0.2525758735616627	-0.7033027203786257	-0.42355643423576605
Si	4.942093391558967	6.187447534889836	8.280449259381514	14	-1.0791085866086016	0.07503745165798967	1.2398389217028705
Si	4.471895968084475	2.568688895517531	7.898295162938467	14	-1.044372182401805	-0.8522339960482032	-0.48221337389909236
Si	3.4554632062441923	9.825709511984368	4.233610365124569	14	-0.3699432318789744	0.6256041747142828	0.17977631197432994
Si	0.6039770051554956	9.48200547642291	4.438291728103091	14	1.3215424781244083	-0.5675473310326791	0.9593233608482227
Si	6.151496782535606	1.9405111622897004	3.9855348942649247	14	0.3777449938624317	0.31937678932655805	0.8415191717370181
Si	7.707998466506053	4.474220652435249	0.5691438475314021	14	1.064232685447289	-0.08743120774323147	0.6787154973125816
Si	5.513409127286632	5.053798294517545	10.372938025354477	14	-1.3598061817199159	1.5916700021540617	-0.07384188768412082
Si	10.182826867109684	6.79079589300963	4.432114397856432	14	-0.01050013701695274	-0.3600701874496057	0.33892875973362413
Si	1.7456305812219564	10.627758355034679	6.597355961398704	14	-0.0216083404421205	0.17855966493683587	0.04425695009677291
Si	4.111166075306076	8.394293308503245	2.395636336522787	14	-0.8169337484446981	0.27231270644124744	-0.7247035726214103
Si	3.9248748209240576	1.4649331313742129	5.350233748279922	14	0.24774116711765626	0.9789712334837304	0.0019609820276769397
Si	2.7275750681868978	4.306024828351747	7.253648187056559	14	0.20934273760337277	0.11586788969460124	-1.1326431131425967
Si	7.843823333855296	5.3501682642137025	4.31680787125581	14	0.8867685684873681	0.9204281937860866	-0.35993906107827817
Si	1.2715695978405421	5.004445136610491	2.372367664992969	14	-1.684823719008347	-1.9594331938320826	-0.8817055478909326
Si	8.035309657490687	7.594820172057548	5.635973471226528	14	0.2488894227536344	-0.3759953566920709	-1.06782760490592
Si	3.605214351676009	8.271085037912197	9.095704055785992	14	-1.7393568628486877	-0.3686319681656988	-3.569299936778961
Si	7.684424202667214	1.4431705933674315	9.525301358204704	14	-0.09593153904217304	0.17748365736035393	-0.004061060853173891
Si	6.903002840475886	7.02541438826127	7.551295096043986	14	1.4248163226293282	0.40737826822979833	1.4000272677956525
Si	1.4264503284595138	8.020259236271356	1.4758798844438221	14	-0.10165533370588668	0.9769655142234828	0.9320354487538952
Si	9.233307906934185	1.8197694581929007	3.6954404809147547	14	0.16288363579989307	0.04943901286953137	0.2318717908606383
Si	6.22716362105166	4.261004532826185	5.474860840305714	14	-0.9556073423290129	-0.7300864387196722	0.7384016504355632
Si	8.470767783836001	0.3184370086108569	1.141889318704849	14	1.2350926612818773	0.48612865308061387	-0.7003122677807615
Si	0.8494265649597585	9.969283327169524	8.872370647946093	14	-0.01586012027786544	1.0330117535447307	-0.648145312166553
Si	10.885776489948576	1.7064165395678117	1.4016427813735493	14	-0.4899770835238116	-0.0014007381784166735	0.19615785241112144
Si	7.33141051569162	8.923764725916971	3.57284339494175	14	0.7635324051662865	0.392735309210491	0.19038392119366487
Si	7.578427327480725	0.13572554984881036	5.1503218081243505	14	-0.05453108695608464	-0.08513752468712737	-0.01805533000020787
Si	6.545110590566978	0.1022839286318707	2.323887627968836	14	-0.6989012451810642	-0.8375180176378035	0.24924963460898714
Si	9.838467990886036	1.5545917320390603	6.233111757066553	14	0.057813874228849704	0.847889342278217	-0.3493527920331005
Si	10.637493652879238	3.5252910488557196	7.881312961765673	14	-1.0189110406374426	-0.5178031279616461	-0.33577272795314234
Si	4.09784006783051	10.722601110941865	1.6795353303849123	14	-0.3360174971796205	-1.285927270119185	-0.7803222371279175
Si	9.531937076914897	9.472161038467988	5.57818378278826	14	-0.8572198834850343	-0.25189838730980374	0.6352157377325922
Si	6.389891525605875	10.50542320532655	7.8890509955905515	14	-0.02936305119821912	0.4605500118031207	0.293347947507507
Si	7.508839593112	3.8844056680007157	7.8586773028759715	14	-0.14688210472941945	0.031739009624567965	-0.3566752999848822
Si	2.672153720143551	4.068132129789157	9.539915218982578	14	0.1365241498366709	-0.06597584806765977	1.3693889483586401
Si	0.13380904951080097	8.122752713915126	10.116382367919472	14	-1.0252400734935192	0.30055167039349784	0.6134685576031839
Si	4.159897134584049	5.850160937817841	6.103922608427502	14	0.281229813912585	-1.112867199462146	-1.2067176858581912
Si	8.962018334599904	9.811772319890757	10.244654739631457	14	0.33394775739690125	-0.31364913800486416	-0.6661538480499342
Si	0.808338587610647	5.476083209541803	8.573665079888123	14	0.4985810303671551	0.6108195477918352	0.625331894660879
Si	4.735785840936008	8.370729958675442	10.85021864199166	14	2.9256478882698986	0.3904724794182287	3.8718244162846087
Si	9.570714558127582	10.206237420782976	3.2065364425237006	14	-0.48548639097164087	0.7107594400281192	-0.3846198723779756
Si	5.969451078446785	10.868390470367432	10.619267254448284	14	-0.3925579029434008	-0.33262878036766524	0.04864119888868942
Si	9.6915217462906	4.426406370084342	2.4166676357901227	14	0.1344631518120402	-0.26018171731972484	0.06374592842349536
Si	1.5622424537756465	7.117779663663169	4.971310199103677	14	-0.0859870178849043	1.1853137482890224	1.725038891541847
Si	3.548854398683523	4.651551503756301	1.3307562796914816	14	0.7132351573408897	1.025167568323491	-0.917898226151061
Si	9.516733859541052	10.58650339331671	7.629253876877706	14	0.3018356803903798	0.01739944103303809	1.4108444220985794
Si	8.590996529414086	6.968148572352755	2.604967068202857	14	-0.1563106050489345	0.2650210517533075	1.4284222978408359
Si	2.588923471979202	6.580602954457675	3.0848015634225794	14	1.823941085670919	0.39065554211702325	-0.16162610818780862
Si	1.4958306966185444	10.333811295788625	2.4563291518967634	14	0.6369831155296621	0.27422792279422575	-0.6987662621517564
Si	5.180466306607164	6.637672318167534	3.470993843949132	14	0.16888536694871473	-0.8839097564818955	0.9161167072747305
Si	6.130389085191013	3.004550840271195	10.852445100243106	14	-0.726974115729633	-2.8737969214995362	0.32962058714309206
Si	4.543742902737754	1.9029014802579214	2.270561770044497	14	-0.12094248026497752	2.0570963723073756	-0.361030495286681
Si	2.2236096945654737	2.745212110021882	1.6991914642616486	14	-0.14092099704465613	-0.1535294404241303	0.23686873405034609
Si	3.7510473671457225	1.7547001243932878	10.261407746572484	14	0.3530153315616514	-0.0182867294790212	0.1773167926250763
Si	3.1338163869875006	8.528513816230124	6.567080494783452	14	-1.8876692734677056	0.3398559003120695	-0.07194261218412742
Si	10.09664983596548	5.656600952085513	10.59644605737096	14	2.649663386320947	-1.1629659579568272	-0.8961441040372881
Si	8.353573133326066	6.667784074617238	0.3927756119837693	14	-2.318139152798818	2.1768504876933803	-0.5587124989315863
Si	10.201304287794478	4.367296086310658	5.264864353952419	14	-0.330678082761269	-0.1962578684080752	-0.38827109904311785
Si	1.8787706018562196	1.6030171990080109	8.74455666469764	14	-0.36891119020346685	0.04006167754588729	-0.5796896330176103
Si	2.1518719000225595	6.883357620610186	10.548380752766215	14	0.7074722818763097	-1.0229492186532672	-1.0137847708501315
Si	5.273235400417414	8.017454335434975	6.184478923887909	14	0.9327556153540687	0.24508470110087932	-1.2587239473898904
Si	6.988022986450221	8.531962643717657	9.754473761949132	14	0.3105072473036432	-0.2018024570309745	-0.5740565983716979
Si	1.4820026446352987	0.40760120457575094	0.026226368520709507	14	0.26538666292983254	-0.03250802722582425	-0.5440746821229191
H	0.5275691052900626	9.347304752210427	0.6415921441927928	1	-0.2231115208138298	-0.6119572618960007	-0.5506106889572676
H	4.121752666011481	9.660602353024196	8.279914472840726	1	-0.031732067640203566	-0.47649986365665936	0.588658676816415
H	7.551185955933621	2.4455461089927013	3.1829621786848605	1	0.3361743346041494	-0.010146352924900364	0.2969441525187981
H	4.232442565943664	3.0175275993935937	4.5927031562474925	1	-0.5911354225713135	-0.8272284541465711	0.621335111440709
H	6.060997803020947	8.001498051299611	0.9108604416831135	1	-0.5312152988641986	-0.03726842872607842	-0.42110925619204914
H	5.5923501691136375	3.672553799771214	8.112875533927093	1	0.6127558472084388	0.05943855568065128	0.08063294816622794
H	4.992308756337904	0.49933783294194806	8.199412727435503	1	0.62288188840131	-0.04934182508842977	-0.3872434282466547
H	5.871814335714257	8.385409303519536	3.6287667874927756	1	-0.3925463329694601	-0.17013003903419838	0.0007782735804088234
