72
config_type=liquid dft_energy=-6930.227581176877 dft_virial="-47.959262541057754 8.078660340194197 -2.461487522479636 8.078660340194197 -46.047569056161024 -8.921236262851382 -2.4614875224796355 -8.921236262851382 -41.77772283175205" pbc="T T T" Lattice="11.2999927403 0.0 0.0 0.0 11.2999927403 0.0 0.0 0.0 11.2999927403" Properties=species:S:1:pos:R:3:Z:I:1:dft_force:R:3
Si	9.39181946620924	1.8964325816335879	3.817487847448289	14	-0.13203448572662832	-0.7277781003632433	0.2169663219881439
Si	5.524702050645554	5.009806581441044	3.580798199509965	14	0.012991538072176229	-0.47161399221678196	0.17483593310166543
Si	4.081207078021411	7.90731681993055	2.0350269925933673	14	0.0976585504857165	0.9700849792762348	2.498601692783095
Si	0.6082989491972816	7.497002783537517	7.495601584437719	14	0.2752627926855854	-0.3674613439134354	1.6456447019188662
Si	1.5546417012177338	9.89988973979861	5.426403413797684	14	1.5546679399391508	-0.023491417978596954	0.83860225275131
Si	3.9532007602592927	1.0193825150959293	0.8820898632998323	14	0.18125418331235107	0.01564671853629315	-0.0834521651497703
Si	6.930884447241227	0.4005045126951789	8.23724270796909	14	0.07144998840478706	-0.14167124557707533	0.07889051009076357
Si	2.816218090715787	10.238268022406894	8.135621873255571	14	0.5306745954153713	-0.809759079048825	-0.7025653273728072
Si	10.315932872510976	9.436228437678619	6.262342976746857	14	0.8810501731448267	-1.0507570082433288	-0.5902319361618135
Si	8.255232296411645	7.576554732429227	11.273901057062648	14	-1.018881730036793	-0.8652245056782513	2.6342372686211233
Si	5.329370376136728	3.2175486328802823	5.923783894254728	14	-0.35166730104229776	-0.007343591015406943	0.08944464031943943
Si	8.19061893792261	7.156601802228718	4.421020459707712	14	0.6064615242741843	-0.05426240645012917	0.49843781980082286
Si	10.122363996869636	3.5313494312784126	7.979907973294236	14	-0.7761161659346872	-1.5223059514955108	0.9329391922739273
Si	2.642469402340934	7.307411505340762	0.431698142654777	14	-0.8225953223596643	-0.8056797633478778	-1.341953711929468
Si	7.527761363776613	1.9460960497272066	0.21781188006637864	14	0.32312083289375765	-0.11214595763315488	-0.2718393659518082
Si	0.04864081875062135	7.967715281127452	2.3183969105418702	14	0.08895407342435518	1.1531078259383156	0.5305516965810684
Si	0.8290895073500033	1.4492353689362154	7.553254147398729	14	-0.03029713376102892	0.11143016191202564	-0.5061272244817896
Si	9.634916210031314	3.873456711490995	5.083053134383668	14	-0.2622458006707397	0.33473991494603883	-0.12132171829969936
Si	5.7803869863803214	5.2033528570969025	1.0314000573752384	14	0.5755720078473933	-0.22811437754577393	0.10353044081587069
Si	5.123744408241489	4.1428259384342665	8.361712128003493	14	-0.031766006230429515	0.5214386708843355	0.2619627219749913
Si	0.2644989300722021	6.905493363553773	10.229465328062199	14	-0.14486455838469928	-0.5294078118241344	-1.6978854482557633
Si	0.08176900746735886	0.5384164040934443	10.761796686064992	14	-0.08862394350124816	0.24481473504226378	-0.21958756386203485
Si	9.40043006067735	10.592997394510391	4.360181298793937	14	-0.7320916437588557	0.5442847414275753	-0.41338925535777254
Si	8.883398892844923	10.888786004480483	9.439799235384555	14	0.4020324260481465	0.04168044545545252	0.3707842404291948
Si	5.57843351612568	1.3217036508691895	10.118996599033027	14	-0.16142427642017698	0.8575870373247513	0.30623946958272946
Si	0.18284744252934237	10.847665330898533	1.730706888104348	14	-0.11308518240660498	0.17994394804120362	-0.04684245360671382
Si	5.662923561844904	7.668005573676476	0.3564921709709844	14	1.1123750899038696	-0.596248836832024	-1.5140380481175106
Si	9.87281495719285	2.418605246162851	10.651045457217313	14	-0.31380109032928494	0.5921219556826544	-0.14415776153219056
Si	7.417111834863595	10.639474264651245	0.5912822901296638	14	-0.1856682569259813	0.6261366506260854	-0.5479711922356036
Si	1.9441863509540958	9.89991233978409	3.0930453128676563	14	0.3752435654964596	-0.1838972795814633	-0.6470459075316577
Si	0.5160017384937852	8.689502317414115	0.2961095297639173	14	0.979553845949276	1.0002730981716892	-0.9305033270936189
Si	4.4032342711344805	6.407954683198363	9.786110112896528	14	-0.7788003998889219	-0.9599118868560048	0.8877892972994669
Si	9.966130297242248	5.983052356177603	1.3203815517185744	14	-1.3871642849894836	-0.0008836888985348948	-0.5515812812156236
Si	11.145759139387646	1.8856071885883803	2.297853523740005	14	0.8070262512040395	0.30159373937975387	-0.4784796147531733
Si	0.01874216795906158	4.975624103401636	6.784978940978473	14	0.6365560549359854	1.1975794633293209	-1.5841963132094554
Si	10.74056399970597	6.254489481792349	3.57493350327775	14	-0.8259830107294912	-0.9257524386830494	1.6731748121343522
Si	3.4358531926301374	4.93054843236058	1.0591957795178284	14	-1.1671015808642855	0.09030030416998472	0.3585843456850921
Si	3.3730591329722905	1.230230209636461	6.653424425495899	14	0.07232262155044532	-0.1143599364243344	0.3792557753485507
Si	10.960088958671777	4.706932876022783	10.834557339319783	14	-1.1516165848526296	-0.18371293133000868	-0.27420863950432467
Si	5.250665926700538	7.884298734718557	8.269628487162787	14	-0.6210882853299746	1.3398142951925727	-1.7107646290254492
Si	3.085745517557423	4.288821844638942	5.449794398770106	14	0.4233528026944104	-0.07738872747326508	0.19177103251388478
Si	1.9369769555857843	2.102962548948051	11.264974062797812	14	0.7854122543302147	-0.5389406990196475	-0.39294382585195503
Si	9.234116767525613	8.49795614047329	9.58013384522634	14	1.083494635174242	0.4410836592032155	-2.260808389259624
Si	4.968448608011546	10.370048537744271	9.94395971148578	14	-0.4102342520194188	-1.3230656009160642	-0.3029104024142017
Si	1.57333188921019	1.9733403322240697	4.810666809378738	14	0.19737372811701948	-0.29463144328332486	0.1823402181995816
Si	3.5431692236847665	0.39479688636205335	4.0091018243455565	14	-0.7724520837429443	0.44467343645120627	0.5718850428183008
Si	2.0450161861757925	5.758397200507698	8.582920785887605	14	-0.04775828132175057	0.3599467743942386	0.09586777563023335
Si	6.98034451546552	9.62348061737813	4.305059934206754	14	-0.2521668107052272	-0.007969398050330985	0.6609463313345062
Si	4.986856296185495	5.754600402946957	6.509451217991737	14	-0.5280584957521207	0.23612491328122728	-0.1453898352016055
Si	7.60603641348867	1.1958443317277283	2.470822512615777	14	-1.0738090243227123	0.20230845055797966	-0.24390482086946338
Si	8.367249124446241	9.26827664557954	2.2879208301212817	14	1.2849335379129478	0.10132494667224766	-0.4146861208812552
Si	0.9108596448166362	4.349412405712432	4.438671048368061	14	-0.6360017246289615	0.12664082098602167	0.012918775791616039
Si	0.9779872516903884	3.97268194774357	1.1978896304137225	14	1.4034586649559222	-0.8884459575982326	1.0719205474650637
Si	8.405070200148025	8.322851452969601	6.852349497696141	14	-1.3398430915721584	-0.2216483047761335	0.2987205291844883
Si	9.819094791705465	0.1572766889573175	7.187269982525893	14	-0.1575853590666639	0.8290598524661125	0.43555064055425696
Si	7.989964966833103	4.360226498764899	2.72780694751568	14	0.08909574132749534	0.377629551233557	0.413657678753196
Si	3.3124120719351002	6.291406558074908	3.997270731946463	14	0.2914409586915531	-0.14491495204897417	-0.024058860922753635
Si	6.095611583863731	9.883188350528446	6.987689510746715	14	0.5399956235325042	-0.9707089865374348	-0.23723434522687115
Si	6.69333599985464	7.634320295317641	2.6028855277716634	14	-0.48711724307621074	-0.3729015456603367	0.580949731735015
Si	4.678852394063138	10.369054138383126	2.361009183165542	14	-0.010501936790676843	0.16789497717939367	-0.10252051064611652
Si	0.7293467314299232	7.642399790126956	5.2516942260399055	14	0.33616790684084913	-0.22682522533825164	-0.8959031914687902
Si	7.416388635328215	0.699961100308773	5.731254617945497	14	0.9166576678340896	1.2842794487195022	0.8124836793565858
Si	5.014247478587982	2.947331906481488	1.9369543556003037	14	0.38972711598591775	0.06763935320979558	0.08009892959123317
Si	3.4264741986556886	2.630977309724049	8.958871544357386	14	-0.09181957030366021	-0.7425701834911191	0.30336188850841966
H	7.935103502078947	2.3336971007122367	6.333544231003487	1	-0.24746991550638064	-0.7579528495110331	-0.7022881622192952
H	0.23811570702214965	10.16053537234637	4.800700215781792	1	-0.9275262442434196	1.076074168109763	-0.82179339461031
H	10.002990873561107	1.9912847206956659	7.449260314209749	1	-0.2701637766146677	-0.08477602727911455	-0.263953014603318
H	1.9685265353167019	3.0524783389299794	8.648483343766825	1	-0.4743349929770946	0.22214607076611415	-0.35589702640447335
H	3.525529935017158	8.56730419592051	7.402907743989037	1	0.6445575918028184	0.6176162647056467	0.7476427171772394
H	1.6944113114225043	8.866629703618317	8.191635937269238	1	-0.2844948605586411	0.3298373313215805	0.04599450307212899
H	0.4365786095193126	4.890444758125255	8.312014759931653	1	0.9096244092308243	-0.25881671750525814	1.1043637828368202
H	4.804632613255417	9.126868536427427	0.06186294025604638	1	0.22873401392792958	0.5864817219418456	-0.5485116385738987
