72
config_type=liquid dft_energy=-6933.170377869787 dft_virial="-38.827382297542066 -10.105611852246856 0.8346270931981542 -10.105611852246858 -31.592622684914893 -1.1181353439035588 0.8346270931981541 -1.1181353439035588 -38.51737794863989" pbc="T T T" Lattice="11.2999927403 0.0 0.0 0.0 11.2999927403 0.0 0.0 0.0 11.2999927403" Properties=species:S:1:pos:R:3:Z:I:1:dft_force:R:3
Si	9.42191134687666	10.542068327229858	3.6347217648666774	14	0.48757772803904936	0.3005419001932813	0.536674526790469
Si	9.275553840904294	2.719230253025792	9.718389256403912	14	0.1875402787095811	-0.09927937527953785	-0.1948219060867725
Si	3.6898770294320813	4.240570875637862	10.979095546460961	14	0.38252596420524704	0.9985239752223926	-0.4795625643140197
Si	8.636358451556484	9.798449704968936	1.4009052999859524	14	1.0439116974389664	-0.32686564779255334	-0.4239318156125077
Si	7.644365988863768	2.2989270230503336	1.2279363111101802	14	1.2741130411731048	-2.0265925216786065	1.905562880943276
Si	8.534409917053498	5.89369201358731	8.109699689909322	14	0.33616842106191314	2.13464836496847	0.12073550628670558
Si	1.4207141872596982	9.094708757088533	5.768702793886852	14	-0.23030058839949583	0.2542314082773061	-0.14779304734434792
Si	11.242249777397069	9.351975691806944	7.9233402096362955	14	-0.20039503397872543	-0.7218298482050808	-0.1349706880022374
Si	7.069840457968696	10.51121934704884	4.763014739992892	14	-0.44494571650461	-0.7785144929773214	0.5023942366674667
Si	9.878905653279872	7.6779382672951995	1.728096589781339	14	0.9072322528409588	1.0428367183046128	0.03610114691073119
Si	10.853869026912957	3.126956591081297	2.209634480416483	14	0.45244614494454594	-0.9894651998479148	-0.2815038937397128
Si	0.3040635946538145	1.6173114609554375	9.25167695624404	14	0.07547428245188283	1.1948708038745448	1.5435432814399341
Si	8.83097822652267	6.9841300130335195	4.061838890464537	14	-0.04421709796431062	0.03404734798099691	0.11814897433463663
Si	3.553011517361568	10.876028312676684	5.142039096488035	14	1.0576393429643012	-1.311240316217107	0.2776559775175792
Si	3.4079761105398174	7.427078428460539	4.604995641512537	14	-0.6002870148478486	-0.49663701763459106	0.05045717057631001
Si	6.341635025805543	7.172692991890906	1.7558041719805542	14	-2.819589022482194	0.18347458986683093	-1.0934111312835215
Si	5.038022663313573	0.5927512891859028	11.10144056786019	14	-0.22362291366200723	-0.6266400730477704	-0.21887253947250163
Si	9.058605280283274	8.210021025457705	7.123899623238291	14	0.6099011489714784	-0.11518783233742207	-0.13987095763190766
Si	2.8868204453571815	4.1783079156388085	5.943954381296164	14	-0.43892701606067536	-0.030550644745595518	0.888867618870737
Si	6.421921474225375	1.714061998797886	4.819729403556457	14	-0.9028552031439386	-0.9034506711360849	0.35090291143061775
Si	3.2368942204516755	0.849533454215754	9.240083163692493	14	-0.41991780598669254	0.3029178586196301	0.42191375504672346
Si	9.727666550443697	4.881529063853158	5.056904951182615	14	-0.742149293550211	-0.24678163061217703	-0.9890311972698738
Si	8.239401006582485	6.189039923840531	1.6642403308059033	14	1.0934844077851458	-2.3565792342192875	-0.12522131373876794
Si	5.855554538088797	3.4237961003762374	8.327088950247214	14	0.24850401406614422	-0.5420620208783071	-0.7027429907504293
Si	4.138204241403484	6.2895307592800185	0.8969267537678463	14	-0.07296308388569421	0.6343323059445894	0.48916230024785656
Si	4.509872302624691	10.411869810876123	2.802703299398388	14	0.44805469705773304	0.8481901616006744	-0.0969170437113858
Si	3.8169906477677165	6.120313367994027	7.672548170758076	14	0.5183116925939715	0.2840215200692018	-1.0402445299208394
Si	2.2327316655776563	5.846830943693286	9.308256019894722	14	-0.5552834157661046	-0.8078122381004088	0.8719145217212766
Si	0.6065282403348766	4.437089049384419	7.489386588430554	14	0.46335380215474214	0.6772168000214674	0.25349607215574377
Si	1.907732574373888	1.0436243895216948	5.366434352324912	14	-1.2985958773631505	1.202011020459128	0.24778359035543873
Si	6.762638855330899	9.237529365333184	2.6286608112122876	14	-1.0310754541281273	1.124121184558966	0.914739366154727
Si	9.398667261809862	4.074257582486126	7.231769353937194	14	0.7394493758535234	-1.809058756746306	0.07160451183452794
Si	6.738264770990073	4.226457184705227	0.7857596851873229	14	-0.8712501481065503	1.9870905737609152	-0.04606983645800932
Si	0.36964310252214555	4.7504491480656785	3.7359131998560637	14	-0.37811214770214885	1.19294710287401	0.9581339675271223
Si	2.40651425393073	1.0524926238242824	2.134534728664449	14	0.7450644127621948	0.5139544404079165	-0.9114069565492832
Si	1.196522331292146	8.803361044265378	11.003876430540439	14	0.9628290629522448	0.3327771331446378	0.13644804511919453
Si	1.6963436101810958	6.715020685923275	6.218736304762039	14	0.4948012484360053	-0.49595284650889965	0.5272678808661752
Si	6.531079404096673	7.626726700196159	10.186084655932188	14	-0.644880008409965	-0.4703515795045892	-0.38946563457485867
Si	1.8627247032892729	3.3153274700620976	2.978079186727844	14	1.4442947594242381	-0.7496546070902552	-0.4942302059444005
Si	11.178020618661202	6.754118660804713	8.895535085048005	14	0.12780784569083692	-0.5576907416773593	0.17436027861743802
Si	3.6528582532148586	2.5650870520553597	7.660061678780044	14	0.5469862017874548	0.6030517243986039	-0.23047722333499002
Si	5.094601726964255	1.7884724509927616	2.0272751975735215	14	-0.5604425957015139	-0.8431993890637347	0.27344116456626044
Si	7.717397841944327	2.3178658108830765	6.858609693674267	14	-0.1978658376752958	0.12657628624248599	0.1933329789958747
Si	6.287564560543206	5.737051514221272	8.281787279351352	14	-1.3002192732622921	0.652695654362151	0.7668835838405675
Si	0.21120703430967327	0.4261023862497805	7.346520780214941	14	0.5653562350788488	-0.19946789340028007	-1.668871810270552
Si	9.803738101571398	0.9573794549299033	2.0135344064013165	14	-0.5033884830947679	0.12010224304635311	0.3450991553914475
Si	9.335409902449662	4.054459995205121	0.6490535030144475	14	0.1837900644896131	0.5449012924833467	-2.097891843311633
Si	3.186948252539549	10.16998216627726	7.748506721958373	14	-3.5086557898136923	0.40066536934942376	-1.679254190663842
Si	0.678748753936682	6.770062950561277	0.8827509128751398	14	-1.0949764202024275	-0.27637119618910116	-0.48487575345810574
Si	11.162279728773965	10.724529310007481	10.130296591773327	14	0.22848178849602307	-0.626353394804574	-0.0992870885954983
Si	3.858981420790671	2.4180515465185763	4.383165484027708	14	0.20808135333330816	-0.11278564863680772	-0.021747694350472527
Si	5.6081637970254095	2.7577406282847345	10.532169533589355	14	-0.49426568719781844	1.2316815758536368	-0.3303286695482608
Si	1.1255086569150048	10.910402890592678	3.543372623554092	14	-0.6035302070986834	-0.5275717855150167	0.1925773311422832
Si	9.661414693007318	10.811211554318323	6.088277888575276	14	-0.6715788802754465	0.04946061015422061	-0.18167173081634314
Si	4.704435577627177	8.781032258610544	8.589813781459188	14	0.919041853797463	-1.8892993542406793	1.1178872825997352
Si	8.85348781206135	10.348567251544962	10.342374855523277	14	-0.09542117463612364	0.9162180088243442	1.11456747141036
Si	7.474990397679411	1.0667294846777862	10.585482899338091	14	0.665699533739864	-0.6750326460520015	-0.7104041132728747
Si	1.862159703652258	2.901420035977649	11.142798541289688	14	-0.9532663509350179	-1.410903043299879	0.6175255046878455
Si	4.048267599183436	8.637917850554647	11.23821567998878	14	-0.42298719151788533	-0.3077553932794887	-0.5917074935050465
Si	7.741873626219817	9.202770587664022	8.752262477093742	14	-1.172231193088513	-0.7763956450829873	0.0077236003817248286
Si	2.4689241138354068	9.508864791013268	1.9220722651613285	14	-0.3235892882830887	-0.014291746032575114	-0.14466092684334356
Si	11.269505359886672	7.30732110539884	4.0611156909291575	14	0.2300833299999433	0.7362442359614269	-1.212826374988331
Si	2.0408351888618816	6.4494821565189655	2.7802276138379316	14	0.7236388779083369	0.24813377490004293	-0.22064223126435956
Si	8.197613633428857	2.8262863842473944	3.827816040812924	14	1.5534366376013318	-0.22454542625087637	0.2629140309434462
H	9.914127730651389	4.467666829739671	2.0986459517212563	1	-0.24737555594113125	0.43604660677051343	1.0773401803694038
H	9.104709250663698	1.6379000477282641	5.265480217183072	1	-0.5318495905466791	0.28730764977888307	-0.4924574288261583
H	6.301779951410504	9.301589024177947	5.696066440552204	1	0.8496070977426078	1.409792840022639	-0.7063883038733354
H	3.982919741166281	8.921219968546707	4.506493604795342	1	-0.013721474872566268	-0.12601629950375773	0.05087266119604593
H	10.91651618666518	5.069719142950115	0.48713025704231866	1	-0.029543799902225533	0.429858470485981	-0.06986618752757584
H	11.256329568351482	6.952817733150148	5.535007644024708	1	0.04772742805790879	-0.5165322306018969	1.3015904437295271
H	10.166332268622144	6.011528337883158	9.98161128729646	1	0.659813759440981	0.5732207320321179	-0.5999399156296286
H	4.514799099459462	10.469996973532224	8.18275414297536	1	3.1620461100466573	0.9800063604856221	0.7337435789270509
