72
config_type=liquid dft_energy=-6933.519798317367 dft_virial="-25.89585497509551 -3.690711388937328 3.1010569820372496 -3.6907113889373275 -8.460466469853744 6.13288328472186 3.10105698203725 6.13288328472186 -10.082612905030274" pbc="T T T" Lattice="10.914011036500002 0.0 0.0 0.0 10.914011036500002 0.0 0.0 0.0 10.914011036500002" Properties=species:S:1:pos:R:3:Z:I:1:dft_force:R:3
Si	1.8593109201781404	3.80356558825336	1.069000095997584	14	1.186122875133273	-0.8687050109501357	-0.560547496798576
Si	6.809688046113812	5.529278099333704	10.89926620758969	14	0.08099933067434904	0.676793338975239	-0.9125760381383545
Si	9.529896156851072	10.411311688158811	10.505194011094785	14	0.3700956984244591	-1.0930763733708382	1.2718373558542417
Si	5.313966489605631	9.49441470697141	0.045251672559536306	14	0.11780161800588461	0.13790354784093034	0.7710438893590992
Si	5.042644175238242	2.440973138368408	10.725416925789283	14	-0.30379769086018477	0.5869571193155408	-0.562147238528772
Si	6.748002055735513	4.374510247605785	2.027092011842255	14	0.2281213195301383	0.27637222463122924	1.179891801389894
Si	9.261717077662194	3.159027752481816	10.367120857472024	14	0.7034662426769871	1.009628836210644	0.3616570736532011
Si	7.601979763297492	6.904978276473492	3.7197132414599308	14	-0.13876281123892384	-0.14017383383862111	-0.2530003630500192
Si	2.313813995782146	8.792272720949219	9.23073220032957	14	0.46887396527710007	-0.07310243779404622	-0.5664893211934381
Si	8.850346173674435	8.7187995986515	8.823104802127332	14	0.059427242817242626	-0.2703216424813248	0.11981582191368863
Si	2.6060475552954703	3.2926261615796126	3.890572084236338	14	-0.23671703883645734	0.875654451519964	0.033141290466176726
Si	4.079384475167789	1.4310123850727707	3.6807065660154796	14	0.20545059836973262	-0.19160699599445932	-1.7699897829645277
Si	8.807803358654159	3.3972478713755017	4.969149224918451	14	0.19901023665329368	2.002709267249219	1.6057925694565713
Si	6.092277358651557	10.704953155095843	3.9141136060420685	14	0.0785974040842667	1.127593205183294	1.0981895305210165
Si	10.339541151582788	10.903500843871852	7.989569037236716	14	0.7408447147107678	-1.172457193246154	-0.7968079073301749
Si	6.4952990441963925	7.8452639833121145	9.41758006927445	14	-0.1309438228498215	0.6045661054321712	-0.3898145335668028
Si	3.52394862549823	7.768953218144906	5.461316552609419	14	-0.8302207065181594	2.780934253767492	-1.0807785195140378
Si	9.354769935759391	8.238113810570932	2.564366947147077	14	0.6368579027005709	-1.2694626829805526	-2.377650213649497
Si	0.4586143835614556	5.267090812203865	8.240525807009996	14	0.08351669989330603	-0.4029346269049864	0.20525519436540135
Si	3.12431028337471	5.705353839385558	4.6392077572740185	14	-0.6692846829982785	-1.9470826323162196	-0.0282618467895997
Si	10.350531560696542	4.077027048783904	2.725937966531423	14	-1.2218008181083078	1.2496852266369096	-0.40291354384136124
Si	6.942577044494235	7.857236653419154	0.9531827936804532	14	0.46379808915406373	-0.332397637999384	-0.368531952168745
Si	0.04822901477029351	2.4941134581051263	1.2909310534192933	14	-1.3638096498139185	-1.716875889260909	-1.1063903280501608
Si	1.3274493343474223	7.083869831372764	6.978276774594627	14	0.5118656744458282	1.367427194999367	-0.19065774391026066
Si	4.669908870319693	9.835706746093802	8.728262046220147	14	-0.3504128587565975	0.22250448284774282	-0.7147479957112649
Si	3.8172190160600215	3.8968367265712893	9.058825612493658	14	-0.6474318304402119	-2.2998727350518258	-0.006597456251499971
Si	3.826092107032696	7.855850574017518	2.045656744615341	14	0.17688356137863134	0.013666710329247113	-0.016112088599239953
Si	0.4571268038571807	5.581719922364086	0.9555173006411606	14	-1.4104446152212964	0.9398883757332235	-0.14891713459031666
Si	9.57907469058154	2.312919046877153	7.180949959542431	14	0.9520587027661443	0.5093986988911461	-0.9952213904386623
Si	1.1090054034518746	2.252706447988783	6.849284078154233	14	0.01785246979044819	-0.3848882957733991	0.7342099774321258
Si	2.5856929247123976	6.002444133810125	9.232085537698095	14	0.1314475023820385	1.184474282401994	0.44942586752496805
Si	4.492534362954496	3.2325445308236795	6.794091924342653	14	0.3127852466172944	-0.1930907808747168	-0.16257690293519939
Si	9.216969632412544	5.536186668319808	9.10063718877449	14	-0.6249570275052014	-0.161632535951109	0.7657700381264114
Si	8.772802125260103	1.6903947713662297	3.6324229811900035	14	-0.5529943606995769	-2.024161798708939	-2.0489233427156885
Si	4.833640863889267	5.508716102540938	3.1537781131732596	14	1.022455566431799	-0.44207302053040853	-1.0127640420380326
Si	6.303921860671364	3.8989867867454797	4.83232026855385	14	-0.1801144123239294	0.17782175770995337	0.2767000405595481
Si	1.3451736882706982	7.179378341953175	4.156426479074442	14	-0.4358550594241624	-0.8588754182006777	1.7373318602985393
Si	5.721342865554031	5.647465924847962	6.737546433162547	14	0.9906227114630455	-0.8310054078618686	-1.6671903073911756
Si	0.9885321840265731	7.674590678723327	2.0661096012977422	14	-1.0354399054090786	1.0020517888321678	-2.0297740074017576
Si	6.431353853533539	1.9748248129884562	2.2459943312013353	14	0.8371660333194754	-0.8301939670228298	0.5596769205371738
Si	1.2421672521082112	0.01574346092015125	10.07154761058153	14	-0.533447532503151	0.33366262181689677	-1.0023986309398556
Si	3.6000738524778173	5.911595905942299	0.6415855957861708	14	0.7359390457599254	-0.3838164019654293	-0.2607093081314191
Si	3.328238579591712	1.1710842982274865	8.351783235516079	14	-0.34882494411087406	-0.03490018361569002	-0.08360720280057522
Si	1.482864851507182	3.3172918265221023	9.293138515436278	14	-0.10528727708112788	-0.37232870339500773	-0.12233293402211359
Si	5.07835481934967	5.716453388609679	8.857112860517066	14	0.7736360777428724	2.009112090827984	1.5849424479733625
Si	10.809258358571675	0.27341562168419076	2.1199375037297603	14	-0.5388216568433246	-0.057897178041222505	-0.12423863728540734
Si	2.0409418918475732	9.4521010861829	4.173474164313455	14	0.7606183143964307	0.5969664323268774	-0.1632942413195207
Si	8.810651915534685	1.2818287682148521	9.13472164524148	14	-0.6875963521989051	0.4509505329798158	1.0328420605936008
Si	10.511076663043458	5.900288990508485	5.813817281066295	14	-1.5532036954593265	2.7700787899952943	1.049541903869027
Si	7.913825800643406	0.45683649116360975	5.5545112928500915	14	-0.29471474709569767	-0.2220825644647065	-0.16333486478357903
Si	9.198819632058843	9.74048199980034	4.155749810390178	14	-0.49342416442653403	2.0569948136472296	1.157268645677911
Si	2.3545450849703644	0.14207641287094971	2.3354237376344162	14	0.018068185526808608	0.14780615998148067	1.0067026612457834
Si	8.346053379721916	5.7043497503702	6.827565196191598	14	-0.6527182800889683	-0.39310349149233625	0.22637682457041786
Si	1.7083374055102358	10.693788121805504	6.777393487456807	14	0.17604666659692317	0.7921400656214461	0.38268614406669227
Si	0.46670930554722767	4.336944221618151	4.666962087339838	14	1.2907064406882762	-2.0824101897368936	-0.5419473495810286
Si	4.09209929802531	3.3865303125376585	1.8496083643666918	14	0.12672155369307436	0.5857317305199583	0.032526539184129316
Si	0.13539267251219714	9.433187105056644	5.498205909912788	14	-0.026609140289808517	-0.7660153215739536	0.8236399624512404
Si	2.3788615015596863	9.392674296089156	0.674754366727198	14	0.2656124059769415	-1.0196808295702948	0.6177494479612303
Si	4.86462574122189	9.712542131546899	6.166328923534209	14	0.5371470959483122	-0.4239243594070793	-0.4309414200468274
Si	7.32351968571223	0.06963684741838826	0.755586806666828	14	0.4555738945665061	-0.5668708732229482	1.5242198822958293
Si	7.232005703171178	2.207871690650841	7.59210258330946	14	-1.4672519017173082	-0.18028847615410346	-0.49885408175215484
Si	6.277739148194802	7.581832498924113	5.604399237297933	14	0.22384325738794392	0.9730857162953795	-0.2728624087586951
Si	5.926406218918829	8.715208889020492	2.903683550271862	14	-0.28924960562719093	-1.621569385922064	-0.13795368439467326
Si	6.443773998093075	0.804939964573881	9.784858368674747	14	-1.1428953956066874	-0.00895310294581964	-2.301163687033072
H	9.291294047571109	8.653708436829815	0.6945458343407871	1	-0.05971777771841935	0.1836419688231726	0.855772608300323
H	4.435945215730243	1.120847105426477	5.074371205321347	1	-0.036442589697246855	0.010071019539020024	1.1509411554850268
H	6.204145971775682	3.513372948803861	10.038510899174044	1	0.0883694040745535	-0.5790810523883314	0.4170191418487576
H	4.090134776038741	6.9960884406061945	6.480172224899803	1	1.0081255109299534	-1.5186647521411172	2.7706819713034014
H	9.335768642544846	7.287667159457328	5.465780383123347	1	0.5215487141920379	-0.5311075695512844	-0.20026647871271805
H	1.8721021411129182	3.456390897182295	6.248107608230703	1	0.27042962890477096	0.01979931073886431	-0.00029387733809292546
H	2.096745230277198	5.614167277175601	1.4803218869356778	1	0.44257721428368957	0.23855923579834348	0.3854619093703241
H	5.315396225051413	4.225523082946523	10.642917916364377	1	0.09210830543111284	0.3520539952824481	0.2854682810328491
