72
config_type=liquid dft_energy=-6934.5938276276065 dft_virial="-16.675319400135187 -2.954314948939498 0.05564180621321028 -2.9543149489394978 -24.48636914854204 6.013289485756224 0.05564180621321028 6.013289485756224 -24.202860897836636" pbc="T T T" Lattice="11.2999927403 0.0 0.0 0.0 11.2999927403 0.0 0.0 0.0 11.2999927403" Properties=species:S:1:pos:R:3:Z:I:1:dft_force:R:3
Si	7.99927616085111	1.6607486330491505	2.2913899278925536	14	0.9137242937743326	-0.5855460967158437	0.4760800021578791
Si	4.3522261039047665	5.703569635731762	10.704019823183838	14	-0.40545405300819953	-1.570383821208556	-0.300814951578281
Si	8.454360768481212	7.7284266348588595	2.421656244202732	14	1.0121117526183112	-0.14965375626453908	0.1553212437217415
Si	6.225719700275545	9.904680936720496	8.558298101706493	14	1.0654501038163788	1.0478848264901914	1.2069732537270137
Si	6.09935188146077	1.0550543321785084	8.252181298371765	14	0.46207056348945624	-0.40157914018020435	-1.5205899958048439
Si	3.069665627887976	3.5656675092307037	8.609362768899908	14	1.5910182269554045	-0.7005932895922536	0.6619830009995898
Si	6.67564021122333	5.756069402003197	3.9891686371516673	14	-0.12859357547667413	-0.1462197879989493	0.32831060898247655
Si	9.784008314246833	6.640949233510608	10.466234075949705	14	1.3907067538995839	-1.9372093307763185	-1.634989784361641
Si	1.4628857601664977	0.9232218368745243	9.063441677176122	14	-0.5086715903066081	0.009359594696935052	0.4624037787389475
Si	0.5011478980366608	5.2907470009503825	1.233462007560187	14	-0.32935242085820055	0.1679232593379153	0.9173186990118997
Si	11.04042060706257	9.209516683329982	1.2469767988775857	14	-0.7109849259646961	-0.18564717386235607	-0.3457007940363621
Si	1.6405329460367541	10.472889771673742	1.9018791781344127	14	0.1264240768075332	-0.1338234608083874	0.13692987025619027
Si	10.899249797758001	8.753618476222577	9.882894550717198	14	0.2761984179115872	1.5740980399540418	0.12013335342072691
Si	0.3988016037892157	6.0862212898965415	5.291357200558359	14	0.3576507773433464	0.9676375441219857	0.7954819883165746
Si	6.333318231148682	4.1205762527286165	6.325340436274029	14	1.1944272882068192	-0.8500817237847071	0.8664673779900108
Si	2.127212333368735	6.27034337160699	10.999718033212009	14	-0.043484332948068416	0.7413016001261582	0.8731136852425937
Si	4.314687528021489	1.9865839237157012	6.900928166486691	14	-0.06452291645124411	0.20565063036364015	-0.11149135421864519
Si	7.235961651243846	0.46622753047131177	4.241226275216799	14	-0.002546679819606672	-0.3508165222918607	0.36067568275250056
Si	10.091040416993524	3.430530896049456	0.26648885879376893	14	1.964198994653509	-0.014156763003267337	-2.4736262328137086
Si	8.737188286778181	3.915131084717222	1.8606229046395772	14	-1.1712847692201664	0.706296001192342	2.0482227165159483
Si	7.4434747179267156	7.691645158489183	5.587699510172726	14	0.051603369328032014	-0.1900059687116031	0.09433128309091286
Si	4.355085002068062	6.500298223872094	3.8190133464682297	14	0.017397898369846006	0.3501158960921204	0.640019848023289
Si	10.623349175010835	11.039866907418293	8.525946222491013	14	-0.5963390826287612	0.0278538123752922	0.20074753251811775
Si	2.89996233691415	4.651303011762286	3.2258315275589218	14	-0.7861619886415698	1.1911460435972463	-0.24029421766837938
Si	7.489827288147425	5.918269497797462	7.617618906047478	14	-0.8804565049264047	-0.5603497787994566	-0.22838434360438944
Si	9.778561717746008	4.949521120171544	5.814490364470548	14	-0.7292379739640233	0.30143278818671254	-0.45725976832492726
Si	5.364626353486464	8.886393390921102	1.7028863059777295	14	-0.7570871583497393	0.6919047533838772	-0.3848088486190065
Si	10.86906751714866	1.163481152519509	10.95989685879519	14	0.5561989863706095	0.3053238989782247	0.8283983070672384
Si	4.972652205310937	0.22044929837196464	2.1848987963079662	14	1.0762505459347251	-0.46216260905991763	0.63840442255064
Si	0.8965922739827333	6.9419584401267205	9.196917191424546	14	0.10923649485287532	-0.3477751618086576	-0.9650821225442905
Si	10.209758140723116	1.6496633401709166	6.774492547715473	14	-0.4266044795928017	0.5972453972541134	0.17552061844842085
Si	2.919330524471025	8.563676898250874	0.6650090927637511	14	-0.19909611157098664	0.5508929963214199	-0.010861120203901531
Si	7.5452198525603755	10.808024956365559	1.5856601812898574	14	-0.002340220062398782	0.35086125952443137	0.8019460042019588
Si	2.9209012234619265	2.2390370615267434	3.057246935866386	14	0.3502220827418425	-0.6383226614014592	0.4523618126900451
Si	9.992753080138394	3.941753867613369	7.8987062254624405	14	1.7698979945045987	-1.050188536857044	-0.903814225428354
Si	8.388425310841562	6.060321706535774	0.8172199949755923	14	-0.9973281541379917	-0.3100462481197407	-0.14273259785323247
Si	8.45352456901843	9.888476747130905	7.356848973579575	14	-0.09011621302906211	0.1130350458528621	-0.029872901383204486
Si	4.914186042872625	5.48688097494377	8.40982749709169	14	0.6001180932283149	-0.8979107105027617	-0.9558153447494128
Si	1.3543154299176954	4.536110885767668	7.489352688452333	14	-1.7452333811684182	0.9527187055018264	-0.3898980944897076
Si	6.929709247996236	9.016128607572487	3.5302307319971233	14	-0.08782355841508607	1.3455131501346809	0.795401255609522
Si	8.958622944517101	8.50248743756215	0.02649396297890738	14	-0.6090601404212579	1.4866035830199347	0.7809567859209301
Si	2.311831614759756	3.626088570413088	5.314883785443663	14	0.0404645697495545	-0.1923410465633616	0.5332225607876381
Si	3.6048219840758433	7.360532771212913	8.748736879358768	14	-0.9963310794948381	-0.26308758055255616	-0.1857186505902562
Si	3.5651364095719096	6.064129804089255	6.097227482825594	14	0.1918823613742472	-0.9032701795426105	0.1736930767868596
Si	3.4507465830618527	11.273686357200582	0.5666539559521799	14	-1.3764342911569096	0.6028804887842819	-1.5987893927855519
Si	10.989310739898192	1.9488419479630994	4.4388970482228665	14	0.29260001296987587	0.2867895720568732	-0.26838020085408093
Si	2.398423459128675	10.155778075402704	9.854904468699475	14	0.6847326550933241	-0.19763340975435442	0.8654649040256852
Si	9.669573287765814	5.739684412529761	3.3622224399343423	14	-0.7468307621171366	0.18121407406935675	0.41195020771008567
Si	1.817377832422449	7.37471426210199	6.950071834914255	14	-0.6557257019819456	-0.30953922615060747	0.15958645033733515
Si	0.23203179093077217	4.342790609966616	3.831737138293808	14	0.7836397343225046	-1.3394759377324412	-0.5267390045018208
Si	4.089297872823466	4.192127806760196	1.2916569701727318	14	0.7971665765223357	-0.8845576750225727	-0.5251130374973592
Si	10.20388214449816	0.17896589502304933	2.03851869035012	14	0.1551685200657247	0.21920524050092882	-0.449962971426347
Si	2.845564171862346	2.7965222033694443	11.071246987258107	14	0.0983044121421377	-0.9181784766309572	-0.44934204949153117
Si	7.529716262520685	2.1016291498046957	9.684986477863584	14	-0.7853104385595367	0.8412296652779694	0.7328706886708606
Si	4.012740422007933	9.498197597866424	8.183906742234873	14	-0.7022848197823791	1.0583962763705528	-0.48421035140125135
Si	2.7624075252864784	0.11175805820084105	7.205338670917633	14	0.3497299731835662	-0.27228159606687363	-0.025977933933712158
Si	0.9025970901249288	4.1038748634584525	10.443227290730455	14	-0.038660939367470615	-0.38191532669171185	-0.5214980634172309
Si	6.863163590748608	9.47503261274881	11.204937201368597	14	-0.6057297877000701	-0.20786229516003152	-1.8399379887518164
Si	8.431760783000612	4.417359262059856	9.477089211427545	14	-0.1542100120023735	0.019373021476783762	0.841901752208656
Si	8.780196059147762	0.27835724116890603	10.365381640742527	14	0.15997597279333758	-1.0079645597369122	-0.4566239339792546
Si	5.566545923762885	1.9558592434548254	0.5236439235840501	14	0.3040817979980611	-0.1766395634837493	-0.6926917687223746
Si	6.141512154374829	3.0874857164394287	2.5539452592134237	14	-1.003014410664031	0.9582722929933463	0.9415763063759007
Si	7.842353161666565	1.824609827776241	6.158699443332826	14	-0.5652575046345553	-0.2402800765891186	0.690425596493196
Si	5.046701057738123	1.4881751439192892	4.319896824674768	14	-0.5450578727973439	0.3971516968189094	-0.1288285745029357
H	9.520153483760827	1.7620982679369015	9.90478263665516	1	0.19666847392770284	0.18706976643599402	0.025498422791504542
H	10.38624142734112	6.8063811272286	0.9686613676818188	1	0.496479151767934	-0.6797634798410741	-0.2720280850823071
H	6.926014150370157	6.60179475866547	2.6351809070234404	1	0.1768326534932924	-0.05855049590307213	-0.21320916578381144
H	4.245576772421815	8.045673931042781	3.370618334540386	1	-0.24856392082010367	-0.9636908974555584	0.182259999713593
H	5.122162409257847	6.748830264202254	11.253832269955875	1	1.1957915166896897	1.6496204020754113	0.8283276016709344
H	6.842925303750731	9.31419981607612	7.12426122300598	1	-0.44466418047205386	-0.4427854738146216	-0.5980313841504827
H	5.31060108819509	4.732199659790094	5.414335021551044	1	-0.5841528147428554	0.1311726512233147	-0.3878065003117671
H	7.26138663490952	3.5723232049547406	1.2507396964601056	1	-0.08441658675535785	0.705115606739862	-0.4833557159928341
