72
config_type=liquid dft_energy=-6933.750871097521 dft_virial="-30.64412467276456 7.768159676327336 10.44547715543032 7.768159676327336 -28.151820216069492 -5.601716865550737 10.44547715543032 -5.601716865550737 -25.371850350340182" pbc="T T T" Lattice="10.914011036500002 0.0 0.0 0.0 10.914011036500002 0.0 0.0 0.0 10.914011036500002" Properties=species:S:1:pos:R:3:Z:I:1:dft_force:R:3
Si	9.27847008460322	3.8711560586024047	6.676417057347109	14	-0.2117446641934551	0.510455423177727	1.4174755598297735
Si	3.9713030238733285	8.322697396103806	5.529889283951747	14	2.371359233152159	0.14585211993816813	-0.9338352224779988
Si	10.006150856450821	6.175562176871088	5.90407615233815	14	0.06940673100686538	-0.4741290474409507	-0.23356949170353208
Si	5.4551937924179414	7.591131236327212	0.12945217630503017	14	1.8326609893642016	-0.8965495673462753	0.8736880701711148
Si	4.905706078763276	9.144369630997746	3.334590534014955	14	-1.0834144166882538	0.5767817129005229	0.4571049877846543
Si	9.87793305479402	8.29583801494298	7.062467455730188	14	-1.0994884529287552	-0.5420694770837357	-0.13835529104568037
Si	0.7879304783734957	5.086507585593935	3.3802438421806342	14	-0.5404219127945848	2.243932168159236	-1.2424401089552646
Si	1.4745592891084058	10.606290495325885	6.648848265468911	14	0.13163622151253737	0.8138129408071024	-0.6238483668911536
Si	9.083851439800354	5.5100366978763535	8.543204075085251	14	0.08475880087346956	-0.058735358375590775	-0.08819636868650754
Si	0.8212193034359244	8.979229730004464	8.355603139378854	14	-0.11073262103866949	-0.15731719278177245	1.0008649666163871
Si	6.33808271521561	7.17231697681256	5.447357532493735	14	0.19368650597739512	0.8224873359362179	-1.6609324941524668
Si	3.1307822919193535	9.582501690047001	9.123043653432426	14	0.1633744598055093	1.6937205147476553	-1.2131567620219699
Si	8.86115104460057	3.9110031128966662	10.643234422684436	14	-2.915154179016246	-2.8659061992720014	-1.3376658795870568
Si	2.23238455943882	5.691460303336094	5.617179544221675	14	-0.6202578183115669	0.7911599602734056	-0.5714772655145254
Si	3.137756344971677	2.13372189966886	6.395894231675951	14	-0.03791711859835178	-1.0617744516506953	-0.34883625697428267
Si	0.3079137191694636	7.601510460822922	1.9554415293876322	14	1.0237742863505026	0.6376580306762009	0.14313343317264357
Si	6.161406704556747	9.76330319687766	10.411508140357467	14	0.4588682518132119	-0.027290483199647754	0.3320793351607496
Si	0.7523442539878838	6.170476247728079	8.215838314045435	14	-0.9253505749215103	-0.2718326810779758	-1.8338071881159235
Si	3.7218087315789385	2.8746413669037354	3.476494505511528	14	-0.3207754706207186	-0.0822090357274787	-0.0301387536733078
Si	0.6425220179331026	3.3681292899301196	8.601124731655958	14	-1.1043367862309588	0.06096836334613938	0.6406291999841641
Si	9.799952445938228	9.489492487993948	0.0374372406574023	14	1.4678036609190122	0.8283098610442252	0.5257432154113274
Si	7.946938910128148	5.484126835675703	4.411159496666351	14	0.09416159013978309	0.6805895759804376	-0.21372801483741732
Si	8.032799434952294	9.167583732472382	4.249424767116458	14	-0.05645170263023525	-0.9272925307698181	0.03950323347035113
Si	1.8793490444411542	0.4318892447363781	1.8492918580466333	14	-1.2759729787616996	0.774827785058761	2.08280279751928
Si	5.284967962281651	1.3605297017990539	8.134769040066313	14	-0.22895538609599436	-0.4199229481973328	0.21376118209604728
Si	3.4211386415344	7.691190889509843	10.168256662375956	14	-1.0601307440195247	-2.0205655936976474	0.7293271913186324
Si	9.49535331192055	1.0771059319943925	10.819397474824582	14	-0.6432488991948629	0.00035609808684050896	-0.15530478864769254
Si	9.212636770031052	7.158085106420963	0.9991798931937824	14	-1.4817236251222936	0.39999765329778125	-0.2500862722801634
Si	7.868379858687421	1.472911273441894	7.679065423248292	14	-0.07900081050899795	0.48999251015573236	-0.029526316386048523
Si	9.243152344889106	1.1039958723861212	4.331454474066792	14	0.8176014644963405	-0.14452748647722785	-0.7211521048426897
Si	5.136079023721718	0.11249726015982742	1.460774893169306	14	-0.4557348457595474	-0.16790474737961023	-0.1721918083904251
Si	2.883994674362016	0.3867587176993469	10.771834214727516	14	0.6917206622429547	0.38229559316856176	-1.1117503113110738
Si	9.216151081584806	5.0894871106069	2.1775089119472977	14	-0.3031472012141873	-0.38791422962468136	0.9095362203183434
Si	10.541919658232606	9.817622229806322	3.3602493739617665	14	-0.6830740350512966	-0.1977025724874664	-0.24387448182668559
Si	5.91673640514049	5.461534832830149	2.9061937728102567	14	0.21767903238288888	0.22409059771974216	-0.07323459260750183
Si	9.975929959890752	0.3725301215110619	8.100990175908345	14	0.30511306834197255	0.4204875629256373	1.442960355763081
Si	0.13689334902971587	2.140772350798439	3.001735025423778	14	-0.3156983089450222	-0.31997868508200467	-0.8265813069374899
Si	0.6903854133336733	4.588250239744601	0.7534138270694608	14	0.7258726542104815	-0.043213595557856824	0.06165124891917071
Si	3.084594197212886	4.769717501248486	0.4155913520555726	14	0.40077104177808187	-0.42018340116626385	-0.004372421707443824
Si	6.961534681664635	3.6489031378551187	1.4316235696908148	14	-0.2391305354004804	0.6226206641007829	-0.24560766392299738
Si	8.220083864338633	8.287903528919443	9.937534469064346	14	-1.2789510900540275	-0.8490643374095247	-0.7181919912876031
Si	6.840269105038084	5.653217608664199	9.91597929726726	14	-0.0007793020225368827	0.6140342007736165	0.04913382266802979
Si	7.850764644874509	3.120206615224985	4.463535835630515	14	-0.7191394435980778	-0.088881311143795	0.18749631280860657
Si	6.703778483015615	3.708439068059226	8.144493423899833	14	0.08905383231077692	0.5909140504032488	0.12634025877409638
Si	7.461876603621942	0.3449373188085826	1.6053418833587851	14	0.7605949173380173	-0.2910540073408709	0.12903606270227166
Si	1.9243475119446438	9.840792675236811	3.9152814052229736	14	0.8627796416293225	0.22647632634630757	0.268537809610206
Si	4.1302328525868415	0.5418577285390485	4.452861932836818	14	0.04463515968936669	0.1589781268185881	-0.11115685341649392
Si	3.559244537190271	5.414768295538746	3.6952658567381707	14	0.32557341025864694	-0.5707301023084904	-0.7641520415484422
Si	6.95032599233015	0.34773457983723755	4.413724289259929	14	-0.6309675004121117	0.550461564848699	-0.24923395086653427
Si	0.04513161843813481	2.075572048866388	6.143660522611399	14	0.5135386926776485	0.046028698772886956	0.6428310945803389
Si	6.9335402433560125	2.3178521798656515	10.13076703446558	14	0.06233362027113801	-0.43253344846106306	-0.012354161063311522
Si	1.4625211349351463	3.3700828979056525	4.619344257187589	14	0.8320785872224983	-1.8349294755881682	0.4915295169161169
Si	1.3841476216820396	6.470818917441522	10.291803267309136	14	0.35784129624756933	0.38943889507952917	2.3692714956321987
Si	1.3737138271311458	1.1195155960800243	8.848676329985851	14	-0.1387106178009248	-0.16271599973301937	-0.21085377620002382
Si	3.9460698303569406	3.2407955231672743	9.416717862402566	14	0.08451711697337565	-0.03425663595405696	0.003807292758075275
Si	5.446266131390085	9.725693514845881	8.19243867438318	14	-0.8854758167323976	0.6646628640747803	-0.736973915651285
Si	6.596253646284017	6.583255059139545	7.564686587585771	14	0.4629563092722473	-0.6452409915969137	1.7675438904734708
Si	3.1242229712864176	9.259392393311419	1.5896038794441523	14	0.03612222997435641	-0.595447937524798	0.16997294449913736
Si	2.0647780919512893	7.936788879864203	6.540744986152378	14	-0.963334542258186	-0.7456670798492375	0.5395233114851931
Si	4.314679639103692	2.3868069015942583	0.9337929616730073	14	-0.08809378158423364	0.18645398671181854	0.0869594099169843
Si	2.360394994885928	4.194745571823593	7.360889259501207	14	1.0391266133276391	-0.027844042175075637	0.3202170265451824
Si	6.77136895336466	8.504557562005004	2.1342566862096484	14	1.0189089837531866	-0.5217713719127627	-0.3440740557003044
Si	4.2811954532437095	6.37231996783711	8.014518466466155	14	-0.5861801312877921	-0.07055884330082372	-0.2616526466733815
Si	9.919177102500953	10.417816438736565	5.947186495932325	14	0.3110055275146879	-0.7080867760478252	-0.7020724464829349
H	8.323450462865324	8.3476031692891	8.089213957999961	1	0.6706378557282725	-0.03602889885123503	0.11929465886529461
H	10.059836876739366	3.232238938514658	2.117776529544533	1	0.3997030046280923	-0.49198511677884715	0.40564508613348654
H	7.630290707926172	2.3649024814440027	2.0450346459862607	1	-0.05409785570963968	-0.2549736863832328	0.26496114499934803
H	9.313504060030386	3.0886432953074276	5.315941925603238	1	0.11636359880032579	-0.3688240297331139	-0.9511058511344975
H	1.1635536306123015	0.40563995679249193	10.592506099386785	1	-0.15761286989358947	0.26010869792863256	-0.2838543982233922
H	5.568885045385162	1.997689666109924	6.7650497409745265	1	-0.27090168384155017	0.08048613805244748	-0.4340745689899599
H	9.766752024365195	4.884860317683561	0.03951854256206285	1	2.5743420846356133	2.8014380473640763	0.6806271141181118
H	4.019641178753987	4.9924833805144875	6.920246977913556	1	-0.046253927598931925	0.5277353078133782	0.5904306826030611
