72
config_type=liquid dft_energy=-6929.77634262437 dft_virial="-36.91171439791583 4.281769468597514 0.5021010608287308 4.281769468597515 -48.334182330542 5.664865794468741 0.502101060828731 5.664865794468741 -46.77753656148195" pbc="T T T" Lattice="11.2999927403 0.0 0.0 0.0 11.2999927403 0.0 0.0 0.0 11.2999927403" Properties=species:S:1:pos:R:3:Z:I:1:dft_force:R:3
Si	2.4106500512736795	4.708198475209697	3.1252163921992904	14	-3.0089984947595227	0.8683563690687236	0.08526942239005096
Si	9.368360681280379	4.810305209611047	10.527581736536794	14	-0.03823644987911417	0.4478847469960713	0.4823894946135225
Si	11.07957508190771	9.50624319269752	9.414238651805997	14	-0.5708036359206465	-0.019573824802287327	1.9668428622542173
Si	6.549893892009271	0.1976244430358327	10.8924359021356	14	-0.361880759816054	0.4921010736287859	-0.06495537636609301
Si	10.885350806687432	10.605732486328709	4.1169715550444606	14	-0.8021653194857675	0.39566431239120375	-1.0723350096426716
Si	6.319792139838543	5.5764899173743485	5.620051389388205	14	0.33177337362765197	0.3791071654610461	0.19401123657932978
Si	7.636331694025415	0.6682036007114339	8.612730166736517	14	0.08817245740703016	0.7700861526273439	0.7172769349041626
Si	2.231217466550456	7.698888453835716	8.544986710258419	14	-0.03849304619006495	0.44213755527394427	0.17967295354046
Si	4.199405002084949	1.9856460243182563	4.372566090837306	14	-0.5653354091257556	0.11213310210655415	0.4501794584943034
Si	1.8000210435733481	5.9835156558799545	0.9178724203112664	14	-0.9978063797275394	0.16576301664792686	-0.24454579742577623
Si	4.713712871666963	10.14244408396915	4.076438481085004	14	-0.46437453096684095	0.17450863139441056	0.2593242536954554
Si	7.762823812760334	2.030473095519026	5.022790273099648	14	0.10227831252495856	-0.7719833712430813	-0.7704790175202627
Si	2.3837560685517656	8.399736603574603	0.3022454258219002	14	0.4096855781440992	-0.07186625035611903	-0.1953358700402701
Si	11.162245828795744	5.662708861982838	7.87420784120147	14	1.1580119522259662	-0.2162726377727679	0.19389990771896737
Si	6.594009063667403	5.503152964489802	2.9295909178792168	14	1.3900799184225316	0.7207710670342438	0.1767683758602887
Si	1.7072255031900045	3.2641046029703173	6.845467802117299	14	-0.6389091305249851	-0.3136200845147465	-0.17142793299980913
Si	7.9617714849460555	10.899792197409536	6.5082873187394865	14	-0.2176996012254501	0.6195931875863085	-0.5486198821078769
Si	7.281365022074371	9.421990446825841	8.122208781872834	14	0.1517201536103421	-1.952829566927814	-1.2313082513611515
Si	2.818161689467119	0.6919019454863912	9.137569629552491	14	-0.007028373503156789	0.4390000354517675	-1.3154595000474698
Si	8.966725039311894	3.7402862970465596	3.567724107909439	14	0.1975986998325324	0.2545093447624141	-0.3154615101450365
Si	10.90858359176149	8.024316944763616	7.735014530626454	14	0.3401238094864289	-0.28970494837938915	-1.097591234313018
Si	1.6099777656669827	10.722382311386825	10.753581591342794	14	-0.3681092624541127	-1.1055349213101475	0.007290626245811892
Si	4.4318910527238815	7.646004487811111	5.68013345078838	14	0.1960899752306695	-0.5776954837313035	-1.0470494743716752
Si	3.8563598224749214	0.34602272769709647	6.636406636429007	14	1.591773617698464	0.0022949686087641754	1.4859134983520068
Si	2.7104388586738386	3.2242495285752795	1.3485072336491812	14	-0.23002496590917593	-0.7955616925814991	-0.5317300341492922
Si	3.3982807167686397	10.382128229983651	1.9186031673900563	14	-0.22205531074831295	-0.251295720222761	0.18633982963560397
Si	6.932873245963519	2.9681125931308996	7.033533581294112	14	-1.2741917169959012	0.4636057704761167	0.4525844704107699
Si	4.891032357747751	4.421235159569778	0.5235490036450315	14	-1.419082757765398	0.3788693382189324	-0.6106208013505877
Si	0.3707154718332	0.9660408993653431	0.7575390833176977	14	-0.4416657574476971	0.07837603191620196	0.3381054918101127
Si	9.554369861778458	6.135952557946601	4.55614577289622	14	1.1319517429220092	-1.2772891275750837	-1.2124340243164764
Si	0.9035892294875272	4.636906821011144	9.919269227348224	14	0.4666594722648566	-0.014153163455819129	0.22165267565517777
Si	4.2183663899031725	3.171467262485338	6.663368419107363	14	0.08717975364292099	-0.04459942132541664	0.11417635950447583
Si	0.8952746948292144	9.591535537901304	5.730983418119731	14	0.41582666320127293	-0.43903191715773743	0.27259372825273964
Si	9.557985859455354	11.233955582725688	9.932252919006828	14	-0.5080866638462745	0.3019408385979738	0.20182996785790008
Si	1.0417011307572959	10.550362521901238	7.914910415052031	14	0.825182111422265	0.8742277451778139	-0.671744459458064
Si	9.187142697704187	1.4047472975176543	0.5942406282290743	14	-0.07208222320301148	-0.25385756956375655	0.6226090941268423
Si	4.8690990718388285	5.967910365905601	7.568486537612653	14	-0.6683200042821589	-0.9061500746117084	-0.4284870429082141
Si	8.551303406200246	6.858507993739605	6.397445689949884	14	-1.5096936514580568	1.6565469598078904	-0.006829112840845313
Si	10.651384456999521	3.7670107798773693	1.2802439775050287	14	-0.4769184396027794	-0.28322499164101994	0.6041081915746528
Si	9.190137195780366	9.287125033470362	5.287831602823385	14	-0.13304133056999834	-0.33393053099125625	0.08225942939175361
Si	10.676493040868467	2.652887995647491	10.195474949899378	14	0.2723343037259367	-0.017686119276234608	0.10892564821966941
Si	6.2278440989107215	5.6274302846476205	9.998843776225417	14	-0.1504579980086814	-0.25614456774602823	-0.02344796629868645
Si	9.355117089788747	7.99207806547554	2.4277130403115326	14	0.14939921683784443	0.05914313567936626	0.09653857700825999
Si	5.655341266716161	7.742608125747936	8.829667427364797	14	1.3227580967197743	-0.061319576332871606	2.016477536238612
Si	11.009854126700057	3.6312074671244443	4.981929499350724	14	-0.6082307018449781	-0.9451077195331241	-0.32481699107345935
Si	4.261893961938808	8.89122978781395	7.566000539209788	14	-1.666891802063506	1.7043643765520042	-0.46277144679972865
Si	2.0468128850215	0.47530933463669084	5.168729679340623	14	-0.5287874041103827	0.34248691238617707	-0.6088570231009662
Si	7.110633431761179	4.1251527497884375	0.8719831497929081	14	2.0384121499458594	0.026073321941089658	-0.2575802729567989
Si	7.872106042551774	3.034895550226073	9.528187778599182	14	-0.11717323986564043	0.1723944114896528	-0.2754494549318281
Si	10.533785432551218	6.212577808718576	1.0607585685138117	14	0.23817511266351338	-0.3588576541806239	-0.1860084141598369
Si	0.7530631561932649	5.557551129541606	5.518972954326221	14	0.7239993468742217	0.5424973090090083	0.3657155634010549
Si	3.799373959085589	3.1469236782534065	9.960299500988253	14	-0.8782312132718163	-0.30096458990791364	0.1795063459157144
Si	4.706243576465625	7.840884162610325	0.07936436901222302	14	0.004175732150452496	-1.0311998956256223	-1.2519675968296053
Si	4.5499194768963145	4.656794808234071	3.3020386785995046	14	1.3089319778606778	-0.46424777547455764	0.3726958572347248
Si	8.538941214142358	0.24078815530523062	3.1678738647939233	14	0.12045011359616914	-0.5792795417190468	-0.06203434361187277
Si	3.866010016275138	0.479910691680541	11.254905769266204	14	1.2927738664762072	0.5695975304149651	0.09822085121923288
Si	6.257088480122618	1.9252588631140932	1.2244559133461677	14	0.2117379793196227	-0.08586900415070951	-0.14746446008443298
Si	10.121697297297958	10.094780714590565	1.140056267568867	14	-0.06959853546374843	0.5661177964746767	0.4666296474431429
Si	7.097661040095314	8.974036134614868	2.9247884209645894	14	0.5217495175175414	0.7238342819126682	-0.21388819469886258
Si	9.27652564027996	3.1012830075753355	6.5846639696711735	14	1.2933276825621671	0.18763078161685032	0.6659448171874062
Si	5.6802012507448225	9.69950696853487	0.9269078945064102	14	0.6383445157966805	0.5305182722119064	0.9227663569642294
Si	11.06599249063387	1.800958942970793	7.89715812645702	14	0.08145055965803502	0.34977445330560475	-0.5773499271762756
Si	1.8358985205238008	1.0590172396325315	2.746949135217748	14	0.833964750085359	-0.17611505799843907	-0.2555964080917727
Si	8.856335410231905	5.343032067359751	8.049821028378473	14	-0.3241029951260542	-1.4954492137633724	0.8722461943075758
H	6.093362885308411	8.340592441571873	3.9776087445783403	1	0.2618367378143041	-0.06058578287450135	-0.15950623185134652
H	6.687019303912812	10.004324272704462	9.303905522689707	1	-0.6254784476641275	0.7358220604678586	1.3771804259208167
H	5.198652060116938	1.1071811986895124	7.480900293882589	1	-0.5712479229199682	-0.43137927928284864	-0.7115086601184103
H	5.301843593821357	3.4600238771016394	2.5670193508139514	1	0.05461516210005349	-0.5526603741184897	0.24896475613951474
H	6.53179130363931	0.8740510484643829	3.559215213375993	1	-0.3365530584178073	-0.2993237104925951	-0.16302093282398894
H	10.196062549521873	7.631382297205164	4.18703151003432	1	0.01728579817788755	-0.11375444112143951	-0.4784258786519823
H	10.963015656791514	0.3441299789130962	7.0489241714064	1	0.12781273079094518	0.5041065928106853	0.4098236464997912
H	5.652459768567386	0.4763240739847698	3.5910811929036384	1	0.5141138489377656	0.09628223780784123	0.1993748193876907
