72
config_type=liquid dft_energy=-6929.408543191761 dft_virial="-33.587778879131434 3.37560291026809 -1.7195967729701653 3.3756029102680905 -35.68891946613503 -2.119687855741344 -1.719596772970165 -2.119687855741344 -39.019479009468625" pbc="T T T" Lattice="11.2999927403 0.0 0.0 0.0 11.2999927403 0.0 0.0 0.0 11.2999927403" Properties=species:S:1:pos:R:3:Z:I:1:dft_force:R:3
Si	1.605163968759615	6.57922867316309	3.583035598072545	14	-0.6711952713616806	0.4405121024905467	1.975393844327966
Si	8.306726363329194	11.092999473283186	2.358545784748156	14	0.862404517363113	0.34764120722147784	-0.11944712541077937
Si	5.713423229401304	5.009139881869366	3.716793612139476	14	0.19818311207180206	0.4499573149946426	0.8079461926875885
Si	9.712987859874048	8.680733523047643	2.792375106033754	14	-0.15276659347564236	0.4834269356102023	-0.451195559316826
Si	4.202817599892519	8.548772207826419	9.878984753229055	14	-0.24910179605307864	-0.07135022951836531	-0.3742362064320256
Si	3.5021841500156983	6.0261392284963655	5.063967446645302	14	-0.6450697559825918	0.5381832513923319	-0.19507001775016677
Si	10.884774507057676	7.375810361397797	9.297554926769658	14	-1.076458548355125	-0.777553670919182	-1.1377393009976624
Si	8.972668835493293	5.731864817553473	11.178574318305477	14	1.538002035253951	0.24593625118291232	0.4379739073184965
Si	9.41210295317808	9.279791338181907	9.405673257308848	14	-0.3830949498125958	0.4504728216113323	0.5386077408806883
Si	9.943281711921362	4.420365060128775	1.574269788607635	14	0.6334972109366054	-0.39934587809912375	-1.1834247572103094
Si	11.128560550436909	4.918694739976005	7.875823740163334	14	0.8117941089097223	0.14232713454424512	1.45380836332985
Si	6.793420035555476	6.266851673850237	6.675990510998279	14	0.8015212576030705	0.4776211226867759	-0.8314617790561949
Si	6.808132626103347	9.334076503306308	3.1263124914950997	14	-0.7815710229819134	1.1847054247702753	0.32684327917626804
Si	8.188031239585083	4.2177109903242345	2.980847684949218	14	-0.6235712017376417	-0.4883164065975279	1.6687666520629583
Si	1.0594172593755382	10.9632077566681	5.4439071025524095	14	-0.24240406669409292	0.5388360550331174	-0.4281445716795703
Si	5.133055602259496	4.700446680189851	6.986909811247634	14	-0.721208669159733	-0.702510305718956	-0.04626138380436036
Si	2.51312968543546	2.903194134837876	3.525473435053457	14	-1.277309953528177	-0.4889661249119293	-2.134216419274685
Si	6.394993591525239	1.1893129359238348	2.975321988499211	14	1.7552946305072217	0.9559683255159617	0.7717833392491737
Si	6.508140418833863	10.722111111561059	6.225606700348141	14	-0.37948563216417186	-0.1378243577970698	-0.5316441592315992
Si	2.3464999924869967	5.283356805698227	10.507524249422762	14	0.5819316368567795	0.673323118124635	-0.39235350007044906
Si	11.056184096935286	10.42158780463278	7.440909619574667	14	-0.12078024351927616	-0.3634537620509206	-0.4210138681846716
Si	10.470878372965968	9.051859184617316	5.270768613785532	14	-0.06930928611523178	1.526801272037258	-0.31701188665308583
Si	6.107939875943398	8.082602307318083	1.091877618521324	14	0.9951697112217275	1.2811642975136108	-0.44331974950014835
Si	2.1101719443163622	8.71604600036108	8.0584090228611	14	-1.1668886933437774	1.6437886209882515	0.20805050006946635
Si	0.8395442606333289	0.11608482542110189	1.5851855815947646	14	0.08687379210982338	0.24041428828683034	0.11301704811562105
Si	4.650432912321283	10.03211095485286	0.46228496300422106	14	-0.7665660523335293	-0.3245274846144107	0.17885431360652485
Si	0.5712428830040158	1.406736096239947	3.6203029741300545	14	-0.02166490475916376	-0.9533604533897354	0.5590248882279842
Si	2.6338927078510466	1.7407299816649942	1.282583076002271	14	-1.5475488064181928	0.6338383966125889	-1.903249657486739
Si	9.469992815986636	1.8057953398636415	3.94559586514507	14	-0.46799439014707744	-0.5272110594385999	0.08958862221736773
Si	3.5506272188933647	7.303806807656607	7.141753611767964	14	1.1733046295596747	-1.2588298769290804	-0.8222718773103894
Si	2.045863685631315	6.426927371009327	1.2977476662597536	14	0.38572544766563926	0.24714672756763806	-1.5780665410156907
Si	4.480356721587028	5.213093450839041	9.206409185326399	14	-0.04389108180971584	-0.018941075782998883	1.007353408002313
Si	10.182954557943125	5.1674188801827485	5.8092471678390485	14	1.6073390893066404	-2.007758660987458	-1.0968867514552978
Si	1.4464555707221016	8.113835487252272	10.29917498327711	14	1.4009505517161176	-0.21578412776193975	1.1850067583137966
Si	0.7880388937230414	4.7316007601748575	2.4309448382352588	14	0.8001058641243289	-0.5983568860840135	0.252353987172534
Si	3.342447452638818	8.143351068289936	2.6025917279604154	14	0.3312781787429915	-0.2671725526852074	-0.4340195473361087
Si	10.314418673483774	3.374471632064828	10.461431579035079	14	-0.7293665292300308	-0.2319327260567258	0.24447714891372832
Si	3.1521329749066846	3.757145886215087	5.489073173535388	14	-0.19476662732238928	-0.03649581157737392	1.3044626254826646
Si	9.519113884428721	7.1580482012994775	5.997787546710954	14	-1.887817369134146	1.4337925655230292	0.8673742068364272
Si	0.9025711001416261	2.0308798952576774	8.435478480612172	14	-0.15439718846968029	0.2919266404865291	0.2835646346538115
Si	5.402097129413298	3.478228165406263	11.095632371591675	14	-0.27270274311831394	0.7144294357620985	-0.3919914884413722
Si	8.56503289737971	7.926244307770552	0.12763906799805866	14	-0.6652210510397845	2.0732742812028113	0.5822489112532858
Si	1.3439307365893596	3.1749702602348315	10.832749340481335	14	0.3445018876255771	-0.3991741282637379	-0.17021128596231508
Si	2.663543888801594	1.4086796949912785	6.288095660202001	14	0.4561253966576779	0.16384034408952014	0.7320335367786204
Si	4.250119369503415	10.478731867920477	8.206845727497681	14	-0.12653874810481183	0.003473563287520055	0.4084329356321231
Si	5.374095747402835	7.4448646170337724	4.808813610569328	14	0.8468932960771915	-0.13110425982179877	0.08750756957123987
Si	8.730193591271936	11.009447326961407	5.69367084209126	14	1.8348279169280222	0.1703002462063922	-0.5146416968599921
Si	0.9108720748086505	6.614066550781435	6.275315368412722	14	0.35409108202760137	-0.042196980514270274	0.4233229778726967
Si	3.1549692730845003	1.5351492137407163	9.100754253204594	14	0.8018225911465918	-0.6594841437389379	-0.29113936803749974
Si	4.645754715326799	1.1188992911612035	11.204914601383116	14	-0.4716057646797574	0.5289157022658582	-0.3706428296365866
Si	2.471127612419765	9.23845596473789	4.528924090384837	14	0.5545089988436761	0.5379271693024451	0.9233952493255376
Si	10.127211693755225	10.3394933573745	0.7135323915898735	14	-0.6979530215389936	-0.21560954971070173	0.05910791153648023
Si	4.249961169605052	1.0490099660617218	2.61858121768794	14	-0.4288395414476064	-1.1189926007768667	1.3283481939068402
Si	5.969209865070734	2.8284446828607916	4.91472844252416	14	0.32651083525837293	-0.25476825506815304	0.49031621231553907
Si	4.164827024299631	11.189829111074816	4.849809984231136	14	-1.0649906472956685	0.2840680570754964	-0.176373968304178
Si	7.7269011358389195	7.322847295424012	3.1139163994589905	14	0.534833615381243	-2.1331884913676897	-0.09425594970503254
Si	5.754182303215567	1.3306984450904684	7.367674366624782	14	-0.7220165104513234	0.6489863207167734	-0.2613554268983724
Si	6.839501405950419	9.709597862051957	8.250034299751107	14	0.04288218008208974	-1.315823568560803	0.9677213621554226
Si	7.321898096033827	4.664094603544306	10.24156762028706	14	-2.1073830786009595	-1.611534104746994	-1.0035085771065637
Si	10.14172088443377	0.7212774066140749	9.067927774294022	14	-0.06290389143114686	0.15321113758549595	0.0885779207160175
Si	5.925591893093177	5.783957784086256	1.0066768032587359	14	1.5387450846914739	-1.236058368440125	-1.9098807952179326
Si	8.179160745283946	2.0147209056390483	10.17374506385978	14	0.832369636344739	0.41742434804721296	-0.30672258027238525
Si	8.263899390843457	4.045126201201633	5.809653967577698	14	-2.272673011869979	-0.7220033978141907	-0.9810116626658
Si	1.9121847715135663	9.359490186979242	1.0904289594520176	14	0.702457083838829	-0.12626415405662	-0.4343432494959153
H	4.878037366096406	5.963797168548131	1.9284002610958966	1	-2.2359607132246486	-0.07132966067580412	1.7156417587072377
H	6.830224111910634	8.056375024167846	8.286149076549107	1	-0.14114314054431693	0.6824178889735948	-0.3585717472690234
H	0.21723558043662333	7.172014992326488	4.3775945876067395	1	0.7345869014720594	-0.05024454016633376	-0.4000292778932191
H	5.447624800163967	10.299005483386006	4.627640826964098	1	0.6914111011624089	-0.332415892847157	0.026029870261179155
H	1.5915022775365923	4.738437255782739	5.550680733955503	1	0.7184730130990954	-0.5593277644346977	0.2917047540974003
H	9.464885219268021	5.913546100832017	9.639052007374264	1	0.5290110902732357	0.15463424438019793	0.30917001542663425
H	9.541973769742347	11.191727509855186	4.0632965895280355	1	-0.5430282422576189	0.15214412887763454	0.10935245170281399
H	6.498535425004609	4.515025099314268	2.2248668706304073	1	0.37976151176502376	-0.06361943004174407	-0.31144852896134945
