72
config_type=liquid dft_energy=-6929.960935619017 dft_virial="-21.944068526562262 4.558653694753727 1.6573309422077633 4.558653694753727 -38.460411337516845 0.45573288898438896 1.6573309422077636 0.45573288898438896 -9.869796578295633" pbc="T T T" Lattice="11.2999927403 0.0 0.0 0.0 11.2999927403 0.0 0.0 0.0 11.2999927403" Properties=species:S:1:pos:R:3:Z:I:1:dft_force:R:3
Si	6.269970471846561	0.6963270226434926	4.484368219009834	14	0.6498679527310521	0.20189450260143582	-1.019959023165935
Si	7.486923190013169	5.597824303668036	5.711208430824206	14	0.4481904514186369	1.1518209877255814	-0.32944035266014965
Si	5.322036680848273	5.7332886166387516	2.597710131096606	14	-0.9056068000575611	-0.2926910300982091	-1.1091090148156855
Si	7.552689147761714	2.314272413191661	8.562298299136557	14	-0.6700968951689132	1.39502338262158	0.40525067857737584
Si	0.4133435644467078	8.433625281802762	10.867621118077901	14	0.5281145458480999	0.6697050587181227	-0.42900666329341597
Si	4.044527301586397	1.2918942700202782	9.95906780177956	14	-0.763593597472906	0.28695206591310657	0.3710608913616427
Si	10.716223815343362	2.0010253144378045	9.363151384627098	14	-0.03448315033276201	0.35759575568949525	0.11109900354679059
Si	5.89745491116983	10.894741100654622	1.6155260621024703	14	1.2080423193191314	-0.8374673668629967	1.8096866206654862
Si	7.341401883503584	7.533411360146762	3.4639223745970424	14	1.648999737251128	-0.6126866844753267	0.20983433294058512
Si	6.523768308793698	0.08543359511303816	6.550413691675325	14	-0.614928945425028	-0.671568595854166	2.5040609207093656
Si	3.440429689689959	6.801940230081662	10.17897696049854	14	0.06050993526755697	0.7551426313961113	3.3699477431180873
Si	7.460888006739516	11.207208499909397	0.1438782875651438	14	1.1585356863796803	0.9914194970017594	-1.444591722088715
Si	6.948342936024989	4.893597456099799	0.48288258977123993	14	0.467586098622238	-0.22789866180941348	-0.1563352876600079
Si	0.13551855293586984	0.9784030914232315	1.2458693995890362	14	0.17702265817645135	-0.6611008547642472	0.336617850271875
Si	6.22630729989804	7.4683234019626346	0.8942226655050926	14	-2.084632653175629	0.037793705542984675	0.49704865159634687
Si	1.4784684501553715	1.3777968148320388	10.649802458015879	14	1.0351426856340695	1.3255660008399082	-0.22600298585686832
Si	2.729727946281531	5.669658357518122	2.9196695242532336	14	1.100804858852671	1.3656665020761296	1.027841003635381
Si	2.078938764382173	1.7628214674722806	5.12679540628137	14	1.194999359140552	0.8109505292541815	-2.7851426389555103
Si	1.9358695562972348	4.233745680022721	6.050434212888012	14	-0.1277003734884547	0.05247086026304997	-0.013954931235635713
Si	2.964281895591938	0.5222201244987722	3.019199860309796	14	-0.3996150728261433	0.06980628077361639	0.7096929455413218
Si	2.1349302284103597	6.857829994175186	5.799642174009793	14	1.2369294589225912	-0.9557533811111972	0.40992880470738524
Si	0.45130137006064946	10.834828539145551	9.955610004001029	14	-1.2232306097768424	-1.7419361957058603	-0.8128336067906579
Si	8.72166209675301	5.4516023976085535	2.0536380806366417	14	-0.561766972051922	-0.8950225878966395	0.4332443590820841
Si	9.025496301554195	4.276843852334225	10.20765634207342	14	0.16143610350464968	-0.0440952275721356	0.5809954974097136
Si	9.421843546920218	9.428205442833006	9.28440173521995	14	0.3219926318792767	-0.25367990618613434	0.088534211925575
Si	0.6044490416706614	8.59740737658067	5.866210431242901	14	-0.40999205389826093	0.38813688734540613	-0.2500541334636615
Si	1.4439017723627938	5.906088105623419	11.288432847726673	14	-0.1537168740019691	0.21622892898232537	-0.7456100013111303
Si	0.7222333859999044	5.292701899694454	8.89759168372674	14	0.45647223876536586	0.1934785035569951	-0.2367841446853132
Si	3.157014571770495	9.557579059716701	4.110779159022776	14	-0.5700379607563064	-0.2868317381841236	-0.6218789002159202
Si	8.35901142973856	8.075212112065927	5.74640790821024	14	-0.1382516755012784	-0.14617093699786649	-0.26178891525534936
Si	9.779612617070857	10.632479569144998	0.3269234799674414	14	0.08162899436725331	-0.25013460906018214	0.11515106553134395
Si	4.217247690621883	8.136345072790949	5.768680193901371	14	-0.4365510576343265	-0.5058757703814791	0.12076327422416319
Si	1.906421775216013	7.9783711742815555	2.2332401652509697	14	1.7474049367218152	-1.3516496072022781	0.5420496795727706
Si	5.227105441837013	1.874510595717406	7.814882879314895	14	0.055407833870255135	-0.30378509244411606	0.1306797703334423
Si	7.619268704987562	3.2237523288947063	6.244568088166366	14	0.8119038951068923	-1.6698827688824343	-0.9959780667343817
Si	3.3773079302426434	3.4314574954541612	3.579430900388389	14	0.22914410522649323	-0.7250941235195408	0.8469686294630719
Si	3.894056598256562	11.259165866529298	0.8707152906074463	14	-2.031013280166069	-0.5972752220758273	-1.3466503500177822
Si	1.345716135442327	1.7724942612579775	7.183439284986932	14	0.7288098849282187	-1.091682320066254	2.3505661902070574
Si	0.09516514886098452	3.073315525543093	2.4757493094505483	14	-0.5902679316362955	-0.012777107888475879	-0.3433286922679935
Si	7.729059434452317	7.179619887440709	10.48105966642498	14	0.23452568577209518	-0.6378709181967093	-1.9414578252073311
Si	3.080581420875106	6.39804458956512	8.14992766406479	14	-1.3376928761929185	-0.7001032369182334	-3.0691088802603286
Si	6.296254254960497	2.3934288623374624	0.7254448439366976	14	0.11088534469468626	0.12209279278521175	-0.41973062951938583
Si	3.7133923143246457	8.506510234977698	0.6567126380938229	14	0.4781811094255042	0.27890167804519095	-0.15924577888241553
Si	5.305549991440175	6.113194372567637	4.839312290975398	14	-0.024365336676915286	-0.557440058908645	1.3968267558931322
Si	10.517750742852733	10.086735119759469	7.125877121967843	14	0.40588959824943266	0.7020616478405902	1.2244580554566808
Si	3.650202754920888	2.5157399837584697	0.7753184918952857	14	0.667245282258337	-0.319340793852076	-0.5691488725365993
Si	7.1943098780031	9.973441392545222	3.4562722795118597	14	-0.1737493839933708	0.2344516379388749	0.034871644346636387
Si	5.126964906172475	8.13407377425015	3.474329667910859	14	-0.8802469598428124	0.9368547285659808	-0.634951685216213
Si	10.422943803761616	6.999283303298262	2.419102445843424	14	0.36766934633383536	0.41904285884624615	-0.4591289618926748
Si	10.557458917342148	4.300200937328425	6.322560638059916	14	0.3968061402638815	-0.6491814676105727	0.40321436316381853
Si	8.65803183763238	10.647768459322625	5.886008018523905	14	-0.24522096968284715	-0.2963833944484737	-0.6506691091488103
Si	0.8813892637499338	8.07574321172472	8.294047771474576	14	0.14594647950341758	-1.0842466834803854	0.5661787316707643
Si	2.746079035776745	3.7082960175987707	8.37588231889983	14	-0.3537781785101393	0.3156057491534969	-0.4595336538700661
Si	8.525482922788662	7.073806755420541	8.055064225009971	14	-0.4259406201991395	0.49014600514334533	-0.008435796555405847
Si	10.276767097673094	1.6411544456374707	7.039601677395653	14	0.2903523526990024	0.3645480244751756	-0.0676707206947014
Si	4.7243574648283255	3.2082713388404955	5.77088369248573	14	-0.7656000880647497	0.02532564451399059	-0.2390629153305605
Si	8.609204569001545	4.656116808669654	7.691724258438365	14	1.3046307757706024	1.1377616696139476	1.7023499155336685
Si	5.316465784427305	1.8059648397547459	2.7903976073042016	14	-1.2791182118998368	0.9722670763614442	-0.17866482314442994
Si	0.4599390845113348	9.590010038881363	1.8772564939532987	14	-1.637125087330024	1.5173331766958127	-0.749651007542807
Si	6.2850107621839	8.381091615553107	6.869141286908227	14	0.49864993598973495	0.5950378462262343	0.40759655507147896
Si	8.514036030142737	7.964313983312622	1.1911435347477635	14	0.9923947172496914	1.5154876372970103	1.301499426601194
Si	7.6321619967042444	2.9495693050440672	3.7796215717755444	14	-0.6996682058980643	0.28826950027915044	0.5319184961692591
Si	10.166151468738299	6.691313301154126	11.123419053740072	14	-0.10305581477377133	-1.1851407129009763	0.08380054992065038
Si	2.0503271827637337	4.112112558166132	1.4719935543151794	14	-1.0803360322884406	-0.8708721956244886	-1.0636115064019411
H	3.47436356788908	9.645504303228977	2.0377163908655587	1	0.027949457493201706	0.11812969104473549	0.02481862254485739
H	9.829784584837789	3.441898688746198	0.7268663830234274	1	0.30303510102222886	0.31677765895842036	0.0636947634276244
H	6.197966918105368	3.670791341693715	6.57733027438272	1	-0.8210243770090537	0.6599716253076381	0.5383382890431369
H	6.082831292074451	3.7214266091629993	4.756144344406789	1	0.13221369176744263	-0.4236199405371738	-0.9677172483869103
H	7.737557028993023	0.9086584062308258	8.247740401224828	1	0.6167570013076532	-1.605318714746068	-0.06810755148859456
H	9.339828199611121	1.6621950321199093	9.95600550374694	1	-0.032034686736384994	-0.22818482583154595	0.45261378101141964
H	2.250845553940357	0.42703689564940334	8.069562115695776	1	-0.9403912839338445	1.2387125204621137	-0.8648817773390756
H	10.676425240912026	7.752314819511855	5.362931354575419	1	0.03275562466815451	0.17433148223785236	-0.003973643272288855
