72
config_type=liquid dft_energy=-6929.744953326685 dft_virial="-33.269825700770234 0.8372767030178307 -1.8017346773801426 0.8372767030178306 -38.89892176267334 0.8624479963047593 -1.8017346773801424 0.8624479963047593 -36.63747978157929" pbc="T T T" Lattice="11.2999927403 0.0 0.0 0.0 11.2999927403 0.0 0.0 0.0 11.2999927403" Properties=species:S:1:pos:R:3:Z:I:1:dft_force:R:3
Si	3.0296410536018334	4.250209769445338	3.5843124972521987	14	-0.5100543307477837	-1.4303390568570062	-0.7245500776337973
Si	0.39219110803614016	2.969005292557383	7.411484438478926	14	-0.2728384974792177	0.4677110543407971	0.7914052437209478
Si	8.7213230969708	6.432645167335918	9.872984457083955	14	0.19871095999402846	-0.06049913662521235	0.05980390974664432
Si	4.214818192182718	3.5551924159604456	1.3407667386220756	14	-0.22550213454050347	-0.287601270006444	0.7080050148986444
Si	3.899650094663011	8.122626881604226	7.9484374935125	14	-0.4395916467859336	0.0045858234490161135	0.5637850326177063
Si	7.021284389163626	4.1527699320457305	4.575615660387757	14	0.2471948072371248	-1.1967718791482622	-0.5422715659618993
Si	5.555754430695898	1.4073914958188845	7.917859713157249	14	-0.8594983970197496	-0.2992851439127929	0.21463304391010948
Si	5.6740540546941	5.2095226531331065	2.3225101078993395	14	-0.8465870774335619	-0.3226086687139842	0.16491172367642584
Si	8.18112694402076	1.764539066368806	5.791302779367451	14	0.37548884894400175	0.4285307516986566	-0.9082501534372054
Si	2.5865909382401506	4.750064948312509	6.761418456114947	14	-0.6430115861738133	0.4690169187329003	-0.0642588639348649
Si	4.433167951903535	8.738826785725525	10.33271336173032	14	-1.30271247409124	-1.6305862522798233	-0.07417613137574007
Si	4.351683704253231	3.0434609447232197	6.45001325617776	14	0.7686481334217852	0.2847578846328922	-0.5439875216525661
Si	1.6828966188201389	10.962541057096422	1.0044597446830892	14	-1.7242840150198515	0.2924604019509918	0.7127816143624156
Si	1.9978726164632608	8.184245742017081	4.337005013683582	14	-0.5645239682867169	-0.6295757611023155	-0.7455104995352406
Si	9.899618539972842	3.1753092600170403	10.794205065244173	14	-2.7547819988930735	-0.584492457755647	-0.6919021822785572
Si	9.359105987226073	10.808273556205846	9.281859236853382	14	-0.5458091497718911	0.6352666456179313	-0.7861085096509107
Si	6.917493955843971	6.467381345019601	4.02244711577185	14	-0.2761696215320016	0.5448519272611999	-0.2534783315290347
Si	3.0968873103993584	6.148981449576168	1.458761262816288	14	0.5369442357385524	0.0024862588445831928	0.3080392433068331
Si	2.906855332485733	10.656525953696358	2.8051892978012543	14	0.43341430914374585	-1.3393643517615466	1.2628215179386102
Si	2.4905296999548607	0.2655769493796267	10.4050220152755	14	1.2540905584924513	1.2298414357760068	-2.401602887922529
Si	9.128021135686938	9.140417227723047	7.374691662116509	14	-1.119304990073265	0.7204031418629306	1.1085153465972633
Si	10.542339527055626	9.431595440655098	5.554059431784853	14	0.6641229319575492	0.46022245298533376	-0.5939091309906894
Si	0.7862953048432131	5.371496749072566	1.71722599676517	14	0.007516883513984924	0.09970309343629825	-0.059773827814398585
Si	11.229627685506152	2.864457759724128	5.222619344719114	14	-0.3281941379114739	-1.3964647442640552	-0.45900477750571167
Si	1.0564939512536224	2.3852928675644463	1.7791725569674948	14	-0.1928460116482387	0.489274143329283	0.3679393123924509
Si	7.190117580696449	6.034636823037072	0.6397332690022481	14	0.9153610594211389	-0.8171949727452251	-0.03064526142137697
Si	10.595573792855179	7.620850703971204	2.512248286001717	14	0.4080418705129285	-0.8961564453428249	0.29593242257531976
Si	6.667176516660845	10.427735000683503	4.646116315094488	14	0.8777828125039825	-0.0014395618687509093	0.6804180832555837
Si	9.55786155953521	6.843671103271591	7.544654852923361	14	-0.20115505271136122	-0.7102997263968767	0.16617567905181063
Si	0.16970442097309943	0.47979995175168605	4.38515428275	14	0.4042176084597403	0.5060022687632305	0.06252722450174517
Si	3.604098784540464	6.315871042357657	4.21184629409202	14	0.41952185576738976	1.2972617308125258	0.04174857974643644
Si	6.346053322967	9.831072784010182	9.994798378824388	14	1.5597854679683736	1.0988950418208654	0.3187905773135643
Si	8.362344927596949	3.999892330262212	8.646980444732366	14	0.45047256450080037	0.2487711519089076	0.7806881054149746
Si	6.612507151783273	4.239214876509026	6.947936136286339	14	-0.17292868717517956	0.3912985755575923	-0.3806215464946133
Si	8.099687896341417	9.806879499553201	0.44574855362806604	14	-1.7851060824732745	1.714032246776825	-0.18178845899787785
Si	7.312948501783509	6.537961099675515	6.343940224324563	14	0.14906574447782123	-0.004921095582763423	0.9052453026495483
Si	4.825051700137139	1.1289641946949884	10.555131118837645	14	0.10950620380095885	-1.2213087085500314	0.09824064873019803
Si	4.064776888577015	5.371202949261319	8.580299187571855	14	-1.322093723105048	0.13423380921748299	-0.26065660047235617
Si	9.251145856585246	7.994778763740471	0.5424053015307702	14	1.1009547542928357	-2.4248647061960362	-0.7915409980818516
Si	3.2955863827447933	8.687118018945911	1.229247110268055	14	0.45415850108776457	-0.38602343877224443	0.03595202280216261
Si	10.900187697155447	4.14105183957404	3.3826415268160646	14	-0.34988218261851894	0.23619176201955108	-1.699287986207904
Si	1.5653992943064992	8.654709639766732	6.57282157727934	14	0.17355166599425148	0.3380604974670101	0.5994352076552836
Si	0.9590518538554677	8.787993054138571	1.439087975455426	14	-0.0030105072193613858	-0.3853793768895474	-0.05698083610512174
Si	4.712639372356635	0.11746003453759642	4.013203721710285	14	-0.7486374778256046	0.8413749327285579	0.3234581619117611
Si	11.042126905966356	4.71696726957617	9.022400103543353	14	0.017443664044544643	0.4933143782293637	-0.0459027146121997
Si	6.544379495552005	8.65919573688463	3.1376463842136206	14	0.8663336805133632	0.2339914100865684	-0.31570139427140637
Si	9.086052962649463	0.286906815676217	4.1588719281254924	14	-1.278944919401259	0.3809755876971977	-0.6610946841114789
Si	9.080696766090561	9.388452068372631	3.2593925059976123	14	-0.6071114996991177	-0.47775302038969947	0.05990829662264234
Si	6.289688959178384	3.0338672508867055	9.749057436701085	14	0.5226532610375734	-0.18011801187137763	0.317223745731466
Si	4.00996062379382	3.3557362441014105	10.186717455525644	14	-1.2338179072641478	0.7781625086589932	0.2210453805785588
Si	0.8117779184718636	3.047822741920976	10.735863202726003	14	2.206706934002536	-0.07586303357628921	-0.06786098248839234
Si	6.154812245830162	5.633159380966953	9.65435219754463	14	0.6490436563654127	0.721209440491329	0.4942482036816415
Si	2.3301941029627438	11.228181286435394	5.439680905267537	14	0.48686527475483626	-0.37827644133210625	0.10934165306046936
Si	9.058514880341352	0.6531215004009555	0.24773087084487094	14	0.09324936197219455	0.5198186174221102	-0.4011672491079166
Si	6.4970551259556295	8.647240344565393	7.921984210507459	14	0.2895869346451943	-0.38282961174355656	-0.5204454528991623
Si	10.845800832096383	0.4477735123271278	1.7650814660203407	14	0.322119901592624	0.07414322122764216	0.7609034499764351
Si	3.5103201447887145	11.194383008149156	8.20529762849226	14	-0.28108403224093265	0.059321313278052526	-0.11106609339869267
Si	7.286698618647793	1.9913864206303287	2.662470389491265	14	0.6579674487105827	0.23887651019484973	0.0685510671563201
Si	5.148864292103176	1.0256246310856711	1.8011623428401187	14	0.23636248341280894	1.2906599036819817	-0.09293517290207245
Si	2.511954486190469	2.2036793842423448	7.64107769097634	14	0.40889547747921773	-0.9782232989460993	0.47788466098209104
Si	8.693954514553793	3.891581899846437	1.6908405137165696	14	-0.10025305286427794	0.1354229454280515	0.3164608987829781
Si	1.5235215212109476	6.581409571761968	8.453581068982132	14	0.3683337199485617	-0.4988944481056811	-0.8789382672348571
Si	10.103504308986075	0.38531619245294163	6.756175259483448	14	-0.12224165978324833	0.22172518082520593	0.5730929480977065
Si	7.883496435233997	1.6892698147256677	8.071697814323693	14	0.8098696365775913	-1.1573604341378405	0.8499056030702771
H	3.578560800947386	7.200999473705357	11.24836307346957	1	-0.33086294523378756	-0.5106266587920488	0.46793576894577804
H	7.31905049786327	6.864124090131534	1.9994772154323834	1	0.3608443472615023	0.507695084506016	0.03718692468742973
H	4.81342400760737	3.508342646059162	8.201613830858923	1	0.059769714045886345	-0.10068319878433869	0.02692641468631479
H	5.272542712645759	7.136962414846077	10.489478161016503	1	-0.04190695983415757	0.31710778888152735	-0.17669175692174832
H	10.413508309823465	3.215062634477416	0.9768617724134544	1	0.20387939590859014	0.1908976280366305	0.8481096860041536
H	5.895138412658068	6.615874549619883	8.356841831132423	1	0.5407425296280073	0.37140670502720263	0.10190087426396084
H	5.559709428155004	9.985283784937057	8.053843825794019	1	0.04593151099178536	0.3419582931323546	-0.38090899606940587
H	0.35368186277647184	7.01163419536341	4.097614667480327	1	0.5295960167335694	0.9538849588750454	-0.39885968208308376
