145
Lattice="13.85000002531519 0.0 0.0 0.0 13.85000002531519 0.0 0.0 0.0 13.85000002531519" Properties=species:S:1:pos:R:3:Z:I:1:forces:R:3 energy=-13864.533699642989 stress="-0.0037369014938617683 0.0002341301918758602 0.002233877477780266 0.0002341301918758602 -0.011529305174059515 0.002434953995508946 0.002233877477780266 0.002434953995508946 0.002423017946511353" pbc="T T T"
Si       5.41323373      -6.33708690      -1.98171063       14       0.75651908       2.02400352      -0.82697322
Si       0.14404416      -2.61901977      -4.48401784       14      -0.12278869      -1.25650300       0.48447991
Si      -2.91039053       0.22855963       1.61084226       14       1.01234153      -0.57288704      -0.22180676
Si      -6.24690401       1.10126890       2.72082558       14       2.85093560       2.00444848       0.14676654
Si       3.59635749       3.35777462      -2.89551148       14       0.44240741      -1.53630613      -0.46450218
Si      -4.36295360      -3.20734146      -0.18554984       14       1.97457689       0.14758338       2.69491309
Si       1.44095677       5.81695708       5.72316903       14       0.76705058       0.14541491      -0.29423396
Si      -2.61838128       2.20927306       5.70306299       14      -0.13733779       0.24025828      -0.00809178
Si       4.87763484       5.88208116       4.56471763       14       0.09921579       0.50572622       0.14326752
Si       1.62666173      -5.91921163       0.02511005       14      -1.38696489      -2.87643400      -0.03759081
Si       1.03234715      -2.23875417       3.21799488       14       1.46899799       2.83193823      -0.98734321
Si      -5.14226956      -4.02614099       3.85569735       14       1.10308296      -0.74620664      -0.57516400
Si       5.66390627      -2.74501045      -6.74595691       14       0.47085152      -0.39213746       2.99230308
Si       2.42462532      -5.99085629      -2.84057407       14      -0.19334901       0.66277512      -0.93917693
Si      -0.09029785       4.07033773       2.00005080       14       0.23699246      -0.59144706       1.87035671
Si       0.10884577      -0.98962821       4.80226037       14      -1.17253823      -2.00457549       2.15977859
Si       3.54307377       0.33342906      -5.24693955       14      -0.45246171      -0.69781488      -1.21135957
Si      -4.10323702       3.96892664       6.78153894       14       1.44411640       1.30214085      -1.64950049
Si      -6.76569731       1.44131826       5.11502799       14       1.88499631      -2.69490898       0.41726947
Si       4.38455822      -2.21481583       5.39442404       14      -2.67796695       0.96007203      -1.45619390
Si      -1.62585843       0.67592709      -4.39140012       14      -0.30031616      -0.61357114      -0.19947338
Si       5.79655880      -6.73443232       1.92403508       14      -1.02319030      -0.88189250      -0.48829414
Si      -6.79348180       3.82671346       5.56463778       14       1.68534938       2.39317511       0.46473281
Si      -6.19640276      -0.26767618      -3.42890129       14      -0.42451484       0.05988768      -0.05116238
Si      -4.85245692      -6.63183152       4.59659756       14       1.98413959       2.15367376      -0.95797170
Si       6.37999836       2.70644928      -4.57635856       14       0.18277432      -0.08477030       0.27612388
Si       4.55614448       0.63306965       0.36955540       14      -1.38700808       0.95343961      -0.74233893
Si      -3.22193797       3.97431291       2.70837304       14      -0.05787707      -0.23884340      -0.40452169
Si       3.23385036      -1.26681657       3.42643322       14       0.65891589       0.34705290      -0.78845527
Si      -3.46220500      -0.61837619       3.71838568       14      -0.55596712      -0.04675885       0.59523172
Si      -0.73776042      -1.16001783      -5.98529275       14      -2.52243655       3.52561775       1.54972215
Si       5.39352933       2.22729883       6.84046515       14      -0.37637376       1.36634438       1.02036826
Si      -5.86899291      -6.66106472      -0.87783378       14       0.14817525       0.09327242       0.46887691
Si       1.18496030       6.88763964      -4.74571636       14       0.41899057      -0.09965647       0.14737718
Si       3.03621501      -1.10846813       0.02710999       14      -2.80340799       0.58176197      -2.18895418
Si       3.85592726      -1.60902098      -2.27913107       14       0.09072240      -0.50112472       0.35849354
Si      -5.84854893      -1.01476457       3.29922097       14       0.78731061      -0.70563901       0.51861593
Si      -5.32690252      -0.68693230      -0.20916686       14       0.07137177      -0.29660272       0.10366919
Si      -0.74904124       5.65640649       6.47961171       14       0.24400283      -0.80528314       1.59323395
Si       6.42813819      -2.56325136      -3.08329670       14       0.29785253      -0.67147007       0.09935900
Si       5.18531813      -0.92141280      -4.14936583       14       0.04903814       0.02413957      -0.00375355
Si       0.95005322      -3.51814238       1.44301488       14      -0.42387490      -0.84476834      -1.31672981
Si      -0.07216958       1.05346424       1.26698692       14      -0.01399426       0.30452249       0.47479894
Si       0.55591269       3.25146479       4.84908306       14       0.23793220       0.25223422       0.33679472
Si       0.37287801      -5.71561247       6.60434343       14       1.11844582      -0.41523265      -1.12075441
Si       6.42723378       3.06688030       0.85656433       14      -0.18978958       2.60463703       0.41668892
Si      -5.26038651       3.41872708      -3.46508303       14       0.16942464      -0.21077981       0.61903422
Si       5.55521562       0.66843978       3.27341842       14      -2.92793757       0.03190276       1.28035512
Si      -2.73340415      -6.57634842      -1.56432842       14       0.19736096      -0.12600437      -0.11153754
Si       2.61053803      -4.07175043      -0.11157976       14       1.44687982       2.80300715      -0.38663478
Si       6.88922546       4.84942100      -0.97229909       14       0.81286223      -0.72102166       1.53694351
Si       2.07756094       5.17468964       1.14188818       14      -0.23439025       0.43068703       0.43374639
Si      -3.03265002      -5.28485392       0.35974960       14       0.51589956       0.68981489       0.05758680
Si      -3.40498927       5.18645383      -2.60046215       14      -0.08092907      -0.34998808      -0.02612601
Si      -0.28925725       4.61146554      -0.18781985       14       0.66286510       1.65887525      -1.06234332
Si      -1.66780315      -3.44964028      -3.36679097       14      -0.71747611      -0.64198955       0.58907624
Si      -2.11595037      -2.11813590       5.11766226       14       0.10581658       0.27662113      -0.18222205
Si      -2.73775305       5.66088697       5.38426091       14      -0.79512522      -0.95610585      -1.46301555
Si      -4.64945332       2.79308242       4.23832022       14      -0.41726665      -0.07174072       0.20861623
Si       4.65908876      -2.00319752       1.11270762       14       1.64567649      -1.79946548       1.85976273
Si       2.40171881       4.22544249      -1.14323440       14      -1.01191061       1.71886602      -0.17340420
Si      -3.56963391       2.20808334       0.57692314       14       0.94569057      -0.06365126       0.98858711
Si       3.44570965       4.91986487      -6.75702721       14       0.11595572       3.25083830       2.18672787
Si       4.72457710      -3.99369044      -4.89113028       14       0.02361095      -0.90277680       0.60240356
Si      -6.90222230      -2.80434108      -0.66638029       14      -2.33734720       0.56610652      -0.42365507
Si       3.37660646       6.65924760      -1.17929288       14      -1.79508124      -0.32198593      -0.41345061
Si       1.11993455      -0.79755225      -2.16053768       14       0.38679059       0.88779292       1.40673050
Si       5.37988985      -4.29137265       5.13049567       14       4.75447034       3.82331885      -0.92716628
Si       6.72996847       0.87233256       0.69608854       14      -0.02457383      -1.06243639      -0.29127616
Si      -3.42367984      -1.49461306      -1.38765089       14      -1.19775175      -0.33079659       0.96355279
Si       1.56430903       2.77758842       0.54169843       14      -2.36155337       1.06643214       3.18885415
Si      -3.68150313       0.07994913       6.13785188       14       0.18205827      -0.05487300      -0.20147936
Si       5.98727191       0.38755347      -5.89862914       14       1.85235976      -1.01438119       0.74932513
Si      -6.45050732      -4.39426153      -6.86766655       14      -0.17322962      -0.29972995       0.44832660
Si       3.87218716      -5.52387446       5.41194983       14      -5.13398188      -4.78215006       0.73367354
Si      -3.69872422       1.70051131      -2.44192397       14      -0.19745918       0.50325256      -0.33733825
Si      -1.25334606       1.74210702      -1.38908298       14       0.09485494      -0.16790435       0.01805146
Si      -1.83242702       3.89493717      -5.31439320       14       0.41225634       1.08020580      -0.32103128
Si      -2.79371121      -2.31543054       2.02406809       14       0.21822675      -0.38507361      -0.53582201
Si       2.12740848       1.61244055      -4.06931560       14      -0.88650017       0.96582359       0.42023421
Si      -2.44802490       3.88716317      -0.51460783       14      -0.16092483      -0.24259438      -1.69535534
Si       1.60154614       1.84499174      -1.65447530       14      -1.33023633      -0.94064401      -1.49071919
Si      -5.11325104      -6.36709293       6.86752805       14       0.07022814       1.10705172       0.92520350
Si       5.17673805       3.18807195       3.97023270       14      -0.74691884       0.52672828      -1.25951993
Si      -3.77436184      -0.51945672      -3.64319819       14      -0.62956803       0.53049649      -0.95763565
Si       1.36064478      -1.32299355      -6.54611110       14       2.25135614      -0.07904857      -1.24263190
Si       0.69626582      -4.05510273       4.26095805       14      -0.36239391      -3.30196366       2.34310647
Si       2.42032905       0.74734185       1.98743484       14      -0.29213877      -0.40811840       0.01428248
Si      -2.02803750      -4.70184787       4.60249351       14      -0.19500326       0.95540882       0.55149983
Si      -6.63891718      -2.58055416       4.74471777       14      -0.19236351      -0.25929241       0.07485587
Si      -2.63645138      -6.59969260       2.37265597       14       0.85452516       0.92422571       0.59037362
Si       6.82281056      -5.96434601       4.67323654       14      -1.03373748      -0.89377562       0.85673348
Si      -2.29927036      -6.58093139      -4.49521141       14      -1.11630332      -0.64198492       0.98812868
Si       5.10716535       5.19352287      -2.25962889       14      -1.27240296      -0.51509866      -1.43765290
Si       4.43006932       5.68207608       0.49144232       14       1.07225003      -1.25919083       1.48187588
Si      -5.32848558       3.20992725      -0.40665262       14      -0.34661350       0.35081494      -1.05960509
Si      -5.01203662      -4.51101703      -4.09610704       14      -0.11756112      -0.52478941       0.76273704
Si      -0.65265632      -3.18654153      -0.28344164       14      -0.58720242      -0.27224923       0.08158650
Si       6.20903119       2.61150614      -1.97689776       14      -0.12553103      -0.05906544      -0.65371995
Si      -0.57196899      -6.69593902       0.49985758       14      -0.53152030      -0.53044352      -0.43416059
Si      -1.19251132      -0.57363930      -2.39666633       14       1.34780622       0.58218517       0.18745245
Si      -0.76468482      -5.12746391      -5.35837249       14       0.96533174       1.71684899       1.38496637
Si       1.12308681       6.64730613       3.25003270       14       1.08233776      -0.26468530      -0.16701346
Si      -6.12566250      -2.43829389       1.46044788       14       0.24440264      -0.37507150       0.36724352
Si      -6.41883514      -5.19989664       1.80731282       14       1.20394965       2.48918473      -2.10805571
Si      -5.79317940       6.04735737      -5.29305451       14      -0.68763383      -0.96677824      -0.70837235
Si       2.93185526      -5.37830818      -6.18442666       14       0.11503655      -0.70815097       0.28837210
Si       3.59044077       1.26075858       5.66430238       14      -0.25828325      -1.17333450      -0.29734422
Si      -4.97145335       6.79233779       2.12525757       14      -0.20421732      -0.52878208      -0.58214532
Si       0.22981167       4.70178831      -3.73513587       14      -0.26770840      -0.17026976      -0.51688661
Si       3.24584307       3.62432479       5.53876459       14      -0.91062406      -2.70510649      -3.60064512
Si       3.65187106      -6.88088361       2.71414434       14      -1.13613758      -0.05598371       0.96306788
Si      -0.15065476       2.29491869      -5.31306914       14       1.10536121       0.04480559       0.47709313
Si      -2.38721093      -5.88104795      -6.91826476       14       0.25823877       0.97496669       0.15651488
Si      -5.54682945      -4.35787481      -1.56592671       14      -0.46602710      -2.10310839      -2.69395098
Si       2.14745635      -1.78591734      -3.92788078       14       1.71607278       0.10690184      -0.70171756
Si       3.60842499       5.08347215      -4.46345474       14      -0.15942511       1.16729652       0.42470048
Si      -3.10739016       5.62339225       0.85446329       14      -0.60272957       0.22499364      -0.10376715
Si      -5.84138017       4.53130035       2.43404332       14       0.08120701      -0.69133262       0.07027391
Si       1.72628893       2.01769293      -6.81483573       14      -0.30535064       0.09563912      -0.23611289
Si      -5.13920871       0.58263765      -5.75492016       14      -0.61717737      -0.06797997       0.32187718
Si       2.44631581      -3.54257101       6.36874800       14      -1.06017048       1.07811858      -0.82480449
Si      -0.81210583      -3.10108149      -6.87611644       14      -0.08357139      -2.46735503      -1.13300494
Si       4.90722675      -4.74753763      -0.10216453       14       0.44452368       0.51475851       0.05252455
Si      -5.34201703       6.85520432      -3.22891006       14       1.05819998       1.03951912       0.29209377
Si      -0.91790321      -6.78104450       4.28859988       14      -0.34491092      -0.70244441       0.79646014
Si       0.31689631       1.01312335       4.15441692       14       0.43951774       2.75377670      -1.83251238
Si       5.95370644      -6.53995201      -5.72280616       14       0.03072417       0.56745532      -0.04610631
H       -4.46086341      -0.12106839       1.34929470        1      -0.53955937      -0.20380003      -0.47453231
H        5.63914524      -7.08626941      -0.60338772        1       0.77740801      -0.01799747       0.63669462
H       -1.01666202      -5.95491693       3.00718957        1       0.01047956       0.70101025      -1.51702414
H        7.18214604       5.97961979      -2.13186956        1       0.27068831       0.08465666      -0.92447974
H       -6.58047849      -5.94187854       3.09122029        1      -0.34292011      -0.66888380       1.21815782
H        4.91541071      -0.40779248       1.46779669        1       0.56866143      -0.43674789       1.21833035
H        2.47896164       2.06296720      -0.26446852        1       2.80691626      -2.33544022      -1.26090164
H        4.05940731      -4.87792292      -3.57766276        1      -0.33914599       0.07107686      -0.05582071
H        6.28288354      -1.92218333      -7.96820833        1       0.95852037       1.34564829      -0.25951533
H       -2.78894958      -0.33720595      -2.19999079        1      -0.18594784       1.62436693       0.13284350
H       -2.18411315      -2.02065406      -2.15519573        1       1.11664553      -1.34174818      -0.46816858
H       -7.67966574       2.64316447       5.23539419        1      -1.93138081       0.03215936      -0.61852617
H       -3.29962955       6.93211199       6.24712561        1      -0.56932349      -0.82117821      -0.25003104
H       -5.92046921       0.86504884      -0.22370797        1       1.26498327       0.26943413      -1.40803662
H       -5.32140823      -7.91708382       4.76973364        1      -1.03759953      -3.32679717       0.32574669
H       -2.96548860       4.97291868      -5.31528514        1      -0.44504227       0.13743703      -0.11110328
H       -4.85560087       3.03667760       7.55142305        1      -1.09556223      -1.35570619       1.31282044
