226
config_type=amorph dft_energy=-23258.66078396755 dft_virial="27.733571051198044 -9.916975187840935 -0.8449440743003487 -9.916975187840935 56.10590365138871 13.187596030467645 -0.8449440743003486 13.187596030467645 48.04861398593131" pbc="T T T" Lattice="16.3957026618 0.0 0.0 0.07573175059485421 16.453218786737597 0.0 0.026692203933410406 0.41135178408190026 16.322364683793772" Properties=species:S:1:pos:R:3:Z:I:1:dft_force:R:3
Si	15.33855366213459	15.120233404200858	9.512726020276512	14	-0.10698857747146986	0.25756818876179427	0.19444112538885858
Si	13.979105615501709	9.94636776212713	8.697275910970292	14	-0.1372792834691984	-0.41175763192160664	-0.028488875389368774
Si	2.656697355647957	13.7494788810124	6.038737317913414	14	-0.7005179562063732	-1.3255906834509814	-0.2491221077851078
Si	3.1084432323777342	15.136150352344936	13.740220227719284	14	0.3125186229955951	0.09764878028549995	-0.7898625805288589
Si	8.21922640846019	7.699415411700216	4.4615231880967725	14	0.3611053144514973	-0.6640247157343195	-0.3462312130639087
Si	8.594342050089246	8.827280716516237	9.927084776226586	14	-0.5093585896481517	0.395946876865888	-0.21360100223460202
Si	14.137266761228762	10.749276798467339	15.219009314886875	14	0.28088939956819736	0.4406134040401605	-0.3437752932621032
Si	8.888467839279809	0.45382485182729315	0.10136971084711087	14	0.4925242775644822	-0.7290618532495933	1.2524586779457536
Si	5.876824835417341	10.647720176609884	7.511733803330592	14	1.4569119445618008	0.11880049242276214	0.1325286521691608
Si	12.515812106919785	7.410751031066299	13.946533912593779	14	0.08452380184720802	0.1681058078156458	-0.1251390383685232
Si	7.608466809464945	15.921140525246063	2.063458204517113	14	-0.7440812220877703	0.3597040620520166	-1.3174657335287814
Si	7.779757633883569	3.864039189546787	9.694247763156099	14	-0.4031493141992188	-0.4186690201326966	-0.2838407713651954
Si	0.4454105772212574	14.171417370303026	5.152646323688829	14	-0.1554886226780831	0.3853852904317837	-0.22385611291454466
Si	5.023572794054075	8.251740726408805	15.40696145235042	14	0.18909631164933471	-0.1489960675236452	-0.3785276383218848
Si	4.661921303450889	2.0097327660349262	13.68601275557884	14	1.021102136591273	0.04276725167427911	-0.0866485632837784
Si	12.744297700503832	8.475220711970204	10.037049114409013	14	0.01829007191593739	-0.006748380133792664	0.4928832038671748
Si	8.082697752825114	5.925341359163873	14.74841985708789	14	0.3084591048056132	0.0668112001861759	-1.1114569481940446
Si	6.325029240372169	3.1960356342781346	14.78251636034337	14	-0.552126612654027	0.017487115724455143	-0.030864833815717616
Si	11.839164737207833	13.21473467826806	14.43063998766715	14	-0.02991506751045491	0.7380640643070278	0.9036936405888389
Si	2.1104515674863635	1.017123810327425	0.14292461924344296	14	-0.40437238900001327	0.5074557146007102	0.05212607503961812
Si	3.673281747357809	4.571866267010686	15.89942441707051	14	0.30035189551012237	0.6704972162672603	-0.19206773806782987
Si	1.5378906765525813	1.5602740898264706	7.8277019476072045	14	-0.8355539502837426	-0.32714615538298153	0.17936107846512606
Si	15.945665217287583	13.216454587477285	8.369850449673613	14	-0.0032048827815645805	0.22694426751457453	-0.4296748935661225
Si	15.870381069375398	15.145884481015246	1.6196658831485748	14	-0.6962499213749275	-0.13568005596006627	0.4506813382527964
Si	5.541321211419193	9.825616691163505	11.990249497666053	14	-1.0696361203881122	-0.9079004831136651	-0.9979722160206888
Si	2.5258186591501386	11.314038253644904	6.4075258578852825	14	0.8821377506952494	1.0691216422135505	-0.3798926381363514
Si	0.3204392523924854	10.889909298478662	6.5107810745384995	14	-0.9338745603893971	-0.44312305994315704	-0.2864810394184555
Si	4.099833987377464	14.137493021925497	4.336658435335302	14	0.17641176355238417	1.2626351128028996	-0.019587194549952096
Si	5.703671459176338	2.8224579095587554	2.565304429870552	14	-0.6252830436597963	-0.2139946384591167	0.3628672929273948
Si	16.063137147718848	9.304362872569294	8.122124499015946	14	-0.22188587490771522	0.45653111707719723	-0.7426020651970892
Si	2.784987170695478	2.8268601557234487	14.629870728991746	14	-0.09385382883296137	0.005557701260032088	1.1895028501871396
Si	0.5047089150381895	14.507061997344064	11.127530577585864	14	-0.3067097247457845	-1.3754598422405737	0.057974825421890974
Si	0.4466173009371659	1.6399555651925524	12.289243170976905	14	-0.4575485034523798	-0.1491729595696714	0.24688087527753474
Si	8.00239979903895	1.4813796081881552	5.043791974576606	14	-0.6233724552963943	0.4513945628686054	-0.02500528479110014
Si	15.950300282430074	6.136677047763677	2.96273790196285	14	-0.42178314289646	0.005118299360818781	0.706017807596702
Si	10.476155543956809	0.9875000547580846	7.9365726924220885	14	0.7262837739511733	-0.3054059172379374	-0.2440464887726035
Si	2.7752022153469156	13.192264367770065	2.7270431179184103	14	0.7182500982678385	-0.15865185355346131	0.19690398717502838
Si	3.5615089631717862	11.22242562545183	12.076284307813582	14	0.21519637308575393	-0.3532904398309072	0.6742047501389137
Si	9.119158654871867	12.159189178322974	8.1029628413151	14	0.8438480789360082	0.44323078925607123	-0.0861693092521028
Si	13.926560667611172	7.658086764000617	11.985760354277252	14	-0.41387493715274853	-0.2623972387740964	-0.32599532864168324
Si	15.501753207289616	11.816561621518275	0.01510700043258252	14	0.032608043222778015	0.11365596778767785	-0.25409025459522994
Si	4.215551577623916	3.4632527962601514	4.555541065870331	14	-0.44848252898300567	-0.3353554375596823	-0.7128176098368977
Si	0.3050863164199759	5.437888921177229	6.439746692756252	14	-1.0890160838492602	-0.38575090160830877	-0.5440921656390962
Si	8.502767132012295	10.86868998009376	0.20765813249276174	14	-0.31920246838585203	0.04780096167006502	0.10120256205900861
Si	13.137151852842688	12.392034389244794	5.711506965478412	14	-0.5767356901152922	-1.2179377323647853	-0.3175232795012633
Si	4.330105072981381	13.355250768790485	12.650506083427006	14	-0.10903389175364764	0.11988395620467256	0.18851447051538522
Si	9.764532861326703	6.377746343140655	8.075165567022283	14	-0.5076901994059078	0.27030493029674385	-0.4241873834813304
Si	11.122039656764427	9.76309659777353	3.780032527818523	14	-0.43164744556774004	-0.5862711484161255	-0.4518771593371972
Si	10.370985309232692	4.366062488488974	6.641620421349931	14	-0.1384686767902989	1.2553059199772856	-0.5012495805789368
Si	14.645300724766766	0.4148145564840724	2.965741594690492	14	0.31845067719024067	-1.417713644182419	0.21561674880559814
Si	1.66396215302996	13.24309760430271	9.43031466041724	14	0.10815971594479729	-0.07961761867530145	0.2216459907813454
Si	7.72807182081251	0.77150798660233	10.943659330514842	14	1.2329946393406366	-1.149294362527472	0.31980256436757454
Si	8.952320903296188	15.194724000104216	15.499085626466542	14	-1.2601532248373608	-0.516430414831219	0.2526262672259376
Si	5.686385469860002	14.054258597792604	8.705013043056395	14	-0.6381424269185169	-0.20134608583664823	0.8024982776247268
Si	1.5227803969794662	2.3511617969750485	2.0511335548262375	14	0.32719834882098053	-0.21798730791077467	-0.6608324313688236
Si	13.29066153772459	3.7930474365914595	12.95150659074366	14	0.5740144322444475	-0.10916913189348743	-0.9862988836461525
Si	14.231094448851445	13.686545615915348	0.7446944544692222	14	0.46423286306370076	0.2876436932442264	0.23233844647624516
Si	9.773757083644231	4.284966063983179	14.83305119508757	14	-0.1918198835149676	0.5580733221489973	-0.9263273378326344
Si	15.622284575837572	5.590726382249995	15.604103381155902	14	-0.09334783530595624	0.3693433930077838	0.16501096834178355
Si	7.249153346061332	15.202385711958076	12.055032198023357	14	-0.35012489496074095	1.0862927690941595	-0.40108523084820386
Si	6.065990254877859	0.5898583572419815	6.161646063347332	14	0.005171007019881817	0.24816591371654473	-0.5912740051480696
Si	8.625005293207344	15.906672957217292	4.106741496908881	14	0.5284163936126853	-0.27444620963590627	0.1419139579192973
Si	15.857595700439726	16.382958282120985	5.137465542594269	14	-0.4995063711718764	-0.4663342274418579	-0.49650949081071166
Si	3.663736169268109	10.319384753815475	8.162800597749603	14	-0.25013049529166986	0.4170875332502736	0.3066541888708693
Si	10.365499307122054	5.62530983787453	11.64966648498328	14	-0.2868577063478572	-0.08300710681885266	-0.3728400962431852
Si	10.179750752096254	14.650786726877405	9.903009326438001	14	-0.32400735000814473	0.0568795345555079	-0.4749430593853096
Si	15.673988424181559	9.272097769301137	11.978513453700737	14	-0.08127983826477718	-0.17349561589827223	0.5718241076222134
Si	5.230975153585312	12.820450820657095	0.23297965568364565	14	-0.19833943527526707	-0.43111574098753347	0.2821592684858185
Si	4.757911584254663	10.647003684403561	0.9906086799827619	14	0.007610728858170329	0.3475967270994393	-0.055635890912152264
Si	2.398306000408788	3.650555663898288	8.513796521192887	14	0.29292782889819474	0.16045445549341714	0.5732307593428664
Si	11.896116849973861	6.571455011808757	9.070976603459634	14	0.5587999165124713	-0.1952980747920639	-0.18059032391868882
Si	1.4018227401623031	9.648528346283669	2.3298063942580534	14	0.7446203828734054	0.014485350263182262	-0.38475896917579566
Si	6.016878567124703	10.739732859947905	5.129010278731578	14	-1.246042484619324	0.6796490656543274	0.1353329567418463
Si	8.810232464888498	13.129467187005103	0.9214335708823616	14	0.40082580632140097	-0.26944926644619854	-0.14783187103468215
Si	4.292831082550045	3.6918285662088373	6.975984544013082	14	0.5396873480046185	0.5378824320698745	-0.181929869790486
Si	6.147629377141759	5.186805130614423	13.586953199236778	14	0.26342465246002755	0.15895987197081507	-0.6979892741240077
Si	10.462884862222348	3.514130301189983	0.588277811505384	14	0.3043116548136824	0.12918775791616038	1.4276771915190571
Si	7.026170150290586	12.122087342769587	8.996090871122128	14	-0.940020016325615	-0.19448997638994137	-0.40795111049512733
Si	10.857250698346624	8.230706679463982	1.808290244421253	14	0.49655037138530206	-0.07306464254584005	0.7580070998332883
Si	3.357708739515346	9.75912227944831	15.904533318019926	14	0.049225354017427066	0.015289849117856597	-0.09465601369284757
Si	12.442015049239023	4.44426999018576	1.2485639095311274	14	0.607759675350327	0.5303038420282061	-0.7403294652046102
Si	0.2833505334012276	5.410040820206161	13.451737839384911	14	-0.7864391537950819	-0.5093063962101527	0.23435367882617728
Si	3.3312100048733444	0.2843129611474753	8.419926204743282	14	-0.8756333684563388	-1.6721080605370224	1.1632847750165256
Si	12.732292767014862	6.839136172176103	1.358874197039718	14	0.8714074997521434	0.32940692829098767	-0.17393424646588948
Si	3.272500272781971	10.939617789808707	2.687772130902867	14	0.25312686143177043	-0.5160000118006263	0.9335840254882204
Si	0.6761423820699702	6.0343596653027145	0.9475666813550045	14	-0.5681697956306869	0.2954233437219304	-0.6340206879797875
Si	2.391482108960947	8.111416465607524	5.540514542848234	14	-0.2985840034919885	0.2280148757698842	-0.15564880253952834
Si	7.317208628669932	10.678104692782732	10.790195553600393	14	0.3464423008106929	-0.09960641987626068	0.16503025163168467
Si	12.436045373899862	12.22532288457961	12.5035218882045	14	0.401121226322686	-1.082257933515251	-1.1521716864912497
Si	1.3459674999043492	6.218009570387801	4.506296572925615	14	1.1858835052279673	0.020603552483006632	-0.128433909836293
Si	13.112555019709458	2.256773376321332	11.075707040612446	14	0.9127477879737403	-0.15335923325193648	0.4847993916300973
Si	12.383802106938303	10.621877270074355	7.254019590611354	14	-0.3228300408820489	0.0389938975064298	-1.7490807831694877
Si	9.093307550485006	13.904893746543603	11.841258468437744	14	0.26281195806223623	-0.534764195537599	0.06948103595061766
Si	10.762347452629324	10.547806404159141	12.465213328935205	14	-0.018998925652702215	0.273641967891764	0.1634053130693511
Si	12.244922307541527	15.725500442804401	7.543138132209003	14	-0.0016439647417026818	0.43324153086623196	-0.3012520394827061
Si	3.837924114347072	16.564930906823772	10.794489588127519	14	-1.3258033138609577	0.1576203260990179	-0.5928266956509071
Si	12.525406872117472	12.3869582797007	1.7619838613935312	14	0.14928531687216187	-0.22206071006948525	0.2656756551678172
Si	7.612170598696245	9.885574136227442	3.727131793180225	14	0.832696680941462	0.19306455560045127	1.0208841068601242
Si	6.1044611316035065	13.027748247691296	4.066065398175221	14	0.20476951257042542	-0.5064069607406217	0.8087710032742919
Si	6.609588137059572	9.279921798611348	13.917220035804744	14	0.22833549260330663	-0.13208873604888344	1.0128614869296664
Si	12.304130468993817	3.660101241987988	7.697188875278743	14	0.6001108941334184	0.3888935636411257	-0.30495031737520717
Si	9.089629994377963	8.052705093945884	6.567875829917686	14	0.6180461535151756	0.136212788982401	0.06132934653308818
Si	7.347266870359809	5.651264235188159	0.5076191522606589	14	-0.8676056063152403	0.12626749649353622	1.5412673390105391
Si	16.414961054146552	8.866627123764024	5.306451131218643	14	0.5795718763939476	0.3245727360680453	0.4266816127524061
Si	4.81620322592816	6.877879217565936	2.959539100373533	14	0.6327996700632491	-0.9036535313458445	-0.1934036843921788
Si	0.8849810051543816	1.648122264688395	5.5956188599242775	14	0.26673880721769844	0.3060209256305168	-0.45271276856624526
Si	8.503927947760749	7.117787697194458	11.46381955574151	14	-0.11529144788182405	-0.9229221659466303	0.10916913189348743
Si	8.535474919252318	7.876998906800438	13.655213428128649	14	0.20369761876245568	0.5205197578429146	-0.0693100574468278
Si	3.705359939615621	10.020545200109645	4.84438088052273	14	-0.0024672326652140967	0.3507926110123834	-0.6139845784409376
Si	14.323856415801112	15.548387504370574	13.396927005386514	14	-0.6424726824987103	-0.40529567292047836	0.267720198118399
Si	1.8009794006043565	16.15411854135944	12.001316596962766	14	1.318568994821657	0.37177334464585576	0.2335697488140641
Si	6.137990343546887	7.598590038181476	1.1299311633514075	14	0.2064335319336252	-0.9772838170621172	-0.29044208427467555
Si	6.251486316082666	2.066875068951832	9.854402626326827	14	-0.6924241166585472	0.7830018430925758	-0.15493352103946317
Si	1.5753220657294706	3.582956181823687	12.876471657511933	14	-0.941355191318368	-0.5519083258123464	-0.37692044038626016
Si	14.889860665240441	9.683487263499158	3.669317266454186	14	-0.30212518684942846	0.7323983766235493	-0.9657308124165637
Si	10.764323134800073	9.638238403293123	10.347304995878254	14	0.19086471788853257	0.2426195253199213	-0.10183145442031682
Si	12.8058389704449	16.53582197631801	11.793907679150466	14	0.13187507719677916	-0.6710520607953483	-0.663425133973661
Si	7.2146715437933	8.707819987352096	7.954380065083069	14	0.34421186694546435	0.08736538744703568	-0.11325358980507468
Si	4.094266006753517	6.33280572214466	14.389360527075535	14	0.3428944325794205	-0.2432885269242238	0.42534309532273706
Si	5.3858342047962795	7.148188609069968	8.03022986473709	14	0.3487958906207564	1.5036104162705863	1.1577041909191443
Si	15.684611199936137	3.433348674175294	5.695037482154633	14	-0.0514537309983994	-0.2766571031007017	0.2736463387708083
Si	7.590569260439325	11.372710275620154	14.40378874541792	14	-0.3601516914882544	-0.14030624576260872	-0.13444901073277937
Si	4.896292954290521	16.450139673777713	14.668048122639746	14	0.05388342552593934	-1.132662139321966	0.10232999174189356
Si	8.867978129663356	4.6751952643258825	1.983168448582278	14	0.5429981603253732	-0.2059205964222557	0.32905725796744756
Si	2.2956574247540567	4.519606604346465	1.3717923711669502	14	-0.08287495200539706	-0.833618679309267	0.5178694624789059
Si	14.520821271017848	11.157744578451029	12.865438989190809	14	-0.8805184685646202	-0.10262335485892245	0.4212087579679389
Si	0.8526257255215854	5.3193020829649615	8.648064209430899	14	-0.33182453862352296	0.3642662313320874	-0.03980842367185271
Si	12.912979968628964	15.177288809893659	9.7652165621277	14	-0.06909177060514723	0.48820687751088954	0.2499188933238217
Si	12.057321038114944	11.52604616605384	16.143966322271257	14	0.07156311703887357	-0.22942924080649765	-0.017336706063226483
Si	15.406774541340074	2.10845293133189	10.41461919272654	14	-0.5215901089876922	0.2633475193004231	0.24091565382425917
Si	12.592750581230549	4.054960588762383	3.4717998760577475	14	-0.35985395749218124	-0.29419512671049575	0.49529567198906976
Si	5.278512853882935	14.72681360012017	10.96443760449814	14	0.1603531539438033	-0.174967573694057	-0.21603712452544235
Si	8.418052175929038	2.353339146288535	14.645638476241599	14	0.5300390181802308	-0.010174892193954009	-0.5725915825602775
Si	14.075781236676747	7.528360685399923	3.2488363551301953	14	0.1499895426193504	0.024785969507291512	-1.2874622199953134
Si	10.634551148231926	8.904014244543728	14.115650666839446	14	-0.16432576877396413	-0.21003642181874874	0.017199151928598562
Si	11.764511823848125	2.0892470052338576	4.412686948148335	14	0.39516140419058277	0.28625401081868634	0.7533855380203222
Si	8.12746130023236	4.773446512526719	7.532169407128259	14	-0.11295611291953356	-0.00171981234864705	1.0706486216631865
Si	8.772909287349176	16.306995352118598	8.86208387455644	14	-0.3773580425117494	-0.36311797569610926	0.5927770733182282
Si	13.468618854845502	2.451036219739403	6.125083646411518	14	0.34220974723266506	-0.44335934452207865	-0.29231899115838367
Si	10.25949617070272	14.768594769213236	13.68973458008307	14	-0.364311739896254	-0.8362077823666562	-0.3601398644037817
Si	4.084513842810279	16.217735507257494	0.5544075689466377	14	-0.05269660331015899	-0.5033478596307095	-0.13526045157181815
Si	15.852965554008033	0.7067170883936948	8.649272572717074	14	-0.3660603486244867	0.2884057688611183	-0.6226016379214138
Si	6.882430664624851	5.35149340557114	11.238931179321463	14	-0.036082377841894116	0.958787799610036	0.7518341330701448
Si	9.902868323395108	2.2432649568982748	6.001050155775001	14	1.0074120292036122	-1.0181098842196845	-0.08283432854133872
Si	7.6883466728332355	14.163990116997232	5.4232541169813056	14	0.8024095744911816	-0.5873988352095424	-0.750917791134044
Si	14.222089928949586	0.38484977029936673	6.842664527388922	14	0.06955971177341419	0.0033046416679863256	0.6627713018907474
Si	13.759983607707818	5.27996551313877	8.377897460540025	14	-0.009281175984670537	-0.1481440032205481	0.44907825408568397
Si	2.7197847403500317	1.7417466455980717	4.048844991669532	14	-0.7317329745666951	0.11428254615419794	0.4346792929612587
Si	10.914870116210986	0.42707198379403405	13.173491288222303	14	0.44083271932396906	0.11474997310140084	0.43888716392821303
Si	15.519652395885503	0.8279157620399867	14.085438305544546	14	0.6312246109441264	0.8677776132611584	0.4148606989324933
Si	15.341722951459117	12.759055472469718	6.178245072722139	14	0.8015464544352078	0.015467512495478829	0.3738561970657077
Si	10.36565998500814	9.900697532362685	16.2327588896065	14	0.23587191651772468	0.08238438511031282	-0.04163519400181792
Si	3.2686079329700597	8.075245905965327	7.746907204030386	14	-0.7322929613054233	-0.3775215648101108	-0.08077821561681629
Si	12.183458097402971	0.42228935732758704	2.8926347960917917	14	-0.11428151771206987	-0.4873183035122464	-0.210526988713833
Si	12.143182053814257	0.7905483161034783	15.253156644820606	14	-0.12284355553869501	0.516202872010386	-0.5559349338542303
Si	16.2311881812915	11.227272195158656	2.1617012548666183	14	-1.215363798828785	0.21960556159927586	0.45247494132413163
Si	6.386990240301377	6.260213748609542	4.601667096168773	14	0.04133951689000089	0.4155947495013955	-0.14973860274010398
Si	7.6832967964134005	3.331301820808251	3.5763782259157724	14	0.25794742679651605	0.014703637104862832	-0.20706139585280542
Si	5.018860669109073	6.072077979276185	10.068291125831074	14	0.2153925484216812	-0.40889444903708966	0.08274742518151772
Si	3.3056917332505193	13.94187589346756	0.6973862940088645	14	0.4523597558057889	1.0773545785591965	-0.4407519866169165
Si	11.36608969088532	8.805053062417635	5.884639027305955	14	-0.85849926549234	1.6853083723611948	1.0233238286984128
Si	15.502515607463389	4.380539893939344	9.90318967916728	14	-0.6077815297455483	0.8620278504337111	-0.30302301682722416
Si	0.8120184887391054	12.510939304088698	14.644430112955424	14	0.2733509187695232	-0.048008706979932994	0.6514926341828537
Si	5.784120253426991	3.8698039186026763	0.4891920220390619	14	-0.29553004459271665	0.022196866449902396	-0.1569868057481334
Si	6.847263521985556	9.783174775253169	1.6101153863480764	14	-0.014821907949589645	-0.05591022784981206	-1.3332209527095849
Si	9.545499390327185	12.77413296063751	5.906935543355737	14	0.07726557152843	0.4045148282347495	0.08994652007793233
Si	11.602620655765511	5.214023636603278	13.586512154835175	14	-0.45025736298550395	0.2809192243899111	-0.10523405520100079
Si	5.991678372133516	5.503011012579631	6.74923525534092	14	-0.050044251061894224	-1.9206732669097861	-0.6876266912416829
Si	12.393378836863059	12.999321378416267	10.251427845422848	14	0.39324310251122024	-0.23585880388059194	0.5403087841604982
Si	5.970744338974931	13.02040789160961	14.379208307987348	14	-0.6294009259405454	-0.7540524827403685	-0.34432730957433905
Si	2.883846699465067	3.97078177215617	10.97493249377196	14	0.061986263942386	-0.2828724931016276	-0.4393574190912681
Si	6.76406024968772	13.654621543262557	1.864161880381869	14	0.1284673342054549	0.06258918813996073	-0.2753486676032783
Si	12.967223511315263	11.044645381919667	3.6823436522189863	14	1.0026853091830523	0.8404506203659645	0.4137067868648108
Si	1.728534988393193	14.494014297165805	15.414193596794538	14	-0.26037249333447976	-0.1943483084868012	-0.13754616420142976
Si	9.286696502951203	1.9683319772436152	12.465670769039468	14	-0.6248976349723061	-0.681223353441854	-0.8091127031713398
Si	4.973329802817255	1.6343187226174256	7.8636118155770784	14	1.9080329418243425	1.1112224633888472	-0.20086091826273628
Si	2.9582766312685744	6.355118633897104	11.172776158651367	14	0.6856837069512469	-0.5444081544829423	-0.5747150584441878
Si	11.168605091894205	11.499132620134496	9.001835925334825	14	-0.8757601239486221	-0.722981703388507	-0.04265206615593648
Si	13.067493070513766	15.038056502889653	15.346325225196283	14	0.21044111379614006	-0.06255910620771502	-0.7358567703896806
Si	1.782321090975228	7.276332502363798	9.455678812435044	14	0.03616773853852303	0.8683404282157386	-0.22972928879735893
Si	14.455697540045179	12.016138312169035	9.583401336170468	14	-0.13666247530289488	-0.7901811404780253	0.9236970970901229
Si	2.0630548702316323	6.839150928308499	13.224514714905824	14	0.4813242856793851	0.8005887177034527	0.5169400079056723
Si	9.807932286272488	3.5273829476515153	10.720956501259613	14	0.09794162918146482	0.04729908191157212	0.6838695350373505
Si	4.462398718618912	2.243887993599423	11.398171162283665	14	0.47364079454065466	0.520770954832693	-0.15512326861209008
Si	15.876357302995624	12.989223265146865	12.802304056951016	14	1.1288491901321862	1.3499521634699165	-0.3344743197664676
Si	6.799850429028163	15.071736555297521	14.321344594153324	14	1.0096648316851262	1.6459992573425148	0.3310002422578835
Si	10.444970917494066	13.187883436018831	2.615888451722737	14	-0.10293985792383267	-0.04246668946235381	-0.6132726393777885
Si	0.7174431570750445	9.400618763756189	10.150097484262124	14	0.43928594236336793	-0.8842308875363819	-0.33892233197032373
Si	3.3673510522507506	14.355190243158077	8.067233326074504	14	0.19723154599281525	0.4111981594039424	0.8781674498598767
Si	10.839767960598344	15.167884234846849	3.8512308666273896	14	0.5208331755814406	0.128868940856462	-0.44704939487755513
Si	12.852788065016963	7.261766560119055	5.197563990701096	14	0.34990866500331647	-1.585453583711008	0.5567743997412585
Si	14.108108643615019	7.499263231886027	15.682222346058316	14	0.11891104995152851	-0.7933713679592651	0.4522527978244708
Si	1.357954398120391	8.272443580159859	0.4964717140209011	14	-0.2332712434863949	-0.012959399255674377	0.19148718248654042
Si	8.717657408949174	11.65204058272871	12.368927925483518	14	0.13095179327631398	0.2741890991038915	0.29525699320771687
Si	0.8759518916985284	8.882412906286804	13.652193339698345	14	-0.4159073959083256	-0.04624390028818335	0.08236715870466782
Si	11.47132222927955	2.52807142869587	9.451435604586171	14	-0.3413687386824446	-0.5941772972755808	0.38178008655187207
Si	9.850618498152484	6.534989329518647	3.112740546045392	14	-0.6477861287533283	-0.20331915205932985	0.23369521875368732
Si	4.512538416928963	16.56237809591933	4.366364169417951	14	0.12375269837989934	-0.9755596338344261	-0.5166800691578054
Si	14.397366548685293	3.3517734951517744	0.23130073573107734	14	0.28264520739132654	0.13718312413022488	0.7982531256306303
Si	11.24615184677372	5.463453100767507	4.738922081431767	14	0.6161301658306011	1.157056015267935	-0.31490975094333273
Si	15.791199662940501	9.123578936309487	15.57924421678008	14	0.3121303860922527	-0.5332585562621202	-0.32981290582103906
Si	2.4077728791257114	11.042386054092871	10.0403462902143	14	0.24416887338584253	0.3237448401549576	0.05387622643104292
Si	5.449826632285285	0.5153448073548991	2.222649000371327	14	0.055271565288287285	0.2779097456126778	0.8582408694076651
Si	9.52506214695925	11.44995698914096	3.9886645650493953	14	-0.12871930252682942	-0.6702987269365449	-0.18920095563586473
Si	13.854411378047923	2.406661250485241	14.767597910491398	14	0.23292260160498282	-0.7651799694554374	-0.26380440471581346
Si	3.2544682789945236	5.193953656974968	3.337353474660721	14	-0.43503924770607943	0.22804264370734176	0.44192261086917994
Si	15.574389449221922	2.3281651844216076	2.1511899698901384	14	-0.5739103024789816	1.4566113823498754	-0.1894030445140284
Si	7.101216560514177	15.241751794049057	7.3169430182868105	14	0.20570410935429922	1.0418309019033707	0.8137604902585713
Si	14.651454031975739	6.588386853947597	6.628025104702766	14	-0.22834140614554296	-0.19856157877492786	-0.051728839267655244
Si	11.114297605967524	1.2290317089501253	0.8497761523989646	14	-1.1200665514690924	-0.3465945102456456	0.08372418809264197
Si	0.5830606989183993	13.35638699098495	2.9503984961395795	14	-1.5394307984803572	0.8619805420958205	-0.07977574165249056
Si	14.893977626178819	4.1208729530330865	3.66571021186859	14	0.8502365043249801	-0.38276481988948874	-0.8841193015654876
Si	0.47014841339738117	16.408450320619554	15.92619368080643	14	-0.0005926397762941322	-0.24553104498445696	0.1300220815925484
Si	11.59815282679017	14.111851782532707	5.811138731843371	14	-0.532090760225709	0.2625363355719164	0.6245518213067461
Si	2.2900074656168004	10.67710947363116	14.054163502717163	14	-0.10128406609765729	0.6582708391383602	-0.49048230571922063
Si	14.857687377907192	5.450389004886585	11.928158971685816	14	0.12131837586278317	-0.25345467736008936	0.26587465871959665
H	1.1537655963108662	9.06331325203551	3.6966407049400756	1	-0.17028584801659935	-0.3330339865661206	0.49182313714367787
H	5.191848448753193	8.402612342732423	11.337502143724205	1	0.030874346905402163	0.9565064578594685	0.266175992263118
H	15.526105744453186	14.370736648421998	13.705943371734524	1	-0.43130394589696835	-0.20089305707923813	-0.233342463103763
H	15.175526271857514	7.775811188252873	7.520287441409252	1	0.15149183945791295	0.23605395077439117	0.2654411703626197
H	4.0755371956029425	8.082868268132797	3.265192708105607	1	-0.40647992403093863	1.091700317803495	0.44803592798889597
H	7.252819425176511	4.457919412651709	4.594143108217274	1	-0.038938104520982585	0.3152447659665481	-0.12703728542638854
H	4.828468851089453	4.694217558554103	9.307701037631237	1	-0.23836434601507628	0.4008682295591834	0.3379165155690818
H	11.4316249539948	5.772539968636962	10.400973049401124	1	0.2657386472481608	0.013594462269750952	0.2713927649576985
H	10.001099896752752	13.587464745159824	8.632575189126296	1	-0.4160945723756323	0.19612159982610736	0.09193886959051509
H	15.068285259887213	11.440540937102288	10.881977057530884	1	0.05271691504218816	0.4813001172893758	-0.36077081364934604
