227
config_type=amorph dft_energy=-23272.11640377153 dft_virial="51.67003887007178 9.000301117983302 -9.936235613443689 9.000301117983303 58.044075520189935 -2.3398362386509706 -9.936235613443689 -2.3398362386509706 62.18719934276674" pbc="T T T" Lattice="16.3747472526 0.0 0.0 0.06417263448293939 16.462712394840963 0.0 0.108400826812212 0.40922130858972655 16.29911229504024" Properties=species:S:1:pos:R:3:Z:I:1:dft_force:R:3
Si	15.648622185481255	15.669295303887662	9.496837601969542	14	0.04692961407706684	0.013805807127067124	-0.5557135616861655
Si	14.162885693112196	10.49131693948807	8.733125940007179	14	0.1468324823967406	-1.59497361537992	-1.2961970360994524
Si	2.672926955353985	14.314650125598746	5.824420636437733	14	0.2746909788623844	-0.8129336227876118	-0.7680848042461407
Si	3.491896839394972	15.6580442150504	13.344926130976695	14	-0.09438424786050792	0.09376486858888425	1.0013511626324274
Si	8.60134361159298	7.576423618931867	4.571133506167684	14	-0.23084771961162334	0.4521640946909258	-0.08664804906271437
Si	8.84016930027215	9.319101182865646	9.726997774402637	14	0.5741699841163165	0.08527019372164701	0.2768661339632297
Si	14.625807985316825	11.411508961145731	14.836832628110534	14	-0.14715284211963106	0.7223273570845294	-0.13692061427703775
Si	9.090259177586386	0.5941151297177342	0.19343325182023852	14	-0.11080641176135772	-0.6770054551641511	0.45779378689992195
Si	6.256093360985498	11.133136620376806	7.234358423774504	14	0.32053147272583654	0.1372224620416231	0.6815884503973151
Si	12.788890475994883	7.9259327741902625	13.719789944881017	14	0.013264589457175954	0.11886297028204175	-0.7147559661377574
Si	7.58167336290105	16.15277281631848	1.9103369635784253	14	0.6271661211962727	0.9279977849591348	-0.4231774533115763
Si	7.803772247261691	4.482095817981672	9.672640163422907	14	1.3913112207603504	1.0430812304205588	-0.059073458725190243
Si	0.5224739730128839	14.801489373640521	4.968897404104767	14	-0.3202753906359498	-0.11928925954412228	-0.2504328572773193
Si	5.225786076478281	8.693564550644899	15.162031833597718	14	-0.9318809253241542	-0.46985149951982036	-0.5092128079764994
Si	5.282090644906346	2.344135130319579	13.390629688033426	14	-1.406005344775529	1.2745719834727511	-0.6500610427405953
Si	13.026368522975165	8.814285737289966	9.909139000517483	14	-0.7007717243014719	1.0252416161567113	0.08748700072867867
Si	8.554824592123069	6.51595732493481	14.656384550861604	14	-0.8917711681087803	-0.08131351974447112	0.14106934982162866
Si	6.6875532138189815	3.676402579013093	14.50488538928055	14	0.8983935640818858	-0.3330620116141102	-0.26516889030921603
Si	12.258550074401851	13.895764441180534	14.229609513217092	14	-0.2537138447763603	-0.7938629632964773	-0.5866670986354282
Si	2.4861107388985224	2.0347915925970863	16.132350231545036	14	-1.1118634399451601	-0.3812275560185722	-0.9430024984969869
Si	3.9181904594702592	5.169560106837028	15.81067159671716	14	0.40701574237965754	-0.8396849452016245	-0.3256124910595131
Si	1.63227901795675	1.9374126081605991	7.646839944542223	14	0.4883835124463838	0.5226105806892589	-0.09306398527861189
Si	16.094190520547578	13.675481516290207	8.28838944210129	14	0.10847184813066328	0.22612717024383144	0.11186750692698284
Si	15.927136986551277	15.761652153341776	1.3621579123284098	14	0.5014946069159468	0.18162750780483655	-0.48909030929889236
Si	5.650547020210725	9.953311518706096	11.48368229713629	14	0.35962435778709206	0.780869882561109	0.38432702348201075
Si	2.6172495397456945	11.9480553919475	6.257259242989884	14	-0.38427148760709556	0.23792931499490716	0.6220833030888719
Si	0.3625319917483882	11.140493794317399	6.218582089979243	14	0.7900916660128842	1.0394084064707272	-0.12100675789798122
Si	4.279057139423058	14.693468440964569	4.154153842329675	14	-0.6686568190790984	0.3973283317544035	-0.08698640652284585
Si	5.726068992014442	3.2965264549747504	2.481897516430428	14	0.4849346317699371	0.6346421241356673	-0.48495648616515835
Si	16.193223354456578	9.631426562062838	7.8429504675382615	14	-0.5649978229972201	-0.4115450015116303	0.8515667942176248
Si	3.2133935006480256	3.3857491778047177	14.298864869247238	14	0.7736052244790306	-0.06095499359847461	0.6245299669115248
Si	0.9135667989192571	14.903011169131915	10.929757347075338	14	1.1943565828105152	0.34474845662577924	-0.7223052455787761
Si	0.6791017054334535	2.0604246219463063	11.834275460662807	14	0.4326224087051402	0.4214501847575008	0.7801972814093583
Si	8.240113412251175	2.166736031009086	4.645538720208773	14	-0.10879040807982962	0.2166932706031441	0.39167164293954576
Si	16.226716262487045	6.672673480990544	2.8342837147811055	14	0.0001532378770808255	0.4719212393025396	-0.15669189996791244
Si	10.828951128038883	1.410157208949956	7.688207468526466	14	1.1028316611765439	0.5855237280995583	-0.6214179010320177
Si	2.915789019230922	13.80313740839675	2.448859826373582	14	0.7174394287603959	0.17246691665968097	0.6204213406099283
Si	3.778864284996787	11.587105200783713	11.825996388451893	14	0.861086311665473	0.1096057055768486	-0.5928611484621971
Si	9.41495731580764	12.982138693171168	7.990131608268807	14	-0.43713392721040406	-0.29295971060416454	0.10645661578073122
Si	14.214410472817228	8.14118865167404	11.792225109718132	14	-0.7698568100327867	-0.668911358505793	0.17888336709664251
Si	15.912491412608551	12.981082521973375	15.992927446062772	14	-0.05728628341715532	-0.28629463428274476	-0.8623063011398833
Si	4.2861768795284885	3.769258858258412	4.293185271352601	14	-0.1584600490965783	-1.0468985504893826	-0.285986615865391
Si	0.34032947194858787	6.050424898018117	6.149914587375465	14	1.0488399921166263	0.6102271651260731	0.8980019847416272
Si	9.108037240678533	11.76298963597334	15.748996111190241	14	-0.29832792140210174	0.7851440880453232	0.25560026474975295
Si	13.299415795937545	12.767323296388483	5.465220905755248	14	0.4288207723787693	1.0670603870783877	0.5776782573256586
Si	4.524100319634042	13.820288318669125	12.4049730643346	14	0.7338561933400732	-0.508268440992409	-0.8015873350097983
Si	10.15552818495263	6.879992518480987	7.760803272996143	14	0.5844901437608588	-0.9956960164807616	-0.21323641950020505
Si	11.373827392768048	10.374109773603411	3.595321380517119	14	-0.04985707459458745	-0.29490783710524077	-0.4957983230791587
Si	10.593279215680562	4.949093784777472	6.293802766433511	14	0.15518420380817757	0.2880640689640706	-0.30501793744512706
Si	14.815157375172266	0.8872460301854278	2.7193100644216996	14	-0.7379622485363498	-0.7507586397147269	0.5878109833923622
Si	1.9053377532422064	13.581428243020722	9.146015191981489	14	-0.14782081528180552	0.960196508214945	0.31118730466082234
Si	7.947431179858201	1.2599451025029553	10.535628643028334	14	0.9189328389318885	0.08349793082446894	-0.05439070460560455
Si	9.064956918131667	15.473792284014694	15.260837058519906	14	0.2558550612869796	0.7759508438626017	-0.870202679799122
Si	5.950425954021215	14.574951295299702	8.487612804550047	14	-0.7217118344708859	-0.4407730696805416	-0.15541277507113876
Si	1.6170734276579855	2.6533689572354797	1.7523665018831425	14	0.5431416280022374	0.10198649207112176	0.5004283695396814
Si	13.671941295934195	4.298569288249257	12.648254321741202	14	-0.10989649758855732	0.791392645304879	-0.4635450923905612
Si	14.419967587503292	14.284322456212204	0.4933793220944643	14	0.37613882436893514	0.4340131195728083	-0.19672658090793815
Si	10.232011354420074	4.822073232864328	14.590079924286378	14	-0.07367707983309932	0.6851028942594256	0.47683616423253466
Si	15.794802829154664	6.183807039238896	15.46097413186536	14	1.0814984290036793	-0.7059273046894328	-0.003052930457143829
Si	7.481518858805249	15.814868444438002	11.676827353404883	14	-0.7142350601998954	0.265568440075967	0.23741483682034553
Si	6.280247750657809	1.1581072743895855	5.7872581475479565	14	0.774964824972325	-0.03125718448757221	-0.0882704165197278
Si	8.942886452312985	16.45060326924767	3.824438481550223	14	-0.2904860501756501	-0.09892584829801748	0.07238355674653282
Si	15.766657913576895	0.4924590612988682	4.975514439469542	14	0.22934105189401655	-0.6813038290383747	-0.9184492140211686
Si	3.9912218322168553	10.80480820068965	7.8797215999687005	14	-0.5937093561073139	0.18774596713519295	0.2764748117335032
Si	10.929664011015998	6.092581684819937	11.21116065356072	14	-0.8786083944222821	1.0462583452646657	0.1314472452715065
Si	10.01515075170554	14.723506277324738	9.362158580766357	14	-0.05094388081341404	0.1627684502815504	0.6866401581303421
Si	15.991655128201247	9.556259922274503	11.68675372518941	14	-0.004394276102665082	1.362691476110186	0.5935237223031992
Si	5.432271639333567	13.162452497492623	0.11038053375505133	14	-0.3088339719612908	0.8021735470227921	-0.4887192988011951
Si	4.789094491897592	11.050213262814914	0.7683637276568266	14	-0.43452425531045374	0.11161399594241624	-0.21531438681994872
Si	2.451394637248285	3.9877945976168863	8.732703471528064	14	-0.5431884221190642	-0.3199766281977486	-0.5199566857778022
Si	11.89817791181608	6.931006406071737	9.294956618041686	14	0.7371217542071934	-0.2560427519753504	0.10860143183879874
Si	1.5901926425681174	10.208698626756549	2.4231236361166713	14	-0.9845685297656929	-0.05678234677440629	-0.5525084217940689
Si	6.085627329661757	11.554827298999387	5.000973896497885	14	0.3561297114359468	-0.7086897002454	-0.5204305404883055
Si	8.968650479640226	13.426233300984757	0.5666939779685303	14	1.0685428864059852	-0.4054183146442495	0.4733392038866013
Si	4.61500472900685	4.224724090564206	6.519610531046865	14	0.35906359971676777	-1.0442559684413344	0.8119023524437003
Si	6.613457482500967	5.701243237704774	13.407628313156351	14	0.09347690479302767	0.511203357715358	-0.14135731361748527
Si	10.651902448319595	3.871519154850899	0.5501440209203274	14	0.7001680287723011	1.150063894349792	-0.1903422692874785
Si	7.279564188514757	12.55364758201458	8.708123338427184	14	-0.7094980557580546	0.2418016567175822	-0.01425266523170886
Si	11.214070446147508	8.82196385627671	1.6442047463808185	14	-0.07279210538190435	0.2982860123853833	0.04577441645672431
Si	3.4530002647711457	10.23617545264641	15.530082115170233	14	0.7330606933540195	-0.11958005155583103	0.5940839661524593
Si	12.711549269771403	5.103684498639819	1.0037752815338303	14	-0.7074175173329907	0.07181559958131212	-0.975281440238786
Si	0.5729736935399024	5.978886902220959	13.338145348139395	14	0.0056983407210441876	-1.2131842728488957	0.1499872286245623
Si	3.5482980188318276	0.7602696900898664	8.12771223468515	14	0.07540203439238666	-0.027535509536657864	0.119266890927837
Si	13.179495334433128	7.550700528472758	1.1355297728777005	14	-1.0182099002166385	-0.9240331405554664	-0.44436027582321225
Si	3.3472930838819863	11.53982966799073	2.5203798099487633	14	1.4848122939433877	0.06349910231276114	0.8442239745338138
Si	0.865953946332872	6.712177558737442	0.7167505243166313	14	-0.1408868013438982	-1.356234659319698	0.38973148686496206
Si	3.4010890410309536	8.637795436451993	4.945034484933553	14	-0.14627815208971667	-1.277833173460827	0.3214221036087358
Si	7.58210565622852	11.083581722766262	10.540356032560158	14	-0.8802150781368425	0.024187159078229024	-0.03778419245330012
Si	12.674408068053054	12.700977732945125	12.14229591880729	14	0.04446700940142901	0.8095780732342865	0.8513595631288207
Si	1.1375929910315281	7.670083898267288	4.583047772268676	14	0.05997411691883812	0.43890593299705016	0.037062226079402544
Si	13.443457897619766	2.8672526308994906	10.799853202171011	14	-0.3760354659350652	-0.6666580418032152	0.42793888325395857
Si	12.745168263355716	11.031830971549146	6.968389954049424	14	-0.575132348837648	0.44368150401869316	-0.04868156524221575
Si	9.250893810659667	14.40340289318256	11.62951088374377	14	-0.36687153235299347	-1.2775773484814723	-1.2476823355925144
Si	11.027098669593144	11.138643447877854	12.162980499536776	14	-0.30975108522898764	0.07276536588657481	0.3808799425792882
Si	12.694788078483642	16.280970712559085	7.422286485568418	14	-1.4260748786835404	0.06752056814400474	-0.33678985721779287
Si	3.995210720647589	0.7138783936485253	10.381389986231918	14	0.37476199746999583	0.43799447616105763	0.38395704142644144
Si	12.789142647102572	13.037734235043194	1.5353650763422368	14	-0.5935113809976624	-1.0813271933893573	0.20979705191344294
Si	7.720283960919584	10.551210852513906	3.5885422351545424	14	-0.5491114774450893	1.1725836916279053	-0.13218232428253684
Si	6.336318160200162	13.6332412182774	4.090685321978598	14	0.4380842077367308	0.4751837148432755	-0.4847405133182659
Si	6.680490785328935	9.71035611876982	13.658016210870583	14	-0.01961136293996149	-1.0357116712414183	-0.5919476347419484
Si	12.607258504519592	4.40352159329007	7.348239878492161	14	0.6082355869450864	-0.41692555361510425	-0.2865892829524337
Si	9.480128809872989	8.547062961925336	6.470648399286866	14	-0.02039272184675449	0.6512103268187015	-0.9650623250333253
Si	7.434723106106768	5.974690054500117	0.5334925404391584	14	0.6344189521938784	-1.0505814017499628	-0.813478182894419
Si	0.3114231306235731	9.902237044550512	4.340745724747777	14	-0.45074047367515974	-1.0399802202939281	-0.40259755499751493
Si	4.7422266903112	7.1124844549228525	3.625426353341024	14	0.10397035693614802	0.7117374884919035	0.81397980554238
Si	0.9925192802723932	2.119398274176545	5.3606288451539905	14	0.4019429515830053	0.5663085724894317	0.4780556394858809
Si	8.945634134901972	7.587815530595501	11.298654203080812	14	0.7717224040530861	-0.20943426895277006	0.21170095540301256
Si	8.735374192804962	8.48060605020066	13.465197012072318	14	1.139506678794732	0.29419564093155975	-0.0838098058998029
Si	3.9050939366176296	10.878427426862613	4.765010513638469	14	-0.10318308448711867	0.12371438891062914	-1.9657879377413605
Si	14.665994890024157	15.783669638497623	13.055666220759516	14	0.7060772001295975	0.24131854602792638	-0.11937230624596307
Si	2.296107996627703	16.71053928208489	11.730597110958247	14	-1.1753617709263253	-0.011051896218656519	-0.8536630163851414
Si	6.205793412374962	7.827572942393345	0.8497445840275233	14	0.3099063799903246	1.0617754800928234	0.18775162356689726
Si	6.416988352540096	2.7541031273840244	9.550037518318515	14	0.6222542815926618	-0.9096902295270203	0.48124998073563285
Si	1.7928055776981635	4.024675440853917	12.559586702843099	14	-0.9477312754018032	-0.34777901846663783	0.8725138463714032
Si	14.944627589274397	10.378833888185786	2.77171253057947	14	0.8258940504854141	0.009747317379213381	0.39529895832521067
Si	11.053350664388512	10.144113348642842	10.141418065245064	14	0.053450194279494385	-0.06012864034857901	-1.009089418314477
Si	13.187229127560531	0.5873196096079052	11.529433340960056	14	0.5252562480636914	0.08724043172847648	-0.22468298038550427
Si	7.6606864308190215	9.311445988525055	7.703463820541714	14	-0.4149997957303133	-0.4619319809127003	-0.01946815237362924
Si	4.475503344737775	6.642841966445757	14.154356087268319	14	-0.10988467050408465	1.1302872093377452	0.3133413766980424
Si	5.804320634185166	7.777572651657531	8.059761946011037	14	0.08796368365503413	-0.16040406182914224	-0.08780916022529324
Si	15.963400501816883	4.060208642392059	5.3942707633844575	14	0.2567495488278591	-1.0934406989947032	0.2508388348073707
Si	7.615480666078769	11.707340057435378	14.00063978490926	14	0.32738038307764694	1.506069678509308	-0.223445250284385
Si	5.166971259296393	0.39359979971074616	14.417994430459354	14	-0.4269518359215536	-0.6084775279557124	0.3144909178866806
Si	9.146603045407856	5.134308550951631	1.9029208405477227	14	-0.19510652744571289	0.38811040496060867	0.10851864224748997
Si	2.3182712170340976	4.852301016292628	1.2864836553752441	14	0.2167812024050932	0.9892451132325101	-0.06542486019755205
Si	14.858692915692753	11.892636697345798	12.354494630979008	14	0.7839104717127162	-0.526881957957621	-0.1264258765812573
Si	1.190136280015671	5.866498824452739	8.398815825148647	14	-0.9804928136121941	-0.13525273825585768	-1.0476557410061662
Si	13.310526061948433	15.656613062140522	9.600190094203779	14	0.17772919791842806	-0.2339613281543227	0.13428625976601402
Si	12.56000098394859	12.069220334243113	15.852201230699203	14	0.41058880744306725	0.7654566203878854	0.06687239249279542
Si	15.635072082129726	2.9326189844571444	10.101257360133337	14	0.061899360582565	-0.043812663097451326	0.08034215615451919
Si	12.918553912114596	4.538084353787761	3.146347098022255	14	-0.1143167418549559	1.0962753426101666	0.89093273066388
Si	5.501667818190085	15.255269644454023	10.650684167124002	14	-0.4148200754684349	-0.08570599607341212	0.593748694018712
Si	8.892211521990363	3.0766365240184865	13.946364047665794	14	-0.8072147132240063	0.4966740415512012	0.7651231480278621
Si	14.4031720092463	8.117299532907223	2.95649500342616	14	0.4831469422408382	-0.07224034618020057	-0.2224864851105018
Si	11.026846498485455	9.489152933083897	13.723195892309556	14	-1.0953561724582135	-0.7508404008639075	0.6847912762946236
Si	12.20791280599791	2.6658792641364664	4.133827868565024	14	0.4818037968215928	-0.6679186547416838	0.891939318396718
Si	8.339142971210723	4.78841821483606	7.353424123472334	14	-0.684902862265518	-0.172744853144789	0.25033386972249366
Si	9.070419533815135	0.2964140372918399	8.648484871458491	14	-0.6390626255125978	-0.03884065962934897	0.24917481544417083
Si	13.91583660636277	3.0713916924734788	5.907643651874347	14	-1.0632045004297617	-0.1586950481228398	-0.05632520424848396
Si	10.475703617982719	15.149958732448376	13.348936306578858	14	0.17139039486213498	0.16659811165591099	1.3773146376185286
Si	4.24027518803	0.4101464818094985	0.2809366261886824	14	0.4212640367323221	-0.5704228552227327	-0.060192660871050706
Si	15.999603430517658	1.3229649547793119	8.532142292228768	14	-0.674745453587741	-0.8458753954809449	-0.3453925185084764
Si	7.114855518325029	6.275171579009504	11.142394902473425	14	-0.5391366172450428	-0.6709859833886205	-0.02886682787143054
Si	10.385776781020889	2.6567912794112734	5.578368771795989	14	-0.5309000813519484	-0.2076411801024988	0.9998820330524947
Si	8.01733497587955	14.738705317724602	5.307412554057766	14	0.7963654201045774	0.26865736600759293	-0.5257131334790817
Si	14.451598686771138	1.0106903372986034	6.750943135383247	14	0.34040405996632506	0.38639393504887776	0.48072496102925855
Si	13.856265275857812	6.07286157670363	8.30776895547474	14	0.2507226208469	0.18421661086222568	0.1923883549012523
Si	2.808812795429686	2.023063998614774	3.91498100900875	14	-0.8164758345871796	0.3888598821614318	-0.6471207266964739
Si	11.106198523671553	0.8827642618623912	12.926218931303538	14	0.7391992073058731	-0.42114653721919126	0.584075424472719
Si	15.921589222182096	1.2032033283232457	13.698013168509783	14	-0.9297276246185302	0.6047013455720109	-0.1762284437430576
Si	15.579083546323638	13.207019647090025	6.069526040688276	14	-0.31553967174676906	-0.37524382260699163	0.003566637300109415
Si	10.947622196327925	10.462006141905919	15.835446589310344	14	0.13200851756289483	-0.8899883636797896	0.6753517202222318
Si	3.6387553976046405	8.499672805901586	7.44197711913967	14	0.6688648214994982	0.5474376878816729	-1.0653585724669816
Si	12.317662911983737	0.9068367777984384	2.665034327178232	14	0.9222487934632835	-0.4953362954531282	-0.27158199830926133
Si	12.463154178797813	1.3576614067328459	14.964796365465425	14	0.0724684032220977	0.7112644051129963	-0.582253539242862
Si	0.0806407177948792	11.997657776325076	1.8069844713441898	14	0.028118636223267452	-0.8646066690698198	0.26014263651885855
Si	6.718421249864857	6.253542175363544	4.5775065577983955	14	0.1412583260626596	-0.6147070590358992	-0.983893357508622
Si	7.6096610809051946	4.20220226319298	3.408241530630889	14	0.5897151439924637	-0.23823604785960084	0.7821618629844835
Si	5.458153564841026	7.797168311694717	10.436253576901754	14	0.2906022641361208	-0.31972286010264994	0.08165984763109507
Si	3.6260895306047543	14.645212060811156	0.5128145096085752	14	0.5950967245380656	-0.23369393320102724	-0.6916864665421967
Si	11.603602758640706	9.351703304645573	5.7090228801244844	14	0.5189598682451807	0.22069673869714668	0.008851801396205805
Si	15.685781399421579	5.2757880046888195	9.654010613473623	14	-0.16935330811698165	-0.3030158177323277	-0.12055372914057112
Si	1.196163824479353	13.19067764933193	14.300885513058208	14	-0.26093453695746416	-0.8927780129521503	0.4522643677984115
Si	5.96699228581667	4.083383822178664	0.26709832728551014	14	-0.6446483518206195	1.0901728241327948	0.3343143970155544
Si	6.798690260897103	10.073821471111607	1.4448667607012924	14	-0.08629477919172603	-0.6813909895087278	0.20297462394643007
Si	9.879985400508954	13.377379242556623	5.806067819717018	14	-0.25567225569871704	0.35232319000946755	-1.0339638338447819
Si	11.933681638809167	5.773691669449177	13.262582439467547	14	0.27516920445193194	-0.31171515258304877	0.0833338943050435
Si	6.24450986477901	5.816912814822415	6.745059688695387	14	0.44119653072677	0.340924194572591	1.0180255519651837
Si	12.080492710251802	13.732573710061123	10.106017499159668	14	0.47679734054220047	-0.16346727670756664	-0.7060784856822576
Si	6.21544960082982	13.584382247425092	14.094961604033687	14	-0.37222663051379784	-0.4450552455912483	0.3841879266841908
Si	3.227734504291853	4.5732769605830494	10.85530300879249	14	0.4851480335115094	-0.3748525003772651	-0.1012686394657364
Si	7.0678288816902874	13.864061293024774	1.704429429301156	14	-1.2108656500711859	-0.011336260467064894	0.39411984942539074
Si	13.27444758132678	11.70079998338269	3.4337157249317585	14	-0.68608222827587	0.4013724233124645	-0.377212775061161
Si	2.177466402883715	14.990923912181675	15.124397751987066	14	0.2640815698693254	1.2215465357921451	0.13246360320456105
Si	9.588225066386302	2.3212186715395653	11.980185921006552	14	-0.3341089657004745	0.2852026858532778	-2.18871305341948
Si	5.355375826235357	2.211329380202092	7.613150539544724	14	-0.8303040103305321	0.3134107965416864	-1.2198007552797645
Si	3.387553674951954	6.8838307592369965	10.977791030666113	14	-0.2843434224552844	0.6426022662068458	-0.4449673137892992
Si	11.324414955458602	11.920784887873019	8.596540898223791	14	0.5459837278231291	-0.3243127973201783	0.9409911228050349
Si	13.490682668696264	15.695175591920396	15.017948795047365	14	-0.3132135927636311	-0.1456014371694537	-0.06465121460671949
Si	2.2052789110922566	7.748414139224827	9.093743723801738	14	0.33887785184828517	0.12754816405350197	0.9495544461843202
Si	15.07352796217214	12.195603908488131	9.837407782702744	14	-0.1299901998865786	1.0525423837776395	0.5087209555287551
Si	2.363840501163358	7.37172454100184	13.079543877203257	14	0.8746805168246921	0.32822576250691166	-0.16748282899657393
Si	10.10564415492231	4.122652103565124	10.437345772543502	14	-0.8061757295641345	-1.074946481316346	0.17560777891877385
Si	4.840750269580645	2.9087151284177986	11.124123959488974	14	-0.5781942781634123	-1.0195867271155776	0.9366112448921627
Si	16.20735148638612	13.871744324435696	12.591597696247206	14	-1.2716026139385121	-0.09028307776433972	0.39237843979205445
Si	7.111541269481103	15.67699307257111	13.959288635672271	14	0.6868242492712646	0.06387319813684268	0.3323431305665968
Si	10.612496619056214	13.62595936817417	2.3148472573835788	14	0.12153203471488747	0.24454065521513593	-0.8064665215758432
Si	1.041962829601619	9.642548290396803	9.849762529504831	14	0.3075772156808025	0.5096192997276149	-0.8389691494804953
Si	3.4434668869206817	14.907975992498905	7.819480542301109	14	1.3647054229074582	-0.18997177301084514	1.1462535162653327
Si	11.174743215670937	15.585613795527975	3.5934481094314212	14	-0.6795539347574819	0.46178799901477197	-0.6360559749512167
Si	13.16818038408158	7.720526307178923	4.905689242235005	14	-0.9125120176158829	-0.8440812781885456	0.614425008782279
Si	14.373777700453157	7.942680865680222	15.370449616628811	14	0.034271034143849785	0.6971978879064661	0.5902602183203352
Si	1.465289345474735	8.920135378480223	0.44510492971907417	14	-0.19575393176532616	0.6485952555975789	-0.12188453325427975
Si	8.916929202968165	12.08910255235722	12.091557126970384	14	-0.07905248972593291	0.7782540400083904	0.5363860487735483
Si	1.0190054339534738	9.323240718971103	13.500859574113754	14	0.845215906966327	0.5398251592497785	-0.34331917917830895
Si	11.79823300448511	3.1231784681345514	9.122414268766317	14	-0.535442196010522	-0.19424546427399528	-0.21359457447130167
Si	10.011733341953923	7.160323279021323	2.8595155628226365	14	0.5183096357097152	-1.0056814182126206	-0.6267480594712166
Si	4.603657029160798	0.5451775600786138	3.9931344026959588	14	0.33934605012708413	-0.7400972943942008	0.39981587615164677
Si	14.528836732086928	3.900687492131955	0.040543874197437595	14	0.3791627013359613	-0.46101949563457967	-0.4133231779510447
Si	11.501088653465803	6.0449770196071775	4.416243134430616	14	0.3082565017063856	0.5367287771127242	-1.0888415057980223
Si	15.981460210561776	9.641144974557255	15.320866881947937	14	0.3314105906669791	-0.6346619216466324	0.39849021424857844
Si	2.6437717178707305	11.492051430457096	9.771738496320916	14	0.37614345235851143	-0.8561598167615373	0.06247400262161809
Si	5.668002500781996	1.1138905443833897	1.9685573774350444	14	0.09586906118289344	-1.148445126440227	0.5459428472485388
Si	9.671657678587751	11.99051183662404	3.773422956484748	14	0.44336063007473875	-0.3663125740563932	0.6485343204014914
Si	14.287571206067119	2.9156907707474065	14.378876796747617	14	0.047894035682654386	-0.9452123635196541	0.908313916849145
Si	3.2259758564369236	5.4638601642585565	3.3796201099080694	14	-0.06568865560339923	0.0984417091662336	-1.551369468923933
Si	15.667011026645925	2.8040657562011573	1.8571861714712108	14	-0.005909428467828345	1.1283637654477425	-0.28353506694262975
Si	7.402563102502662	15.907205644195411	7.189031485904582	14	-0.4943477054575312	0.588053952845116	-0.19829624070588858
Si	15.280185459873579	7.555514704165022	7.0338791182114715	14	-0.2665675716033766	0.4319593206430741	0.646097426779055
Si	11.225288785490264	1.5860694812099125	0.6568320491699174	14	-0.4090008927973438	-0.243638711468828	-0.06277996415471572
Si	0.7065261321321079	14.154316787874912	2.682180325026429	14	-0.9641490684236089	0.03380823518622313	0.416662272430321
Si	15.264411665845149	4.577668667796197	3.342049889811704	14	-0.13540417635921442	0.32056258310021035	-0.8631154279841339
Si	0.7334036422725256	0.4219101002357663	15.534369024000963	14	0.8148719790884713	-0.21210513315933988	1.1540941019391244
Si	11.855485670779101	14.7882831399813	5.644103557166826	14	0.4503167555183993	-1.3866960867106848	0.7329082268085348
Si	2.4809805305842825	11.227173518899036	13.653827550523369	14	-1.0247541345880113	-0.2286067442145823	0.6653943435383624
Si	15.226232305150987	6.002211092207562	11.809534855038855	14	-0.44502207833261836	-0.06880046437237446	-0.040622692726743605
H	8.7789195581738	6.207712532752967	8.09092472750746	1	-0.3641834417407786	0.6413833051745635	0.7756662225036614
H	7.726611163257989	9.130414970273936	4.25481596359031	1	0.43782966831003617	-0.614323450122133	0.07758644547238447
H	3.252553708702619	4.609830308875028	7.286580767712496	1	0.06165099180863869	0.24603523873773803	0.011775662366278201
H	5.1341186038835005	7.384364208406121	2.023484829619166	1	-0.20668704291819184	0.2951245812837293	-0.032990109473352014
H	1.9317698702573534	5.699687636715777	4.0122863070826	1	-0.547368268038029	0.14535743927457165	0.7202856423497997
H	13.822611895304268	13.169429777296955	9.972787643088338	1	0.3357220771783354	-0.20995748888542018	-0.24569919527239464
H	11.740477633450466	16.63462595382184	11.369116377983474	1	-0.44533703873433655	0.03647010052417245	0.14553047466261762
H	9.353145919878527	1.872144503086461	14.84820980250164	1	-0.15470186445011783	-0.23188978859787937	0.44609217236686405
H	13.81000497739449	6.594215517004437	5.755556636866923	1	-0.24018417436067707	0.0001789489302823063	-0.31616445033956503
H	14.834669523998464	8.366539560839048	5.847956060663894	1	-0.3483492896266467	0.6961517051516979	-0.3127536220218566
H	8.0337064481827	10.439562913321504	0.3927352130558089	1	-0.4614110749748383	-0.36016274724113106	0.532907343275388
