72
config_type=amorph dft_energy=-6966.298214910454 dft_virial="-5.92394381316807 -2.2526079340518073 0.924437091863807 -2.2526079340518073 1.989740788202099 -5.335322644471114 0.924437091863807 -5.335322644471114 -7.566549040343759" pbc="T T T" Lattice="11.105996452100001 0.0 0.0 0.0 11.105996452100001 0.0 0.0 0.0 11.105996452100001" Properties=species:S:1:pos:R:3:Z:I:1:dft_force:R:3
Si	10.708324037139656	8.167705182760807	6.266280848186123	14	-0.2902515653704526	-1.1495545583858708	0.8641554400861337
Si	10.743274607974415	4.797146319512978	1.5865360171682936	14	0.5058027509903869	0.3188070323876132	-0.6068523322828467
Si	10.044429781226022	5.924693715308884	7.237344753971939	14	0.3621363276848767	0.7821860313744928	-0.5180643522621732
Si	4.853464827521577	3.994005080082915	0.6326275441020367	14	0.017048742267369896	-0.6936520765594498	-1.1841333538365424
Si	1.3011119083493234	3.090421208740059	1.3566307846133714	14	0.5624465151880373	-0.21436230651989788	-0.05816071633653768
Si	3.739022507539151	8.073704028790234	0.17981940975524152	14	0.3727143691930299	-0.5487468947106923	-0.10354972410577179
Si	1.420890080085222	0.3575586663750047	3.443836227838785	14	0.7418772706073393	-1.2385397421845998	0.5970427941548857
Si	4.6370978046417655	2.683497498735115	4.610143551252518	14	0.37607583228859154	1.0193069908567454	0.06981965052128117
Si	9.900929201068438	2.4060363893723005	8.183064775854062	14	-0.9848480089139928	0.08679023118691855	0.17189227462062787
Si	2.3293161658811936	10.555538843948117	6.930852569883335	14	0.1409904168883001	0.32316171346834804	0.5629458238412101
Si	4.232572989870475	5.551665506475748	2.2523182924787846	14	0.11684028172668125	0.45450431475332453	0.2260292111311338
Si	1.8908958499380941	8.314393183900144	6.50313843452006	14	0.1245068035702988	-0.15807129797217187	0.1011881638692158
Si	9.520737624523699	10.000960911112504	9.960734991962997	14	0.26446260767777136	0.19463781494584986	0.3290441453303148
Si	4.671082153785192	10.453585796517839	6.678224468587416	14	0.11146024384427138	-0.30114816682777223	0.22790534668324586
Si	5.711347523464043	9.20591594309602	8.445132974134266	14	-0.3613480267937193	0.012954514155566097	-0.0056263497720800415
Si	9.560263865896724	9.693657989282896	7.655696534326093	14	-0.7633945939211265	0.07532078746427	-1.4763384450292436
Si	0.5106859242572691	5.406921054715529	8.94053815787309	14	0.34422163714568094	0.7648063878524198	-0.30691669872405647
Si	0.9428502323989009	3.164387145111045	8.654336629302474	14	1.0617798509718677	-0.3809167093853663	0.24136662569741318
Si	7.17753896307738	6.335337934125281	10.3856837342097	14	-0.045091016662628956	0.12546685429684207	0.21366502275707372
Si	9.845054932917924	0.6823790764085091	6.492632161876373	14	-0.17563297575091133	-0.6076820279696586	1.132856000663105
Si	10.634546902708356	7.895497209719838	3.9249813121331134	14	-0.902217826135074	1.6860663342095745	0.17154414696027984
Si	10.52287610838249	4.386968552547569	5.424668437045986	14	0.03663902214370617	0.5282837245781657	-0.20530661647180434
Si	8.436914536759712	8.744017550653181	3.3372630858844334	14	0.0825355661031375	0.3972738243216164	0.12664442053346991
Si	6.271867164401529	1.0993215058128927	6.579014602280807	14	1.0700798931663698	-0.9003393765881739	1.81968539214501
Si	5.494658426687119	10.580716137905027	2.861348925919044	14	-0.27063608866197886	-0.201984491287641	0.3629030312913448
Si	2.6224034122521127	5.802916464211608	3.9252922800337724	14	0.19675717706124793	-0.7842100054825134	0.6336141962286721
Si	7.4822208697442925	8.337726882446006	7.200306255804185	14	0.5733845114410112	0.41255210346553234	-0.06693512746260703
Si	3.768153536233009	1.0024416775619338	3.193473749819095	14	-0.4863420548221862	0.5554497662803183	-0.9131987598468944
Si	2.204817945653153	10.994714367649959	9.25212799433321	14	-0.012851155721696145	-0.5673460134861114	0.30460604637283933
Si	7.8621792203635374	6.231163687404583	8.105389436668075	14	0.5823250159707621	-0.06132960364362019	-0.6808142905854185
Si	6.754522664213344	7.909279751316893	4.857407456262073	14	0.995528894634952	0.9027577582523051	0.7076345186220112
Si	4.261204248723989	5.281023478934524	7.773930972555151	14	-0.42439307190694225	0.008052958973235798	0.3399782849253085
Si	6.13008801369402	2.7649488767148163	8.182142978148539	14	-0.3551879155571765	0.35776699130381706	-0.16034878306475905
Si	7.9056147724877	2.629766687899855	9.629920675644295	14	0.869371441449118	-0.16841896844363985	-0.37458844786088585
Si	0.9335678405642357	0.8771904707744405	5.708893098248128	14	0.2780316160048528	0.5941788399387729	-0.34458801965380204
Si	8.727325237985674	3.4781204388864175	1.8992919832558817	14	0.49935570440011573	0.08062112108175526	0.23626786673702752
Si	5.005494812954375	7.055417426090088	9.420061766685413	14	0.07668964393671683	0.7531790782631143	0.6734766131122478
Si	7.320917377273992	7.695966877461409	1.5010309504835757	14	-0.425221224930562	-0.3531662554439441	0.22350875658579267
Si	1.4575176563842478	8.376997685900632	0.7642191642640339	14	-0.21703574183178787	0.6521132990071375	0.17914947649727783
Si	3.5811507679725496	2.0786427199608446	1.076376517142854	14	-0.34901314902030894	0.4822614535685792	-0.03577564497720045
Si	4.882495902247367	9.234491671967273	4.69444917032041	14	0.9077390176995599	0.6352195943905725	-0.05652729312664761
Si	8.979886703302881	1.0953344530865887	1.6552266052245321	14	0.6926136071206421	1.0023212406697193	-0.0951460663668678
Si	8.085787352930119	1.2192718204937985	5.090222459887445	14	0.10551996211260126	1.103281347497038	0.5026204939356397
Si	6.201477358888121	6.323387881942821	3.3202931233056248	14	-0.18154934620310406	-0.47236706896505326	-1.1114947434422509
Si	5.595412026500571	9.2663658817848	0.9497359501992029	14	-0.30113453996957545	0.2474681157326566	0.005373095898045455
Si	1.3341189298049647	3.202602878902721	6.309960732232233	14	-0.4394281244875722	-0.2700460199910049	-0.0763124627862511
Si	1.4320182885302262	9.031374102854816	3.149882713744602	14	-0.22038049274276847	0.42141367506195476	-0.5286534495232029
Si	0.12945149464567762	6.529737296022839	11.023789866361557	14	-0.771492033016401	-0.5557953228353463	0.7152401052695412
Si	3.357276091491118	4.300141872285051	5.769120917007867	14	-1.0928228623862715	0.08117853671516334	-1.0584312434029066
Si	3.0197870713047026	7.996517353448139	4.491120587275363	14	-0.8433690820148646	-0.19705131150987287	-0.09848567506720814
Si	0.29107706101308894	0.9900584915178423	1.5690662847491401	14	-0.8292889379501377	-0.042377986328808695	-0.643839739197433
Si	8.592076413192	3.4431920800445632	4.289868825566859	14	-0.1639645284764833	-0.0893729064810073	0.2376050986140365
Si	8.07902380109079	0.6027379758504999	10.723405980321608	14	-0.4878397236711724	-0.6118950411472532	-0.837403089229993
Si	3.9392858355634184	1.1879418045024246	10.022628710190551	14	0.21001611008671955	-0.29286869347583133	0.6043287924111214
Si	9.230404665272902	7.685682724746764	10.46914529754723	14	0.3564426149534088	0.08171769750079841	-0.6173162167147854
Si	5.9202624227244955	10.83395506900581	10.270936578866602	14	-0.08137574049321872	-0.5963359973023772	-0.12510227156244508
Si	7.227338251168597	4.149622302369741	0.19976800058250357	14	-0.16150732312201777	0.0010191861489066984	0.36945652164187026
Si	0.2667693665783777	5.783181108516225	3.641622918654234	14	-0.08165059165194255	-1.5336684372368412	0.15646127182069514
Si	6.459225324548456	4.417865434677312	4.631400428461839	14	0.24737427038847112	-1.0580944286059675	0.07360174644721898
Si	6.487301283579366	4.724979554567232	6.985582920399284	14	-0.31392038961613977	0.5549463438586333	-0.18155757374012854
Si	0.5625587018860926	10.473898664028729	10.920948339215112	14	0.17544271395722036	-0.3163505983647438	-0.17001331085266366
Si	7.755383958480143	0.021061411671762443	3.2267473151895865	14	0.12373315797946624	-1.5717534490125988	-0.11227348445703422
Si	2.3442759431021725	6.773802674054189	8.198557640904742	14	-0.2793181971070549	-0.6793173930680283	-0.7317232043664784
Si	3.993982868090011	3.4048874982812705	9.249162693280498	14	0.23386491170481713	0.538827827496093	0.8223862914971362
H	1.8084338262812516	3.3053222400881936	2.772156668412229	1	-0.07356755074646101	-0.18191341471643704	0.43975028398418675
H	9.664948988454217	7.598178578700668	8.921369207996767	1	-0.23461001802659603	-0.16290317620032616	0.48578695318356613
H	9.593215357370104	3.5814839478661127	7.2493836541260155	1	-0.13698746301536158	0.04928937453989875	-0.005614779798139375
H	3.040277634758828	9.75983862214096	9.743757139278319	1	0.08366890932825878	-0.1513691977341419	-0.16425866292510824
H	2.5441949852364245	7.586417328457895	9.417096465632703	1	0.058722502848990034	0.3598205331230193	0.26774745183479254
H	3.669854361635472	6.663375751330959	1.2577874161896816	1	0.02148955537632966	0.5252464778634749	-0.2573617290045863
H	4.86172768888194	1.8470271639522993	5.905735779365149	1	-0.24390996308010363	0.2738427712172676	-0.4182483873023204
H	7.346116883223806	0.629889915976594	7.875228766194755	1	-0.5781071176930592	-0.33114345282421576	-0.8663205678762305
