72
config_type=amorph dft_energy=-6969.398377283344 dft_virial="1.423758895224258 -5.581839202301463 0.08426841517670078 -5.581839202301462 9.580186841804922 -4.644824735038149 0.08426841517670078 -4.644824735038149 0.5835902185371517" pbc="T T T" Lattice="11.105996452100001 0.0 0.0 0.0 11.105996452100001 0.0 0.0 0.0 11.105996452100001" Properties=species:S:1:pos:R:3:Z:I:1:dft_force:R:3
Si	10.74917189209048	8.160353013109518	6.445986976777553	14	-0.2176965158990659	-1.6219139140349639	0.18814654534407202
Si	10.927001107281505	4.553736195272303	1.6574811225043085	14	0.13349590199060052	0.7357855507723124	-0.09064303250916045
Si	10.170038601099273	5.8387777267554375	7.267908456208119	14	0.7702149650038834	0.8094747148004166	-0.5776916270733233
Si	4.869768430313261	4.059985805004841	0.45347227293463077	14	0.0477102016522638	-0.21019968700657815	-0.5515835952104117
Si	1.0781068313900912	2.798200230092404	0.752240236490799	14	-0.04638505397025947	0.2989115623097754	-0.8850482419176571
Si	3.7210085812938445	7.9049595186970265	0.5938387408934322	14	0.013884482949863657	-0.5442906549698117	0.7414262987341853
Si	1.578273155807931	0.249324067351419	3.3269345091839804	14	-0.03298548148377575	-0.18266520591204835	0.4882205043690864
Si	4.8211019538601585	2.720613738878033	4.702889727624006	14	-0.39844881945292404	-0.533653220928763	-0.8618450448454487
Si	9.953371716315255	2.524481841533947	8.404929266977664	14	-0.7776716846533769	-0.2555133613899319	-0.4262470959533011
Si	2.216001684080417	10.646019397043375	7.042467834226939	14	1.1109506975565075	-0.26126260999631506	-0.035659688127261766
Si	4.366733427011844	5.954724329715361	1.811376915341058	14	0.20509809983034033	0.5835882000145509	0.01959490786591254
Si	1.9123637410800036	8.375842662269614	6.487101375643227	14	0.3673050207099704	-0.18317402765490562	0.6984896112193085
Si	9.579610511716282	9.550301787079189	9.962611905363401	14	-0.4011160841120457	0.029054004338737324	0.520144119355641
Si	4.630878446628589	10.525952469399721	6.656245701608711	14	-0.9183229727499495	0.7255990886044178	-0.6287362952152872
Si	5.514060602488938	9.357001918830388	8.399731660638082	14	1.3122384193023884	-0.4828942025878676	0.7877717576825146
Si	9.381346263053391	9.595703100575374	7.629330898748808	14	0.8701355739502662	1.207688021006015	-0.380217111627754
Si	0.7550389475967282	5.487106349099691	8.976588222356607	14	-0.2046167889144086	0.6518657015648073	-0.185142722998543
Si	0.7697244067053399	3.1930850399432713	9.473481609620015	14	0.5723678963974247	-0.6835435188827557	0.8605152691738681
Si	7.449835784089968	5.992340339698624	10.381130275664338	14	-0.31190644281886776	0.25441395675503664	-1.4299947858546382
Si	9.786082091757272	0.7326448163507137	6.745315793154552	14	0.4360651187288186	-0.3456555425827275	0.23457633654690205
Si	10.65745857338904	8.049159776631093	4.110084955000264	14	-0.3618961864479749	0.28008104405554285	-0.08163747901480979
Si	10.374799857686641	4.559089285562215	5.2114221991692125	14	0.33430539814693383	0.09499231426872294	0.3115909681960856
Si	8.550317866532104	8.990703943847228	3.6160791268144044	14	-0.18035815310827946	-1.5525902297299392	0.14337948795178174
Si	5.863333084911032	1.423677685194699	6.256629737269248	14	0.0933074689524299	-0.45034915144543325	0.8004550202268049
Si	5.653518599937958	10.725094091782328	3.098628540118161	14	0.44588674105178416	0.0004638273997547135	-0.954902859471292
Si	2.827686650672729	5.8421539496768755	3.5795848224728037	14	-0.23213841448233768	-0.33235032966149325	0.792658400453988
Si	7.475657225841101	8.459870631426204	7.2996938180540285	14	-1.7685741323752544	-0.8088941592191271	-0.5457955229136942
Si	3.88614364254012	1.1027221619265255	3.186288170114586	14	-0.3784229943353547	0.9519903113646283	-0.7726929963114421
Si	2.3450311508609154	10.64868483619188	9.397072354029566	14	-0.47858245896597923	1.3465284796256074	-0.4291683858180533
Si	7.987177210431922	6.2744881795642256	7.914966021500367	14	-1.1409696377218965	-0.3917354063514854	0.9392990783938455
Si	6.733765556844369	8.056400886317862	4.868291332785131	14	1.2905694007747124	0.2877560505467169	0.9932318691419317
Si	4.099478728388508	4.98632586307805	7.3533802049034795	14	-0.40263509313518914	0.10600770079183335	-0.41998414050395233
Si	6.224366817575898	2.8772860308278077	8.04342908246181	14	0.5334344198660184	-0.3275863286137909	0.489117563015286
Si	7.970762547675719	2.2980972098543404	9.586018671669143	14	-0.2510257541641455	-0.08058846804418937	-0.4032956100919352
Si	0.8365947219430793	0.7513895171625681	5.569912658646549	14	-0.4504219137259934	0.5084111373376772	-0.13208487939090324
Si	8.826879390182299	3.5328396834059146	1.883887966176819	14	-0.23280175965493585	-0.393412281241286	-0.5099419734452932
Si	4.12471155232768	7.762969354056928	9.458277500477088	14	-0.21961636024162046	0.36906288541735566	-0.6427935564426647
Si	7.976993011685347	7.311455068296802	2.089682080434232	14	0.48497396968133527	1.0707164988436384	-0.2936191991187826
Si	1.3830186321835611	8.170748225788683	0.7426113375668283	14	0.008784695547349942	-0.18438964625027165	1.1253568577758293
Si	3.2906734307678738	2.698623865902875	1.4808180369407538	14	0.4655513258718727	-0.061728124968243134	1.0032332117267757
Si	4.870679122022333	9.299184101300755	4.666817451147585	14	-0.5912704056006214	0.02845699368339894	0.8932431259045649
Si	8.999477681044386	1.1980704732667398	1.4926792411515963	14	0.6472917052002637	-0.04994166395962032	1.356298422731638
Si	8.034522073307224	1.328366023642777	5.300514502707959	14	0.370110096614252	0.27218440828577206	-0.132983994921359
Si	6.277775554514046	6.307950546874402	3.3489799121413992	14	-0.47437741621487706	-0.18280610248359244	-0.5814654954622366
Si	5.373436475412448	9.40925563213752	1.1982814871993297	14	0.23135628424394866	0.3374840556542329	-0.2572928233820064
Si	1.060421642639767	3.130213994027933	5.668222939240539	14	0.7542283463442666	-0.39468600681688737	1.2019146040096225
Si	1.3451027602960917	9.064847576161446	3.056703403511483	14	0.5147126593668282	-0.6770231957908601	-0.2517888582231654
Si	11.06833601813093	6.30730639908018	0.033673381242767204	14	1.0797328509803337	-0.27447834845240815	-0.030670972474578447
Si	3.17451581387536	4.165204015392037	5.2691511687272286	14	-0.6978969714430143	0.27757473058946247	0.43529661534862624
Si	2.9453324710898245	7.995073573909365	4.469530530172481	14	-0.11159471265251514	0.33126660876905084	-0.7131066020748823
Si	0.23809257313941026	0.7460086618815257	1.4317961686011844	14	-0.14198826286304958	-0.03658220071613089	-0.15466458342297568
Si	8.541110995473314	3.4250115638524754	4.176865311666742	14	-0.11170347040755739	-0.023970157789208527	0.9489947165561238
Si	8.178977769159689	0.23211865764782566	10.738643407453889	14	-0.9882089577884904	-0.23920149790731646	-1.374911425475786
Si	4.139104923729602	1.1210948118572346	9.860658857933124	14	-0.8936917837829309	0.16124944125840693	0.08522982736812068
Si	9.087625974884704	7.406900001806149	0.004505702760616971	14	-0.10742129449685077	0.6451260631891031	-0.01101307252832228
Si	5.874627883302816	10.733379165135593	10.397822588331845	14	0.6423230441690776	-0.5583594861711298	-0.21887588190941784
Si	7.245396601399712	3.827404027304963	0.12240029749823933	14	0.1410626649477963	0.1374913996581106	0.6096067574123214
Si	0.406156285650104	5.848695381587163	3.6094266349395965	14	-0.4654135146267128	-0.43761009591569555	-0.43557069517575403
Si	6.4680323797349715	4.386590948668198	4.546128587702614	14	0.3740665134808958	-0.5510637177146777	-0.09723277544469998
Si	6.446186884713692	4.8517322920750505	6.821680624759192	14	-0.14740121089355737	0.49890910340600586	0.45276573333584036
Si	0.5638236748819868	10.104346632085102	10.889185189362104	14	0.25893833078690115	0.7332021041466277	-0.14655506013269662
Si	8.088097400192156	0.05900726974965252	3.341394516564615	14	-0.9994596004483943	0.7079692765346944	-0.31795856763196434
Si	2.6259684371132366	6.710831674170782	8.049770606435958	14	-0.033582492139114135	-0.1337427281013347	0.1855607847235991
Si	4.253807655086891	3.5010654275564566	9.225018256993632	14	0.5074320604317648	-0.5092986828941923	0.24401537839822968
H	1.2815542485971754	3.1000945316498383	7.240687658904021	1	-0.3486099997061097	0.24673509360588233	-0.7618393323129691
H	3.058524786929628	3.6514961495001512	2.701855710870436	1	-0.20362228537657534	-0.0032789306147848448	-0.07130137851728251
H	3.086967243843456	9.354725189557708	9.642270543699029	1	0.5090012060086512	-0.8531745063743132	-0.08088285960334633
H	3.593533954016641	1.437971102628552	0.15470986237668866	1	-0.026073836162153682	-0.22863065549405967	0.18486555784503106
H	9.692713979584468	3.6782838129426163	7.451257351635837	1	-0.10350627242586129	-0.03347553415779598	0.061480527525912876
H	6.187428273376213	6.71024305635882	10.954477342504001	1	0.25283632653059374	-0.18120198987435207	-0.6714829780470051
H	1.563502180526638	2.032597258670438	8.907331228481311	1	0.4138232579358135	0.1234428801888215	0.02332918123289561
H	6.649026803914846	8.25957398541258	1.4467448398257108	1	-0.3407804697851947	0.44343262102370284	-0.27148583897028783
