226
config_type=amorph dft_energy=-23257.671065086106 dft_virial="32.31001455410711 -11.517921854936333 -7.107232931196235 -11.517921854936333 37.85672876434673 15.924567984062554 -7.107232931196235 15.924567984062554 50.061925703642196" pbc="T T T" Lattice="16.3957026618 0.0 0.0 0.07573175059485421 16.453218786737597 0.0 0.026692203933410406 0.41135178408190026 16.322364683793772" Properties=species:S:1:pos:R:3:Z:I:1:dft_force:R:3
Si	15.299408922029542	15.051128796621905	9.446751352335696	14	0.3655309580390682	0.3107394181140526	0.16372438723958146
Si	13.856560854666883	9.718546194500886	8.500999675265353	14	0.8363299098693632	0.5962516650478762	0.6327479908463142
Si	2.5381662628247406	13.889404726239	6.074304515697658	14	-0.3540178055259771	-1.2085645108096537	-0.5461032842205159
Si	3.2011740474923425	15.21715660048609	13.773157554796573	14	-0.26741989301700564	-0.23342011048443145	-0.7131348842334039
Si	8.158809883721721	7.583945396563957	4.586112493053524	14	0.5514537543917443	0.6897522240098493	-0.3391665869757378
Si	8.535591328741218	8.816148034408874	10.011570192472576	14	-0.03383677445527678	0.987263819472804	-0.36473571516354636
Si	14.391005016052514	10.75464147237828	15.202051239623774	14	-0.1468152559910956	-0.04557387024175276	-0.4923142182598261
Si	8.660226541665423	0.2302546899012545	0.241726763053716	14	1.3846399737861623	-0.4020018298948367	-1.1895941244260049
Si	5.907630721148597	10.643821278516906	7.468675409000173	14	1.3937067195871324	0.2323389606973092	0.08023159862575281
Si	12.466946354706556	7.330328469939904	13.948525990467187	14	-0.10382560370662368	1.2054097645818318	-0.3778470667436415
Si	7.349475371508354	15.94196306762655	1.8888898791363957	14	0.4780728658915259	-1.274204829633034	1.030152941539258
Si	7.622596626018884	3.8700350980102076	9.962178138203903	14	1.438232607300393	0.14170261306198115	0.5521425535070118
Si	0.29335355159519183	14.172911018815515	5.1753166617593	14	0.13661516696500414	0.2467322653900302	-0.3373799258887669
Si	4.98634963030099	8.140254867019364	15.461218111598848	14	0.6408472297153127	-0.20033229900891383	-0.0924793159288102
Si	4.635270088774132	2.0707706879042758	13.72179145792742	14	1.635790683668867	-0.2610378953913341	-0.3741881267625388
Si	12.622097249424904	8.50785471854825	10.10849174918754	14	0.7410403758256312	-0.6592650855656614	-0.5579699637151275
Si	8.11768454273513	6.086478324924044	14.851968556818756	14	0.2840791128283731	0.45952671188570177	-0.7667624847799887
Si	6.418691331397968	2.9920501391816163	14.909929005298485	14	-0.23165736067693798	0.6492881684813588	-0.6042395750565124
Si	11.991385719860515	13.201275445952989	14.386927404800524	14	-0.43718637775893515	-0.018758270194736353	0.5139243584756706
Si	2.0635139499061625	1.0195323390484432	0.2354455693639804	14	-0.7086225943965441	0.3646567822302179	-0.8834276742343677
Si	3.7677537860951005	4.553119420587184	16.182453594699567	14	-0.3302386808620556	0.5284842707931373	-1.8762345396668791
Si	1.3583577324058713	1.6444496272921518	7.9199884391796775	14	0.19434882270786522	-0.25900955040426926	-0.7286011111762227
Si	15.9581915341212	13.044986689469914	8.285283054914316	14	0.3802538784338321	1.1226942211062838	0.8146189823249689
Si	15.644440088844462	15.138373609625877	1.561879229117061	14	0.30000119674445413	-0.011810629398632217	0.4356007771079998
Si	5.423868955831123	9.983177754173136	12.002898782269632	14	0.578535720949928	-1.098940550385032	-0.10413182235025333
Si	2.588269890588935	11.464447511153457	6.373347376116494	14	-0.3938072030184607	0.39579852408891547	0.5393855002400332
Si	0.40006006365871855	10.510738999581342	6.2063358300926	14	0.33687907457240207	0.6258821111993907	0.41111922647061383
Si	3.9641693852726663	14.200523021668253	4.281716435715611	14	-0.249663582565531	0.08056172854885983	0.40866176400561627
Si	5.6810060398166655	2.783829634087555	2.7110310746988966	14	-1.1017721086741108	-0.08493697847215581	-0.07529764751638866
Si	16.10484289657967	9.235071353979993	8.069615621671264	14	-1.1131245671046928	0.39782635485491624	-0.8000500711388817
Si	2.8761243235113594	2.865457279359592	14.77797966941685	14	-1.160719583238614	0.4515295458979132	1.1292875635892716
Si	0.475739348005055	14.547410182024489	11.201519464987769	14	0.49255461660726	-0.6041544714704153	-0.67552758382613
Si	0.4139996900617809	1.7122802887742847	12.289144796760933	14	0.5521173566748744	-0.6872183997168433	0.6024757968068908
Si	8.154958533166466	1.5381136581087818	4.912527979066236	14	-0.6458264322783115	0.6699678256818419	0.07532927211182648
Si	15.956265039058438	6.163343018572829	2.826773258499341	14	0.20191121478601678	0.19848110317840723	0.648596541150239
Si	10.335200048603047	0.9741424757995162	7.824062101616285	14	0.9134399295259241	-0.702873345790161	1.1339662039403453
Si	2.6024652899535217	13.143711773477676	2.68532425249546	14	0.5756285721644365	0.17329275568851255	0.35319145227608156
Si	3.5805443739621357	11.270833937560795	12.11363043933663	14	-0.7936289927123439	0.9201119478317085	0.7685625156146243
Si	9.126569512475001	12.194648164469648	8.050127689487448	14	-0.36507561528687005	-0.042715058236280114	1.6602282684052785
Si	13.811305436179783	7.592184237151511	11.941739532200586	14	-0.02522382874331273	0.4020553088854958	0.18014577980883523
Si	15.625911305266362	11.83018645043023	0.0458423846423928	14	-0.03360203253954726	0.44339071200698443	-0.7020256523661081
Si	3.8593696934287065	3.474493690005081	4.5530112089496155	14	0.4157559578049688	0.12764020962396325	-0.16067274233509773
Si	16.42291788864832	5.408368458534658	6.3652019910341116	14	0.07721209253777091	-1.0703537158829655	-1.2888141071726473
Si	8.476675010796306	10.771237202612554	0.19586634313839518	14	0.7366178175644444	0.25515006420819497	-0.06851738567662616
Si	13.212754077386517	12.474509692344444	5.668204275178331	14	-0.9037198658631044	0.05537440950109321	0.875655479962092
Si	4.33987363262728	13.41856113504876	12.758201256361039	14	-0.6265313152927282	-0.16855600835720372	-0.7878059533832725
Si	9.708220180964483	6.3459190051335685	7.9489120982453585	14	0.002493457939479607	0.2733668596225081	0.3198524438107854
Si	11.279140000529262	10.02593446757458	3.5859762702539904	14	-0.1732696157406312	-0.9671968566701123	1.2939236647753776
Si	10.270819042960959	4.424329536608479	6.61246886201725	14	0.6405723785565889	0.7567374880261992	-0.8929610756509447
Si	14.386561780631167	0.2384017145539029	2.8860076530758922	14	0.8593703559748062	0.1826438657378911	0.2811673360533054
Si	1.6417426967826887	13.236631139172895	9.47079401071896	14	-0.39489066680037116	0.660732672482402	0.01789283614397451
Si	7.775724291028766	0.7049725856304794	10.836372410577086	14	-0.09317454280737826	0.5257470720693077	-0.344482347225144
Si	9.006654622347128	14.977167781914526	15.401950925616973	14	-0.7269201225179098	1.1953297461741912	0.24237861275142342
Si	5.536199193907647	14.005164945312375	8.798491502212382	14	-0.23209856234987536	0.5806260295752084	0.15026182267275412
Si	1.5099130495304856	2.382011951103491	2.000192106656025	14	-0.5334817282039092	-0.6126913124649032	0.5857317305199583
Si	13.211340767817068	3.7908520520050444	12.819376902132745	14	-0.42213204188840403	0.19974711543804816	-0.041474242808776644
Si	14.230525517969081	13.70174771142337	0.5292647589147673	14	0.48475388306593076	-0.04600324483021749	0.34901032080445676
Si	9.661474393105426	4.333075974303698	14.932323895564236	14	-0.0454147188224356	-0.07337343229478983	-0.32086314531213567
Si	15.548767884672326	5.517717957867267	15.632585995819982	14	0.13913407884715323	0.07504902163193033	0.3458941411564373
Si	7.138316756497298	15.297326667791495	11.939029322550589	14	0.7446237253103215	-0.21151814981475006	0.9644511732987262
Si	6.192248642365581	0.8621467100572927	6.045739922520269	14	-0.5548663824831767	-1.0229502470953953	0.21161713736957577
Si	8.609098182484864	15.962559349310302	3.9458832580939607	14	-0.12994417710134795	-0.5424001212279067	-0.8061549036110413
Si	15.43611629082363	16.212759411499636	5.106535049522782	14	0.9905219241344957	0.4493099106750293	-0.07753399492385346
Si	3.742540474541785	10.441335990213943	8.229411418953699	14	-0.8872583640508563	-0.18478585358010646	-0.27467889466737977
Si	10.326734947318759	5.541975399955399	11.714988603958158	14	0.23132543098010688	0.003015649430001682	-0.49252582022767427
Si	10.266051172626906	14.627408094451944	9.937025490750436	14	-0.5479056290499398	0.47015437572653385	0.19000828270639125
Si	15.712357647550704	9.09574395190055	11.888104270083039	14	-0.057802047144377026	0.6359441318697902	0.913870075445985
Si	5.308621922251064	12.745683137378755	0.21974012578424218	14	-0.7113945030421956	0.1710800624499931	1.1502932369443495
Si	4.828988594863833	10.531982911520238	0.8980680550190303	14	0.44087102879323936	0.3323711556145864	-0.07590288570875152
Si	2.3173735329296106	3.7539059756269446	8.555223543108458	14	-0.22019563027024988	-0.3602766472068136	0.07748025882266237
Si	11.863269699261211	6.58463879631911	9.048306265389163	14	-0.646373563490439	0.26008787197553934	0.28377469395846755
Si	1.6763458272504175	9.280700594487783	2.557698463405743	14	0.6567520872257487	0.6407472137183589	-0.24005021977349733
Si	5.965691183414563	10.891152092740427	5.123166850302912	14	0.17820408107105942	0.06358086346194185	-0.07957699521124312
Si	8.842227039062733	13.075115432681237	0.7781859562964811	14	0.34659219625085746	-1.3687040059013524	1.0731155972178683
Si	4.157940357610883	3.8954402392846665	6.972198776268472	14	0.691553283286613	-0.08025808101055035	-0.36443361028842897
Si	6.308151504052112	5.108558279231249	13.775149632669981	14	-0.5965578836915059	-0.12293868643554047	-0.1543977026907443
Si	10.378986412131649	3.4936733829788547	0.7251458581855581	14	0.37587425763149196	-0.1515584310857048	0.30814105907751094
Si	6.973739972318682	12.153591685434234	8.892132278824722	14	-0.253812832331186	-0.3416255921039274	0.04145881617685576
Si	10.995125441170233	8.24152292450997	2.047477313132656	14	0.14926474802960069	-0.3273855252882873	-1.2050454389579666
Si	3.3270897647944344	9.619806354360728	15.911453944113472	14	0.3937835488495154	0.6916725825734679	-0.2480651263879949
Si	12.399514108799107	4.426570829162347	1.2356506541146939	14	0.8587867150671326	0.07323099306005364	-0.04224583151535309
Si	0.1768046992237865	5.338649012105885	13.534623035051109	14	0.4118813020875057	0.7364424681816103	-0.4155867790749031
Si	3.251374409902242	0.4348468259962596	8.489019335330374	14	-0.015002142432532025	-0.8710645143024356	-0.22118164916052663
Si	12.758742314548877	6.78865380368042	1.0825459430885391	14	0.198321180427494	0.500629429975717	1.150615139330432
Si	3.396450145334913	10.966921553451403	2.583015067885828	14	-1.0066458398182083	-0.3045844490881501	0.7192487155741841
Si	0.7425007094530734	6.078818252640451	0.7537776737438594	14	-0.9135767123289561	-1.01403982449789	0.4326419491055734
Si	2.743240432578003	8.269966189487663	5.603436330953423	14	-0.403968468354218	-0.17780761663069256	-0.7338348531659161
Si	7.227411004761519	10.734707577082064	10.749863764622631	14	0.787275277245194	-0.1694831489356491	0.7144263504357143
Si	12.546488466600014	12.237301584944321	12.425257001548397	14	0.22179460066884993	-0.8733687388903525	-0.5988518238581421
Si	1.3442049618682055	6.366174256201956	4.667659799382519	14	-0.669884778980001	1.0901519981797017	-0.10512863988287471
Si	13.166596895253017	2.186978509660315	11.030004019442678	14	-0.3605381286178727	-0.7628628893409201	0.5754732774030995
Si	12.365945547169337	10.673076130776359	7.08745072855933	14	-0.5199919099206882	0.12811277878180646	-0.5893521039212588
Si	8.993852857708793	13.820047624839056	11.742769482548312	14	-0.14181625591713168	0.31602535354174505	0.4187407539711288
Si	10.847636258305744	10.638297566290147	12.534388438035606	14	-0.2879658527408409	-0.14974503050340435	0.15331706712468607
Si	12.124207307123758	15.710103238434705	7.594145163189863	14	0.1674871998756182	0.7615737371333978	0.1925943004373962
Si	3.6966226696671476	0.2985575476200471	10.75191978573642	14	-0.042035515100164976	0.06897092865510028	0.3358763434975443
Si	12.687065221222287	12.41169775544709	1.6631833571535244	14	-0.18816505730237706	-0.22332826499231828	-0.304965229786064
Si	7.761445273580604	9.915411035931385	3.8795167328595266	14	-0.5958719127920904	-0.08371544633455347	-0.09418190187181226
Si	6.031424834526251	13.132402017781567	4.260383986982342	14	0.50800824513401	-0.09188256238400384	-0.3209755026146261
Si	6.492881885942613	9.307738747747358	14.00446320923845	14	-0.046333374753324504	0.09568651270516293	-0.179169016897711
Si	12.232827197687916	3.648252067674305	7.582800976518163	14	0.6137984304157588	0.5272498831289342	1.0965851608012442
Si	9.227886757073593	8.145881872172893	6.539247293499917	14	0.0646008209424446	-0.31125261073595417	-0.017881780391097876
Si	7.296853363815307	5.4880597713223365	0.6379895819759617	14	-0.22244354765165533	1.049109443954178	0.9245602171460967
Si	0.5136429334186042	9.004890444740717	4.457965320619161	14	-0.7635462891350153	-0.4890769395512276	0.5362477233073244
Si	4.841634600326878	6.997807224255938	3.0613744491762387	14	-0.18805629954733483	0.22535789553204316	0.7245444212020931
Si	0.7102585601686436	1.5352804806888227	5.610422539857616	14	0.22113999725434022	-1.1634081880718927	0.022729085251173047
Si	8.560602973151793	7.049830788801829	11.461029007148474	14	-0.7689232416910409	-0.36448091862631976	0.43009784039128685
Si	8.498222243234443	8.085612908758382	13.561359507381706	14	0.20907868508699357	-0.6822438251434207	0.6315056327556186
Si	3.737292210119742	10.29359595309873	4.7690049166756365	14	0.17894610206645414	-0.39962355747369976	-0.17437827635467906
Si	14.489846509549174	15.640808440704873	13.397694324271088	14	-0.6981895632284472	-0.28228293865171766	-0.05794705748443337
Si	1.9245784051203358	16.220052220043605	12.077295922667815	14	-0.3453907187347523	0.38186313325371285	-0.4983038652136431
Si	6.143145152463757	7.536920881759649	1.2029740187097264	14	0.4622328002351576	-1.3347926693917915	-0.8398970613905365
Si	6.09469913023867	2.180626814449134	9.858106415558128	14	0.9019558305029509	-0.7307518407765267	-0.33397295422903867
Si	1.5345951403175595	3.5802197390494324	13.02577256552055	14	-0.31207844976478566	-0.5839471263172435	-0.5220433948556343
Si	14.805693325626091	9.726355467678701	3.4698258334572665	14	0.3796308996147603	0.5100162783890456	-0.3295185142618821
Si	10.74503523018873	9.68023763523159	10.431936333877934	14	-1.0081797612522085	0.29591699594339893	-0.09106675066592086
Si	12.833111582252537	16.355506957154333	11.81530571069438	14	1.2462826258562256	0.5852182807875248	-0.8948744922301989
Si	7.419952299400101	8.838788860214555	7.906801375528792	14	0.016887791074328626	-0.1303010465197845	0.35057175306538263
Si	4.1768495214907375	6.169420905549557	14.516478049382737	14	0.13879880671340591	-0.1420782515492548	0.019656614393596093
Si	5.687543006467925	7.210993987686258	8.1824688826627	14	-0.357175122859119	0.3813129167152012	0.4404326553361541
Si	15.685321133861395	3.2877007287197264	5.523881102497837	14	-0.3611256261835265	1.1845372744823377	0.4984902703493538
Si	7.538653907531001	11.37742895884622	14.42840361382408	14	-0.5879207695895324	0.062354703334763235	-0.2773847259063036
Si	4.900626338504035	16.48198668662799	14.682135310366766	14	0.8392871952085975	-0.5997625093625384	0.5434555599618275
Si	8.916097877405473	4.66436262357723	2.1441873652832832	14	0.5266207336570939	0.5952088247300242	-0.5867023227783142
Si	2.2704162405062154	4.521769197527556	1.4458829119253582	14	-0.7420737030537987	0.23381400381947817	1.1392349129623927
Si	14.574713945667185	11.184517121327481	12.805535649945655	14	0.9398696066643863	-0.5568839288278968	0.2730565272103663
Si	0.7287758667548806	5.384827508652845	8.472779391843861	14	0.19947046450560021	0.46862559650317376	1.404893598835097
Si	12.81692574458481	15.059772611065208	9.867443768224023	14	-0.002947258028485743	0.4898199889887505	-0.9279273366733626
Si	12.22511301958554	11.454219871833027	16.08030836711655	14	0.2361048586597301	-0.19505022023920163	0.12785232581287548
Si	15.409606079189768	2.371682658426557	10.52079612359409	14	-0.2733897424598575	-1.0103155784416558	-0.9991968334846753
Si	12.56845706859656	4.066437580625644	3.5478628198463698	14	0.7282900074324847	-0.061112345244067674	-0.7131999331980037
Si	5.1514428791134526	14.781252251668144	11.003398712733375	14	-0.3807866114561668	0.10110383161471491	-0.3199303483019859
Si	8.558423984268039	2.1776526339862836	14.709034100153715	14	-0.052382671350568906	0.4235160678822398	-0.813145996087056
Si	14.072203694355943	7.588257466364011	3.0213033518707997	14	-0.1636277136795439	-0.7069179515692858	-0.6055127864110496
Si	10.626217212568934	8.97219249492229	14.186016103953094	14	0.2213873375861385	-0.511810138570913	-0.3709516193855364
Si	11.903037476067407	2.061059513217691	4.453689321364964	14	-0.09400989492589436	-0.058854143441381616	0.2602783908797624
Si	8.117135286695959	4.546826749905585	7.768126522415288	14	-0.02633223224682857	0.6077092816860521	0.506828364902594
Si	8.73915873341986	16.160483353132754	8.869478336456911	14	0.28407268506507277	0.46808103639636645	0.4181637979372875
Si	13.549479181232966	2.4305333935608218	6.131514040995476	14	-0.06289129301507815	-0.3334769880127821	-0.23314860176262384
Si	10.299398392270742	14.55469807185766	13.567447231780035	14	-0.39208430534342953	0.17669304247440837	-0.2868487074792367
Si	4.023780881010438	16.313001098003618	0.5767073641369518	14	0.9947786461025329	-0.9181422240459431	0.30041051671142166
Si	15.742328992016473	0.8178930690028283	8.701537154092094	14	-0.8993129913443705	-0.3732941534427233	0.43116664887287237
Si	6.7569904226999515	5.499571194161186	11.483081227228594	14	1.3487314026639101	-0.263345719526699	0.3554378269942949
Si	10.019402419634117	2.246708054457253	5.943758651963873	14	0.7941743241507473	-0.3052786475245901	-0.3887171858161636
Si	7.662470974892382	14.3757832457013	5.415762920435129	14	0.33399480862425995	-0.263884108980738	1.0428958537269761
Si	14.075048348767764	0.3508008145816066	6.942214315240572	14	0.18851035674687297	0.0666080828658842	0.6686164527255719
Si	13.684155122467258	5.342347882626388	8.470233139220484	14	-0.46633782698930604	-0.974117757970887	-0.26256847438841824
Si	2.511657690761142	1.6070838209259095	4.111001100460416	14	-0.07469600887147401	0.3702916166498544	-0.13052601823529747
Si	11.076523546605005	16.747908588099722	13.11938219029783	14	-1.0175298428594592	-0.030038994786886052	0.8211819857651788
Si	15.66612012647416	0.9315251258706995	14.152668884309259	14	0.05291360459917948	0.05009181651031697	0.26200565943383786
Si	15.465477715150383	12.524713333894876	6.165889271196206	14	0.2229693386896256	-0.30163127751742796	-0.5191830401869696
Si	10.467810131301952	9.462274803615887	0.0016379306959138202	14	-0.2751229245561693	0.245895627718854	0.4633458317282497
Si	3.468330545374511	8.088985504795914	7.775014357103509	14	0.011975951470717738	0.1400951580158246	0.6725533291917827
Si	12.01430363304118	0.4098876478342015	2.833416797217903	14	-0.25618750520487477	0.08664239263101003	-0.8299661670914646
Si	12.143421431073122	0.7543187319316988	15.175690228884132	14	-0.39480556321427424	1.1609736084442446	-0.10421795437847828
Si	16.169107492732863	11.28530806387063	2.1971536827322287	14	0.023931591209406303	-0.62142458590585	0.6506559965116776
Si	6.34500412492504	6.175343033350999	4.732034246743544	14	-0.060277764457147616	0.437948710486359	-0.7117336318339232
Si	7.6963772879969845	3.3755308683087226	3.5380040838358293	14	-0.19102541197104184	-0.4259455052992477	0.5262309540905594
Si	5.063570110697535	5.927380984575001	10.116996200158216	14	0.7273415266798822	0.6233428875852126	-1.0767963915941925
Si	3.372230413362902	13.999628116523485	0.7738656886450967	14	0.901090653562721	0.644326963655601	-0.8259454725918172
Si	11.336757778823358	8.952848844921899	5.804185314344502	14	0.6562440368144874	0.7031312276537718	-0.6268681300896676
Si	15.405859661131545	4.609261585641719	9.941939282838177	14	0.16306232761964332	0.5721866334723542	-0.4244244393918481
Si	0.9364176035449806	12.502566018739317	14.720230725501457	14	0.3406138621604492	0.2779166875970422	0.7343822414885757
Si	5.800674994404611	3.7305765303094693	0.541404137165564	14	0.6789450970176709	-0.6548744090104445	0.7468608440493824
Si	6.982196875751638	9.683267561083492	1.6406589408367436	14	-0.5761281379281412	0.06544260082426107	-0.07737381506240823
Si	9.491003353819893	12.923765061839894	6.049494538429822	14	0.30757875834399456	0.5958575146022975	-3.0143016565928598
Si	11.460402691306792	5.257260744092711	13.701942820285046	14	0.5277041974390044	-1.0030272661906319	-0.4678041283533865
Si	6.119900964800123	5.428461392146693	6.860830965938196	14	-0.8910178342499769	-0.9446971140134964	0.24065288686054007
Si	12.548962578131679	12.8318868232637	10.180016362479376	14	-0.6145021419418834	-0.2073653005016469	0.15535338253824335
Si	5.9703655982434425	13.137320728580105	14.358756308487019	14	0.392145497650049	-0.7896296383868535	-0.011023356949602874
Si	2.7118475806914537	3.8506930875800824	10.955492109125862	14	0.2018855037328153	0.5618438481009946	0.25406017266298425
Si	6.886803398524753	13.53703976162346	1.9422480538789577	14	-0.6718395903549096	0.29795613957280837	-0.45421120874682763
Si	13.138133955432131	11.379848964559102	3.6713257400302566	14	0.539524597037853	-0.9450429276790563	-0.31730833509649886
Si	1.8568461178541737	14.504533779993615	15.417702277164164	14	-0.48891547413712244	-0.17013929501335093	0.22447060708606006
Si	9.264239309015336	1.7879759688232828	12.400219124013562	14	-0.19960416198224792	-1.0268143612810459	0.3824850836306567
Si	4.988827020973188	1.8221856024271286	7.717526104860441	14	0.2864167617854517	0.45907522579148374	0.6979609919654861
Si	3.140388619443985	6.184127850837192	11.164614377866322	14	-1.818533794072116	0.36296242382424027	-0.15332709443543466
Si	11.085975669189532	11.432143058198914	8.949914014145437	14	0.40517843051787966	-0.42570510695181385	-0.1062239307492578
Si	13.084052730202183	15.050858267527985	15.167431713453382	14	0.4525302200885148	0.2706394310988951	-0.1433653468725209
Si	1.9151148055439449	7.209288834609431	9.382048990921433	14	0.4011754766449411	-0.046821884764152645	0.13171772555118608
Si	14.478235072924088	11.839107352248515	9.479134504663017	14	0.6394547190739204	-1.825763228011308	0.8223736930810674
Si	2.222937564738175	6.812225905397289	13.225526329760058	14	-0.4833246056184604	-0.03846682091579944	0.4795440523557146
Si	9.91978704897182	3.400837635367211	10.901612551038655	14	-1.5937711094216869	0.7931199138589545	-0.39786646409791054
Si	4.525054896340981	2.4899186286018615	11.445392425519914	14	-0.6322108869449353	-0.7907616960593147	0.258865825616873
Si	16.15836502834885	12.985021046554646	12.82618275830766	14	-0.5692470887598289	0.09519260337316247	-0.3664706970335823
Si	6.92743358929096	15.171584744937617	14.348472923777539	14	-0.31267803152544427	1.060186022783908	-0.8317525710679035
Si	10.57416905446905	13.102560199366824	2.3986044021972326	14	-0.7349332293586834	0.6893449609271377	-0.5047928208206328
Si	0.8401567936472867	9.22411574546138	10.033524038336726	14	0.010912285199772477	0.0030516449044837553	0.4671163576802469
Si	3.286353001960926	14.488318430061096	8.115139929682018	14	-0.11368707816205163	0.19830986756408536	0.733866991982418
Si	10.76083085013311	15.116998532065686	3.62222716883923	14	0.6646255830476382	-0.3293475357580923	0.8795185657056145
Si	13.006048535218405	7.262825722511007	5.157933937797259	14	-0.9895942693349863	0.4827779886273969	0.07590854214045585
Si	14.180023474630206	7.431968709880935	15.521577251377996	14	0.5696579513899885	0.1317802034104657	0.5096560665336928
Si	1.3951873992950725	8.23228230648978	0.5363378650430678	14	0.25711104623587194	0.6160378631496077	0.6772391686377527
Si	8.728927814958896	11.61392713232109	12.424130616775534	14	-0.3475579034091051	-0.004907211614034623	-0.2700750734811226
Si	1.0092522334794947	8.902443536228725	13.595047757640907	14	-0.6991706970186157	-0.5693031388558082	-0.297238029856891
Si	11.404091650514841	2.4309318091355037	9.459318658425966	14	0.5420648490941594	-0.20997034441202095	-0.8405609207841989
Si	9.830128788536031	6.557274368576565	3.286705509568155	14	0.0014408474214109835	-0.025732650486170034	-0.35898775210982337
Si	4.416336631560852	16.486156113814886	4.494511341852314	14	0.4597030897106639	0.38394598567356475	-0.7263439378156646
Si	14.368905248434674	3.252635239436934	0.2844933138767551	14	-0.21993543441185084	0.0935157284833619	-0.17302561784574916
Si	11.38363965101451	5.589660661576978	4.772644762666556	14	-0.2132253637473284	0.2304445702974241	0.23436576302118195
Si	16.04926310412643	9.063324729027373	15.564097866661111	14	-1.8720845185696282	-0.29544982610672804	-1.2879892965859436
Si	2.3802658087700093	11.10535047102498	10.089231717270724	14	0.4072371145477222	-0.41581406478520416	-0.001749122949296738
Si	5.361476748921909	0.46070120952365207	2.381662722636795	14	-1.377534724233933	1.1459352134266982	0.3374765994488045
Si	9.552690545514649	11.557755455001761	3.8677642931915486	14	-0.0913678270989102	-0.19887448229238988	1.0195013664189487
Si	13.892470722636759	2.412181683571469	14.602122641806915	14	-0.24199371828499727	-0.4802071404177809	1.0246985987130959
Si	3.0528913126190234	5.403295628131096	3.452556239843593	14	0.7962240093119693	-0.13497583021287773	-0.24462447324857278
Si	15.501771242562542	2.2668846061528636	2.173029045835656	14	-0.21464589943671022	0.08822619350822125	-0.5067597163905461
Si	6.924308568363621	15.44485520034237	7.533246604793139	14	0.34188578796232644	0.04515940806414489	-1.261164183449243
Si	14.540143606604778	6.58522248333387	6.712656442702444	14	-0.2534469640441289	-0.01391739309796155	0.14567497078160993
Si	10.771532325260466	1.1279538416103945	0.7258033258622962	14	0.6897123718773869	-0.20286792307564389	0.7586892140747236
Si	0.3656438442013342	13.45749437058947	2.9347947059163446	14	-0.5656156596056519	0.514015118493472	0.043945332131970966
Si	14.997505011496221	4.0908950502862504	3.501180975227693	14	-0.6269421779228878	0.22346710467960626	-0.15495768942947255
Si	0.47661159938666275	16.32576023381503	15.999464436431747	14	0.2047263180010469	0.28220477704998514	-0.11842511104602052
Si	11.517274465129779	14.213000151393883	5.861199730780646	14	-0.06666953228303574	-0.37306043996912186	-0.6504176550484998
Si	2.347992507650522	10.72912484032572	14.08579737143284	14	0.15461110443231663	0.08694835416410768	-0.34482636111697973
Si	14.737951200938332	5.471101696059237	12.016871200078016	14	0.6162607779808646	-0.4239392718179361	-0.03508453186714464
H	2.666783991925497	8.193822906755996	3.0677900876278015	1	0.18029747502272397	-0.04671724077762261	-0.23554924280004613
H	4.871279670309679	8.771269717082996	11.288795429826795	1	0.00807121382100885	-0.19175791987675203	-0.08887205516464246
H	15.373724083914418	14.242932146173265	13.629700075216622	1	-0.21841951071509155	-0.10588557328912633	-0.11700354691451065
H	15.4520529138109	7.712477868010872	7.440437090305754	1	0.31074764565107704	0.3014132477862794	0.029404445993873506
H	4.762158071244069	8.553008483678846	3.3633718152147316	1	-0.13763255334018673	-0.857647201189243	0.34512538066571297
H	7.174087260994546	4.741299458317727	4.3724207419812195	1	-0.019210784731082415	-0.045737906761178206	-0.045579012452393056
H	4.784718558106706	4.600055398597119	9.404932473126507	1	0.04155420418423325	0.14360857343580694	-0.03538175164215376
H	11.416822913631728	5.918048550619905	10.502041079319259	1	0.030694883754055827	-0.10641676364826892	0.26147678306948335
H	9.832186449220087	13.617886971448796	8.828410380429634	1	-0.19077652897605152	-0.41451128571948515	-0.6552006822755713
H	15.323627014431288	11.265662732941262	10.685602447609973	1	-0.4790336879496653	0.5708591717955618	-0.49802387184427893
