72
config_type=amorph dft_energy=-6967.688788539911 dft_virial="-3.7820167826319286 4.599546183599921 -2.7909196011507316 4.599546183599921 3.7392537062736033 -0.41882660080360234 -2.790919601150731 -0.41882660080360234 8.478408756808058" pbc="T T T" Lattice="11.105996452100001 0.0 0.0 0.0 11.105996452100001 0.0 0.0 0.0 11.105996452100001" Properties=species:S:1:pos:R:3:Z:I:1:dft_force:R:3
Si	10.860531718515688	7.961466828645311	6.45120679511004	14	-0.07754402223460204	0.08800019335058025	-0.3101413790165861
Si	10.881366567859827	4.573027311109601	1.51639054357683	14	0.3972067184727605	0.9774349980549418	0.42578815365365463
Si	10.145016791092692	5.931490585137569	7.350681447765619	14	0.19945349521048722	-0.5849678551293424	-1.4682590036712102
Si	4.63505430129458	4.01491767140222	0.31248942217273773	14	0.2653378119287497	0.7430219266958693	-0.06438716209034027
Si	1.1462721058141454	2.8870148837198473	0.7450768687791945	14	0.8594660010927156	-0.7193770137296595	-0.37052507301292387
Si	3.7171770125178702	7.84500934984859	0.6657767223122648	14	0.09364196975458117	0.7696606346968595	0.3117511480575308
Si	1.5993856550633734	0.18128651188656394	3.2891074852681275	14	-0.36751456579356245	0.18805527110520678	0.3480518127411055
Si	4.815215775740545	2.747279236359525	4.616185213322462	14	0.22138759469667046	-0.0027688233192674663	-1.0642936206433764
Si	10.10576819963097	2.4036708121280035	8.324655124621886	14	1.340064463740223	0.1655012781263358	-0.9652392170793517
Si	2.428914742063627	10.71045638845846	7.087125045960835	14	-0.9636047654273333	0.13334806343469197	0.2791323061924082
Si	4.023047260805156	5.883390514503524	1.7783143639031562	14	0.5216782979001733	-0.7155332112760381	-0.1586451686796289
Si	2.001611528569079	8.409438301537216	6.728545738511882	14	0.2581603143170244	-0.3249527454343632	-0.5826309775038598
Si	9.605709603378717	9.54474878885314	9.980825739544846	14	0.012118647815985956	0.28655071637263146	0.525718789910786
Si	4.663807726109066	10.631803721584687	6.619196097444505	14	0.707733506176837	0.4375561027039724	-0.031296522398970475
Si	5.530586325209662	9.4332112664847	8.435626241171269	14	0.9079629609729448	-0.742806982291105	0.12674212253563552
Si	9.619980808819665	9.508609876398005	7.632962559588645	14	-0.75567587863951	0.16920546956107313	-0.01538138046725387
Si	0.4700279818457762	5.5193026328143295	9.144422040740743	14	0.803213816235324	-0.4261342244297466	0.5716631564291721
Si	0.9749898755316331	3.10787983516276	9.499702867243421	14	-0.046614653675348706	0.5932409007179829	-0.06421926891293461
Si	7.968485818403038	5.659171552132077	10.165007584706473	14	0.20920801168459704	0.40726333982198776	-0.4230203587765152
Si	10.021084976683708	0.507353014721994	6.623327528124686	14	-0.6453872874896301	1.229269879063338	0.10219937959163002
Si	10.615555648775265	8.023671514773524	4.075734107973919	14	-0.2594458669770984	0.3426159818732485	0.16992075106113833
Si	10.464558521012513	4.502848519528781	5.233400966147919	14	0.496392762629177	0.2027856477053991	0.9087265792530288
Si	8.50460558513526	8.962972270706333	3.5379262297809766	14	-0.12069025483307096	0.3350067956782702	0.11597767589177155
Si	5.989541628592695	1.4924571212225546	6.067405769718368	14	0.3662189858227399	-0.3874964250101573	1.4989487452146257
Si	5.5176700513358705	10.744318571640912	3.0617233139078324	14	0.015379323582997751	-0.17669124270068426	-0.437131613215616
Si	2.6780333484806818	5.730116657468091	3.7165550767165527	14	-0.54988872258337	0.601630674488158	0.3907990097938875
Si	7.479821974510639	8.45499509898373	7.427012961380902	14	0.11767306273987721	0.7043108507746557	0.24696417908990753
Si	3.7451752295736145	1.201213470262684	3.1536809645312203	14	0.5801138653954347	0.2093013428077184	-0.8145739879818662
Si	2.3008737089673654	10.789131267325136	9.508454392447677	14	0.8459939234362038	-0.007148187011075689	-0.7451757416225573
Si	7.870142219819693	6.200822105097446	7.872796552971745	14	0.013374375654346276	-0.07919595740279718	0.23305192820258627
Si	6.987770801700347	8.240316187564638	5.153071293809879	14	-0.08420087101899743	-0.5643661024200598	0.09018640420430216
Si	3.866286120883765	5.169674758505769	7.432243885709841	14	0.024081486649570934	-1.2437583146529045	-0.8701916240462454
Si	6.186928503535869	3.0001294575844857	7.9485505547715185	14	-0.12908774191920663	-0.22521519918677493	-0.43227942325543256
Si	8.055268074679747	1.8579221464718092	8.966826051475213	14	-1.159662344730969	-0.6046440099233715	0.25756741743019823
Si	0.9544937590792826	0.7531364904044834	5.51179497921271	14	0.20385008530794044	-1.2824133404781388	0.04717206930875681
Si	8.87500167280925	3.5612377163339346	1.9329431525057448	14	-0.8747581642053605	-1.0882031003470294	-0.12880877699197055
Si	4.208728415487816	7.736215008603819	9.519427116942351	14	-0.23458302142073445	0.9631669061913123	-0.17111091571383488
Si	7.428445634923224	7.855948756353909	1.7875212349619474	14	0.24035438153287086	0.3175500189965928	0.041200420092180876
Si	1.3783874316630353	8.265804449422207	1.064069962474282	14	0.6316910094492013	0.11730899422654424	-1.5214857688983836
Si	3.4591958209320395	2.2662230000368138	1.0722373122651563	14	-0.4880266430279472	-0.64382148434966	0.5641419020361429
Si	4.922433065489119	9.26049080966164	4.773179579169347	14	0.36572430515914334	-0.08752916685592911	-0.22318659708917812
Si	8.993980212800595	1.1977261873767246	1.5750968408226307	14	0.867963504175805	0.476510919409536	-0.4050215930933506
Si	8.231775676292973	1.4585949380401015	5.1697747124738385	14	-0.11099873043930479	-1.3030546882093514	1.067880569675515
Si	6.3159801823092705	5.884889824024557	2.3989174456465046	14	-0.6674005770196739	0.5045503655889428	0.6090259447205
Si	5.58176275686094	9.261334865392	1.230422240931707	14	-0.5485471198273167	0.1688246888631592	-0.25171275350568906
Si	1.1697279703209806	2.966100684455251	5.778749815931837	14	-0.6041884100606414	1.4101445672304354	0.6012403807005595
Si	1.4533973317005189	8.97643273840628	3.2051683640831565	14	-0.24407528515218913	0.34355006443605823	0.6484471599311383
Si	0.00607164826036307	6.492432253940235	0.20133283548260444	14	0.3371210155830279	-0.34066605559844815	-0.10710993364258084
Si	3.152736954832792	4.036863120391569	5.339674246198063	14	-0.644727027643416	1.2638990681782845	0.7798203573694246
Si	2.971631470688397	7.982312783985903	4.603968617225152	14	0.2435101562028206	-0.8025766963369912	0.12726637091041373
Si	0.27552089178263245	0.8147447845232179	1.3843069277720048	14	-0.4620119422881569	0.40957862016278107	0.7249406285319279
Si	8.558847271807318	3.520456497361823	4.295499565768074	14	-0.681411815461821	1.2774320810308837	-0.12776028024241415
Si	8.19843547494377	0.29987967380102337	10.715087588978985	14	-0.7448733796369079	-0.3600899849605708	-0.7801296613394385
Si	4.098701308636862	1.0797682884593254	10.246614446636503	14	-0.8163704192690536	-0.0019015894947815195	-0.07212156111440975
Si	9.0331399562907	7.446292971221749	0.08158131813819099	14	-0.5777268512162094	0.9012737162615155	-0.5218657314780121
Si	5.90368117002151	10.626828235174147	10.423766196043951	14	0.5557652409031004	0.37335765974413093	0.3789701255474822
Si	6.964159453243184	4.448140381005737	0.7672466588968766	14	0.0919548104435	-0.8979233089188305	-0.3683542887911228
Si	0.19077991765381905	5.8234514516515405	3.503630912736891	14	0.8311876992290671	-0.4691400746777354	0.2306096352589776
Si	6.315635896419256	4.657355142170395	4.429271293033619	14	1.0915504223633303	-1.1182940314613825	-0.3679596241244801
Si	6.17181324236456	5.083081304168745	6.725324999540773	14	-0.034910210926438597	-0.39465721043730173	0.28830241042724836
Si	0.5815899374064112	10.213029913365352	10.96102988041074	14	-0.17309683746311727	-0.8756269406930384	-0.1600063118361153
Si	7.876828029683857	0.196063040166083	3.2574998193654516	14	-0.4932554999175323	-1.2761280164125046	0.7938323671431675
Si	2.4272377365993596	6.813384445409474	8.408227747923938	14	-1.081129475390238	0.7180945463959695	0.1437471560125629
Si	4.122679154976946	3.340306128912309	9.137503004951084	14	-0.31803852900742097	-0.291785486804453	0.3441828134553467
H	3.239274879187555	9.420461582557689	9.579110741875937	1	-0.21491920793224195	-0.025417690084451893	0.023038389221186863
H	1.1826886681805813	3.0946192753989528	7.350603705790454	1	0.11904449031764418	-0.06055492961065957	-0.28736369987486227
H	7.821764499274345	0.6963370927495084	7.976959693695991	1	0.02902315107489555	0.08879595044716608	0.10303730281546628
H	10.094673309175324	3.8259269297768337	7.656529484060002	1	-0.3591235064707272	-0.8686934409761952	-0.020014255143628694
H	1.363150004530754	7.8772389515525845	9.228883143758964	1	0.42571873381001063	-0.35721934587062554	-0.2681308036380266
H	6.021515792378291	5.229413913421615	9.24028900211527	1	0.7834785260189312	0.06378732321914975	0.2593018850791701
H	6.76994889328531	6.694061619528111	4.933527955944767	1	0.2550734452696546	0.8554105966712461	0.07015595109715653
H	5.282411728491036	5.446836005964377	9.228738765805085	1	-0.795383000761749	0.5137559510772011	0.15003016608340877
