227
config_type=amorph dft_energy=-23272.504461952405 dft_virial="55.97453070910727 8.851035702759015 -20.449361885727185 8.851035702759015 54.79250998854739 -6.9953035134841075 -20.449361885727185 -6.9953035134841075 61.15444403743113" pbc="T T T" Lattice="16.3747472526 0.0 0.0 0.06417263448293939 16.462712394840963 0.0 0.108400826812212 0.40922130858972655 16.29911229504024" Properties=species:S:1:pos:R:3:Z:I:1:dft_force:R:3
Si	15.64025305216045	15.59242405291033	9.172615968893338	14	1.112246020416798	-0.590499845336173	0.6468646446065872
Si	14.106328953576442	10.246396569881483	8.311957615821957	14	-1.043694696149946	0.7966667536480989	0.48257872796508544
Si	2.8669382357522406	14.143108273380507	5.851949861518803	14	-0.1664489875473424	0.3991823558007623	0.0522924255538317
Si	3.466543818223771	15.760835053453873	13.413023792376084	14	-0.538462730540632	-0.4144305530124326	-0.18211833181045284
Si	8.69383309649984	7.699211298680214	4.303909093328329	14	-1.2817517950792645	-0.12251368272612	1.2729858686007518
Si	8.617353201981846	9.282546197098942	9.872890222524402	14	0.378272327563594	0.984486768616512	-0.512610009436011
Si	14.399287919197983	11.263633531131676	14.93355171023274	14	0.3246688954070188	0.13258958736524828	-0.3570506813616238
Si	9.200588949624954	0.5016338321845	0.22311575616502655	14	0.34388353679608147	0.5242910551265078	0.37997594194872414
Si	6.31378814545531	11.064925973221376	7.3233191506484285	14	-0.2972485713887036	0.9651356015349494	0.35759138481045094
Si	12.811497452051823	7.954649168447147	13.571793341737294	14	-0.25170246908440846	-0.46868138948862104	0.7882345566401413
Si	7.746265772385285	16.312528125464294	1.8192082201682558	14	-0.2379534833849166	-0.726956889323988	0.17813928921699168
Si	7.993287022064382	4.529282927139489	9.845948850869698	14	-0.2706790261208254	-0.33270591352726975	0.01612828656275688
Si	0.7075053420178133	14.648138228145196	4.959671871502652	14	-1.3161819806424315	0.4610387789244808	0.46666821402294506
Si	5.113376711538632	8.735085997253316	15.135236197193562	14	1.0147625622033838	-0.028165430340094142	0.25644718684220974
Si	5.013824798141725	2.6504346025278136	13.508406695122478	14	-0.0408882879063149	-1.0016882345398987	0.7931512813438604
Si	12.843736054442742	8.951363658965658	9.824286697729235	14	0.0709421951040578	1.309905141224354	0.5621822055611261
Si	8.36930198070056	6.519112738730387	14.562437713449263	14	-0.698861907269666	0.1534057702582312	0.2983392342655104
Si	6.742953896198703	3.7845659719901423	14.33389045362055	14	-0.1535482094929674	-0.25856243518909555	1.157470991666607
Si	12.027330455821511	13.7511705105159	14.22427953298637	14	0.09120301924788872	-0.6680006730013964	0.12187964815417147
Si	2.4090839278222917	1.906985052815818	16.22338072647169	14	0.5781274294250884	0.862979159402166	0.36110634289362536
Si	3.9514934204325973	5.273628175526201	15.740780900493611	14	0.4556250595623771	-1.275648505270297	0.6150248476534694
Si	1.7887921271465512	1.9759505758195934	7.573346803923104	14	-0.09954574179070519	-0.19991860816290202	1.1111399309080705
Si	16.33659409150144	13.497653398601695	8.367864277891783	14	0.2961635649436011	0.42668726918411043	-0.5341952099302502
Si	15.875346935940753	15.74914184644079	1.3176218747507884	14	0.19566548574231307	0.08148809779570919	0.6291561567140673
Si	5.607324237362762	10.0931518602433	11.591419946684773	14	0.07280418957690904	-0.1394474965856793	0.0841970143610172
Si	2.7187582354392874	11.862328677655961	6.2485233153306226	14	0.25065345811378803	-0.557702054540768	-0.032262229557218094
Si	0.49792495193178604	11.125905531990057	6.163425391333585	14	-0.26432659620633553	0.5519983144985515	-0.005855435256105236
Si	4.228003952438902	14.898331266367121	4.147584293731932	14	0.23847336088065052	-0.6275206766199211	0.381102086078949
Si	5.834633566299179	3.2176754970545804	2.4414273285956276	14	0.48862776745179787	0.10536929534084058	-0.3775722155849177
Si	16.176396664179805	9.602313898922441	7.786279104771738	14	0.8272477374364722	-0.3395885053587741	-0.02839760115050352
Si	3.0950335525567825	3.4450748871008874	14.50780173176624	14	-0.06526005234653055	0.1368596790809502	0.3370551952868322
Si	0.7849890085423914	14.903800431949492	10.870086130612139	14	0.5787972023609871	0.6178011271781653	-0.22793285751017145
Si	0.6630446282775538	2.073155987935203	12.061388292632195	14	0.8428857142146768	0.20201842987786695	-0.6496674065160806
Si	8.318366691896625	2.224568363355819	4.718265522656471	14	0.2172846248267782	-0.26358740342679293	0.4981966501217929
Si	16.14626385428557	6.816255452274967	2.820935020820786	14	0.6580080721746411	-0.5529714778622276	0.4411273679936581
Si	10.937571376464279	1.4540628187583526	7.558124838877086	14	0.42131237351234085	0.3543052551007697	-0.11218529554455314
Si	2.7729422740981406	13.947325245329521	2.6215806603940073	14	0.37078166932387463	-0.1442212678335982	-0.6856047740179184
Si	3.7357151885114606	11.656589803275395	11.91697775913679	14	0.5478863457600388	-0.024839448497950594	-0.6674419718153284
Si	9.431751256589909	13.173353166738679	7.865508319353443	14	-1.3098434346966705	-0.9468180187920867	0.772917453805891
Si	14.10411836269734	8.178916069344032	11.706133238562861	14	0.062468603300445784	-0.18918012968277156	-0.8562660034112594
Si	15.762326792928583	12.85168926918333	15.876357257846239	14	-0.33741900668963315	0.2204830798450424	0.45180799660408527
Si	4.357158133919059	3.756046074700289	4.215421596650004	14	-0.28019494402122547	-0.1936211999022633	0.586525173621756
Si	0.4217168782181856	6.017603354625006	6.22880156973959	14	-0.6157496422432193	0.4661334241163543	0.9213342513009068
Si	8.8735508600213	11.731098178224176	16.035370790941514	14	0.5236495643491308	0.7407017612549677	-1.2110178595061387
Si	13.32246652764503	12.931953367791397	5.6915510248059595	14	0.045138067889987664	-0.23677154626924454	-0.94569547420931
Si	4.552703728134883	13.870596454653287	12.394444101851176	14	0.15013969517004708	-0.19504764913388148	0.02918255960474473
Si	10.18352736527985	6.90753156841041	7.661672190603628	14	1.5748534306971014	0.22728365341683404	-0.9776993076818532
Si	11.342766134704592	10.348316271731116	3.346238550158919	14	-0.04379415113914625	0.6917921389708547	0.03649658290896997
Si	10.800732526098477	4.963125305698225	6.253363690618491	14	-0.8302366473711442	0.4353724629555706	0.19578658480289204
Si	14.916281264305422	0.8860408487876364	2.786479277651865	14	0.2181253762664666	-0.1457161084667323	-0.5167294343799523
Si	2.179030191246339	13.735008634977584	9.382743275537601	14	-1.34098157700792	-0.10120461894326473	-0.11704699859442115
Si	8.182420265256088	1.1851747315981334	10.491930992510044	14	-0.1860575222714517	-0.023879140660875285	-0.1758787734195175
Si	8.91293048968908	15.554020358178807	15.28007083664281	14	0.024190244404613204	-0.5092986828941923	-0.6012673773064211
Si	5.809090598059848	14.675202410404294	8.364718688944558	14	0.44034163820782085	-0.46761900877033585	1.1232791475666175
Si	1.6286749360864525	2.8434355610205837	1.7754941949027148	14	1.2299584210680736	-0.2525643035877221	-0.5520402235152699
Si	13.544463888572704	4.064764097077733	12.48490475557344	14	0.6285313781212714	0.6425415881212903	0.6965841650665467
Si	14.387593074710177	14.309616528293295	0.3907260315679149	14	-0.02691767292822628	-0.89339687800271	0.5526644878870018
Si	10.099840944495988	4.905715441830609	14.393822028565065	14	0.23703842700147587	0.2818749042374102	0.22749319850042612
Si	15.90399783120863	6.134653322936042	15.41657564216466	14	-0.32092845138726733	0.008132149017096359	0.6488829622829034
Si	7.559128610883671	15.909087102654736	11.81197960480367	14	-1.081281427714659	-0.6661823873189878	-0.8307840356938038
Si	6.448401667669483	1.3239343398166656	5.858730644356106	14	0.09895335912494307	-0.3257341043411561	0.29346621835223374
Si	8.919526237882428	0.18086072087969227	3.749104819339912	14	0.45998334019056	-0.4282119346389583	-0.06477642743581072
Si	15.76895692809116	0.3424107023243933	4.943192325867635	14	1.0451134320656037	-0.7505578363892234	-0.07895041684472304
Si	3.9775243561400555	10.776488075316276	7.910396413996995	14	0.2532844701878955	0.3937398400590728	0.19966895383631567
Si	10.953058612415788	6.1384784638942484	11.013078610995468	14	0.047790163027720406	0.5013789071765402	0.568069008302137
Si	10.105190574423412	14.682011030311925	9.506063134571658	14	0.049261349491909134	0.4876741444885549	-0.5548129034925177
Si	15.933505125757813	9.629568028249668	11.612674368618647	14	0.6607149318556929	0.6096774628086254	1.0084245304786867
Si	5.18752320457313	13.35919181078316	0.14155805252400175	14	1.2366062709838486	-1.3815669887075215	-0.05816020211547365
Si	4.7340393166849	11.13410273046471	0.9629464867341976	14	0.011936099338255441	0.4544698619420345	-1.1050813783316735
Si	2.465575168369037	4.04434806220319	8.596491773982034	14	-1.0580604900157413	0.3440606859526397	-0.049642644410887095
Si	12.105590285365864	6.9965332321524665	9.169910860647208	14	-0.8547770763203616	-1.1740083410857993	-0.18523708256379245
Si	1.532273524060946	10.285944859445964	2.417336800437602	14	-0.4661334241163543	-0.1144887488008738	-0.04855815218684864
Si	6.172077807781859	11.519125437564542	5.020874126833969	14	-0.6867005791053654	0.3033896564458773	0.1650256236421084
Si	8.96480077656114	13.48731602066113	0.6226579516537412	14	-0.4874041784299393	-0.0628126171922816	0.11855238075936785
Si	4.839492688991644	4.151907227006618	6.641445200505111	14	-0.35071599207384296	-1.4888113911583458	-0.9209452430659685
Si	6.371653227296547	5.775756525077731	13.35858430766009	14	0.8146356945095498	1.0406998726730374	-0.7397396536441683
Si	10.630932946987915	3.9720830276280163	0.3190423005202078	14	0.19869270514625542	0.30999508312386975	0.4079899341854616
Si	7.124906338188675	12.70352891856708	8.781747477024323	14	0.911301027010093	-0.18851164229953307	-0.8430343241021813
Si	11.13418132925152	8.73615854319836	1.5110109147534447	14	0.4829991036849296	0.2975936137226674	0.16159499781343484
Si	3.4981519928454654	10.166512365409673	15.792644637466772	14	-0.12278621989005571	1.60153533326747	-0.7126797985917378
Si	12.695752551096819	4.941152032359961	0.8564058312098809	14	0.27828744098420755	0.3496908923826999	0.13831672446587814
Si	0.5065839182789609	5.94369102047622	13.312622029596767	14	0.8301595142115397	-0.24678625860175327	-0.31754230568063235
Si	3.6584525810747928	0.7964775312148155	8.281233677551901	14	-0.4170170849645015	-0.2603784068767161	0.12354469595949939
Si	13.044094186876105	7.4033687400674895	0.9686760107978823	14	-0.014532658601072987	-0.4245817910374412	-0.005289020754076613
Si	3.371480223048802	11.664646178923674	2.68879899786593	14	-0.3550418767749921	0.3749610010217754	-0.555078755782621
Si	0.9487217437958639	6.628211129775559	0.7840097986566859	14	-1.2237021504925574	-0.32152417648994575	-0.020577584319273135
Si	3.4836750787994415	8.420137383546258	5.018332766060366	14	-0.1072220338345393	0.4639826945160504	-0.3313941355929302
Si	7.454222155135164	11.230594203600106	10.668237896178788	14	-0.4181686830373958	-0.3736553937402041	-0.7616341581084213
Si	12.52876124114008	12.762905389579732	12.166320947976304	14	0.8473545523716262	-0.8662395780586457	0.6380843199382815
Si	1.2457891335030828	7.5336052923410435	4.667526730819565	14	-0.13893790351122592	0.3765512296622869	-0.8245254511234994
Si	13.345153739963507	2.498380337014895	10.80343927181933	14	0.01723077652403638	0.7526062359977852	-0.4394551210934338
Si	12.423820398422341	11.126766843695545	6.925538877964094	14	0.2503012166849277	0.06033844254270311	0.22033524128913387
Si	9.17537183885595	14.270454682763978	11.588403718240844	14	-0.15848498881818368	0.177502683539723	0.7325325883212611
Si	10.896176015409704	11.097271011469436	12.311758178124448	14	0.017709002113583925	0.24330086822976052	-0.32223740110575483
Si	12.617283124787635	16.209940333926756	7.2415796873129	14	-0.8501154052644012	0.1838872522707147	0.4949550005341502
Si	4.002987088117848	0.7119019616551365	10.589806131788285	14	0.8217977654893543	0.17501333936875563	-0.8056370829995634
Si	12.725905010687757	12.971179074835003	1.5151324386369243	14	-0.1123511318377027	0.1345569971562256	-0.02019654651082719
Si	7.749653707591848	10.620047015014388	3.6340165457497378	14	0.07802533315053375	0.8964878608185918	-0.46799284748388537
Si	6.3063196232333985	13.77570151937502	4.0608570823832615	14	-0.018485733030800658	-0.43849969835646674	-0.03618779316002019
Si	6.714677982642914	9.685990494857952	13.677037117279204	14	-0.48465900927961725	-0.6127440201239661	-0.44431425303798167
Si	12.704121684417624	4.415812478577872	7.4017509150389325	14	0.9712458333282814	-0.627588296689841	-0.33345796183341303
Si	9.44893327888206	8.625060795513646	6.261384041822814	14	-0.08876458296226027	-0.20260001390128446	0.42229633551836154
Si	7.432771236234258	5.98913258157691	0.5343325649732169	14	0.7038992168129001	-0.5163134295391523	-0.4643629609929003
Si	0.22757296236718427	9.716567060402731	4.40817529645926	14	-0.18906931504347316	-0.47218580603998284	-0.5909816704731687
Si	5.030741549528386	7.138386030127015	3.7863311697439723	14	0.5768747869131122	-0.02105375302456456	0.5012336397259518
Si	1.0764234851947156	1.9042340952773813	5.423724021267709	14	0.11623581486591443	1.2852718953730793	-1.3948740014024796
Si	9.05731482358888	7.577956295274711	11.332851225243141	14	0.16026779324717438	-0.3708094372613322	0.2061219139688233
Si	8.766743296116767	8.508050126596018	13.445540765470296	14	0.17633154506639556	-0.39243577544069375	0.16955591121620933
Si	3.951725941843584	10.76492095385704	4.607138300426701	14	0.44684216378875125	-0.5728039558597218	1.0458503108503583
Si	14.856542911378487	15.77225971461201	13.306769694928686	14	-0.011714727170190693	0.757238082232032	-1.0306080271809244
Si	2.1955997979912443	16.636458288039403	11.62965661899432	14	-1.4293358115610844	0.3869757761828273	0.9076593134346354
Si	6.2504227860119235	7.904426181148698	0.8001487495488484	14	-0.30221388998297355	0.5941916954653736	0.3515863112247131
Si	6.556342364083898	2.6986025590460616	9.768836891107755	14	0.31833652011402613	0.020599438714494395	0.18423615126265883
Si	1.8053961208606877	4.058310809185483	12.65932037593451	14	-0.9445006815670371	-0.4254310271246861	0.27533966873465776
Si	14.943808851911767	10.456193106631245	2.790749811735343	14	-0.3182074506269547	-0.2607121363472713	0.9253438900476778
Si	10.797945544116084	10.099200691878412	10.241641343279328	14	0.4817649731312585	0.15802501807640923	-0.5134566744179357
Si	13.465422983584403	0.33392530829809597	11.473251583136385	14	0.25247817155949714	-0.6697569950455896	0.41658359660752453
Si	7.657260833693777	9.23287340130818	7.7095093772273735	14	0.7429771894632987	-0.11772962705692046	-0.03349687433195321
Si	4.352992398217998	6.824203754591379	14.204525037900833	14	0.006765606539437655	0.18027587773803472	-0.7009162204204642
Si	5.974076001478145	7.692707249071481	8.062417930015409	14	-1.4241475781355577	0.16646749950564743	0.056305149626986815
Si	16.035067858117337	3.954139579588617	5.40672375867006	14	0.10781055984232119	-0.903243182936749	0.536449297964424
Si	7.516282447222518	11.750877235430591	14.067253894207562	14	-0.3415255761069737	1.0732948032586829	1.9624840674049702
Si	5.05000643967107	0.5589618223158526	14.504575906557477	14	0.13950971733442688	0.08686145080428666	-0.4456070047929521
Si	9.144397366952932	5.094247731798145	1.9098473586355726	14	0.23858957484112123	0.3892751156706357	-0.5128087558772585
Si	2.47013389800416	5.025031675161404	1.2466586325821958	14	0.2688756528492735	-0.4008003523787315	0.5455366126079554
Si	14.805935117519601	11.854604709376911	11.837666670818821	14	0.07853286934073098	0.3741284771191114	1.044784073474093
Si	1.1807093380223492	6.021367909018379	8.471721112341397	14	-0.6293279065494533	-0.8893342744863438	-0.7141802956565761
Si	13.396508222297111	15.64167274274725	9.458877662888565	14	-0.8787564900887227	-0.30590162634366197	-0.1737678959516759
Si	12.340400886018697	11.970131826193455	15.953858936592795	14	1.4537255737385413	1.3946603425503752	-0.3059047116700461
Si	15.601069919459704	2.7587535556037626	10.206011530732397	14	0.11809112446493328	-0.051713412635734354	-0.11657828609455816
Si	12.99106784284801	4.549104558688762	3.130895886514702	14	-0.6942771122627778	-0.06859786127314679	0.23117296443462207
Si	5.521428863174523	15.233412631821253	10.69809888526863	14	0.3799520306692468	0.6214271570111702	0.11866576650398637
Si	8.853046401511596	2.9832398781138316	13.975082079397403	14	0.16458056531119078	0.271454728595914	-0.48285229357114917
Si	14.280410529093558	8.165636149322173	2.8202178068911223	14	0.05719578050988611	0.2957470458817371	-0.3643153394437022
Si	10.8852720712142	9.377206973491496	13.817648709412005	14	0.37041040171564527	-0.09053144653826603	0.3636100852543856
Si	12.256025088375498	2.5580122540846886	4.183523589001939	14	1.0781102264127882	0.17101012838528507	-0.6731763080108546
Si	8.47768643276552	4.9728928424344	7.643026265907092	14	-0.16972714683053117	-1.2078731405890655	-0.7793117927370993
Si	9.219740854011595	0.2886605944677338	8.588096441065627	14	-0.23197952017355253	-0.3616077084310543	0.5541066208610729
Si	13.879212846657605	2.9400711319318025	5.924170684276397	14	-0.1861477680681889	0.600535897842839	-0.06019703175009496
Si	10.32384257448738	15.158922269094449	13.498088966878615	14	-0.6838883041061875	-1.409412316435257	-0.3492694882207276
Si	4.2540103260254805	0.2394151795802646	0.4171483237347102	14	-0.4859041955861649	0.9742866795904207	-0.49146549639364523
Si	16.076491056242244	1.2433591210107968	8.473319287673252	14	0.02734756173775504	0.37668055625989033	-0.4285279234828044
Si	7.180911248742017	6.327063153052992	11.124074835247217	14	-0.7574049469673096	-0.48596770188757255	0.9456767051404729
Si	10.433777715117161	2.701602412742738	5.537703724468882	14	-0.517212287959076	-0.041544691094548704	1.3369624251714642
Si	8.006612791378547	15.00648810944527	5.148741253180072	14	0.03891547879416528	0.11357034998051692	0.6085636599839374
Si	14.465196276889698	0.9017966305940882	6.721702749214279	14	0.40044836806040324	0.2550832154698711	0.48073627389266727
Si	14.047471562051696	6.016876315846991	8.368239259603866	14	-0.212853581918035	0.16136411255568553	-0.32370575935409135
Si	2.792952215240818	2.1061543785986423	3.753846946144265	14	-0.19776556456781003	-0.3392964277944053	0.8316517837393538
Si	11.142876320042653	0.6949278986530913	12.980217935318437	14	-0.39237843979205445	1.2674603061572216	-0.40490666468554004
Si	15.96403420453556	1.289714393008182	13.886758330191604	14	-1.2829265331000403	-0.3000726734723542	0.6704928453882161
Si	15.661558235810809	13.192945551826414	6.122074242096594	14	0.2114034785174715	-0.45263563540664087	0.22070419490257512
Si	10.798428599160037	10.410299602506383	15.878183042164903	14	-1.3345383870756287	-1.0230790594719348	0.43061823210808475
Si	3.7668648702100818	8.524916116266194	7.345795128727348	14	0.9948712058940582	-0.19546391108521344	0.22654086108984328
Si	12.60124242237899	0.9596453376880735	2.4638541824327884	14	-0.7182449560571983	-0.008029047693758421	0.47089871071671674
Si	12.402580713760994	1.1903147647607244	14.863937747237761	14	-0.3355302727214524	0.2630744679154234	0.5789663810910527
Si	16.38066836120654	11.958712077459491	1.7455365948040829	14	0.13399495353324123	-0.2118241113478477	-0.2661968182162112
Si	7.0410463450839345	6.0678640038421365	4.66951462513603	14	-0.46443546616292847	0.29132423051001843	-0.998981631969379
Si	7.770343200745508	4.05990079714371	3.4949032429905493	14	-0.4566537588009683	0.49630200261137575	-0.4984715012805167
Si	5.517367925855878	7.857632065924943	10.468264570305863	14	0.17059309510235707	-0.2114623568293029	-0.11492223715785077
Si	3.436181761868	14.637063986578262	0.5312393752172008	14	-0.6491814676105727	-0.40174497647335394	0.7952184500212595
Si	11.497872653105393	9.451402590767753	5.484844402862764	14	-0.06784632718806752	0.9762893135242839	0.2838590262129685
Si	15.718034739085025	5.153624202810798	9.753254681622183	14	0.20648778225588035	-0.07940961625490148	0.32126475196314275
Si	1.037808556223634	13.171589606459575	14.315635885383351	14	0.12495828966451678	0.04820693920011641	-0.14380243477694607
Si	5.985332002739582	4.156809826334047	0.26854585494264	14	-0.5160506625754332	0.3306302602023141	-0.5721874048039504
Si	6.697608946106803	10.07795936974234	1.6123476756008852	14	-0.5355972336613269	-0.4468462775572634	0.14118504956103534
Si	9.657645807363702	13.433800071690182	5.544564743567721	14	0.6283570571805653	0.09057849776562474	0.22032135732040506
Si	12.002177206566794	5.657326165573301	13.081955877473566	14	-0.8758773663512208	0.7980777762477962	0.282167753133375
Si	6.404089964129223	5.722671231959526	6.8450226082483345	14	0.9381299968047742	1.0275568964975046	0.507591468961614
Si	12.236701249142707	13.694883954309812	10.099888431263022	14	-0.3448045067217585	0.24782652781428524	-0.9886486167982358
Si	6.083339777470568	13.600717695284285	14.232804226406074	14	-0.1425387365120933	0.02448797840068635	-0.38977468143434046
Si	3.1366123107805843	4.463289420762061	10.781223652221728	14	0.8358583691536481	-0.22470663455444964	0.42629748961757596
Si	6.9110816136147735	13.93293675491866	1.7147635322922719	14	0.4133733145047876	0.6663492520542654	-0.15709247817679148
Si	13.202044998874683	11.843353620539649	3.497446241238878	14	0.008259675840975703	-0.5141974098606704	0.3064361591397208
Si	2.09420245057897	15.037858850231801	15.116557523002522	14	-0.25247122957513274	0.0027834786195923104	-0.5803861454488385
Si	9.648033830726424	2.252742753478643	11.894631141561167	14	0.5966195902191894	-0.02550690743906103	0.4423501856839205
Si	5.446188537023552	2.191453711986886	7.757184453853318	14	-0.001346487856161549	0.35054578490164917	-0.556659471333448
Si	3.462240534645788	6.809184836411294	10.96255105339812	14	0.05564386133864472	0.5006314868599732	-0.19398861085251248
Si	11.136704677803147	11.885163262699713	8.796659959347267	14	0.11975205850174894	0.09353604021539107	-0.45630691669328033
Si	13.323715920860403	15.480641840790456	14.959271525742398	14	-0.20251311054146343	0.503666419579876	-0.23147815463612365
Si	2.4514470364394936	7.800724906797982	9.108462984107101	14	-0.8504517058402765	0.35029741612772286	0.5691601854000079
Si	14.892015526351795	12.11359262434821	9.5464841981647	14	-0.5206902221256403	-0.009477865541661863	-0.5219827167700789
Si	2.390107233231254	7.456784803080196	13.019107960043362	14	-0.03874038652186319	-1.0050324712298153	-0.4754207707537932
Si	10.21299863538508	4.0347246232428375	10.455028862101585	14	-0.74859094081931	-0.025701283001264223	0.6213286836774086
Si	4.806852905293037	2.839495796831608	11.28768639737102	14	-0.35991772090412094	-0.1705329312378656	-0.9831667631451481
Si	16.01921874025155	13.880819209363086	12.545863027170693	14	0.05508798836842871	-1.09120203759245	0.2610044710221721
Si	6.961394662023112	15.75625503664732	14.016140120658573	14	0.383533066159149	-0.04734613313893083	0.4506877660160968
Si	10.587870636663029	13.741083666208299	2.261745589518122	14	0.9237942848712245	1.2358010007975782	-0.8336461901361926
Si	1.0615535772146296	9.703514749367683	9.767990316674796	14	0.13033884176799068	-0.1753547821552713	-0.3805986636572641
Si	3.5093146580475625	14.9200785681933	7.917959909752971	14	0.6112913456180824	0.51616893342016	-0.41770305586391704
Si	11.284842103773244	15.794760254811807	3.455916607256834	14	-0.9194820270282723	-0.42667338521538156	0.08427106219423747
Si	12.966155302377905	7.820731572991209	4.774448917954866	14	-0.3983716862933196	0.026401909201004582	-0.08198406401196574
Si	14.452443623729373	8.08821634431188	15.32145309789958	14	-0.6411200239897804	-1.5509334094616358	0.21504982008250545
Si	1.5397223965861537	8.824664052098663	0.5301553669490786	14	-0.6616145616072127	0.8272446521100879	0.1577918188238718
Si	8.789558231463815	12.08223170841003	12.301815431592669	14	1.0168567274866445	0.6422104297560551	-0.7930160412040206
Si	1.1241591483854951	9.321776816566722	13.458303243478973	14	-0.4006196036747251	1.7911286395751895	-0.4953990304229398
Si	11.794741908370856	3.0950122653853542	9.096204848313805	14	0.15849990122904056	-0.712892429001714	-0.5158496021393976
Si	10.170291657075575	7.076584459046252	2.814561969190074	14	0.2177227411733314	-1.243909495645729	-1.3262745974661407
Si	4.785816267497621	0.6434276810689391	4.113210424299274	14	-0.9547519355889995	0.07113759910838907	0.7016037339830717
Si	14.697064335461238	4.142303437742969	16.239501665141873	14	-0.07390616531712452	0.5208779128140113	-0.3483793715588924
Si	11.604740803574764	6.025227436945817	4.330608118723694	14	0.46717240777622615	0.13548259507147892	-0.3374873980911491
Si	16.10083703045741	9.611062926379505	15.337051682132406	14	0.5837015857591694	0.5164101030991899	0.03724811699404925
Si	2.6605492839057447	11.54032418535776	9.762039733523201	14	0.5786395936048618	-1.0383910200955444	0.6268041095671958
Si	5.6938909761883565	0.904094007633628	2.065780801772632	14	0.3945811057198253	0.8992044906998603	-0.029316771302456458
Si	9.690596711260108	12.087885908636352	3.522139360095799	14	0.006455274127295782	-1.479072558426689	1.191280769516022
Si	14.042670486157235	2.7146645486261374	14.393334061096938	14	1.574879913081899	0.4917688868214228	0.0038715703910789773
Si	3.493267405740015	5.603479446707851	3.2424947014653465	14	-0.9271716888197712	-0.38019448590093674	0.17605000903383933
Si	15.72996210498382	2.8740923628269015	1.849100321277877	14	-0.7213066282724306	0.6676574304411568	0.39224371387327867
Si	7.427058086917826	16.039091133517303	7.29274258510365	14	-0.12740778170302186	-0.27004730554366496	-1.3743108152729995
Si	15.110426817631147	7.673398147111215	6.951047459234194	14	1.24166877735922	-0.6981350557956602	-1.1452474427535586
Si	11.272611805050277	1.6441556221390607	0.5547797118675385	14	-0.2808531469831833	-0.16822896376048088	-0.15882720293629543
Si	0.4655324269166927	14.100928561932536	2.7300027743776476	14	0.09627323893922071	-0.2874922551408697	-0.27865202371860454
Si	15.295269877042672	4.645404447281302	3.395511802116718	14	0.12679945818427482	0.2985122696535564	-1.1373577489681526
Si	0.760972166747003	0.39805373096345337	15.74216620411118	14	-0.24808723789374817	0.10794708553482106	-0.37499519672253334
Si	11.731615620237358	14.711533062133636	5.568069055774104	14	0.2772134902919817	-0.2836494811293764	-0.10844742263012187
Si	2.4862712114215975	11.357706454097864	13.813785906535117	14	-0.6054168841826081	-1.4114404043117899	0.8346895446751086
Si	15.039198304557065	5.980098633517651	11.887444264992	14	0.10964555770931086	-0.5040957941683406	-0.7211155951471436
H	9.012073034404672	6.267028417200785	8.419433269414395	1	-0.4678696915390503	0.7031042310479103	0.9239860893281076
H	7.763875175580731	9.003579453004749	3.937213003353605	1	0.21218586586639251	-0.2848725559301708	0.0004666556156068764
H	3.552106785042782	4.594942388672965	7.499398445330362	1	-0.2495854209637985	0.5535754305019304	0.03468909586890586
H	5.079661106945529	7.6320355355511476	2.2768054445663384	1	0.5075469888395755	0.42585988749208675	-0.5578694334971096
H	2.2346273705930915	5.916490927814926	4.139108724553987	1	0.3112698371415991	-0.17701083109197868	-0.2014597286917988
H	13.61062441737211	13.064374311348448	9.247933256356397	1	0.49158479568050006	-0.2823834688697355	-0.033774553706529195
H	12.017325485250174	16.347311363578267	11.844902671629745	1	-0.07157854367079446	-0.12216632639736799	-0.1977689070047262
H	8.85962577495769	2.0727695439000415	15.420911675237146	1	-0.015715624158873117	-0.012056941288302403	-0.15744240561086367
H	13.490618807181978	7.580910299679079	6.181224741597162	1	0.17494314819351559	-0.4067748298111596	0.4831592835463748
H	15.260774834480346	8.478740966488589	5.426673113247903	1	0.1771188175154249	0.1479627402954777	0.5425387038046626
H	8.018173362938883	10.53747080209425	0.8302422600496767	1	-0.08995243362016869	-0.34676934540741566	0.23821959278555194
