72
config_type=amorph dft_energy=-6967.117923792538 dft_virial="-7.875952475171646 -1.533182061199974 2.8450023153686144 -1.5331820611999738 4.99573350868441 -2.0236997017807696 2.8450023153686144 -2.0236997017807696 -0.9395299423432161" pbc="T T T" Lattice="11.105996452100001 0.0 0.0 0.0 11.105996452100001 0.0 0.0 0.0 11.105996452100001" Properties=species:S:1:pos:R:3:Z:I:1:dft_force:R:3
Si	10.796105833097055	8.071682737435951	6.447930526156671	14	-0.4792573741125182	0.13997637295003373	-0.14926603358226076
Si	10.902201417203967	4.609443873476036	1.5057843169650746	14	-0.9117643401887837	-0.6744924568242384	0.5964108164671934
Si	10.13907508299082	5.892064297732613	7.107104733578162	14	0.05684585307581396	-0.2660973164403215	-0.012728256887393066
Si	4.67313676312883	3.9335440353976825	0.13016449961790244	14	-0.11235267450089478	0.4361705340469446	0.3509209091678588
Si	1.1486265770619906	2.8537968483316165	0.6865793642666934	14	0.45943775164162465	0.16032050090623742	0.13243506393550739
Si	3.893140420304943	7.789645957534872	0.6952431520989765	14	0.15434473792114928	0.6618181931485685	-0.44593893448978317
Si	1.5862139432711828	0.16260511525448654	3.413072617666468	14	0.20385368485538868	0.8435567727032355	-0.36784238172188133
Si	4.85458653316324	2.7938688914760847	4.456525408327072	14	0.12782044410690563	-0.5248626118391767	-0.4245005441093245
Si	10.243149375743448	2.3258510949881384	8.431206054583333	14	0.26211441718888007	0.19355049450595924	-0.0017326678752477905
Si	2.3837355484964835	10.701938089179698	7.223351198442293	14	-0.2112170733817607	-0.08799453691887592	-1.3368287276948165
Si	4.249343044513146	5.740000994310461	1.62745050809783	14	-0.4411042280457768	-0.015622550146283758	0.3920825055697054
Si	1.9590311381717276	8.437780804482976	6.630157715942728	14	0.27773182512452355	-0.7516042762545235	0.4404280273465779
Si	9.706018963334085	9.772310656156668	10.013088659238196	14	0.17805624251515087	-0.738053008554151	-0.5433113209533672
Si	4.659065465624019	10.675916739492429	6.56422141500661	14	0.45247416999253565	0.28759484224314363	0.5240450003473696
Si	5.637026195206589	9.421783196135488	8.398365623074474	14	-0.10555030115537903	-0.3608407477140541	0.2067155821872455
Si	9.393995993012334	9.644902664858177	7.619946331746784	14	0.7868680141624825	-0.2958784293635967	0.15964404309650648
Si	0.5168797384786054	5.476611182452457	8.989360118276522	14	0.05439893214262902	0.6404921600706002	0.5200261056214461
Si	1.2159067035688123	3.227102707076054	9.48314382653334	14	-1.1677273878992094	-0.34360328631618536	-0.29977493947628114
Si	7.780283602525751	5.935488743860325	10.279254970209225	14	0.20905888757602845	0.01800287945167685	-0.5916619849408798
Si	9.851651894810471	0.697831959871961	6.709076926731351	14	-0.1066371073742056	-0.712667714396733	0.2966425618647447
Si	10.651194791390054	8.080645276572797	4.0337756533778855	14	-0.3668975005167269	0.09105055270240392	0.5898969211385982
Si	10.571542584835592	4.518752306448188	5.11927574660614	14	-0.3063078609842454	0.40231756162815085	0.8853526607875626
Si	8.50501650700399	8.92012533639413	3.690022851192486	14	-0.16401055126171393	-0.34634948390863546	-0.17424303621483928
Si	5.930491045456879	1.65008452886721	6.175156147296642	14	-0.6686051398621633	-0.9103625735682389	1.0010066345195274
Si	5.589903452260328	10.679381810385484	2.96218026770766	14	-0.8155798043831082	-0.22346556201641418	1.0443750106176573
Si	2.6720805343823564	5.8459633064599466	3.5457559572797073	14	0.27211447422106405	-0.5437070140621381	0.6322975331942242
Si	7.498890970418894	8.30966202941155	7.513217705842103	14	-0.3799630864221234	0.6033962525115038	-0.12860257434529465
Si	3.8242055003267583	1.16724022711571	2.9701099491744594	14	0.5181684820276391	-0.38322941862083953	1.019265338950559
Si	2.409979018112796	10.876879745293177	9.510986559638756	14	0.48382905648227337	-0.47840839513580524	0.20886631178754933
Si	7.818266110391934	6.047970275927194	7.937811056202339	14	0.8392645694817801	0.16513746672353485	0.25991406525589733
Si	6.9510210594403485	8.2094415174278	5.244662446550349	14	0.5782279596431062	-0.49421580775460766	0.2876439503547584
Si	3.710591156621775	4.9410133975534825	7.222162856821918	14	0.4107939816476151	0.2882129359621072	-0.6789456112387349
Si	5.644389470854332	2.9668781042068986	8.156121628461268	14	0.7894154653136852	0.18830312565806903	-1.3397608162019135
Si	8.36132712490672	2.434467740289677	9.871165130576811	14	0.2024673448667648	-0.010605809445610825	0.33750950959690235
Si	0.8510225219340024	0.6480526625743585	5.6027197721660515	14	0.2562111593738201	0.22788914871972896	0.609721171599068
Si	8.745294740245173	3.3658610267485907	2.0000900070551415	14	1.3382610904686711	-0.7076193491006223	0.3835628909808627
Si	4.135528792872026	7.809981037038667	9.451436206662596	14	-0.21211284647530032	0.873259209803714	0.06163505095565378
Si	7.605552960344862	7.783970793347848	1.8269364163704502	14	-0.30545014024944395	0.962836262047141	-0.03810712328151072
Si	1.5389023983852366	8.19823556700763	0.7415107333184251	14	-0.042984510073831625	-0.20389482254051103	-0.6423029895475805
Si	3.4293540084652467	2.2075278087874652	1.0236630155826065	14	-0.021389796489907915	0.27021057073149435	-0.8532236144859282
Si	4.952663587831735	9.179117173657103	4.80926296164222	14	-0.3294172127122683	0.9704752730638331	-0.9811489596898958
Si	8.966215221670346	0.9254582419549123	1.7896313742878465	14	0.5145409095314423	1.050392939729996	-1.0001026338889634
Si	8.115418151464322	1.4553075630902799	5.316873635481903	14	0.16135974167664127	0.23848955884416745	0.5136405084483263
Si	6.491632622195684	5.776373132691089	2.2868579414448154	14	-0.4412063009269866	-0.510371348033758	0.6970695897509906
Si	5.710536785723039	9.245020156603864	1.2176947689976005	14	-0.09489461226655731	-0.746663383160795	-0.5291476159657355
Si	1.071226666588015	2.98523631634222	5.816199235968319	14	0.7225482150315301	-0.17822207880830043	0.15524282500947698
Si	1.3989779490852288	9.032684610436165	3.06588806257737	14	0.4358902835670485	-0.5116018790399809	-0.069608562774497
Si	10.991227084764	6.406527371383241	0.12511460303113256	14	1.0197713324775641	0.1616397350460054	-1.0027300464156228
Si	3.0886997792899833	3.993949550100655	5.181247206808858	14	-0.9178051521384716	0.9758614815990113	-0.24265500657333935
Si	2.940634634590586	8.008256391698009	4.519374242249506	14	0.1070762521628869	-0.28364459602926806	-0.11138311068466694
Si	0.271007414824499	0.8983796014054021	1.5424896352392652	14	-0.3970272553214142	-0.7621298672141457	0.11247891577211407
Si	8.57536188853159	3.563536657599519	4.383159195764499	14	-0.8503010390685157	0.16431676990534358	-0.4284536185390522
Si	8.163507116101915	0.22998519572937723	10.727881696891805	14	0.10733567668968984	0.9853249489508802	0.39717046588774646
Si	4.213959339816756	1.100043395582279	10.174692013612702	14	-0.7401924252910462	0.13779941807546436	0.28016023409940344
Si	9.091735193571981	7.657506811747786	0.01559837201697445	14	-0.5503474077724845	0.5543768440302206	-0.2389731837548873
Si	5.979090885931269	10.63154828366629	10.447255378540142	14	-0.14435059443120163	-0.2562934347440648	-0.4894878021813874
Si	7.1359136883749095	4.1311308182769935	0.525503544723661	14	-0.41118170432989337	0.24432031148919925	-0.5472024317448793
Si	0.2372785035994713	5.894007847111731	3.411040220315734	14	0.5307941518127584	-0.39310734815031645	0.21934279463555673
Si	6.375808185196734	4.631233838515057	4.47100762770061	14	0.9390692215782244	-0.2807652151812343	-0.2932515310580014
Si	6.0520461766251135	5.053139537733884	6.856919951501706	14	-0.44963104172951585	-0.7862213811744653	-0.7580976027405575
Si	0.711994326547679	10.280798703716068	11.008185941346357	14	-0.2821464129592178	0.1903129586868288	0.06990681099163418
Si	7.824041228547026	0.024098901701411796	3.532850789402367	14	0.011795716987775356	-0.20766714826623225	-0.0988551429017134
Si	2.4973054682156586	6.650381735482001	8.242926096730882	14	-0.5844173814802986	0.9980748031229628	-0.052500427974231684
Si	3.543201578095724	3.477320807141867	9.09855427539357	14	0.39923480634929337	-0.5378646914431655	0.8681673928276928
H	3.4354178825280934	9.525424355026486	9.67579954698792	1	-0.5803766323591538	0.03382237626548395	-0.121176707959643
H	1.304843523157229	3.038411827354875	7.368006802230895	1	-0.08801227754558494	0.14998851417722237	-0.5824625701053902
H	7.06896674176165	3.0653105507618608	9.080173851265345	1	-0.21592219611763175	-0.32394512925939717	-0.22900577976026926
H	10.254932837979126	3.4236122082995113	7.379079480693639	1	-0.4222703673546281	0.10668518704369238	0.2749678869053644
H	1.6439762308185546	7.850440182113667	10.013388521142403	1	0.18805835643159094	0.10501782524357635	0.44215940966916556
H	4.882873506126739	5.741844589721509	9.039081664392574	1	0.12422089665869834	0.25147389782144725	0.26880366190030935
H	6.791183558501726	6.778844796443442	4.789027836106493	1	0.03453251555490885	-0.16986752918101128	0.18746417399210474
H	5.608483784324692	5.4324981645447155	9.15667195482741	1	0.11042640239503984	0.24947100677705195	0.37804144230584474
