72
config_type=amorph dft_energy=-6969.389031121216 dft_virial="-4.461195054205338 -2.798466026390436 -0.6678586337138525 -2.7984660263904364 7.776591209515535 -4.332905825130361 -0.6678586337138525 -4.332905825130361 4.97938292066505" pbc="T T T" Lattice="11.105996452100001 0.0 0.0 0.0 11.105996452100001 0.0 0.0 0.0 11.105996452100001" Properties=species:S:1:pos:R:3:Z:I:1:dft_force:R:3
Si	10.714732197092518	8.055134802722323	6.470975468794777	14	0.09438244808678382	0.42371224321816714	-0.5824013777987705
Si	10.774737895923215	4.620138948059409	1.5286515636599483	14	0.4817323200936926	0.22105129412079513	0.7669344917259064
Si	10.280465523822505	5.955812717367668	7.252804301033262	14	-0.4041854696432385	-0.9902560718443923	0.049858617257779535
Si	4.916924491248877	4.106575460121401	0.5898028217827391	14	0.012041514656381513	-0.2525522193927173	-0.536640845310775
Si	1.0813964275392032	2.8976988523067675	0.8092284360854597	14	0.037617327718022515	-0.4044978589396364	-0.4353542081077976
Si	3.694398613794613	7.862634566218073	0.6285127724165337	14	-0.04358332050289412	0.29061023456261326	-0.7670553336759535
Si	1.600573996683748	0.21081846705234306	3.2921838462853596	14	-0.02613477135824119	-0.08575227596917477	0.3150663312573298
Si	4.863515754310728	2.6277009725597646	4.712940654413156	14	-0.35762120963216465	0.44421706525688	0.5080169868920985
Si	10.012144649539767	2.5409964582582196	8.465257039705472	14	0.23183759515988037	0.2763768526208055	-0.8260251768567417
Si	2.1828058606850904	10.550685523498549	7.084437394819426	14	0.9107492678083893	-0.1596761819130083	-1.0523459513311804
Si	4.361880106562276	6.018572703318484	1.8678398013035344	14	0.13546973954487818	0.4159081672399217	0.9063729894429653
Si	1.9010689426882177	8.258063569895095	6.516554478234196	14	0.7479543351420413	0.07533929942257504	0.035845064820844444
Si	9.498647797580473	9.676843510654416	9.884025874468342	14	-0.13812286312473898	0.16276947872367845	-0.050974476966723796
Si	4.571583531570828	10.442990675902536	6.563210769329468	14	0.0449269801432035	0.43901520497315644	0.6532805808224847
Si	5.616835493656671	9.1854475916348	8.306163640529139	14	-0.30754764796962075	0.4459777581801175	0.7886862998448911
Si	9.392963135342288	9.727931094334076	7.509008533186757	14	-0.05283698566063907	-1.2616452372546425	0.12519894512248264
Si	0.7067167570336411	5.663025332900955	9.150519232792947	14	-0.14065925852306504	-0.700217136883916	-0.561294917115143
Si	0.8797193061665836	3.224925931771442	9.59599185648313	14	0.39798113539518915	0.6202485623324143	-0.2636344546541517
Si	7.3346332828923355	6.078967112025005	10.184398654511838	14	0.44808040811093447	-0.0913038065764385	-1.3391591775569989
Si	9.93573539394932	0.7088513295517346	6.712442043656337	14	0.12093142451210089	0.7162130115226851	-0.028671166756567276
Si	10.66926424761762	7.97774821944409	4.076022863881673	14	-0.18786526642204782	0.30437387556242995	0.44475956847943127
Si	10.452175334968421	4.48655602273355	5.182169004514382	14	-0.3327820182447461	0.5915866515549997	0.46303267110025564
Si	8.513845774183409	8.826046440448392	3.6343484909781085	14	0.737494564478615	1.0651806519788274	-0.7865296567023511
Si	5.962931661093464	1.3241679569838831	6.337192635532781	14	-0.08777136497708707	-0.22402529164461044	0.13338200202491796
Si	5.5027213801113435	10.657525209367751	3.045186485190656	14	0.8907787214552032	0.8253204368884891	-0.8804914719587587
Si	2.8089730466509404	5.859457092149248	3.678916854740386	14	-0.10868036477212728	0.27833500643263026	0.23666767361431051
Si	7.457054681783833	8.327398305745554	7.190499660936981	14	0.29379557694374475	-0.3005321299930647	0.35535580873458217
Si	3.9282797930793873	1.1575224802201225	3.208233619103936	14	-1.4509446662242689	0.43885631066437125	-0.4580881784590789
Si	2.3091809943135364	10.72182892882541	9.361233303478638	14	0.5553798322156103	-0.1061246860839001	0.2067199530662897
Si	7.950049864292552	6.102600672475073	7.892276470748729	14	0.3034469920945166	0.5859564451249394	0.23741457970981356
Si	6.931285703744966	7.896230205485675	4.912248866742543	14	-0.16901109399886993	0.20979833746610302	1.1703843681370505
Si	3.9846094070844384	4.87790912571265	7.434653886939947	14	0.3569933457129845	-0.34364905199088397	-0.47220791754573604
Si	6.401618520951414	2.781618977389418	8.114474141765893	14	-0.2433309501620063	0.6660731153428816	-0.15128563681123708
Si	8.073170940960534	2.433090596729616	9.708084678674174	14	-0.25732676197223237	0.594683547913118	-0.7716398715723094
Si	0.9245819788348415	0.7275582699756519	5.530319781294812	14	-0.1745055460680264	0.5368717305685243	0.3234933860546471
Si	8.828722985593348	3.361618536103889	1.9085099603111246	14	-0.40325961461745313	0.46454576658116287	-0.2269373255302101
Si	4.482891043904357	7.427490519228343	9.47335944365904	14	-1.3763129349857988	0.8177549594839534	-0.1810806337032411
Si	7.746921189183644	7.610539552751855	1.8546791955077961	14	0.6256563681522818	-0.09132668941378781	-0.233446078648165
Si	1.3234238552215924	8.209219397498758	0.9128062907966799	14	0.4062863198003314	0.4809033957384769	-0.23426960368220842
Si	3.281566513677152	2.820911992836948	1.6870786030491547	14	0.09911662431277247	0.007794562888560917	0.07116433860371861
Si	5.106814818586883	9.22394097533778	4.650014078515558	14	-1.2917148281948385	-0.5542470032115531	1.084964536085771
Si	8.95497595326082	1.054906404801654	1.5511967364577113	14	0.3470202852866622	-0.19763649508073858	-0.09190698788454525
Si	8.166372463186555	1.2518234960949037	5.28894205440487	14	-0.7248323849979497	0.05001159802432834	-0.41795065330624726
Si	6.333627610671658	6.357483291050768	3.3019015931809474	14	-0.5006168315596482	-1.2233198271314514	-0.8091456133194377
Si	5.02075445207956	9.774931671319363	1.0549730407803668	14	0.24207187988672973	-1.1230649744934493	-0.8036840713983789
Si	1.0698761774194399	3.113688271307209	5.8326472167138785	14	0.6924652543436696	-0.720635826894404	-0.8086007961020981
Si	1.4525310639772548	8.986139379305413	3.159078478806941	14	-1.4178884793441893	0.9786827554668098	-1.2734273273842214
Si	11.001944371340278	6.464200810958997	0.12683270068227243	14	0.08679640183968691	0.02223234770332044	-0.4123667267719497
Si	3.1305471739214963	4.136284000630768	5.304290541501673	14	0.2644672356673476	-0.3652738475070534	0.39919341155363897
Si	3.0370568957877184	8.156277112411598	4.38078251252375	14	0.991796421041693	-1.7009556051185521	1.5489104637957434
Si	0.231068030383457	0.7548479244577521	1.3960348600254224	14	-0.0035550673261687486	0.19051556178605647	-0.03337268994499005
Si	8.493632860640586	3.365705542798262	4.2293855688887225	14	1.1592193432843076	0.006730382396551626	0.5863652508708428
Si	8.060321303065454	0.3674396714184381	10.586469044067215	14	-0.06415421994833487	-1.0450450406640879	0.46468923425802705
Si	3.951535749650085	1.265272857798397	9.94827406394374	14	0.41808152256704284	-1.3564645161353195	0.7114361549483822
Si	8.941548803550232	7.545802699432564	10.911663726181155	14	-0.023214509935617005	0.5612771764884339	0.50161750575025
Si	5.843231231332729	10.75980033069514	10.238740295151965	14	-0.3169218979668807	0.06602932705831886	-0.9696275796397802
Si	7.299749348036289	4.047469347003324	0.17702180924895755	14	-0.004454697077688562	-0.6670017985845189	0.948422645622391
Si	0.37985062245365986	5.8018280765593016	3.521133963145401	14	-0.329619558700964	-0.5431974209876846	-0.16203311415998806
Si	6.4880675973345605	4.330183592687982	4.509145619517121	14	-0.46968746300039493	0.4222554549437712	-0.017609500337694192
Si	6.361603615734498	4.864326492051732	6.818148917887425	14	-0.6284125930554805	-0.7533202319451904	0.12391056424655644
Si	0.5420392628411926	10.160554080129181	10.792563020228835	14	-0.0171564715802841	0.031497068613942025	0.6607434711247465
Si	7.805571956447183	11.100987647700105	3.257166639471888	14	0.6881450260742247	-0.27288374893285233	0.86586239690818
Si	2.62053760484816	6.609578304516987	8.086298228766916	14	0.3511782768104056	0.7033176327894824	0.7406917339442189
Si	4.475616616228232	3.4880269877216907	9.385100089854202	14	0.21478782445038241	0.0298435907825548	-0.6482813236379888
H	1.2344537176438193	3.1775588569032354	7.282757173464576	1	-0.13756853281771506	0.07451705994119169	0.8041604972142024
H	2.8471776744461645	3.8371661981863587	2.790226124639796	1	0.15427634651963335	-0.3086185133354624	-0.024769000212178535
H	3.1847555426041967	9.42470407320239	9.576145440823225	1	-0.2923585861803139	0.5409775286542687	-0.11803558859001807
H	3.751650025505189	1.0452697316801671	0.37792040027028495	1	-0.19380117727467366	0.4074510305103585	-0.1571634406836276
H	9.727553490454705	3.860666486679002	7.642669200487781	1	0.1814375031216776	-0.863899615106779	0.2824608591398719
H	5.507285944653157	6.2577181249215545	9.54337164529308	1	0.5227093111335527	-0.2556578575089242	0.31205685248009646
H	2.2818269250520142	2.820734296893715	9.026132072529425	1	-0.7957897496233963	0.027671006787029676	0.11443012759957444
H	6.6008712032985395	8.532492742226484	1.3865503390553289	1	-0.7728778587839608	0.45029772933903023	-0.3540424881370505
