226
config_type=amorph dft_energy=-23257.5636929992 dft_virial="26.071982464894493 -2.453976330623501 -0.35576592602119944 -2.453976330623501 60.08805634605781 4.653256600572734 -0.35576592602119944 4.653256600572734 38.80678549860788" pbc="T T T" Lattice="16.3957026618 0.0 0.0 0.07573175059485421 16.453218786737597 0.0 0.026692203933410406 0.41135178408190026 16.322364683793772" Properties=species:S:1:pos:R:3:Z:I:1:dft_force:R:3
Si	15.386876716589713	15.270324585077775	9.774047287581345	14	-0.05959205066826412	-0.009228725436139514	-0.6535310064806672
Si	14.067312856251927	9.753937958266647	8.708033131486697	14	-0.27651852052394565	0.6582572122801633	-0.0676480949678841
Si	2.614693204998692	13.569863958352384	5.914884180006177	14	0.12192464249727408	1.1550886054769578	0.6337365808419112
Si	3.070429795756351	15.252141750825839	13.469136959049614	14	0.14431048518820735	-0.27255413323080935	0.706608647599272
Si	8.235804103421534	7.68025375399937	4.47809104563652	14	0.36618761833783403	0.25833952035783875	-0.15827852906097584
Si	8.586390134298272	8.84082520648515	9.820827506415993	14	0.055207801876347606	-0.3023735556233548	0.2920410546732757
Si	14.26412851057444	10.79390918025329	15.078426001983535	14	-0.20778824732681128	-0.05240683974057829	1.0022443646206467
Si	8.930878603355087	0.1980945191301338	0.08540193602478385	14	0.24196132235796344	0.6200793836023485	0.4961233107916256
Si	6.012286130809133	10.728751018305033	7.319717171177187	14	-0.3060669484157475	-0.22670541183033277	0.8321693472402996
Si	12.544014355068347	7.330457995990932	13.920353254583414	14	-0.379695434358296	0.2609749033109905	0.6100752128016524
Si	7.497430192328437	15.943710849530298	1.8727302745929255	14	0.08197583647494128	0.44761786626383987	0.3963410273114667
Si	7.700835279550728	4.013607347508792	9.817300790773439	14	0.7128209522738138	-0.7060604879450165	1.281567189717278
Si	0.450262065638884	14.2378740719021	5.068470786223148	14	-0.4866338752760229	-0.9422555924014838	0.4667815997675636
Si	5.095379413431694	8.183910064926671	15.500521890019714	14	-0.5389612678622087	0.9580321517564444	-0.7124741101661258
Si	4.758367384788661	2.139770362986195	13.685066723535256	14	0.9707768637178865	-0.3813838792220372	-0.28695489412895875
Si	12.751920062671303	8.435218476615944	10.049911543147195	14	-0.10105215239777995	-0.48626260766779356	0.6007816955114451
Si	8.279415032931658	6.080797213951731	14.753202483554338	14	-0.6293603024764871	-0.5841736406959487	0.41917912742821395
Si	6.512387853399357	3.214607046683155	14.718386208952005	14	-1.016106993175289	0.3338161168045096	0.94145880686277
Si	11.799319900599126	13.187029219910151	14.2531499480721	14	0.23331006717672917	0.2929167731453181	0.27617810617955807
Si	2.034295168192569	1.085913620415273	0.1196000926367663	14	0.28124215521812174	0.3309020260346538	-0.18882685981178318
Si	3.750003798393436	4.691054827510642	16.01694553460976	14	-0.5533831118239833	0.17653517660775128	0.22013855173214256
Si	1.3591250512904436	1.6389521481896503	7.7741322683003045	14	0.33756375991915744	-0.230824579663742	0.1771468425634145
Si	15.999872689428027	13.381041209077498	8.509797609313674	14	-1.5495213584198104	0.18757755973672327	-0.772689396763994
Si	15.755165187630396	14.981104390123624	1.5125822699238267	14	-0.5208719992717749	0.7748912913601687	-0.5013812211713283
Si	5.4108770010419125	9.960996008041988	11.957735179717437	14	0.016565117356650044	-1.6347923234730533	-1.7112068591405143
Si	2.6681235208329657	11.362417053489077	6.438472746659429	14	-0.23778996108655515	-0.5724072343088229	0.6803489205224716
Si	0.3392729960400951	11.014528115700205	6.44235688862001	14	0.3346440127175973	0.6267904827089992	0.30315080076163553
Si	4.081492114809708	14.316871846467185	4.3035883030664515	14	0.8524450837949873	-0.2888297441284107	0.03385117264506961
Si	5.5393209356944535	2.881641477457055	2.7749169301206003	14	0.7960417179447709	0.7670501914653131	-0.21683930938532855
Si	16.134869986434488	9.337080497230914	8.001698062965025	14	0.24568608263526195	0.3257793557947907	-0.6440117461433508
Si	2.930836783293786	2.9435860816836015	14.681727057370487	14	-1.2734298984895414	0.11361354454989542	0.8006895050320025
Si	0.6035290941213904	14.362506005685773	11.144587027064935	14	0.07544574318282919	-0.06911516766356059	0.6705735780952687
Si	0.24737836176123842	1.6473073982661035	12.385005551513679	14	0.3641348478502278	-0.7850960083758365	-0.48996885598678697
Si	8.085148910373054	1.5734644326178888	5.077660577565086	14	-0.2951173821888329	-0.20726219917830893	-0.6357878086663252
Si	16.075087975389035	6.1961819714341475	3.160973424135875	14	-0.7711166516396593	-0.20008393023498755	-0.01961830492432589
Si	10.714873695572084	0.8462576346077423	8.027308150522755	14	-0.6355661793877285	0.5723946358927542	0.40472797286578965
Si	2.800140079095513	13.343437665022659	2.646818944794223	14	-0.7706368833869197	0.059277861598142016	0.45905311428573053
Si	3.5080737286267136	11.268476235518028	11.978954498102338	14	-0.9061408186325559	-0.09356740770029688	0.8256436248272316
Si	9.066382527573799	11.860006954431512	7.747918818884618	14	0.2133140668808735	0.21181999757933545	2.013796644721294
Si	13.850822358735254	7.51888069012087	12.01401506867433	14	0.85645112299431	0.3213575688652001	-0.6482445568319107
Si	15.557482200637073	11.733628878314358	0.14861392806708756	14	-0.9072443370359634	0.2758664882147561	-0.9359615265777612
Si	4.023366069733095	3.5823282264117395	4.607869590485732	14	-0.08101527152733397	-1.7933045660076306	0.12962047494154133
Si	16.236423329151414	5.3290083389407465	6.436775791433933	14	0.865096464633308	-0.4474671994920792	0.16559743746530933
Si	8.52019904308232	11.078699256348225	16.31632942564396	14	-0.3827956731533305	0.06584729280165237	0.44612353985176983
Si	13.248590164694413	12.274691984864557	5.66585313141663	14	-1.2220283609291407	0.3213449704491314	-0.28617096411684556
Si	4.230110961587594	13.365591538459283	12.57772391974101	14	0.7267614853196567	1.032007222696149	-0.2671692102482912
Si	9.578584278728432	6.611478561576477	8.334919405152649	14	-0.6703095255788895	0.6584631578163073	-0.5849891953034995
Si	11.246324001651669	9.812442744074747	3.7638073404644055	14	-0.3946505255634693	0.13052370424050933	-0.6477023107198915
Si	10.259112511260433	4.199147677110786	6.5066018099300065	14	-0.36372552788326024	0.20802478901626487	-0.03716661295540056
Si	14.781583444861914	0.1559165740326533	2.898706124787456	14	-0.9130501499593897	0.6333252039906874	0.21101781271944928
Si	1.6654197309965941	13.288354662360074	9.396150934780847	14	1.0405391785905282	-0.5977071677696121	0.21771528496790296
Si	7.8899974198707135	0.5479886513545429	10.898690836824324	14	0.577165321814289	0.9734225310923189	0.15747737264321768
Si	8.803088857238752	15.017392998824986	15.34635637703134	14	-0.13570113902369152	-0.3729447402297152	0.23987435616959923
Si	5.539156978667836	13.95616474833732	8.573162081390732	14	0.7638437660205564	0.6701213206694547	0.27260118445816806
Si	1.3872715540499556	2.3550918469030817	1.9988214259134984	14	-0.1443374817940689	-0.03375784152194823	-0.3611014577935171
Si	13.206587653615411	3.718506014009852	12.95248541419257	14	1.163967917700089	-0.021217018212393964	-0.6906729368249943
Si	14.124728967403286	13.59641188010237	0.6146847302124792	14	0.3483168936996128	0.22725974213735667	-0.09000488416869969
Si	9.890210840940199	4.254834041631323	14.932030412486592	14	-0.1417368087627391	0.8858483698932871	0.23602052640522925
Si	15.55343246207961	5.56240116633147	15.6970916088023	14	-0.12935950775154628	0.14919070019638042	0.9618913808419868
Si	7.125724856853035	15.209831000536798	11.945020312303212	14	-0.35903943132675836	-0.49250705115883725	0.030551673187723578
Si	6.114426439681348	0.6953466685977365	6.0494125599165125	14	0.13160536824869562	-0.014210241993926417	0.9336483031212242
Si	8.722003909724819	15.943059940134624	3.9980330695503477	14	-0.6140550267267095	0.4252978438691024	-0.9507500101581889
Si	15.871777983242183	16.336810937409084	5.083471214588429	14	-0.9405193249787878	-0.41251867909637036	-0.1481314048044794
Si	3.813760127764111	10.254146252924174	8.32011572521931	14	-0.30993903302789044	1.1693186449818491	-0.8151082636673929
Si	10.445844808445939	5.642117072673141	11.667621418968217	14	0.03525473903933844	-0.8272942744427668	-0.8585316614193738
Si	10.125621979328589	14.353968763309775	9.78343218778496	14	-0.17415767551821038	-0.6944704593828529	-0.5446413537354798
Si	15.660279977186027	9.205562368329286	12.006000849213244	14	-0.6116988658113259	-0.43208633324588935	0.07210124938238056
Si	5.208786849173098	12.647669626866513	0.2888857226198513	14	-0.2989431869052132	0.9781088847593529	-0.2808765440415967
Si	4.724349580905958	10.565059602070152	1.0556012453341372	14	-0.8606826481302096	-0.3696370132353447	-0.26485675812335
Si	2.3307311118881793	3.7267661690108667	8.526119531313496	14	0.5553554067150689	-0.36748679785610483	0.4432721840517256
Si	11.742553059273176	6.543620027399819	9.165745404415105	14	0.8412211806304128	-0.4596804639838466	0.29914039068326853
Si	1.4461108121923574	9.714247241262962	2.399861952591393	14	0.05914442123202634	0.40824575916481626	0.059630103027002314
Si	5.901777455298335	10.77724786720837	5.001794382208406	14	-0.674676805075693	0.41170003916243525	-0.5071903765316709
Si	8.79468933876511	12.922127131143982	0.7080631755822286	14	0.035804698467318125	0.016841254068033946	0.002525082534917428
Si	4.4129886290773115	3.7896076181730143	7.08554062919923	14	-0.8350651831623824	-0.370649000289355	-0.2743400229861842
Si	6.366905504540672	5.195199730377265	13.572065901219862	14	-0.34157545555018454	0.8127207352671034	0.6591882095165889
Si	10.602025353291447	3.6420528524978786	0.8532520413632663	14	0.5154662503361636	-0.8537483770817703	-0.647070847253263
Si	6.975286087079689	12.086039750897353	8.905402960559181	14	0.2187707237018238	0.3546659811771865	-0.5789833503861657
Si	11.02416223058428	8.250661889173658	1.9002012744027714	14	-0.5290254884630285	-0.21083886378916697	0.7932088741030316
Si	3.274310358355834	9.712112520776396	15.71705501636331	14	0.7856518813460525	-0.14464087222184638	1.2487467731950557
Si	12.620918398403521	4.571643285454486	1.5282827947927664	14	-0.6364771220026569	0.5755828064897379	-0.5232477005875917
Si	0.29668515837606957	5.393761527033259	13.665593547483835	14	0.5239470412346718	0.3006815112121653	-0.14826407383899903
Si	3.2156662090751076	0.34980887457056775	8.315659373235832	14	0.4384901852667822	-0.03830612683329018	0.34213132852040057
Si	12.900471687068276	7.000055075090871	1.4381047905826003	14	0.45076284229144503	-0.7444164942215176	1.0190344536928098
Si	3.301578051452674	11.089749959942278	2.8110055112494883	14	-0.0016817599899088583	-0.5643020818975881	-0.36022676776360274
Si	0.5914339842677806	6.185390319942151	0.9928729265203564	14	-0.20207242308959006	-0.4118131677965217	-0.07243883551091601
Si	2.1991113296300475	8.244846333439519	5.546144827142296	14	-0.7522460241424325	-0.7133233462533708	0.33750745271264626
Si	7.308148363379021	10.731197257142172	10.76399849988737	14	0.1530782114404443	-0.41427808646694775	0.26626366695453507
Si	12.439350747556482	12.080347162933176	12.26888790612228	14	0.5034309063325504	0.2139059353255716	0.04299042361606797
Si	1.3456641794051056	6.065621351567968	4.815768739807623	14	0.17344085135495307	1.3254698415009345	-0.22705842459078907
Si	13.177924686222054	2.1380553724877704	11.176596357371567	14	0.5742527737076252	0.8526443444572988	-0.25074884612116555
Si	12.607160764300005	10.55323666088073	7.171216373458465	14	-1.0638225941487254	0.26657245670348484	-0.44182645153020633
Si	9.009638640231575	13.887171631536466	11.764119966554508	14	-0.3314789820684951	-0.8705418085908496	-0.28563488865759473
Si	10.787821455854964	10.480543033989107	12.449447221255618	14	0.08517634837746162	-0.030019711496984947	0.24077064348420282
Si	12.37793244538538	15.712085478886516	7.719159116845556	14	0.07159911251335564	-0.9429382208639832	-1.2552341861388532
Si	3.6891117982777772	0.31051001486049934	10.618257098926629	14	-0.3607294188536917	0.1804609973210854	-0.09463364507656229
Si	12.478316774502515	12.272012927049618	1.634587612141079	14	0.41110148584390477	0.08776750831910685	-0.4257048498412818
Si	7.647649259686115	9.861321612850107	3.735587057042915	14	-0.14705899677544568	0.22558209591596007	0.023610203044387792
Si	6.1679830024261175	13.030023971220754	3.900409776761458	14	-0.5035162670291793	0.507417919352504	1.246215262896838
Si	6.422068846146298	9.374446303597157	13.878062179137567	14	0.6444038397046735	-1.066922575833228	1.1685959072763556
Si	12.244599312199089	3.687100045561174	7.605702493996166	14	-0.07813589067930012	0.10052764691246975	0.6833977372111033
Si	9.26495416165139	8.139623632466884	6.469795097024532	14	0.030639604989672647	-0.2862375557446374	0.9451545136499508
Si	7.263081495472531	5.614454243142152	0.6027863687908109	14	1.4949956707848981	-0.18574718985930982	-0.7386533616464057
Si	16.1743655945765	8.983500611048134	5.5312755643983085	14	1.0579761577612408	-0.35122969891680855	0.6448972348156099
Si	4.9560520113522495	6.757033051526872	3.0301504730271067	14	-0.3011877618497025	-0.28393358826725273	0.03888359708819544
Si	0.863971551763551	1.546442675060976	5.501455060397027	14	-0.07956722501102655	1.0768465281479354	0.40746157204217115
Si	8.734581053236685	7.1801274378551545	11.564920377064968	14	-1.0565671920457995	0.2826205247802531	-0.467831124959248
Si	8.525591589687787	8.11827642760122	13.680969437440071	14	-0.24793091469028325	-0.31835554629339524	-0.13661850940192033
Si	3.5553769703762725	10.00210003461512	4.817547673546428	14	1.1759718942187964	0.5204598510889551	-0.2934384504147761
Si	14.181787652236615	15.605055971480553	13.387265017807916	14	0.8996724318681273	0.3859391065177436	0.36460870256073113
Si	1.8071868136321139	16.23833178894125	11.742377625254695	14	-0.028094724943790075	0.6069065826051019	1.0479241644015895
Si	6.237371255661122	7.52441751890976	1.143598621090284	14	-0.6260168371181665	-0.5358409744456769	0.5047398560510378
Si	6.409670415793445	2.091252199669396	10.027795379826694	14	-0.9453756287074835	0.3726315796017212	-0.61659707855674
Si	1.4203056157729501	3.5339067977406455	12.973639149766825	14	0.6197939909118121	-0.6242911112272831	-0.32397418274951484
Si	14.953139879663658	9.739977017450125	3.65454637792617	14	-0.03803847476946277	0.4019689197467388	-0.24530144527936773
Si	10.783983221861838	9.642197965485948	10.303985909875513	14	-0.33637590926124905	-0.610000136526304	0.3882741843695021
Si	12.728526674113446	16.516989872240668	11.813787468627897	14	-0.21645698602422253	-1.0264446363360085	-0.059165247185119535
Si	7.330010393308265	8.83836093237508	7.7390061149176645	14	0.6996129271336812	0.08142099194685332	0.16228508248136256
Si	4.218565107773155	6.3462452796165385	14.491064710256948	14	-0.1006780565736984	-0.5330772933370499	-0.7793462455483893
Si	5.499021938122016	7.390315427268631	8.057700864546934	14	0.0783194675991587	-0.07373261570801452	0.5838831057947719
Si	15.592557527341462	3.2770189284355635	5.667371373483112	14	-0.06986310220119166	-0.32753490650738787	-0.6842639425934611
Si	7.446231331626434	11.37489746235524	14.252236707433838	14	0.5245985593227975	0.0034342253761217895	0.42296353734894
Si	4.9131772488916425	16.503471615396013	14.52596132380232	14	-0.40302718669651183	-1.0692679381062669	0.3829998189157503
Si	8.934054450960677	4.723947886190745	1.987183756164153	14	-0.37094364895904397	0.11357137842264499	0.8605378949006853
Si	2.1546527422923103	4.52764377779128	1.4211172030547092	14	0.5448336724134268	0.1419728362311287	0.7108239747716548
Si	14.552061642869642	11.156598518834969	12.82908807681933	14	-0.02894756057848319	0.015479596690483523	-0.6452494762444703
Si	0.766343340263863	5.36545926509846	8.541218333894747	14	-0.9120556464215565	0.44829586673676297	0.887601349500564
Si	13.045908127959507	15.166315166102116	9.879473295266985	14	0.10620516168042073	0.183440908387137	0.3072301164625824
Si	12.064115417297993	11.47629668546714	15.922161977521894	14	0.2332293344696765	-0.4773604126073129	0.3893409359668315
Si	15.371754960024736	2.1962437212344983	10.37658772083223	14	-0.39899955021249983	1.1843380138200261	1.1020505593802827
Si	12.537100287255868	3.9997874097351604	3.777094417901528	14	-0.23216489686713518	1.0308929056503966	-0.437497738613205
Si	5.1966753436168265	14.877175310091006	10.699802765685357	14	-0.1806350611512594	-0.8538347662205273	1.0683256280064326
Si	8.56284918441646	2.323261229755463	14.622051618392334	14	0.591629331903314	-0.5083777129685152	0.22488301237941183
Si	14.183235392781652	7.604208845483676	3.42702813079917	14	0.23940770055399235	-0.8289973746068329	-1.4754388152777238
Si	10.692587016943898	8.832440444143904	14.102543942131604	14	0.061558432017113376	0.04585360650058487	0.02451651766973999
Si	11.85876743931028	1.939291908689035	4.368241477372727	14	0.12132480362608351	-0.7646356664591621	0.26764923561156284
Si	8.23175436486407	4.754863623129834	7.7610091478898005	14	-0.26917390106641065	0.9093973806310555	-0.8456897616768303
Si	8.912018626583217	16.15332990806141	8.912666256838358	14	0.007745968998010119	0.10899918183182565	-0.42499548188345304
Si	13.409568092138763	2.4131588674501123	6.125670612566811	14	0.7994566600309916	-0.7545417640827927	-0.3685944300280246
Si	10.19493317276108	14.706046803128734	13.546375474719088	14	0.010771902849292391	-0.19715466994374284	0.23188001839766276
Si	4.07800638842381	16.34075574346951	0.4518917984834669	14	0.166998175643726	-0.06830115571920171	-0.09283027180501043
Si	15.700536345931544	0.8350544509789344	8.62761220993057	14	0.1267953444157626	-0.6702213366664084	-0.6022778216972392
Si	6.943037379514195	5.641428453161346	11.390907866004486	14	1.2374701623714184	-0.08498325836791848	-0.2274859994055297
Si	10.151987908779029	1.8477842129929969	5.971898596442321	14	0.3178971182148128	0.8425113612800632	0.3188790233365774
Si	7.816456135151475	14.212685353902776	5.281364066575822	14	-0.15925374930890798	-0.43518682915145596	0.43512049463419616
Si	14.200796829902707	0.32955362350218004	6.797320572107448	14	0.25438670303864297	0.18882685981178318	0.5861289662919212
Si	13.60729206838874	5.1675696922515995	8.654529034990446	14	-0.8840601661431242	-0.245270849126058	0.520856315529322
Si	2.581847693856308	1.6772836614426725	3.973877280818718	14	0.4963781073288521	0.8863181108352781	0.4986303955893019
Si	10.945989159863082	0.41981032708512284	13.35816264558322	14	-0.8527325333697799	0.16379894929386576	-1.0946473187214485
Si	15.528801197970786	0.9037672012642721	14.309315067110361	14	-0.38069096633825733	-0.7470693606908464	-0.5042989114886324
Si	15.320057669961814	12.877942352040696	6.343264540872623	14	1.6923262043325389	0.47972968615982936	-0.4356313732613095
Si	10.448440248177302	9.725452064462036	16.233314703926737	14	0.1313623987959416	0.9931264538238056	-0.12506370498264285
Si	3.296400288552077	8.09389765731339	7.7133960273599325	14	-0.8408350006113268	-0.25090954020367473	-0.1043141137174518
Si	12.235020942704066	0.1881734794494786	2.855746104673008	14	1.0763963276063773	0.7436202229038676	-0.3539501854560572
Si	12.017735253608294	0.8509074558826288	15.349719135647277	14	0.7250727833453835	-0.23094156495580873	-0.4129022880101365
Si	16.148607945694813	11.321603230853057	2.3113776244661906	14	0.32389627825831435	-0.5775890399710494	0.39772582463689843
Si	6.4936377278353214	6.230163704770994	4.743084950337598	14	-0.3690276612744696	-0.23571430776159963	-0.2437788367087761
Si	7.726804432996754	3.4373065967978524	3.607569410659581	14	-0.3437655230618867	-0.4580876642380149	-0.5203822037082867
Si	5.190482686721465	6.336865298123723	10.188684770476671	14	0.4617736008249792	-0.24772985425424765	-1.4219060885174526
Si	3.4027116641814543	14.108508698759968	0.6397340847391773	14	0.6234328762714176	-0.04657685842714253	-0.6493390763666977
Si	11.396415182528585	8.98257917255854	5.8824682362735325	14	0.587045308228022	-0.22902840548708656	0.4119877458477599
Si	15.350384801175345	4.59417917876313	10.10078740850676	14	1.146985767060511	-0.6375960670379854	-1.2986313586165688
Si	0.7450764743412422	12.509588298189367	14.793240789454453	14	0.8300312160560644	-0.36672600779187303	0.0712769530167411
Si	5.815372102270649	3.8815202877247987	0.5636891762234826	14	-0.5409240496636097	-1.1708481955368053	-0.12108183417332954
Si	6.833745265140902	9.681703411049556	1.5126806441397977	14	0.8273369547910813	0.6885450900620398	-0.06127175377391685
Si	9.613980961204991	12.741128411179306	5.77833093081711	14	-0.3478073006251594	0.5603330666148756	-0.7457560400933148
Si	11.59987929428046	5.185868935992434	13.59353115514469	14	-0.42372792696061995	0.06850273037630131	0.41021368317685764
Si	5.962543208503498	5.517544163419051	6.887795338535793	14	1.2433919321447835	-0.6168860707947247	0.05545719909240198
Si	12.279933691005535	13.026608746356303	10.091092629522839	14	0.612029509955497	-0.8294781713017005	0.49026170488275184
Si	5.862022795054268	13.002426724500413	14.378586910856468	14	-1.0480128675351348	-0.2697225749417303	-0.5075863267509737
Si	2.8058949707298053	3.903643009326365	11.022871888784795	14	-0.39090648199626965	0.6012282965055548	-0.6298938068304177
Si	6.820535247506291	13.684432209842242	1.6930218964277342	14	0.024481807747917993	-0.5422219436292204	-0.05336149114594928
Si	13.12647333169906	11.121590414511493	3.5449902927400228	14	-0.166563915955153	0.33873798371886915	0.9001578565525713
Si	1.8425015175953647	14.410891363811011	15.313597763113066	14	0.25160528130330684	1.1744675404959777	-0.46100021234467864
Si	9.22510276676162	1.8946890391678743	12.422220517415433	14	0.6568302488274812	-0.7069416057382313	-0.6927897278350722
Si	5.148927778325133	1.7288956938517528	7.944211450292221	14	0.46634245497888227	-0.2569071575839842	-0.35603792297601744
Si	3.1664397514033196	6.261881191570246	11.144162378365992	14	-1.62500926772989	-0.07291397577407938	0.3254733942616932
Si	11.135844838405662	11.335639591901824	8.891610895480076	14	-0.099004267010282	0.5118515333665673	-1.4024736745077735
Si	12.959084684513943	15.057723148232482	15.233553942718157	14	-0.03387765502986713	-0.4906314298277892	0.19674843530315944
Si	1.8567231500842103	7.261143523417906	9.446408682150064	14	0.1961054018625904	0.2023614153275747	-0.09887879707065877
Si	14.602599756754373	11.884854641815469	9.601520227182023	14	-0.8510628575748758	-0.12654286187332403	-0.29871024476320773
Si	2.132159477810587	6.900657767273974	13.241669538600867	14	0.4970195981062291	-0.13618373549228327	0.2600225659004077
Si	9.886487376865704	3.487751255177413	10.702839249818323	14	-0.8624785651963331	0.6011802168360681	0.6818617588928468
Si	4.507644299684416	2.4236357214510025	11.409777680197953	14	0.6179967882930285	-0.8039159850982565	-0.2445118588355503
Si	16.057697053575662	12.93136447002364	12.817597968393942	14	0.0983671471119493	0.32669415506769944	-0.13565691601218494
Si	6.741840793440448	15.034073986713102	14.219443662539971	14	0.3315252619642577	1.586828610836223	0.15188547568242763
Si	10.43460391470101	13.113791255690156	2.3513355914232634	14	-0.3905634965465619	-0.06735858850883543	0.2997268598067943
Si	0.7225159874786053	9.319604317763703	10.116163298462997	14	0.37253284915742746	-0.7461183088329236	-0.26102272586994524
Si	3.2768549714089454	14.421920752991603	8.053392073887412	14	-0.14748117226901397	-0.0755048786051926	-0.8562109817574082
Si	10.86088726519701	15.083872654407786	3.642238123937957	14	0.06583855104356387	-0.9837210934521718	1.09141004001285
Si	12.92875427415988	7.172464086431029	5.34136414046668	14	-1.1914682030938608	0.29328238432184317	0.5226951700542919
Si	14.031942406899628	7.387829838745103	15.766609388088332	14	-0.11507830325078376	-0.9422723045860647	-0.6782892080505011
Si	1.235670328957888	8.425940148479631	0.51236570818125	14	0.29471500420622965	-0.2614407875950013	-0.02459673615572861
Si	8.78769821115012	11.602669842873498	12.366578421292083	14	-0.5048095330052138	0.6851602299080648	-0.10492089457300677
Si	0.7330141558929559	8.80903393902392	13.757422598952044	14	0.7701139205648015	0.38520248484352115	-0.4087795206292791
Si	11.622588982037318	2.535438017901817	9.51461972393395	14	-0.6816182752190288	-0.6028861452159863	-0.5776952266207716
Si	9.803513644405133	6.572912589775391	3.1923285659063017	14	0.06150238192113414	0.08893427591339004	-1.0691391257297276
Si	4.438157672233441	0.1837712332847853	4.368290664480713	14	-0.12766643489822876	-0.5525256481997138	-0.7494532895436876
Si	14.22256868346731	3.3609386929397207	0.3194341958193171	14	0.8294758573069124	-0.25228868109740216	-0.21176240482016417
Si	11.167232771581412	5.660681926797098	4.817367320817148	14	0.803596396706962	-0.646322398494568	0.08755436368806657
Si	15.644584371027886	8.922033121769045	15.614093282787737	14	0.6618079087272878	1.1312506025012048	-0.4738739937931921
Si	2.295539375694892	11.086742988074104	9.99983414850726	14	0.6650341316830097	-0.10937302054537518	-0.19099250182294392
Si	5.393346715755916	0.6352892097475632	2.20693044022946	14	0.16416481758092283	-0.36385048360181943	0.5153749760972983
Si	9.50566275156981	11.40951698852563	3.8705892727601765	14	0.5800171918353971	-0.2721808087383239	-0.40397669589124247
Si	13.733056945226343	2.377683485600776	14.78312136177159	14	0.42862511126390607	-0.14244540538897194	0.47706962059560404
Si	3.0938576152897967	5.283625033972885	3.5202622939854957	14	0.07343282482768526	0.3341606449174095	-1.3688140492090548
Si	15.361038728764983	2.356890455485081	2.154357619644398	14	0.5077565339231674	-0.37197851885040356	-0.2821523265014541
Si	7.175243158032204	15.305814723059507	7.349342566316793	14	-0.5012457239209565	-0.031237129866075054	-0.5469772029188343
Si	14.361866573281963	6.431212729520784	6.980668796263558	14	-0.21075710263998626	0.8488421939098637	-0.5080568390245608
Si	11.06693206054785	1.1581235740783726	0.9680334369877295	14	-1.2933701057999498	0.3182161923850432	0.410462566171848
Si	0.43941138961730475	13.511470663322383	2.8437969165730883	14	0.8376542862197714	-0.5539024750986532	0.8724341421064785
Si	14.86735264462632	4.117733175973352	3.557444468481926	14	0.6978159816254297	0.12239104100234892	0.8718957526524396
Si	0.5571489304316906	16.302155340692835	15.981443919636165	14	-0.16800913425560823	-0.26208562080929443	-0.3612017309010029
Si	11.560419756684304	14.038767937917733	5.8986753883547225	14	0.7383180895126583	0.30961738775233993	-0.46744751604548196
Si	2.1921907035365016	10.744948332964624	13.977889054364203	14	-0.4463904205840012	-0.024203871262809987	-0.5131975070016648
Si	14.941354648590357	5.350734284537898	12.197217371076752	14	-1.234218228362495	0.4606001483568636	0.02849941692118138
H	1.4176593493633356	8.898929937148303	3.71167392471068	1	-0.36848335827819423	0.06601030087894977	-0.38329061092745903
H	5.163765889234062	8.522535430711626	11.213940849324347	1	-0.10996360343741318	1.07814365078195	0.41507692888991776
H	14.927464209295279	13.977162724736285	13.257583207604409	1	-0.39668067032425824	0.7789680359557956	0.07592988231461306
H	14.929534986541464	7.619217471700288	7.699474436229798	1	0.006135428625469361	0.1320339715055643	0.18723585983967558
H	4.493042286893816	8.119596281665496	3.416223362745044	1	-0.12263863844467919	0.4754896763763731	0.4496382408244123
H	7.496521870400973	4.864393475191723	4.428879344097128	1	-0.3258441476488585	0.012868896348405164	0.10200166159251065
H	5.217268346160047	4.940679400536546	9.364828584415745	1	-0.5423965216804585	0.49022262408188566	0.4841766699215575
H	11.758402785036337	6.199580800595939	10.895132969346712	1	-0.15858089104662523	-0.051590256690899255	-0.3050058532501223
H	9.886756266389357	13.33411834762969	8.41782099652151	1	-0.3545415396796913	0.2976614909031194	0.41889373473767755
H	15.33620579751342	11.4191609408313	10.806012487958233	1	0.20832817944404233	0.157361415793279	0.26330818138902484
