72
config_type=amorph dft_energy=-6967.07495985545 dft_virial="-15.686502598265855 0.4125379131038485 0.35468198626611375 0.4125379131038486 2.092875266478061 3.770697144772372 0.35468198626611375 3.770697144772372 12.99494426277123" pbc="T T T" Lattice="11.105996452100001 0.0 0.0 0.0 11.105996452100001 0.0 0.0 0.0 11.105996452100001" Properties=species:S:1:pos:R:3:Z:I:1:dft_force:R:3
Si	10.827535803056497	8.15888702157784	6.404839259922523	14	0.6127908142407928	0.9893358732503112	0.4404359977730703
Si	10.850536321708796	4.711474662881479	1.666554721605674	14	-0.17862342834877554	-0.6337196115467981	0.04358563449768225
Si	10.273690865986723	6.146991340294117	7.208624647146808	14	-1.0487415187828648	-1.5451288820908695	-0.07515340850792834
Si	4.688318660278851	3.980167008503598	0.1605682755051714	14	-0.5794674895179496	-1.2326935629076472	-0.044300658887215426
Si	1.0709812240664238	2.923209326157241	0.7543525970159883	14	0.49684296317073495	0.10901358002161848	-0.12699486218860606
Si	3.757702793571583	7.735815192731544	0.6655190631945761	14	-0.3120907910703224	0.5304478239261343	-0.02764323884957207
Si	1.6709526962007057	0.3286020018254444	3.3965357889492913	14	-0.01253876642529815	-0.10489466929874125	0.14926629069279276
Si	4.877809171744581	2.7531098844968778	4.521484381575405	14	-1.0521731730536663	-0.0766351365039297	-0.7071272395423459
Si	9.969197761259498	2.5729484100509112	8.354263711163183	14	1.3918447251142811	0.20802838856371308	-0.18072427850586856
Si	2.3770608446287715	10.576840145143246	7.08392651898263	14	0.7575628128339668	0.7624088321413818	-0.5013184862015166
Si	3.99281673846254	5.619711946737765	1.6062269488778669	14	0.11253779408394544	0.8159690697285785	0.8109029638057587
Si	2.089471066501642	8.402030601903666	6.4600804862752685	14	-0.47829012429107837	-1.3373789442333284	0.0911647097786185
Si	9.629187679878456	9.804140441988388	10.048205820019737	14	-0.7139928620787374	-0.6059087366303524	0.10314297524412436
Si	4.778188383569244	10.540045978897437	6.626959188964523	14	-0.37615785054830425	0.3568048836930176	-0.09846999132475524
Si	5.834946157979464	9.514051814659535	8.490711983573684	14	-0.3512975760972605	-1.2957350084734218	-0.6697364262030285
Si	9.549813123235296	9.719601596995002	7.693601300217111	14	0.3694020142090832	0.06955739777862606	-0.5016668709723967
Si	0.6292368833852106	5.817987301397107	9.005819205018534	14	-0.11464172956742263	-0.6928254661990223	0.9506299395397382
Si	1.1253261965054848	3.3498128618753067	9.531876938965155	14	-0.7151038366875734	0.05202014550042802	-0.5408453738408131
Si	7.781394202170962	5.744054683015476	10.278566398429195	14	-0.16539406303448562	-0.3022023200090329	-0.5656884218862119
Si	9.96694324397972	0.7990086981502373	6.702302268895569	14	-0.6112638347911569	-0.491357509970199	0.2333195802664137
Si	10.641221606576067	8.028846909120203	4.120402425704265	14	-0.3406783969039849	0.7582215300169887	-0.467533905184239
Si	10.57232000458724	4.601547509998594	5.34351692097049	14	0.09132077587155149	0.2505274739531007	0.47475639713906687
Si	8.517510753012601	8.795560480187378	3.562048454074938	14	-0.8048297559290369	-0.10556727045049198	0.1250577914404065
Si	5.831991962923204	1.5813939408109712	6.234029034489224	14	0.16014592285499937	-1.4855705129022994	0.11755119234770219
Si	5.540115270165565	10.633591787013476	2.981104885662039	14	0.32342550887419524	0.09775342427202996	-0.4977893870390814
Si	2.6853410941461635	5.853426536075759	3.6431666521610757	14	-0.123052072180159	-0.6474410864193644	-0.5111599060354475
Si	7.646867267146674	8.388847784115024	7.391284970794496	14	-0.5790553413351298	0.005682656978591284	1.0815948454531847
Si	3.866197272912148	1.2228479513513748	2.9540728902976268	14	0.43453993905290667	-0.046789745947650785	-0.11505876285035065
Si	2.3694643430555353	10.651727879219754	9.418762365100518	14	-1.256392983306644	-0.8017305455761305	-0.354033232157898
Si	7.83400330736456	6.027846210355988	7.95659129620284	14	0.5431897076717243	0.5736395650887699	-0.10211838977404536
Si	7.029584878342504	7.964121161797363	5.23266797038208	14	0.34271265543328605	0.6088379969215972	-0.8404706749874618
Si	3.7995724001960003	4.895278904163734	7.1944533956739285	14	0.3107918686625836	-1.0138030256979045	-0.2788628543548567
Si	5.75914773219388	2.8986650739981004	8.085443067040103	14	0.9795641303705565	0.6950345598900936	-0.0035141867515783944
Si	7.863523045934241	2.331015383338365	9.226350976567884	14	-0.4950858697949458	-1.2439981987792743	0.5827081106634642
Si	0.9741758059916941	0.7910445880944365	5.600409724904015	14	-0.1829475132762006	-0.6722779638119948	0.3701242376935127
Si	8.772604385520888	3.5124268619269547	2.1588280143450067	14	1.0894565141906016	-0.9810463725876218	-0.5525032795834286
Si	4.253330097239449	7.820409567707189	9.479090137828324	14	-0.0919807786072335	0.8466932640832839	-0.20142501876997676
Si	7.460308738744299	7.654097270836991	1.7367668311758502	14	-0.38572699032883134	0.18333086507943466	1.1541097856815774
Si	1.3441920685870195	8.363670490158112	0.9290221562163912	14	0.9978158928172237	-0.4878068135230746	0.38993948928536193
Si	3.333986816931064	2.114892692380499	0.8187096252566175	14	0.35158811099843723	0.9688670466860804	1.4773221499247322
Si	5.121474733903655	9.168377675087923	4.685075709314837	14	-0.7000448728274661	-0.05091508443382838	0.7596173830952971
Si	9.068445919011927	1.1173187730635206	1.7563355969244505	14	0.04662519520716131	0.3572617691084079	0.07098847499982047
Si	8.065463379422775	1.3884827824379942	5.35895425603891	14	0.3516055945146142	0.662089958980908	0.03379383699643031
Si	6.22548852321756	5.621633284123978	2.4771147666657405	14	-0.02761264269626231	0.8203674595997559	-1.217238648828237
Si	5.652852240150831	9.0918462535365	1.1944499184233552	14	-0.3916310194754874	0.7111530762526338	-0.4010312376364808
Si	1.1468162996402982	3.0312151416539135	5.891542315899366	14	0.37429945562290123	0.9717873081087046	0.7907969202022007
Si	1.3409602236194584	9.144921810581087	3.188620429369527	14	0.6933198897520868	-0.706365421035986	-0.20194026827613445
Si	11.104741474500914	6.477972246559601	0.21107390497074136	14	-0.2507208210731759	0.7481589951255252	-0.5828914304727908
Si	3.0478519243391595	4.112028504379381	5.158180052177845	14	0.41943135286012057	-0.3453102431382316	-0.10490675349374594
Si	3.075106039632613	7.981424304269735	4.368132782564808	14	0.03004053745007814	0.9991150723354946	0.21445898007993544
Si	0.35040529406020715	0.8563111974444925	1.528262853784125	14	-0.8689708632402391	0.24226548411733692	-0.06416784680653165
Si	8.604748355143848	3.6642569394236135	4.476993759788292	14	-0.7879761605554663	-0.9231725916048128	0.3143513068677966
Si	8.137074844545916	0.4367144348880571	10.803413578762537	14	0.2442447209927869	0.7462586911834036	-0.5204074005404241
Si	3.9576218357058353	0.8988771500464561	10.142240291979666	14	1.2851351125700476	0.31043319947042297	-0.02969318112132614
Si	8.949967148860924	7.522257986954112	11.103675298841512	14	0.9790599366172756	0.716451610096395	-0.5516836112073654
Si	6.018961413194308	10.658235993140686	10.456806535488948	14	-0.6392143207264865	-0.017417438770279133	0.9166257861281197
Si	7.023776442198056	4.082253327891301	0.7262277716006903	14	-0.4485540057109058	0.9071826305082799	-0.4634769580995773
Si	0.3012457113646317	5.897639507951567	3.591212800758152	14	0.2673422456363372	-0.4954494240872147	0.13455211205611733
Si	6.39604331073246	4.536144296892177	4.502082205773586	14	0.6219220947852987	-0.5925181630124892	-0.21276770700034206
Si	6.090350758388407	4.911349281029922	6.765517600700922	14	0.41222968685838574	0.08136082808236186	0.5058989103293605
Si	0.5995772092602324	10.30328834653157	10.985374224633743	14	0.3117737737843481	0.04342416908357695	-0.45094693343236764
Si	7.866666042930186	0.019544332556405582	3.4511772914936234	14	-0.07504465075288608	-0.3977931875962863	-0.10913982129283774
Si	2.7929581997670123	6.70436798423566	8.029291148978286	14	-0.6973871212580289	1.6794249120571	0.06512506931722278
Si	3.6863023423810324	3.2025695609133646	9.164901498198414	14	-0.3006776545541851	0.09513989571409943	0.29457719296106977
H	2.9408567545196282	9.183459618269874	9.657363592877433	1	0.33066291323988006	-0.23918607127539557	-0.24002862248880805
H	1.5155798058358267	3.2853758704602227	7.45576638619539	1	-0.5232836960620738	-0.2652655638692536	-0.8171456075230782
H	7.515516647107687	1.1395974019464332	8.235507291100879	1	0.3457229055421154	0.1446398437797183	0.19480339412846742
H	10.001249667020257	3.766787498669401	7.410609404621151	1	-0.1924207508282862	-0.15976951303612968	0.13501413968214793
H	1.2931489088931678	7.297405982784896	8.83835188451732	1	0.14987667109579592	-0.07376629718770847	0.1405607851893034
H	4.719648676270225	5.394782200593384	9.054863285351008	1	0.5290581415005943	0.2275222519905438	0.31162902055482383
H	6.690685396606672	6.4881786572990805	5.042244555214373	1	0.26870544567707966	0.40806243935548975	0.06430514383062756
H	5.527920886061159	5.473890213321693	9.066913291501537	1	-0.15352275555029793	0.31716692430389076	0.3888935636411257
