227
config_type=amorph dft_energy=-23272.97396465785 dft_virial="56.05118051692514 5.619641173173796 -10.254937445949599 5.619641173173797 52.84399118980872 8.028058818819707 -10.254937445949597 8.028058818819707 58.25385394158623" pbc="T T T" Lattice="16.3747472526 0.0 0.0 0.06417263448293939 16.462712394840963 0.0 0.108400826812212 0.40922130858972655 16.29911229504024" Properties=species:S:1:pos:R:3:Z:I:1:dft_force:R:3
Si	15.586239310873024	15.565697190444636	9.284427655558266	14	1.1349985027263845	-0.6160265502861991	-0.03790477729281507
Si	14.212306317795269	10.328170420186241	8.520668506828871	14	0.2613433427033676	-0.231570971538181	-0.0835424109465075
Si	2.7758193171904226	14.108305385569832	5.863718392369247	14	-0.176738551038575	0.27101609802829674	-0.556590308600336
Si	3.4434996364151873	15.736150121970578	13.3044886926364	14	-1.107013821090297	-0.7473041026065759	-0.2934412786306283
Si	8.561672511424106	7.699176911710983	4.3091260878030075	14	0.9168337885485196	0.5085175810979313	0.7274803663671702
Si	8.820976459017377	9.284814099593428	9.76714210476711	14	0.6569796300465818	0.983375279786612	0.44149400761231117
Si	14.48627548902797	11.388500803781103	14.84498233981815	14	-0.34007290160109	0.3349751710828324	-0.17182105500325978
Si	9.221322654596197	1.2109665959957034	16.227651260555167	14	0.7870955569833156	-0.0709072280717038	1.9537721341381806
Si	6.3272007009299145	11.103254344115536	7.330669774690121	14	-0.28995485981650754	0.7107414422908781	-0.6931357986111641
Si	12.817055041269356	7.831748502942758	13.74071687186984	14	-0.45514451997804134	0.36782721220049247	0.06532947219017456
Si	7.727113867998644	16.361786640149568	1.7484545747644964	14	0.3158795718700926	0.4222693389125	0.2704190873729584
Si	7.921329832737556	4.498434540790316	9.76083455212541	14	-0.1180240186160774	-0.05536412507981261	-0.4433704002749552
Si	0.516384204509642	14.739335745493825	4.904353062859194	14	1.1164371791991716	-0.302585671812267	-0.7293472459401298
Si	5.154693473806392	8.668561949064904	15.030400152858242	14	0.02911339687163274	0.60954916465315	-0.06217318329916077
Si	5.013220569968104	2.5398411970584784	13.427253447738593	14	0.7733869376373501	0.09955319799613363	1.1366895186954458
Si	12.93393634968369	8.926234971831816	9.910606177871317	14	1.0636804120245211	0.6684678428380674	0.3782319612100677
Si	8.574498850947068	6.426929461597149	14.465669507085298	14	-1.2591630921785715	0.521688839431986	0.03807061358596462
Si	6.769374550890773	3.716135903221527	14.493459090647685	14	-0.019216441162786743	-0.5436105976126324	-0.904615381846112
Si	11.827160632981553	13.755026763493886	14.208713698248049	14	1.2950094425520762	-0.01669752928063767	0.25231696325592384
Si	2.3428955619525573	2.07263527097257	16.209607926557528	14	0.8461682443769097	-0.3163266870852664	0.06738892755161317
Si	3.998583918581624	5.146193342507567	15.798609957890895	14	-0.07217092633655657	0.3900145655607103	0.09569988245282769
Si	1.7717574775796714	1.9752644739097096	7.732899066202987	14	-0.6942817402523541	-0.06023662677202525	-0.19138768071065068
Si	16.264460054904287	13.580452308084467	8.14326169467622	14	0.08575047619545068	0.6112684627807332	0.017580703958108537
Si	15.886267254883512	15.726857452904726	1.295583102423514	14	0.3405063899580669	-0.11837086072376539	-0.5512632354875212
Si	5.786812754422686	10.010420087224265	11.513836394201954	14	-0.43998039791034	0.25044931235136825	0.4778160124700431
Si	2.797301348111108	11.812501959241025	6.282230732550099	14	-0.6648793511427368	0.019780027448963202	-1.1789438348583556
Si	0.5022691723779008	11.152576720315091	6.0572695423697045	14	1.2523979998601982	-0.9039530651156419	-0.220354267468503
Si	4.253183401289225	14.685358028650356	4.1235592645629175	14	0.5352791879332246	0.5241373030283629	0.7241039908607516
Si	5.917452125478654	3.3580562052511205	2.3595732420293305	14	-0.5008261195327084	-0.6533389449132522	-0.23781978590826888
Si	16.3094103735874	9.661809905590038	7.765953131007086	14	-0.0808373510391797	-0.23159102615967814	0.38441572661555584
Si	3.1844183853845505	3.436519081661404	14.504688892313519	14	-0.5956088887178392	-0.32546696649839285	-0.28991012258393695
Si	0.7909199419972831	14.820713326915072	10.860909722251781	14	-0.21005621932971386	0.40531007111027123	0.45049673289080966
Si	0.5360863004039703	2.0163781893115376	12.037820118911526	14	-0.22738109830846767	0.3338366856470708	-0.7254962443916119
Si	8.350531607924905	2.2251676791052644	4.853612633547562	14	-0.4680411842639041	0.4001125817055919	-0.1730664984203395
Si	16.156447309601962	6.537121685758796	2.8868008041696442	14	0.24998574206214558	1.0530632897155017	-0.3807974100985115
Si	10.881248795814237	1.4211413894070002	7.72356054784483	14	0.4040116629235965	0.04585617760590502	-0.8661740148729821
Si	2.890848641690487	13.860131353684151	2.4947582429226203	14	0.0266019411949121	-0.49253918997533913	-0.4896762642013542
Si	3.926274672188868	11.702751853255199	11.762886475065649	14	-0.16410619637962345	-0.7839094432705882	0.8338901880310746
Si	9.45088514875457	12.887435342435754	7.994303893868769	14	-0.9112763443990196	0.11208476532653537	-0.06687162116119937
Si	14.114647325180764	8.252157038855461	11.85494366664504	14	0.2198122784670158	-0.242735225059328	-0.7779408793803964
Si	15.706904823377434	12.959317207925219	15.958129470676273	14	0.21263169552890618	0.017823673410862526	-0.6112211544428424
Si	4.309812189712892	3.8035050046624996	4.251377266667262	14	0.2988920219093422	-0.0714592443839396	-0.6357299587966219
Si	0.4363657271103616	6.054954153108187	6.368974318646022	14	-0.9872450504039668	0.06704079989126513	-0.9940723634710882
Si	9.044578545175806	11.841455787333073	15.981306287937603	14	-0.23642110461410834	-0.7214081869325765	-0.9047624490704245
Si	13.449172684410923	12.79287117705199	5.509098678493315	14	-0.12221954827749507	0.5128802326051586	0.5727098534050044
Si	4.638237220408839	13.879527241804855	12.40787466954776	14	-0.01885571508636997	-0.032780307279227934	-0.3394748625036235
Si	10.080237097085176	6.929234658419006	7.786441214769539	14	0.9031236265393621	0.8753680303872995	-0.9573078713877586
Si	11.59975305556162	10.366456216737546	3.4930774586718845	14	-0.46194612199196106	-0.5415642548883266	0.5631332574190487
Si	10.646050113651516	5.082913131749895	6.333572115085901	14	0.5946159278431979	0.0544454691489237	0.24372047261800875
Si	15.008828060827666	0.7750495369600632	2.804489862155	14	-0.7516148177863362	1.128481264960873	-0.8913556774890444
Si	1.9438347840330692	13.61284483309956	9.28723101228791	14	0.2052695925551942	-0.41300461800187843	-0.39398898016459527
Si	8.234133354554523	1.1967205658859417	10.470285214116833	14	-0.36681805336233436	-0.49747545507949137	0.5239658103035091
Si	9.142447134555146	15.610002344085997	15.32041002649959	14	-0.40889136371070545	-0.7787240380609134	-0.28416190241968187
Si	5.847400956732031	14.620111210747647	8.553950180619779	14	-0.12161122475874804	-0.11690558780181301	-0.5665178604624919
Si	1.7746590827928321	2.9478884362701936	1.7891359968388558	14	-0.30512283854218913	-0.5773031330594489	-0.1785542656156636
Si	13.648888926751983	4.417882246630601	12.510233214623764	14	-0.022183496702237626	-0.36512138096156865	0.390859687879443
Si	14.307561497513094	14.32469439556349	0.37293814362741545	14	-0.5594740603274141	0.3156008640533886	0.049936264638448004
Si	10.12001135816174	4.752717990875942	14.611774826921346	14	0.5991696124757123	-0.23103155364201391	-0.5479637360301751
Si	15.753857773649537	6.031865759482021	15.407626842791114	14	1.1963533032021423	0.5071718645733658	-0.22771688466327902
Si	7.297276752617893	15.942434275434655	11.771704276461174	14	1.1173928590466706	0.13614131225450085	-0.3516912123217752
Si	6.416991627489546	1.2388396907690793	5.839008898765074	14	-0.7336520475776537	0.6736856439747759	0.04996994611814194
Si	8.80980396896693	0.14782139334812122	3.889406928749639	14	-0.23097910309348288	-0.6821723484155207	-0.7330609504645516
Si	16.00564898720332	0.47527376405726446	4.885901997654964	14	0.10583440829325537	0.24546676735145329	0.8794524882988869
Si	4.028076475858282	10.797789984017184	7.872989941373157	14	0.1377258844633081	0.1259756760396994	1.1754481600650821
Si	10.785820043775534	6.255792065636051	11.247833537507642	14	-0.165209200561967	-0.47229610645821724	-0.7586578465898177
Si	10.031053906237267	14.560723277411915	9.507089831224395	14	-0.11584449263618789	0.7580042716174362	-0.345593578944512
Si	15.824694930264286	9.878434711944132	11.629738492730581	14	0.1540174362138944	0.4245162278517774	0.1309589923712104
Si	5.436188478876389	13.328738055842775	0.06693669181917827	14	-0.38317156875113617	0.7609453589931535	0.26565431499366
Si	4.7146385161400195	11.258943803518532	0.746732686536142	14	-0.19280487396311632	-0.43199737300181223	-0.2853916620943087
Si	2.3407799446075215	4.065433824240364	8.678313111053827	14	-0.5120685346555879	0.4421884631592832	0.07052413337900174
Si	11.879489412776687	7.074827448666047	9.341002407316	14	0.07111420204997572	-1.4587011767540916	-0.34774405143428383
Si	1.3649727313811317	10.389688708139536	2.003437226557808	14	0.18174166488105117	0.04821490962660886	1.2279709566555992
Si	6.260226347192055	11.496213891208706	4.9200482581008105	14	-1.611135840532903	-0.2488711679058614	1.1662371752556517
Si	9.095504009131394	13.463094494525084	0.667069541152243	14	-0.1257866997986685	0.8107620672342147	-0.34893550163964043
Si	4.720353302931177	4.160174836894457	6.557033378417957	14	0.28786917918080335	-0.7202982407658686	0.4028649499508104
Si	6.53419388095003	5.754102559310892	13.269852827247702	14	0.06695955296314844	-0.3506272889402978	1.2452518697333783
Si	10.768595447140523	4.039019719447195	0.4764183588902212	14	0.04493957855927223	0.2761117716622982	0.2189067351732596
Si	7.174652820342073	12.646358126009352	8.78062253188807	14	0.4367726869129233	0.4140891102259169	-0.9757311265592796
Si	11.248866784059281	8.766988917325556	1.6970624305122113	14	0.28196155048669913	-0.48074501565075584	0.770903507008619
Si	3.4499873112766677	10.291382913008551	15.637313785028608	14	0.6976455173427039	-0.3577546499982803	-0.3927797893325296
Si	12.812786144660603	4.980847694649714	1.0257256302259405	14	-0.514449121071513	0.4050056522403657	-0.3449703430149081
Si	0.6054300800692808	5.785352126967754	13.300119910069407	14	-0.48006470118304456	0.45435184820783975	0.23139433660268682
Si	3.6014193363939873	0.6879260567278795	8.040968648589228	14	0.03095996471256309	-0.07561003681278666	1.1856590477335183
Si	13.089542297875695	7.376691001843554	1.0608412757091414	14	0.023292414426817492	-0.18684222361516092	0.3488712240066367
Si	3.2813961885133485	11.525056371019435	2.4886455497732247	14	0.4204489963458351	0.27068725365784985	0.6882494129502227
Si	0.7564216244855053	6.635131097964508	0.7304512753428818	14	-0.1761101728983308	0.16714755686282662	0.029349681450554353
Si	3.522807449783705	8.41450938291554	5.198713706845557	14	-0.5625989817335221	0.28990549459436066	-0.20778259089510692
Si	7.495476693363364	11.171504290664371	10.496869616281428	14	0.3603614936823785	-0.755902393018215	0.06335229219898067
Si	12.454061281648443	12.716217710213119	12.176851547934453	14	1.4208313664936307	0.17579469827554864	0.8334764971850629
Si	1.1335828154293663	7.469938637548209	4.619493047228787	14	0.370926679663931	1.1948638618901803	0.18300124937739168
Si	13.485396900283124	2.70955071505915	10.776676384909683	14	-0.5630232141113465	-0.0949082391247541	0.891209895817392
Si	12.716679478085641	11.015168028744899	6.928946462867359	14	-0.5503371233512039	0.4975047656801411	0.07401620862482686
Si	8.970289591840212	14.283336696427597	11.552660919937868	14	-0.3814990647403799	0.7840513682842603	-0.14098861711457605
Si	10.932739188550038	11.094878660895832	12.432893645875007	14	-1.1752033908386041	-0.21383008771862724	-1.0084188740469824
Si	12.60554243100752	16.1873972193841	7.209892913904395	14	-0.025080361066448467	1.1137146357756669	1.1846372904792914
Si	3.8080833839943264	0.6659691581368682	10.447954971288462	14	0.08296545491266627	0.2960933737683611	-0.5426898847974875
Si	12.719225751283421	12.974228052773435	1.6011981101965898	14	0.5309445614739869	0.22811334910364586	-0.2880776958222674
Si	7.836787012672383	10.70184706491475	3.580800254653513	14	0.3335942304153809	0.36723045865568615	-1.1342335988936405
Si	6.420540035219185	13.604094168167771	3.876611701246457	14	-0.23570942266149134	0.47528655905608147	0.820961127818178
Si	6.840987870525294	9.744959234664014	13.661260048301324	14	-0.5727872436751408	-0.7061623037156944	-0.001452160284819635
Si	12.688704859879302	4.2900413198801015	7.450419938823111	14	-0.4537208989622754	0.6630466672705352	0.18042474473607129
Si	9.516598646953979	8.703684144447005	6.270445826952402	14	-0.23750045462750652	-0.8943163052651949	-0.07438284824347997
Si	7.5690746323649005	6.03337551117871	0.3130344057532289	14	0.2652861327118147	0.5060192380583434	0.03946826643799711
Si	0.5209576714172932	9.843445152014779	4.139973311208925	14	-0.5606742522908592	-0.971307025634901	0.0661134022022877
Si	4.861546198591446	7.1511632454082195	3.821831621787609	14	1.9852812869471275	0.7287067836048808	0.4583781991391916
Si	1.1822092648706874	2.2569101266544296	5.496336200484639	14	-0.13207819451707084	-0.594945029324177	-0.8388400799934238
Si	8.95263106440301	7.687102173086916	11.425250649040112	14	-0.6087778330571058	-0.7165503405406887	-0.4277874451506018
Si	8.947384595383276	8.528981966009015	13.557352452135225	14	-1.1517186577338394	-0.40533912460038884	-0.07887328368511859
Si	3.9932719505728804	10.711143008930051	4.564793204031478	14	0.08608369144494186	0.044430499705882906	-0.030833723441343826
Si	14.758584260889258	15.926323161612821	13.156834321710255	14	-0.703916186108013	-0.4230522404824851	-0.16387479690081014
Si	1.979877240210767	16.660781337608416	11.672605943563164	14	0.5850372749729864	-0.3031523434248276	-0.0513010073423826
Si	6.335438836272697	7.986368691350159	0.6712401892774802	14	0.8453974270019294	0.19846259122010215	-0.8593281898475557
Si	6.543077181334566	2.6406703407410883	9.762937069672644	14	-0.10284549835858323	-0.046551404484473057	-0.08151766550689088
Si	1.6976011596968217	3.848042679714846	12.720051038544952	14	0.616128108946345	0.4561385092948106	-0.07829041410904101
Si	14.893800373802327	10.139942700517606	2.846443602090886	14	1.1027938659283378	0.8019583455074957	0.4746167861201829
Si	11.051546167241275	10.075072501801706	10.296927402428283	14	-1.191537622937505	1.1295431314580944	-0.0759687060049473
Si	13.28961714718159	0.4232888539544352	11.446781804202557	14	-0.1900751314447151	-0.15892824737537722	-0.4145729922471687
Si	7.702124366216451	9.299369612426263	7.747014098334729	14	0.6649045479748742	-0.29770905635154216	-0.6385525182170804
Si	4.369606216780485	6.645406251865514	14.129939701639966	14	0.12282272958560178	0.9750418132229483	-0.3373141055925711
Si	6.00348995996799	7.752815671286324	8.114998880918233	14	-0.9218842107288866	-0.21404220390753945	-0.08800764955600868
Si	16.005835659322	4.00526645293541	5.415639808549101	14	-0.4044999158238926	0.18307838253699613	0.38824744487417256
Si	7.544392975831056	11.898677341607284	14.053382845809885	14	0.7504225962493835	0.13874738460700295	0.8121504641070946
Si	4.985820705390329	0.45645426703985126	14.363441959987316	14	0.5384059091130566	0.6381570822188417	0.641077343641466
Si	9.110938845891694	5.114052988600164	1.8023389555486273	14	0.1417920875271223	0.0303662964941409	0.12212467449118157
Si	2.4234986178287556	5.101670404727748	1.2284924879801613	14	0.514935574198085	0.45950614304314064	0.40341336671559797
Si	14.715950968942389	11.908066621681925	12.492351990623922	14	-0.11998808597013853	0.6273856935906134	-0.1477819915914713
Si	0.9343234285366528	5.958307119873892	8.563192087969147	14	1.1355600321283048	-0.389315739134694	-0.4897402847238259
Si	13.336902504822922	15.537229692345992	9.435764707141521	14	-0.6828832590365416	0.3422226027592658	0.06468103942843322
Si	12.430370297323382	12.085359285135276	15.9488548138324	14	-0.36834220459611816	-0.5171557236420329	-0.37286786418064277
Si	15.635861344947303	2.7585128468191495	9.990570618604663	14	0.2004305152321435	0.6317254622604913	0.928161050146964
Si	12.793596578355281	4.475383809082831	3.2534477699026105	14	0.8377992965598278	-0.00021391596263632017	0.05566520151280196
Si	5.416474920658984	15.32676015348415	10.698896335459832	14	-0.6131106597426192	0.14950900303501474	0.31247362865249245
Si	8.873649108504818	2.569792247258209	14.421482251624157	14	-0.7591949504911967	1.06640604077441	-1.629555753267508
Si	14.33055328013047	7.9605915642251155	2.9677084303447407	14	-0.33024125196737575	-0.8586964692703954	-0.49334317460894933
Si	10.986369760751751	9.367156153627851	13.935980820432919	14	0.9137636316857307	0.38553364320875627	1.008998144075612
Si	12.143859707169915	2.5375487324431147	4.276004886535173	14	0.8261848424971229	-0.8028816294279608	-0.7279573064040575
Si	8.446179781576792	4.866624007714478	7.471119256825122	14	-0.7737517774822791	-0.1314346468554378	0.41064665731277056
Si	9.151332072414409	16.6432063213822	8.522215920444241	14	-0.1901810609839052	-0.638265839973884	0.38660862234311016
Si	13.827963162706418	3.0231091127244625	5.9352875001861864	14	0.5187639500197854	-0.5487659208900614	-0.2873361890479367
Si	10.208886936349952	15.110341668945436	13.329001689273541	14	-0.11700380402504268	0.4723228459535467	0.084384447938856
Si	4.188770058021672	0.3329591982101926	0.2934240084435151	14	-0.461301031667136	0.712112098537049	-0.322085191670802
Si	16.010206079363716	1.1724171660136327	8.390567864957513	14	0.3395777067164295	0.004986915878959214	-0.3074602303887357
Si	7.105667647641595	6.225644518469289	11.13680456376139	14	0.5163926195830129	0.4928114700287428	-0.2517076112950487
Si	10.378206735366012	2.8458655735128695	5.7448803016582275	14	-0.015077990039476394	-1.0574135999171923	1.0839970291537993
Si	8.066958647428555	14.716014830456674	5.214752771779478	14	0.5527012546930801	0.29067271242189285	-0.2647027489146732
Si	14.494886968608114	0.9091865540291866	6.637844393584263	14	-0.06636999851323848	0.2550047967576066	-0.25609520252388146
Si	13.8338351470712	6.108311267030784	8.382059546285063	14	-0.5358224624873719	0.1560537516274517	-0.2997926801029901
Si	2.817383338141697	2.1156140700864694	3.7732592090122217	14	-0.28575367372338556	0.01369550670883277	0.7838485080745007
Si	11.099229431240847	0.8111984289949029	12.929657628226584	14	0.13376741071240814	-0.24001576696220736	0.25730207936115895
Si	15.746173104763892	1.3616273705174256	13.887328171395994	14	0.5098111041844978	-0.324410756432876	0.5775507305017792
Si	15.744699377511159	13.082191673834004	5.936754677540018	14	-1.0250739800898376	0.5215057767331913	0.3778828051075916
Si	10.821616878744441	10.301371508832636	16.12561857294949	14	-0.17465261329233886	0.951289170943824	-1.2059512393622551
Si	3.8022474240734994	8.52932583570132	7.572565728479154	14	0.4119244966568842	-0.2652971884646914	-0.7793950965494721
Si	12.519596295102799	0.7805743766830904	2.555161410588011	14	-0.15430154335177076	0.9932110431888386	0.32176020395833527
Si	12.332863589858325	1.4384511347277238	14.919566038604293	14	0.5210208662698115	-0.5553512929465566	-0.8201558576319076
Si	16.11664029903089	11.962592892558359	1.7880126891773274	14	0.05448609261298205	-0.06999834234103146	-0.04699054927315435
Si	6.964992193994508	6.12292572895373	4.597798144593818	14	-1.1960707387274578	-0.06739047021480525	-0.5544323799051356
Si	7.76506398223127	4.124949480604664	3.4977065997201944	14	0.28235698648493796	-0.11620316182834854	-0.06956022599447821
Si	5.557669453793977	7.823785463353818	10.468932659993767	14	-0.14908605620985038	-0.2941231357615316	0.1093264835390805
Si	3.5188070990298947	14.657994188516536	0.45604326088381103	14	0.4375244781085346	-0.7907030748580153	0.05524945378253401
Si	11.75578638465692	9.27553780527483	5.643744950201994	14	-0.472154695665609	1.1077023630950324	-0.13576875909361139
Si	15.51753250887584	5.236572122493569	9.717495508571954	14	-0.09116008178904224	-1.0696284070721516	-0.005677000546886959
Si	1.0371208168390251	13.184204711742977	14.364370408156539	14	0.35488735334525123	-0.28056672585051884	0.2995620519557728
Si	6.057009183888388	4.328173193807232	0.15718283635243263	14	-0.6910192647116182	-0.46412204842440236	1.0214088694559667
Si	6.6063983289603705	10.168501897200864	1.5079930488347906	14	0.5726314346927398	-0.18631283302974241	0.5385349786001282
Si	10.038677988558076	13.440926361694514	5.783835825372163	14	-1.537690417289149	-0.2702941316543992	0.24247040121135277
Si	11.80518735964329	5.754112384159243	13.219064911169037	14	0.5526292637441159	-0.6108555432663173	0.33340808239020214
Si	6.351970781098922	5.817505580672959	6.796255335980641	14	0.38142681668088374	-0.08670024250071337	0.43502999172692697
Si	12.188153398488199	13.653714564767327	10.099986679746536	14	-0.3313344859495027	-0.10183556818882906	-0.9912225503342359
Si	6.233004967359333	13.767559995041026	14.16107137111661	14	-0.19746680212960882	0.17082809412861857	-0.15530170332130838
Si	3.082762316965684	4.451502877689639	10.84679469012004	14	0.731731174792971	-0.19510447056145674	0.449719744863061
Si	7.118338427065657	14.025843795880462	1.6796724489299502	14	-0.5761718467185838	0.18219495074899325	-0.7236324501450365
Si	13.451800831344965	11.753798490340454	3.4745789067006223	14	-0.6221835761963578	0.13730756562772004	-0.5570158265308205
Si	2.0868108896691457	15.076324769002884	15.055289768682195	14	0.31395972752753804	0.11035749677245989	-0.007808446857289716
Si	9.67855635960527	2.3407766696580707	11.96965695852313	14	-0.6562856887206738	-0.39452582695544214	0.655160830143109
Si	5.35121172800902	2.165306515573935	7.747128721565497	14	0.49853783579777655	0.6257427572910388	-0.955298295469531
Si	3.4539008758700387	6.842848041813189	10.946659361189472	14	0.0014099941575692063	-0.2377462522961126	-0.5553914021895509
Si	11.327463933397038	11.816022529900334	8.71417053258757	14	0.5867095218732106	-0.29774556604708824	0.3162091875721356
Si	13.225231640984367	15.625907136092447	14.881817333762875	14	-0.22414793336838149	-0.1481900260057788	0.15142910448810135
Si	2.2815934206629986	7.710575373273518	9.127516640010226	14	-0.10939333227740436	0.14849804442313252	0.7131228000383993
Si	15.194365409522701	12.132855877016167	9.578691688535839	14	-0.42145686963133316	-0.37645095655480115	0.6871037284195647
Si	2.3254089693615057	7.356230755151429	12.90894193547732	14	0.22677637433716888	0.08593790977328945	0.6324926800880234
Si	10.07696706005883	4.060670410264582	10.516069007435103	14	0.4372221161228852	0.8935105208578604	0.24726576974396092
Si	4.722454183003686	2.736397113179788	11.206010795549776	14	-0.2968893879754789	0.11059892356202178	-0.8102409041858206
Si	16.03344675813933	13.96304009026784	12.68644186980899	14	-0.4164812666157826	-0.6294893719635585	-0.46800004657878175
Si	7.128600481168861	15.993372839188043	14.080569838673377	14	0.39498451214455654	-0.06524128327769346	0.1201973739431986
Si	10.625992685741807	13.757587773964193	2.3270071446933596	14	0.3604291137522984	-0.705583547908129	0.225112612084501
Si	1.0827948993507024	9.631880142561736	9.859574278058588	14	-0.2969984028410532	0.3955357571251963	-0.7424349433512794
Si	3.4574509210744027	14.838276880818212	7.928472497489141	14	0.9500200733577991	-0.2135241261855296	-0.03730725241641265
Si	11.014547425824027	15.745157870434232	3.4532753605249895	14	0.7189226994195893	-0.04948966364433828	0.81884305125544
Si	13.119355800198504	7.557871030294671	4.975692924214596	14	-0.382230544203962	-0.9162102955083838	-0.05368236508990376
Si	14.439764656931684	7.952079970603215	15.396624650112091	14	0.11925403540123627	-0.040073247519827965	0.018588834354138595
Si	1.2896014072521393	8.984376786901624	0.23873726504400694	14	0.5324694840393668	-1.052933706007366	0.305434199396459
Si	8.751973274094922	12.113892282222931	12.137342557763379	14	0.9730296661994001	-0.48956827777790796	0.46559786287816746
Si	1.101920604141739	9.458597654710545	13.245208832632539	14	0.0041106831858527485	-0.07319319781184745	0.1304627690444218
Si	11.774846590458948	3.020186220339873	9.22068240197862	14	-0.2715390608504149	0.17107414890775677	-0.30383548610839095
Si	10.107851470851958	7.000461534018365	2.759454394786174	14	-0.1650842448434078	-0.09707131003059467	-0.05491366742772268
Si	4.674571147087633	0.5912593737968808	4.092478356802758	14	-0.16218609492653688	-0.6153426362710398	0.1372738841480261
Si	14.679872488320735	4.199228609091907	16.29576529670181	14	0.020892287610459262	-0.21266074901902388	0.10471829147377909
Si	11.491686273593361	5.995165038464768	4.35543059808391	14	-0.23700860217976216	0.8290688513347331	-0.4629007733973321
Si	16.015667057572458	9.666208162702086	15.106077684760859	14	-0.5533792551660031	-0.5068887858776175	-0.2170115734417785
Si	2.6775773835737233	11.41840109226435	9.781730367094452	14	0.5411829599693485	0.20587483074755705	-0.0006697729358985746
Si	5.621187098386812	0.9437127086112936	1.994879783643599	14	0.4195995031480582	1.1947458481559854	0.4399541726360745
Si	9.929582872462355	11.994102818696536	3.8849579099211073	14	0.007876324037741625	-0.229956060286596	-0.4757670986404171
Si	14.129823440934473	2.914271080160606	14.433168908738338	14	-0.47405191428134635	0.36205585208835606	-0.65510863670511
Si	3.3665399618026925	5.679007968410469	3.3296460187678596	14	-0.2640543161529318	-1.4713422731711319	-1.5459814606150306
Si	15.801708060071087	2.8912825724926807	1.775086463696125	14	-0.3422105185642611	-0.7491298444944131	0.7940581101902766
Si	7.261244121288548	15.921040668149134	7.06013766290574	14	0.5910523758694728	-0.6232747532942287	0.7232550118840388
Si	15.236759630159684	7.673404697010116	7.126393165239211	14	0.1578887494944414	-0.4271405550520525	-0.6926881691749264
Si	11.258406711808645	1.7453188106656234	0.5681447805751106	14	-0.5933699702050542	-0.7782913210355326	1.0197649047142638
Si	0.6142757185351353	14.084285268824992	2.521537504579522	14	-0.447307533851698	-0.06376006950275617	1.2865569338120895
Si	15.232713430113565	4.506389393005629	3.3199325186976174	14	-0.7099184314778987	-0.17556586990205544	0.16606769262836443
Si	0.7684619761403422	0.4820545468945661	15.663180973263541	14	-0.7486678168683824	-0.05206385429087054	-0.039412473452549904
Si	11.932193174283904	14.720670171100588	5.595581906107921	14	0.25761266888383283	-0.5245738767117241	-1.285228443693169
Si	2.493592360918235	11.27783371194913	13.734017962768801	14	0.04293385929902471	0.44163387574172724	-0.6007549560161156
Si	15.244689920254118	6.146529927118352	11.769128528718339	14	-0.5408749415519949	-0.3378496668307579	0.7970277368350477
H	8.752387555200412	6.481285435102155	8.372036563491745	1	-0.4860047258041827	-0.17153052010208306	0.31277830463293
H	7.846114068707464	9.09369132461053	3.856971829391689	1	0.07773479824935701	-0.27211781665798024	-0.035859977231701305
H	3.3888898543277666	4.650501906101036	7.482267184754692	1	-0.01138202614176353	0.14051501951460477	-0.001571202461142491
H	5.438440006623622	7.654138169392707	1.7624549836654695	1	-1.165462501222691	-0.4639685534367896	1.363819934235199
H	2.112098411851336	6.039648676851181	4.026319465478078	1	-0.5173429001093397	-0.10803553155783414	0.49331232134510755
H	13.934451419039526	12.96615366490318	9.883794166719909	1	0.023895081513860203	0.07661945276147679	0.19890147889825144
H	11.76400159535355	16.347660145694746	11.633894403583293	1	0.538045954368236	0.329812134489443	0.07185622304537045
H	7.833490776050435	1.311541931095898	14.122720075576295	1	-0.1698315337065292	-0.3758446899203102	-0.3472663400658003
H	13.642111418864133	6.478696587561519	5.931293699331277	1	-0.24127766545333607	-0.4118015978225811	-0.21621401657146852
H	14.47263368709183	8.174763433440772	5.798733570422579	1	0.9451789391504923	0.8610703708124879	0.8906478521944075
H	7.611372241993092	10.889442719339437	0.5403453721643716	1	0.34012663770228113	0.05426266356066118	-0.2425480485920212
