226
config_type=amorph dft_energy=-23258.182898927626 dft_virial="26.46413354244059 3.4485038056373085 5.324360506476359 3.448503805637308 48.47310742038842 13.591875491855369 5.32436050647636 13.591875491855369 42.30784563422559" pbc="T T T" Lattice="16.3957026618 0.0 0.0 0.07573175059485421 16.453218786737597 0.0 0.026692203933410406 0.41135178408190026 16.322364683793772" Properties=species:S:1:pos:R:3:Z:I:1:dft_force:R:3
Si	15.20572715616055	15.05386523939616	9.55924390786857	14	-0.0207645036760479	0.592028624559533	0.3488573400379079
Si	13.894528383320814	9.89836934258471	8.69778253818254	14	0.11545008508007717	-0.6068533607249749	-0.6009153929880928
Si	2.536557844393618	13.72234071396659	6.137047590643833	14	-0.13104178196251914	0.033280130153464725	0.22654497485835554
Si	3.089494718811492	15.176473943471366	13.57818805659378	14	-0.3074216638089335	0.9850989487932393	0.9552034216832175
Si	8.32062235243156	7.652799149892187	4.422153826865258	14	-0.02819602649340391	0.21988812607396013	-0.19459642015019551
Si	8.528673981788204	8.909664203680983	9.976803104978229	14	0.0926821761385699	-0.6016892956894575	0.21897975456435184
Si	14.233481663159004	10.828200792370446	15.145167988808927	14	0.28881328905436177	-0.13946086633334404	0.23690370108270012
Si	8.867958454820164	0.25878977081385124	0.0024462388371405603	14	-0.19624835531839063	0.40995348731845865	0.9066182728905073
Si	6.0446102586068715	10.61827841334009	7.3684730721825815	14	-0.05741278179890661	0.612480996049715	0.3618702182842414
Si	12.444679350921568	7.2872061323691035	14.01255776764258	14	-0.34128106399102753	0.2630567272887144	-0.3394576360979786
Si	7.5657199334851	15.900670490472805	2.0150777651026734	14	0.723067321195668	-0.48859871396168014	-0.3898947520527914
Si	7.737774797647763	3.8778870000149435	9.818753450029275	14	-0.19855977900120375	0.05907500138838234	0.5157387875000992
Si	0.3105050961497008	14.234483440591639	5.287778065457119	14	0.5925341038654741	0.19812114843358652	-1.2835274004133588
Si	4.950370900379936	8.158504923652213	15.487447956717194	14	0.3679562816875639	-0.23185276468126925	0.13372627302728576
Si	4.803203073287619	2.006919263458162	13.878012992029582	14	-0.5886851592012124	-0.8299983059079665	-0.5853545493694926
Si	12.683484399760951	8.400703882942588	10.078818806510215	14	0.8618098207025626	-0.5790743675144989	-0.3392082388819242
Si	8.009323704273028	5.927007162554312	14.81583078858188	14	0.3020547385636564	0.9491420408909683	-0.2791937556095597
Si	6.452033632331004	3.1552480447663744	14.78974850478749	14	0.6428488352070478	0.9847932443706738	0.3510062698644877
Si	11.962475177356964	13.21125387059296	14.396982889243006	14	-0.21098464546081935	-0.5152561910315074	-0.3090203770970016
Si	2.074851578296798	1.0987153850536064	0.34653629231927247	14	0.054167275553283684	-0.10395055942518289	-0.14849624464940842
Si	3.545342800347251	4.674801767461998	15.919810833760192	14	1.0039289528264077	-0.7356004311892618	0.1625457925608256
Si	1.445517287756	1.5953740100848521	7.942073450665122	14	-0.6585171510280304	-1.1745253903656812	-0.8834762681249185
Si	15.927315146868498	13.313490914110881	8.311562087140649	14	-0.45284132383225273	-0.7026509451799681	-0.859835726037753
Si	15.848828918226461	15.13752267265773	1.7585883113722725	14	-1.0519188907375039	0.35874632532026146	-0.47872001310060724
Si	5.460826509201087	9.93397261091481	12.012285322043512	14	-0.44102092423340394	-1.178619875588017	-0.19284189787972644
Si	2.657072817238913	11.397572719136509	6.4827067128707	14	-0.6196608076562284	0.2896949210686406	-0.18703685628789612
Si	0.45401340240790383	10.576966161343151	6.38008764948076	14	-0.37154940137247083	0.11269951660858275	0.4150159936938302
Si	3.999995635158965	14.319959157278403	4.449575639567118	14	0.27385794073865644	-0.07886428481649808	0.3543888160236745
Si	5.53733541610211	2.802786345505128	2.5805671894784217	14	0.16340017085871078	0.7592569141294123	0.26468166585104796
Si	15.98999591814456	9.132649039021995	8.134186817464231	14	0.13749268521077068	1.3258521648620405	-0.20217269619707587
Si	2.7839280083035254	2.7119344779155616	14.755225713262805	14	0.27686561974216567	0.7199573122004169	0.5586682759200797
Si	0.3892503768937939	14.46439218116673	11.173609060346585	14	0.9508531114815268	0.09890810767130846	-0.11421158364736185
Si	0.17954606070883947	1.463142668117435	12.413488166177757	14	0.38947874721199144	0.5898804660645494	-0.017818788310754247
Si	8.14153537139725	1.54769858588487	5.027207721334196	14	0.21912785023079234	0.5645980161199372	-0.5762312392514792
Si	16.037863172065684	6.282544695634913	2.9487835194273924	14	0.09672421081237469	0.16098590296309176	-0.31543245665491887
Si	10.507630374356665	0.8827380730302474	7.883606374973143	14	1.1362652863176217	0.7247994748498517	0.34491326447680076
Si	2.8137255583210807	13.375637185480167	2.761075677933509	14	-0.5147540541624825	-0.5881159164833317	-0.9174415978462028
Si	3.4648907269560647	11.267061286378315	12.147367876703816	14	0.7679217961688433	-0.17989072616107654	-0.24557321111170746
Si	9.273133977709362	12.269932312381837	8.028368952484975	14	-0.2996780088057115	0.4902089972236889	-0.012865811022020987
Si	13.780358547405635	7.548524120533404	12.0464638038123	14	-0.15189601721424026	-0.6062568642907005	-0.1891809010143676
Si	15.59021950014189	12.266820408016628	16.30847916320949	14	-0.6340952500340719	0.1614949818164811	1.0005788025942548
Si	3.983396625784159	3.5631632895703613	4.516594713767493	14	0.2264806972253518	-0.5115229461066524	0.2753211567763527
Si	0.23584398493866213	5.493188347114947	6.305918409349575	14	-0.30037374990534355	0.0068183141985006905	0.1649783153042177
Si	8.362797018388507	10.691542610684342	0.13992256608606737	14	0.5144426933082126	0.11815591631900099	-0.6609561015347227
Si	13.210275047144052	12.378073448428271	5.590998550914182	14	0.03644361813937491	0.04952900155573655	1.0125588678334847
Si	4.148999780949404	13.3641897058817	12.732314081428322	14	0.5242681722891583	0.13260835643408536	-1.0710731111515428
Si	9.580579635742373	6.483429763358084	7.98586637247479	14	0.6945504207583095	-0.2677999023833235	0.17547356722106214
Si	11.310527933705012	9.775301558834974	3.7557275381926702	14	-0.3599799416528685	-0.04852138538077052	-0.4478816616696871
Si	10.447822130186951	4.610038741947889	6.4780552520255466	14	-0.21284715415473462	0.19966612562046349	0.26106797732357984
Si	14.61410790045269	0.35393567293054284	2.9720424632234215	14	-0.4819909732888996	-0.02020734515317181	-0.19860683022856246
Si	1.537615228747863	13.225291871211994	9.440661988367102	14	0.2473004796657829	-0.10677466150883354	0.8310007798722922
Si	7.7588760669734995	0.6134386568101823	10.740265720284413	14	0.6254092849310156	0.7304044844477745	0.2957218490495997
Si	8.75193262536367	15.022988852143458	15.46918314395195	14	-0.2774479750971792	-0.7086850722558237	0.18214275731099425
Si	5.598865209051313	14.102766923687803	8.773747107755193	14	0.1290921127982509	-0.1976802038711811	-0.19825561724183022
Si	1.473352272164938	2.455692599295354	2.204662914551333	14	-0.5342240063098359	-0.15211327561379273	-1.4703266865696734
Si	13.384690892490013	3.8337645245817735	12.9356568649805	14	-0.8886120510019143	-1.1259340709202026	-0.4281844238120326
Si	14.263930122572232	13.781227519646713	0.681131594389956	14	0.13377152448092036	-0.556087657510247	0.44927391520054727
Si	9.773925959381648	4.396802791409583	14.897214137884259	14	-0.24397269804991525	-0.37971728875351723	-0.9560565144284426
Si	15.809602199608104	5.371837193433901	15.60689392974894	14	-1.321742767228848	0.5431709386028871	0.6110694592289536
Si	7.140367858900289	15.279832453051354	11.93953594976284	14	-0.23995483176611987	-0.7817157762114378	0.08801099199292485
Si	6.165266234495058	0.8295471344548357	6.072558373364176	14	-0.7105159563543011	-0.42885239697420713	-0.29306152637484245
Si	8.793585907975972	15.906636886671434	4.07460264055122	14	-0.6850471012739782	-0.2984024834563861	-0.3511543655309282
Si	15.6316202889332	16.37989884400429	5.097704324069137	14	0.22646732747768705	-0.4015392880477421	0.5859153074398169
Si	3.7414288459013147	10.4587760991353	8.254237791924197	14	0.27785138152191047	-0.5399601422790862	0.4751112096732473
Si	10.257489336696914	5.613803333746479	11.460132162212872	14	0.2560844038815368	-0.4558978538368447	0.6000468736109468
Si	10.116240358265507	14.63797184567694	9.870463856654327	14	0.05072507975066944	-0.5182255605657464	0.07874935640868745
Si	15.472419655657388	9.12329856979397	11.899676357021738	14	0.7441035907040556	0.7622568798169611	0.2829699379932612
Si	5.2971596865202	12.723878492408826	0.3925836232449378	14	-0.42969469107708763	-0.49635213916511867	-0.7434749554532794
Si	4.684148957549491	10.538910095894847	1.1252469111009311	14	-0.46630903060972034	0.652817010533262	-0.025144895809984184
Si	2.4074662794859356	3.577930898957845	8.59077270561977	14	-0.5803766323591538	1.2289436057982113	0.5046820061813344
Si	11.78375054135148	6.519570810735491	8.964930838213379	14	0.4816464451759997	0.23854689449280675	-0.0053946931827347
Si	1.4756345539754605	9.417612909565143	2.5232756856672935	14	-0.2247372307077594	-0.8364944606098528	1.2710963633009749
Si	5.953630504536543	10.884228187506348	4.986843140951111	14	-0.046996462815390695	0.2552040574199181	0.6200372174750981
Si	8.69248672622278	12.890927748548842	0.8188948464354644	14	0.20822482101017242	0.40930582588831343	-0.03910882591424041
Si	4.238556388028687	3.7900076733179615	6.988504302565633	14	0.12882574628708354	-0.45007044362872917	-0.3702286245695108
Si	6.143763270454107	5.241512671686051	13.596124955305788	14	0.02329395709000958	-0.7737597479087716	-0.08646550058498384
Si	10.426273258178549	3.5779079449741187	0.6864044523659908	14	0.6103307806704751	-0.12144744534985458	0.6452466480286181
Si	7.0953485385315185	12.136805765049086	8.792713656594364	14	-0.9992693386547035	-0.09935470866541819	0.6912545208484118
Si	11.188786562300615	8.294077709822105	1.8308638478460193	14	-0.518651592717295	0.11900592373784197	-0.334691063944956
Si	3.3083347205196016	9.663707487807963	15.941666305408372	14	-0.4734669878210127	0.634409953325258	-0.15845670665966208
Si	12.525467536217318	4.481639075692534	1.1566086111524223	14	-0.7521663198775079	0.41498745442477664	-0.1921638974068034
Si	0.43540427988676084	5.359179710978991	13.52732694736661	14	-0.24557166844851533	-1.0033851640511966	-0.1415905128700227
Si	3.3257092466303106	0.3011267542271512	8.406298096690795	14	-0.2687699804206154	-0.04792591738862422	0.2542414355880547
Si	12.905031331978522	6.83840328426712	1.1632964182681704	14	0.16946617964053615	-0.15513663835975489	0.5929549938063824
Si	3.1327088723171985	11.0103931194889	2.872263135534505	14	0.8301826541594212	0.09616293852098637	-0.009409474140145925
Si	0.7134098142202417	6.076319547554792	0.8361398464951456	14	0.09317300014418615	-0.3396245008332562	0.7615747655755257
Si	2.4545367022576974	8.326744507805476	5.630156407581358	14	0.14021265752895531	0.3232121071326229	0.6394503481948762
Si	7.324691627364777	10.741231427171194	10.786785247446739	14	-0.8726105199314409	0.04355118168639227	-0.8427281054585517
Si	12.486134245531662	11.917893622249263	12.37682901459624	14	0.450623231272561	0.7375454723639537	0.5282109622976056
Si	1.4051084389757278	6.626777391730202	4.512971263479234	14	-0.06668932979400087	-0.7979062835229422	0.10118662120602367
Si	12.994181325631795	1.9201122157152615	11.223963542361506	14	1.7834024680881444	1.6448656570068616	0.6042058935768183
Si	12.382997077937608	10.62786170154591	7.041029575612975	14	0.511793940607396	0.4971165287767986	0.20693386902892605
Si	9.055458070890241	13.843521352339955	11.902532488425424	14	-0.2341395057530089	0.33555341266933375	-0.41503656253639143
Si	10.713309545538149	10.422523560979794	12.489093669862116	14	0.10806021416890757	0.05963627367977067	-0.9087872573385843
Si	12.381144363536826	15.819067438754763	7.436634926858482	14	-0.4965375158587014	0.05745417659456099	0.42553001467951185
Si	3.5923541985894305	0.34004195449493346	10.729003512126024	14	0.4513595958362514	-0.07312660618405563	-0.07495671895093703
Si	12.481538530075559	12.403291678692385	1.6306149333861248	14	0.748938554258594	-0.3142656890606357	-0.01953988621206137
Si	7.59114638917302	9.9015501089011	3.6866032557705215	14	0.22876563852336743	-0.6881362843161362	0.3223369028816445
Si	6.019046079016593	13.149415838433717	4.101158760152537	14	-1.1088801864421922	-1.0432547800296688	0.6226980543709194
Si	6.474346544083447	9.23061828113705	14.048695535879453	14	0.1713199465763629	0.15053050317870956	-0.5100813273536454
Si	12.233869964377208	3.839981775031128	7.807364718025507	14	0.403153170857199	-1.0006366524639583	-0.5348205027441102
Si	9.177538833339737	8.188209018164596	6.531787248788798	14	0.22505784754118188	-0.016339117199009025	-0.7505516657364548
Si	7.30884845988268	5.612135890785774	0.6896639180551568	14	-0.15214438598816654	-0.12693341277145456	-0.2995905912248265
Si	0.0990874290365883	9.066013624263908	4.688388886257832	14	0.7244564894001441	0.08843933813926154	-1.2633943602039392
Si	4.884848753832585	7.004057266110616	3.2003755767727133	14	0.6168667875048235	1.1797966704930487	-0.8986527314981565
Si	0.6945514770186393	1.5995795078176038	5.609542090624678	14	0.3617087528701361	0.6234187351921568	0.702650173848372
Si	8.477588251434568	7.0990408507709555	11.558196499403365	14	-0.14532067246849353	0.6926686287744932	-0.44192415353237197
Si	8.48511223938607	7.957793650377257	13.726100248586942	14	-0.4529943045988016	-0.5672953627113045	0.05712198978719786
Si	3.7814966640662213	10.094516052238623	4.952615472074337	14	-0.44673931957594526	0.46995202973783823	-1.1762179489979345
Si	14.430074335925317	15.472293408746893	13.393728203797197	14	-0.3450546752694089	0.7268566162165022	0.1932455614149897
Si	1.7971329687598983	16.276812503088493	11.93679294870752	14	-0.20705676786322913	-0.9062194944553524	-0.06551999109439753
Si	6.080008580653697	7.436557867055972	1.2389527486307803	14	-0.2465312049539946	-0.058531726834235055	-0.6233773403965025
Si	6.2473709947145535	2.149799614304418	9.873352779463335	14	-0.7038053714687147	-0.05261458505044626	0.8813455931461118
Si	1.442666075063113	3.2888221947817935	12.963944370782903	14	-0.6196512945665439	0.42074518767871616	0.14219575106238552
Si	14.731124030349957	9.747514121963754	3.1779987217798884	14	0.47261080974940334	0.3683105800006803	0.3109826446773386
Si	10.790659551985723	9.554877732249734	10.214440779788092	14	-1.1294965944517998	1.5577828340345101	0.6490410852600926
Si	12.851717425633147	16.18326354241106	11.730641581289378	14	-0.3113446563064154	-0.23618507714571874	0.76328017973438
Si	7.382927523649224	8.810796477060064	7.924184099490832	14	-0.297099447280135	-0.6790852222576188	-0.003268646193504253
Si	4.112466876278381	6.282472554543201	14.414022943019415	14	-0.021110574452139833	0.36275390718277634	-0.13582918006863487
Si	5.598432362501042	7.113564164188778	8.045638546098647	14	-0.2509781887157227	1.2398011264546647	0.5390592269749063
Si	15.65284124688837	3.518686666959697	5.623726012997401	14	0.4259833005474538	-0.25130934708095776	-0.41174657616872995
Si	7.450194172959791	11.314054649347565	14.314996178082676	14	-0.35302021666175964	0.34014694943431023	0.3654116587522133
Si	4.934112921620495	16.336943742600642	14.769998241361085	14	-0.4401490624193417	-0.002600415920797767	-0.8326941098361418
Si	8.881242253116753	4.72733195922014	2.0842036870950884	14	1.2416533507272993	0.09729319641972346	-0.38278538873205
Si	2.370869431574532	4.5467792023678655	1.551679462491155	14	-0.5289154451553261	0.594355474874267	0.33115090902964417
Si	14.689069053022441	11.170616844610809	12.887914218399604	14	-0.5372918491778365	0.6172845921193476	-0.44993134683090913
Si	0.7402085902209538	5.283252851522462	8.575577168392815	14	0.4256930227568092	-0.2034582488571499	-0.2561769636730622
Si	12.775336405212887	15.063284570575364	9.699291081294868	14	-0.46922286426904425	-0.2181749985991455	-0.3289672692812424
Si	12.137274682145211	11.382951031502714	16.065537478588535	14	0.1299572897384807	1.0046779158061672	-0.04980410982499239
Si	15.284990541108757	2.159402577353434	10.554076120857012	14	-0.8528199509506649	0.1578545537936834	0.057018117132263874
Si	12.645811993754931	4.1812599655067615	3.4053530118802704	14	0.39237792557099044	0.146075548990489	0.15521454285095534
Si	5.0507257172322815	14.796703561856624	10.967538031871486	14	0.43747614132851576	0.0768369682715613	0.4116825556462583
Si	8.63633800288718	2.3326182572645524	14.445591228924446	14	-0.42660627936652573	0.0027099450074360753	0.3272852521808015
Si	14.07593043757097	7.5172509572762864	3.110961612306587	14	0.5389730949466814	0.08626649703320438	-1.00542739300699
Si	10.5568158427718	8.873336245293233	14.18451425758927	14	0.6911390782195371	-0.6293615880291472	-0.062230776058332084
Si	12.01017519511094	2.2915470220967435	4.4841131872242	14	-0.03764123899749989	-1.3221711133751846	0.5124480298008417
Si	8.121401448528559	4.740017314369575	7.746433368223459	14	-0.2105706975042755	0.12473023262261963	-0.37967409418413883
Si	8.7931530614257	16.229269884080068	8.781777722918944	14	-0.8886143649967024	-0.4327550777396599	-0.4100257353779548
Si	13.634948339638663	2.5975400208739168	6.304106684205446	14	-1.0642946490855043	-0.051957924751680436	-0.28630183337764115
Si	10.229749447363414	14.678705329369917	13.764572764882855	14	0.043991869138265645	-0.37225439845125546	-0.6286555625082345
Si	4.13739982131618	16.329139388133626	0.6014156880482844	14	-0.447533791119871	-0.7568009943276067	-0.04134105955319298
Si	15.8300607573895	0.6939087654742968	8.90381913568205	14	-0.05310823727191469	0.15125709754218342	-1.0795251056704656
Si	6.83460931867118	5.501907581790492	11.336146219114074	14	0.05565568842311741	-0.18009255792870818	0.18388211006007443
Si	10.102433537054004	2.298123338434391	6.038361856322459	14	0.22756107568087802	-0.004687382109161963	-0.4225778715509177
Si	7.680737427227894	14.05804928424801	5.257549308459558	14	1.8118514913450507	1.427264529115173	1.434034763644187
Si	14.302715796788988	0.521045593170407	6.996469334918735	14	0.2568642201251377	-0.12067457109061808	0.31326270087524594
Si	13.829117727551564	5.25387011278225	8.539113125672971	14	-1.1477468142352747	0.48655391390056635	0.35717306597486287
Si	2.4807288372599228	1.8185441168659426	4.145702605144115	14	0.812524045710112	-0.6167266622648755	0.7353150384987253
Si	10.991147843704479	0.37450244234950475	13.206608968028874	14	-0.024386676851072514	-0.6749825094982587	-0.3337978619567366
Si	15.611981516284898	0.7768923353564651	14.36231417596463	14	-0.971634070231624	0.19545542643765698	-0.07189658939889677
Si	15.49052706967708	12.563741664511026	6.1528645250016725	14	-0.35593147921576335	-0.41248242651135636	0.5028508649723249
Si	10.398166105105423	9.883796842058903	16.247646187623417	14	-0.1238210897814153	0.06171706921536651	0.5135461488830769
Si	3.35605441311677	8.101656103812953	7.835178388020985	14	-0.046471700219548474	0.19575778842330638	-0.34748128447056464
Si	12.117004674944429	0.4396851978517568	2.9146197937909992	14	0.13824190530106184	0.278712444693628	-0.19824456148895359
Si	12.07368886808222	0.8257384127264996	15.249174128644054	14	0.37771671170391	0.4251991134248087	-0.1527305980011603
Si	16.261087384665558	11.294696243214778	2.2340915612589973	14	-0.3010460939465623	0.018273359731356426	-0.6513445385164133
Si	6.50106826028165	6.141700691059252	4.516775066496772	14	0.7076052080213615	-0.06399095476050547	1.4743255266740996
Si	7.664133499142289	3.324069676364131	3.406249856815871	14	-0.3741233349084711	-1.122005679101548	0.7037153827825094
Si	5.014889629924385	6.033290665489164	10.065449750559782	14	0.04836506217730551	0.9240647651509041	0.4575551883262122
Si	3.437690256240139	14.0265334645915	0.6010041559114732	14	0.5950933821011496	0.6396681208154927	1.4377546388213773
Si	11.3808671376944	8.900007134813183	5.8807696414777695	14	0.3420259132022745	-0.2630050480717794	0.12003436586590122
Si	15.412629446760603	4.466487806862765	9.995753258114737	14	0.5729559081841425	-0.03270883055132782	0.3782167916886788
Si	0.884602264422894	12.530489539942629	14.841098205953982	14	1.387430394390119	0.3294388099969575	-0.1414359894402818
Si	5.782565940814653	3.886980056711178	0.48325349853495797	14	-1.0881408795982819	-0.6232590695517757	-0.3113323150008787
Si	6.834397814106842	9.608617926864316	1.4943699234070993	14	-0.42348881416584616	0.11041303264737508	0.28131260350389375
Si	9.609026179860594	12.736012951948824	5.781008349061781	14	0.034253293517140765	0.431733834706497	0.011018728960026607
Si	11.468157858665823	5.175259276799984	13.443528511062148	14	0.37584314725711815	0.1873857552798402	-0.028948589020611253
Si	6.0154095121662055	5.323601036202885	6.756874013211053	14	0.43516677452995883	-0.1228558968442317	-0.7299522270219605
Si	12.613679695678337	12.812897320440804	10.195589000867555	14	0.050829466626667444	-0.09233173448343371	0.4455643244446376
Si	5.791729499032333	13.014410343575921	14.339038836465939	14	0.4661773900173288	-0.8547642207937608	0.9156125135214493
Si	2.573995791851572	3.8569168963105014	11.035995009195299	14	1.575471267305533	-0.38163713309607183	-0.31991209345421284
Si	6.833312418590631	13.504108992827234	2.0156663708282316	14	-0.02182277062582085	1.0334074466535015	-1.385467355478186
Si	13.071536250790166	11.236489859195123	3.6320531134444467	14	-0.2153262139044214	0.09777219334086704	-0.8814967741389366
Si	1.8308458125730913	14.587761645845445	15.42710357307044	14	-0.30287337849759155	-0.7019066101897852	-0.8660817121919886
Si	9.33183387237914	1.776643259143447	12.22623776478814	14	-0.547302190631301	-0.8188993584619513	0.4126708885313232
Si	5.0892556184875115	1.775325044649438	7.8743198489855	14	0.19242820703371463	-0.008038817893974983	-0.3829612523359481
Si	2.921930637607896	6.181189740920198	11.151148587270185	14	-0.026022414055750724	0.15391793443800467	-0.32532221326886845
Si	11.23924597681257	11.504492375334637	8.873052599637184	14	-0.2918060556470142	-1.0568582411680403	0.3776866297716643
Si	13.116652305804642	15.059898857975702	15.251312128271152	14	-0.16146361433157527	0.21220437782469764	-0.18092713871562824
Si	1.7777220963785931	7.202691203858324	9.360503398053561	14	0.24604783715380674	0.5493513615714591	0.67955624875227
Si	14.657271227280146	11.862284317531236	9.589244764599133	14	0.3526916294018448	0.01133600335653288	0.34963278540246456
Si	2.1098580430500067	6.913348041134207	13.2549221850624	14	0.5932491282550073	0.35181179716129013	-0.3223885820985795
Si	9.79061678469136	3.444005880905464	10.734994501878646	14	0.6040310584150483	0.2593365950009921	-0.36778170363632584
Si	4.517034118598828	2.381320052451163	11.589387684147173	14	-0.2500821585116511	-0.004947577967560949	-1.0372404504647783
Si	16.12780507815752	13.157492361564918	12.974096589871088	14	-0.5009842425098974	-1.0558822495885118	-0.8326079778079167
Si	6.76900027489972	15.031512977957329	14.221630849275055	14	0.5284030238650207	1.0512953976973678	0.23087060244897264
Si	10.37156571710692	13.082636141492205	2.3607696787348633	14	0.2194047582737723	-0.11840994152463165	0.8303441195735264
Si	0.7296366411446251	9.24484155319616	10.20110615481325	14	-0.09885668556490551	-0.6287830893321138	-0.7664133286775124
Si	3.2384693523371393	14.385251763988489	8.259233562525248	14	0.5540667687286106	0.03279419124795673	-0.6294371785255595
Si	10.939566963130455	15.027530461780776	3.714449717171323	14	0.15370324714377231	0.19162962172127662	0.03271577253569221
Si	13.096083896815413	7.305254521859212	5.183886695540623	14	-1.2604414457437492	-0.019433185341275222	1.047115551778403
Si	14.209630834496883	7.25709870357124	15.574282877154621	14	1.1641070144979089	0.2200313366402924	-0.3030518132068098
Si	1.1889294598096285	8.33199605136805	0.4739587746959835	14	0.13163904972838955	0.4293825588912217	-0.032407754118338475
Si	8.69804486942513	11.578299270436998	12.352687981997004	14	0.5097887355682125	0.62243143074922	0.8081593373186288
Si	0.8174175936256362	8.931739377744831	13.445894410956248	14	0.27385845495972044	0.08614025576198511	0.6598266149675818
Si	11.559396664838209	2.407918800879401	9.543069547192705	14	-1.2575114141209087	0.12129806413075399	-1.2117434254274846
Si	9.944957731698214	6.677986089853802	2.9482768922151426	14	-0.3939833237328909	-0.4819950870574118	1.1126869649792035
Si	4.351812983305604	0.12839310797428963	4.382686091417773	14	0.5875680139396081	1.0878724562028583	-0.6732321009963018
Si	14.307496783685167	3.286223475909898	0.28611812801053943	14	1.2112793409171978	0.004552141969322174	-0.3071326715709488
Si	11.42411408260543	5.718286588529066	4.605306942159693	14	-0.05781850221842597	0.42624041107946864	-0.22485678710514628
Si	15.797636615805523	9.111734680706602	15.361896224014195	14	-0.3680670963268623	-1.030813201385472	0.18582535146104232
Si	2.3142403141509407	11.07012102471557	10.153737330253042	14	0.20850352882687645	-0.09982830626538947	-0.7161942424538481
Si	5.545652956062441	0.5439618667808048	2.2178827696075425	14	-1.1842891628189434	-0.01963475999837484	1.3484933183112646
Si	9.521278018784907	11.25512685441079	3.922396414030932	14	0.6329796474356595	0.6678623475351725	-0.5226123804629831
Si	13.841953923165486	2.3889719268834253	14.75775557018352	14	0.20554804326136622	-0.7696166687958849	0.05250377041114788
Si	3.3213889789789266	5.506154068779899	3.4882365679762017	14	-1.961453054171591	-1.1143304154998424	-0.12267591947182133
Si	15.460647541146217	2.40958460426984	2.170450001806955	14	0.2563160604708822	0.3810095262874236	0.07937387789095142
Si	6.967125945864911	15.358982707651192	7.194932757358759	14	0.5931288005260243	-0.2961021155264496	0.4605654384350416
Si	14.575740316653814	6.514458630645541	6.799540550247855	14	0.3772168888296732	-0.38747199950961586	-0.9270459617696158
Si	10.88648095705208	1.212132658216608	0.8366251592939349	14	0.1014434746275065	-0.36931356818607003	0.36720423338142055
Si	0.4995016398728018	13.503423652455972	2.9579880669017267	14	0.23050910504095984	-0.18846613373536641	1.0849606794277908
Si	14.995534248036273	4.294352603757059	3.5193310180743054	14	-0.13512135477399811	-0.9553785139555196	0.33518265928216834
Si	0.5381528693277291	16.33991464392296	16.15375947547115	14	0.12347604744745141	0.3944664344225467	0.01586371982531365
Si	11.68112328011021	14.18811639346407	5.843979324274957	14	-0.4941260761789345	-0.770799634353685	-0.7280755772487845
Si	2.3150863324082893	10.740473945708217	14.01969153787073	14	-0.9432665510133661	-0.5608485732315652	0.9975400132163719
Si	14.963082233757774	5.393192596150895	12.124451603093418	14	-0.2689278462872725	0.6432753815796605	-0.5555379551927994
H	2.4223011112543325	8.135905087103188	3.001764593008733	1	-0.2819918895294769	0.4872568540950949	-0.2116161089274477
H	4.936532927333377	8.55045403320414	11.471737040556894	1	0.17559363783951307	0.7114029876897522	-0.12098078973424771
H	15.470563662116072	14.30119919429277	13.856516586269697	1	-0.24246500189018041	-0.08884762966410104	0.28532018536640863
H	15.287569585137458	7.76851182142784	7.45325033193595	1	0.38743651825619785	0.267912259685814	0.18999928383777073
H	4.425214904552216	8.433401832761017	3.4916649094027843	1	0.12336497569762103	-0.13074533351910608	0.2955261879347364
H	7.283436760327156	4.564707903228545	4.339171896553356	1	-0.23160105347042673	0.4076860295366201	0.18810206522203346
H	4.836251891143009	4.684093212160441	9.507877810999418	1	-0.2534068548011346	-0.7755762338174561	-0.4349338323879533
H	11.35047934238102	6.319749824115069	10.554108912262336	1	0.3173183624072475	-0.12461710398853312	0.08445643888782015
H	9.520082772060862	13.811874367062149	8.373570634607576	1	0.18634008674613597	0.17125129806431497	0.27912407865538374
H	15.753022269292499	11.496468318451953	10.585088592441807	1	-0.36306192560013006	0.08753070951912122	0.22072322108194423
