227
config_type=amorph dft_energy=-23270.569532237274 dft_virial="48.05539530139717 -1.573338160472204 0.45183044608432543 -1.573338160472204 42.14125749818627 -3.4169677485127097 0.4518304460843253 -3.4169677485127097 39.93051567270225" pbc="T T T" Lattice="16.3747472526 0.0 0.0 0.06417263448293939 16.462712394840963 0.0 0.108400826812212 0.40922130858972655 16.29911229504024" Properties=species:S:1:pos:R:3:Z:I:1:dft_force:R:3
Si	15.659195359782258	15.537154368508629	9.394772164869362	14	0.4348423010385561	-0.48669095381413036	-0.19662887890577255
Si	14.190727675865793	10.190249199027043	8.533234487870516	14	-0.14082355215302253	0.5485586898012574	-0.6069140388105303
Si	2.670696714778181	14.145171491534335	5.842349347204604	14	-0.24632525941785074	-0.637086731074064	-0.23221863296832626
Si	3.41274949854953	15.718054388781727	13.365381465244644	14	0.035635005516188346	-0.3653358111452689	0.22109346024804555
Si	8.587102493907395	7.623031062036943	4.621661063765033	14	-0.04292203221455203	-0.1317616914521606	-0.5790679397511985
Si	8.691003540174592	9.42457911729327	9.708024354761049	14	0.2120670808006017	0.16242803593716282	1.1444753398259184
Si	14.444968551608563	11.362322495348371	14.591758335879769	14	0.264751857026288	-0.3391796996128706	0.25298545063916233
Si	8.928132805038393	0.8116601968674263	0.10400911959906468	14	0.7940964196595467	-0.2790870547387736	-0.3163338861801628
Si	6.278643025427055	11.26690029320857	7.294828727903631	14	-1.0038849869254332	-0.37282132717434807	-1.149314417148969
Si	12.731835944142649	7.992564895710543	13.504363770025812	14	0.654602900288637	-0.7559813259515437	0.7218254773260364
Si	7.577180132254938	16.308675147435757	1.6841214677584815	14	0.08768111918034986	-0.03987372974698447	0.4890088052602437
Si	7.982833383418322	4.438334305949098	9.74658852201565	14	0.7390714233714618	0.9892728811699677	-0.4809095663912453
Si	0.5385032130984541	14.666124250527451	4.946909393493975	14	-0.21185625016434953	0.43200277232298456	-0.14238832685086467
Si	5.273328517651479	8.7009741237767	15.141136018628675	14	0.09582021018181062	-0.2575512194666813	-0.10030704607600102
Si	4.891405550206562	2.6188198780072187	13.512073001032336	14	0.3108977982017737	0.2380712400085794	0.19804555793717413
Si	12.918005358081635	8.890325151106865	9.987082797439859	14	-0.67108162850653	-0.13952694374007185	-1.1186059065367164
Si	8.544899857813268	6.56621142425304	14.681044920224021	14	-0.06800907815483288	0.4228979741632762	-0.25631966001833034
Si	6.705531048827611	3.671968297457089	14.599745937589589	14	-1.2322377059343848	0.37305246954262944	0.19889659379814315
Si	12.053819884452043	13.708578155437161	14.166466850336342	14	-0.2437788367087761	0.3210840032591364	-0.19421178279430135
Si	2.3791983766115714	2.0162259041620882	16.290697312427127	14	-0.2711873336426186	-1.1765380516102928	0.5738532239408741
Si	3.9054689183297144	5.223295477421161	15.684125912474341	14	0.3175801009288386	-0.14679494425906642	0.8955226678814083
Si	1.6258142677414233	1.8753539535479704	7.676537186159538	14	-0.9372478505694314	0.5823702674243967	-0.3329393698903392
Si	16.302433093783065	13.481299938520523	8.267249643398182	14	-0.29356186347014324	0.7509221620130884	0.42770928354886933
Si	15.776479486979005	15.644163341804372	1.3780938163546401	14	-0.3406858531094133	-0.4544899165635317	-0.15390893556938415
Si	5.764233615436075	10.106343356629996	11.574598168832175	14	0.2779290289025789	0.03894144695789878	0.18203528510861205
Si	2.5998595581634336	11.773266427349071	6.108922045103306	14	0.9698201554282594	0.5251192081501275	0.07739464101550143
Si	0.4923542629164515	10.908083731611796	6.062322789371857	14	-0.9481894463698537	0.44677145839244714	0.08841542685978417
Si	4.178398293111875	14.665418498920864	4.227678094968574	14	0.4710974571579642	0.8740485391369995	0.5344050121243743
Si	5.861918807646187	3.2737933933639662	2.3986581262465614	14	0.36182830926752296	0.20662379372731618	0.7501076358476654
Si	16.30736516765555	9.406480109154971	7.875744173861043	14	-0.17121581681089693	0.8142492573799315	-0.3271991201525766
Si	2.8495629914425065	3.392741194881578	14.556993109987774	14	1.2705628589470441	0.7728390350936265	-0.8736471895965244
Si	1.038032890260995	14.887021228439751	10.89153541203832	14	-0.19030164582342013	0.5750271906300538	-0.21981947756191214
Si	0.6061538438978457	2.084385789601036	12.192628616912332	14	0.30445255138522653	0.36086954409363975	-0.51318285170134
Si	8.399241568577214	2.125429093589678	4.817281981818218	14	0.18124364178053845	-0.3088231733189462	-0.36152414750814943
Si	16.16051807176896	6.669960185370788	2.7740917813552732	14	0.6957606400325034	1.033642445679763	-0.3241361623846841
Si	10.863834252111097	1.4996550275337666	7.733290422662325	14	0.7863267964925914	0.1627558518654817	-0.4231589413532712
Si	2.901366141850832	13.851889943391916	2.5979469876843297	14	-1.1012869411001989	0.08610657428229118	-0.4236217403108979
Si	3.9233010180877956	11.68240459231912	11.776040309533661	14	-0.3950307920403192	-0.8112847729458007	0.22587160237500872
Si	9.376170451990408	12.9443932632792	7.910869644192596	14	1.0153991678806524	0.45657071209912753	0.17824958963522602
Si	14.25189554422788	8.355920537245737	11.740132126283436	14	0.12153203471488747	-1.2870575280179222	0.39745997234679514
Si	15.72942992569811	12.824423677533025	15.797534136996399	14	0.17362108583789543	0.49233247310759914	-0.2715321188660505
Si	4.323807686189689	3.8628290764839437	4.14023366969024	14	-0.5496691501890293	-0.08398566950370104	-0.07408228603155466
Si	0.4132216593435367	6.0418658176291835	6.247643991403157	14	-0.30769960029404153	0.6118351343932937	0.3256739404766647
Si	9.014607845279373	11.893258937741399	15.967338628531136	14	0.7077023958024631	-0.4159847861784621	0.5188020023785236
Si	13.45599276664163	12.935092406839722	5.54052345594578	14	-0.491756031294822	-0.9692516840419746	-0.9754665598218365
Si	4.593096954657597	13.838392239231599	12.30574373345857	14	0.19894390213603388	0.5150823843118654	0.8266353001492129
Si	10.072077560529205	6.857403554646026	7.873463171568757	14	0.10549013729088756	0.5526004673645303	0.2794310686306094
Si	11.48017646374951	10.255674501674807	3.4076536772045207	14	0.13954571280890893	0.5013351983860976	0.8141451276144656
Si	10.745169733720953	4.9174987099535805	6.304836071132313	14	-0.5452586761228474	-0.4067460334315739	-0.10513121098819488
Si	14.6623351340132	0.8296953434914398	2.636543904433433	14	0.8569925977747332	0.1490706295779295	0.8831070574009453
Si	2.099552080506394	13.674477744283623	9.142201513346357	14	-0.5004538234823509	0.14510212851628093	0.5591223331196178
Si	8.218950688901915	1.115921013042712	10.62524108484291	14	0.3811329393427908	1.11995008039809	-0.6844102384861775
Si	9.071120372997546	15.671864501731594	15.229086423597115	14	-0.43168395526328623	-0.8199056890842572	0.4844024129686665
Si	5.914205013098464	14.632023839373913	8.486145627196214	14	-0.06807746955634883	0.14292234542585938	0.2019947757089216
Si	1.7002833432967976	2.8559114809523396	1.8835740766687759	14	-0.1988297450598193	0.2605383296276293	-0.3207147925351631
Si	13.538324995827704	4.219643006491724	12.750350870861164	14	-0.3999171777012607	0.20433525288185242	0.17627806607573648
Si	14.243233302931255	14.199463603525055	0.271367223894263	14	1.1166665217937288	0.9430873449725518	0.10875826926332777
Si	10.070495759944604	4.825657665037923	14.763648970214488	14	-0.025584554819729505	-0.15912956492194483	-0.8291855795162677
Si	15.915735250039292	6.234621154913164	15.291593746284464	14	-0.39393241584755195	0.011658934184743478	0.26621635861664433
Si	7.460267711820824	15.823700983106052	11.711918436767206	14	-0.66785309155602	-0.5966360452932384	0.15083517915914713
Si	6.447216135968396	1.2407424363998314	5.814690761620238	14	-0.4226066679305034	-0.1782058808447835	0.37137816575814897
Si	8.90458428101443	16.463442708568433	3.6139198184466217	14	-0.8870138519349102	0.5092477750088534	0.9173356683070126
Si	15.853485010883809	0.3973807288513715	4.958448677882882	14	-0.7134025362972315	-0.6541097622882325	-0.9864053274064065
Si	3.935033524494284	10.970928374092551	7.872289102190745	14	0.5354568513108469	-0.28995383137437947	-0.4953128983947149
Si	10.848445264643102	6.257689898842628	11.285354633362251	14	-0.784046997405216	-0.4178550081883377	-0.667488508821623
Si	9.999077299802389	14.745425513997068	9.445088488227151	14	0.28114908120553234	-1.3329509866509694	-0.3059211667440951
Si	16.08857889466411	9.873653285746373	11.84319151054185	14	0.05359700439327483	-0.2930689825802709	-0.9110973954687372
Si	5.462209589735496	13.274856950008095	0.07679265219051822	14	-0.679711286403075	-0.18184399487279304	-0.05171264130413832
Si	4.7835893018712685	11.075828279942156	0.7251065578396332	14	0.6074046057056146	1.3274508781501086	0.1739897823408047
Si	2.227040950190962	3.883638105292548	8.783995729822106	14	0.06603601193215125	0.7150313315175452	-0.561573110710783
Si	12.010723187157925	6.799938016637752	9.330668304324883	14	0.05254516520680226	0.5889227293327942	0.27990749444643287
Si	1.5734920378451906	10.37788251537041	2.238763631749098	14	0.21153100534135083	0.34651660575444515	-0.6187012711507491
Si	6.192662502553103	11.574793028324482	4.872961034901234	14	-0.6170418797771255	-1.1783193133760916	0.7793015083158187
Si	9.042413803589012	13.509613513994996	0.7088595336156035	14	-0.6309006516737877	1.258371963071562	-0.32314525839429914
Si	4.6566195116746085	4.211182174586305	6.453648136689217	14	0.3104254861544625	-0.3589761821358827	0.9423206413660836
Si	6.723341861414264	5.736177123493471	13.505961945357665	14	-0.061898846361500975	-0.21811612028731409	-1.0496110666021388
Si	10.664504453805195	3.9448272608260635	0.5730572047508905	14	0.06906400266768964	-0.300658628374816	0.7429874738845793
Si	7.270269881974181	12.665382307367421	8.68261639463181	14	-0.43980016342739764	0.563969123758629	1.0437016381343105
Si	11.19400155591472	8.738128425292848	1.64260820852369	14	-0.09136397044092998	-1.0654336487423302	-0.24247168676401284
Si	3.6630866345472786	10.254706754112178	15.576421012420365	14	-1.3982969139151926	-0.07134971529730129	-0.6027678743712596
Si	12.757796468436922	4.88464932949014	0.9776280851208787	14	-0.1944611800103557	0.5022137450739922	-0.4434164230601859
Si	0.3986137473194923	5.922988427524758	13.110968654655723	14	0.0383115261544625	0.6906922201148954	0.7721618059522994
Si	3.470955175133622	0.7556667486371605	8.187024844183519	14	1.0969163191664792	-0.7339487531315987	-0.3470493387767798
Si	13.037216793030012	7.278013499949935	0.9408569526904402	14	-1.0728325185221204	-0.20644613034969395	0.1645252865468076
Si	3.431876840815292	11.659304736369878	2.4405791166879425	14	0.22101067065673677	-0.7366242453277448	0.5703606344739851
Si	0.8611070211461025	6.762418558257869	0.6228528111460472	14	-0.3635982581699129	-0.3199601731236996	0.6516996081611257
Si	3.5541077791570497	8.416754360763871	4.96617428363666	14	0.28461261718230385	0.8041139602079078	-0.18442409906156162
Si	7.619097847746867	11.323291647797074	10.662842416959057	14	-0.7450646698727269	-0.5116270758721184	-0.9784572695302327
Si	12.765672721865421	12.775710441931265	12.14392684363365	14	-0.5072114595952961	-0.045718109250213065	-0.28926708914336796
Si	1.2761773894544577	7.588580231292197	4.562852796482044	14	-0.542838751795524	-0.20951011655971444	-0.047596044576049226
Si	13.31641769600992	2.767735104471814	10.910670941677706	14	0.45893252944621554	-0.25387710996418966	0.1824592603759045
Si	12.697634009556143	11.099440665480406	6.853545664193313	14	0.2690345471580587	-0.23324296132787328	0.2809781027017425
Si	9.20442882785569	14.328301752383236	11.602715247339615	14	-0.07079332810602124	1.4409731484611386	-0.46633448455238985
Si	11.12236367415932	11.11720562877475	12.110432298128456	14	0.01494300701016862	0.32464678390126556	-0.14456888127288223
Si	12.473157511894426	16.247577690486857	7.334858435037336	14	0.5622673091472229	0.22087105963785278	-0.032500056799331795
Si	4.0204753181836255	0.8090287749839334	10.384551949926395	14	-0.19557806816142803	0.6670496211434738	1.1252552991156834
Si	12.687611026762827	12.936715144292455	1.3693153143525214	14	-0.15698243486908917	-0.5364798941177338	-0.01737732952728482
Si	7.80735504196056	10.62100985015284	3.4605441108304187	14	-0.6892827401783902	0.14964501450645057	0.6136382505543135
Si	6.254950403627267	13.702824069252598	4.0740764158402865	14	0.626077000982658	0.22668767120362374	-0.297915258998218
Si	6.86914752337559	9.662309335381241	13.684598975560453	14	0.17087385980331724	0.5545555358499709	-0.13122715865610182
Si	12.689350024921053	4.415683118074577	7.504125834862188	14	0.4393520197700958	-0.2177517946634491	-1.009473027228243
Si	9.56739802535572	8.649220097610133	6.4708760082736765	14	-0.25920701129285667	-0.10076007483341112	-0.076727439184923
Si	7.528150864031203	6.091579550288078	0.47794284785943825	14	-1.1297547334259426	0.19650855117678961	0.27154471728211926
Si	0.4210848129742352	9.764715367224277	4.049252299005344	14	-0.9839339809726804	-0.3690099206477606	1.1591676640673725
Si	5.225750052034325	7.497223878895217	3.3155146118888656	14	-1.203221753954386	-1.0285246605400085	0.18049313613758722
Si	0.9642204420704499	2.0815758829724893	5.394401761362479	14	1.4105209770493048	0.398308179991912	-0.03165930535964337
Si	8.877688758652033	7.721205859189905	11.320707712680612	14	0.5464714665023612	-0.6186629616814789	-0.2691751866190707
Si	8.92087551705604	8.507802867912503	13.467838258804163	14	0.10537160933562872	-0.03666139075999146	0.23160311035468287
Si	3.957656875298476	10.769361785311945	4.497527379792522	14	0.20305072866390642	-0.2792608614584156	0.2338196602511825
Si	14.569767050319527	15.783946371726191	13.076529286234056	14	1.2239384350714788	0.4501126097559796	-0.3793892157146664
Si	2.1466884279477285	0.3535127809616561	11.663933877418186	14	-0.23796916712736946	-0.33633888534463896	0.04894278954274279
Si	6.068803914334436	7.869963888080876	1.0070993552261083	14	0.5760888000167429	-0.3092409779334703	0.3116022810594943
Si	6.708300018588026	2.609494459446863	9.576882278964426	14	-1.4556927264189863	-0.6238349971434889	0.21543137211201546
Si	1.6695675924003708	4.139036675666075	12.724631055351503	14	0.6202166806264444	-1.545973233078006	-0.8552298479672397
Si	14.882501798198033	10.231518474527771	2.7169963126349073	14	0.08564043288774834	0.3843095399658337	0.7143993538298528
Si	10.888175313902085	10.027800243958174	10.087484560219176	14	0.6880645504777041	0.656184130060528	-0.3748751261040824
Si	13.191162341850605	0.5038820849822819	11.414705311809438	14	0.08162873725672129	-0.43220511831168024	-0.41439841419593065
Si	7.461518742510922	9.362918369038878	7.7923754231738815	14	0.8629506201331124	-0.9744347752568612	-1.0806198823157847
Si	4.541979906159155	6.796759678196021	13.90944554251008	14	-0.6141126194858808	0.2612764939650438	0.43805181180969693
Si	5.776870007890907	7.719411186891021	8.11822634360172	14	-0.33405034449917514	0.5472998766365129	-0.10799722208856394
Si	16.03088083524485	3.996175193260767	5.429933325425895	14	-0.5757913231312018	0.17749985532387083	-0.15895113021272655
Si	7.889505511452128	11.798522837511483	14.04047463255066	14	-1.4761623243148134	0.4375681868989771	-0.5168497621089352
Si	5.130810904938476	0.4926424584680973	14.343392719451234	14	-0.6230412969311592	0.06074004919371024	-0.01754573692575452
Si	8.955496645172213	5.108031994035383	1.9415013825495735	14	1.234076560459355	-0.5012161562097748	0.47034720862554497
Si	2.3842303364422954	5.154099070481124	1.2695898286347367	14	0.22930582775113054	-0.7596922022601134	-0.2959252234804233
Si	14.966132544841239	11.969016705905553	12.219831984523076	14	0.2697477717738678	0.08640713649421648	-0.3404760509152892
Si	1.0908725621704098	5.883672659371266	8.478926001132542	14	-0.5844142961539145	-0.3052377669499997	-0.3044767197752359
Si	13.29888197917711	15.566969508306165	9.455779560708372	14	0.10122055979624967	0.14306529888165964	0.27716309662770683
Si	12.4056149544269	11.923254199758711	15.73846714870682	14	0.4578020144369464	0.7134555010668264	0.3682056789036182
Si	15.549995445304118	2.752370679124699	10.267215423538438	14	0.27735310131086577	-0.8771942864962007	0.047063568664246554
Si	12.90223975142683	4.4467083516940775	3.2174920998853516	14	0.11642247711215718	1.1310953077398678	0.24266297699983183
Si	5.424074440858915	15.36273547319811	10.722726505136539	14	0.3624847124557568	-0.291474125950183	-0.676638301324434
Si	8.69291447317897	2.589250359418474	14.473899455054456	14	0.034215498268934594	0.1610959462707941	-0.541084229525055
Si	14.270757615588149	8.002614078099462	2.686075877397823	14	0.5378454081532645	0.027069625252647035	0.19815354436062035
Si	11.028634620885438	9.527347031050587	13.73113436977762	14	-0.8192158615268615	-0.1783501198532438	1.026035316369041
Si	12.23591198632513	2.5552154472539446	4.214460398986276	14	0.8961698150904895	-0.18658485597261407	0.39788574738781163
Si	8.52161824216952	5.077602801215877	7.525298383059799	14	0.0843029439002073	-0.15497105917713735	0.07298468117038344
Si	9.167105866442839	0.24160612076266247	8.570151355551502	14	-0.9257879199364674	0.3600586174756651	0.6801082650645058
Si	13.90471651550353	3.0373682426320263	5.957714354023347	14	-0.2929028891765893	-0.26682776746177556	0.20245937444027234
Si	10.426608850769972	15.25047511845846	13.38091455048846	14	-0.184031491279175	-0.8238477077611083	0.14638356740784275
Si	4.277642361260434	0.27979203135572567	0.24119675208134744	14	-0.5747196864337641	0.6559527305817147	0.24669678413661214
Si	15.954453339918064	1.2111123312462517	8.527839008650783	14	-0.44925668879490227	-0.262478228591681	0.10765192264406805
Si	7.146471880320349	6.2409647319988215	11.102447069075982	14	-0.7246922597580016	-0.03448597854861417	0.672766988043887
Si	10.542545336267832	2.629596099174155	5.681331545045612	14	-1.2472120804294595	0.16445818069795173	0.8813093405610977
Si	8.063580537070344	14.750739119480537	5.143444022443856	14	-0.23544819836096426	1.408874441202282	0.26735690093666203
Si	14.448010979648096	0.8950043854337097	6.717089982913222	14	-0.4117748583272515	0.3069539797511986	0.3710004703866192
Si	14.007505716432275	5.957956700282685	8.568929799406458	14	-1.752866992863938	1.0413470198821186	-1.7374958968179646
Si	2.8159210732120394	2.104579127912942	3.8865216982837305	14	-0.09441895778232992	-0.10810495140147815	0.4323370160146038
Si	11.027758571907425	0.9670696480924024	13.120210562005092	14	0.0785886623261782	0.1505950379222453	-0.8491134455211394
Si	15.829825138578524	1.1578452784335438	13.98495932694017	14	-0.5674496290305135	-0.14029159046228387	-0.6619701454729892
Si	15.665458700606377	13.112540630391972	6.078067108855231	14	0.697230798054564	-0.9329186234313661	0.16931165621079527
Si	10.768007593714156	10.349094072225613	15.955033005970806	14	-0.30705785240613254	-0.4004751075557328	0.026526607809031762
Si	3.6735779351120192	8.674094976161557	7.429524123854067	14	1.0419106061682952	-0.27976171277478046	-0.8804061112621298
Si	12.302033215731129	0.9382369931300243	2.6450194736113786	14	0.038501530837621444	-0.9289925456075	-0.7740777936368739
Si	12.459394536828615	1.4364337658662034	14.878900991277188	14	0.09029104819083218	0.23700705951657006	0.7273363844692418
Si	16.215753369201426	11.820160428531066	1.637310977787474	14	0.42583057689143705	0.3553882046616161	0.29353898063279393
Si	6.722604997787897	6.102006989338533	4.516710396198943	14	0.5557346447497908	0.6631510541465332	0.5450074791330689
Si	7.714716546853701	4.0778786321523395	3.69883762022388	14	-0.16884474348465636	0.000507279079665216	-1.1661361308165699
Si	5.445433661175206	7.891608028999363	10.49564642266166	14	1.0216032450181698	-0.5262980599394154	0.08983339144384582
Si	3.57810333378101	14.602431396139014	0.6395714280909518	14	0.997282388463293	-0.05268503333621832	-1.2357675764284164
Si	11.756971916358008	9.310416016922867	5.5739852519564685	14	-0.33575370177377317	0.5596542948103564	-0.12322870711565316
Si	15.5446720149723	4.989739182407876	9.715261993046699	14	2.360666263236195	0.0414421039922748	0.9365140571110613
Si	1.2214300594901149	13.13235734951707	14.36736862437849	14	-0.21781067297528048	0.31468889299633207	0.3498315318437121
Si	5.938018808027919	4.318228809800728	0.3564684228407504	14	-0.2497970229316467	0.3217460628790745	-1.150966866538228
Si	6.694808864326609	10.039670298241585	1.5153780598457134	14	0.13054118775668633	0.05916036208501125	-0.4079238567787338
Si	9.861848730451975	13.45907121912512	5.668569067036937	14	-0.17209333505666344	-1.2190857308902316	0.15900435209285363
Si	11.743857381283402	5.70385992231574	13.32303636884942	14	0.7745899578166473	0.2129006331453937	0.24896552747111075
Si	6.371163622353695	5.827166681551994	6.853170682481228	14	-0.1376574930617922	-0.11770982954595532	-0.43529970067501045
Si	12.092896581295648	13.685155716967044	10.04548169604153	14	0.031583457752699	-0.39157934025855246	-0.5432987225372985
Si	6.276992450903992	13.564247858203295	14.105426705002824	14	-0.4640081484587198	-0.41699857300619647	-0.12946877972765256
Si	3.233629413302789	4.531522992563644	10.790219938362307	14	-0.013790123384614222	-0.8065572815936444	0.8703443477022622
Si	6.951795785183639	13.982873184140189	1.7884024081619394	14	0.4871866629198548	-0.0031244071850439455	-0.8917066333652445
Si	13.261906162406014	11.80916314827622	3.3021167936867886	14	0.10766040729162454	-0.4016922688142908	0.8746314087130772
Si	2.1876023714330746	15.073857094591917	15.244832380555215	14	-0.6992496299519443	-0.0693082576731037	-0.6808155761380786
Si	9.49837191578711	2.4731746885689683	12.16136594945767	14	-0.04849490299597299	-0.4883148639343358	-0.22343779407895656
Si	5.248578087179174	2.196351398890139	7.569289141553909	14	0.6854399661668968	0.3738651959343282	-0.07788417946845762
Si	3.440845289885541	6.851248287153773	10.93834753948405	14	-0.8338511072302085	0.7315720233736538	-0.11919258598408473
Si	11.311642652601574	11.788658689766516	8.587461100872227	14	-0.21630040571022552	0.5743265644303135	0.6321417242118234
Si	13.207979207279026	15.641861052340655	14.855625925532342	14	-0.019630646229862596	-0.4384739873032652	0.7312429218926748
Si	2.2900820896387466	7.7804038454575055	9.03676287831214	14	-0.19323244877785695	-0.21152663446230655	1.2202401571789778
Si	14.984393662977338	12.099844386554924	9.640873153752864	14	1.171364216374559	-1.0831912447464649	0.3362116156312916
Si	2.273263586735601	7.374364150258959	13.041682186605795	14	0.6401162644727947	-0.4384603604450685	-0.8875591833733136
Si	10.138067791957184	4.048569472044911	10.59666878836185	14	-0.007258487429310043	0.929915058196369	0.0874162953323746
Si	4.953870298551055	2.9529433207470714	11.165833715690798	14	-0.24221714733731817	-0.841035289715766	-0.0962971502186981
Si	16.20877117697292	13.942286735599895	12.628987794123795	14	-0.18794008558686412	-0.010335586276463265	0.06390379429015244
Si	7.040686100644377	15.709426534454334	13.95479049260198	14	1.1890462218822815	0.4498619269872652	0.5941438729064189
Si	10.67387572165786	13.647701757576172	2.31787986057476	14	-0.020327158661090715	0.17299142214499116	0.2717306081967659
Si	1.1896090131541375	9.744037336393694	9.847024671764196	14	-0.7489382971480619	-0.23401377870285364	0.11948492065898554
Si	3.5664952754536414	14.877304453420058	7.761047256730207	14	0.9061179357952065	0.3723610993220416	0.8799821359948373
Si	11.071539733636701	15.7074926768038	3.636950900457404	14	0.704785476816755	-0.6579877604426119	-0.8413967871237791
Si	13.333349184669109	7.751477854435787	4.8192551388621565	14	-1.1051999062869322	0.600415570113856	-0.11315254536599285
Si	14.312542695627334	8.031965812549748	15.30318215491513	14	-0.1845847931440709	-1.1709672377131282	-0.39393447273180804
Si	1.5086087393314884	9.009808406859635	0.390708019345937	14	-0.13147449898790006	-0.051611339754524484	-0.4249803123620641
Si	9.083961449793035	12.1993488131848	12.142508790521575	14	0.07040611964480693	-0.8023926051960686	0.614219320356667
Si	1.1465319655567225	9.341192354384129	13.552299205133073	14	-0.35691955499029626	0.2753404400662538	0.15865365332718542
Si	11.799305550430155	3.1373164249124463	9.170105720139514	14	-0.5604600792176909	-0.3607597578964694	0.4810234663569279
Si	10.065113380522673	6.940901665836483	2.924826242239632	14	-0.2756376598412629	0.5500594439766279	-0.3933397760712578
Si	4.698794310698404	0.4577233099519277	4.180101266826146	14	-0.2737574105206387	0.7210317771137067	-0.48811148950351213
Si	14.839256090703916	4.360917775888256	16.290875797172184	14	0.011434733800826567	-0.21370127534208783	0.504937574050157
Si	11.597686562458343	6.00711041658554	4.404377992571382	14	-0.17478862476377469	0.5750585581149597	-0.6478360081965392
Si	15.919650452107389	9.598429808874123	15.344680676877394	14	0.9345577030729605	0.9642264586937452	-0.2593077986214064
Si	2.7177544634327027	11.534678172505062	9.751592644776043	14	0.4163925634822375	-0.15038806394397336	0.4180568399559693
Si	5.584936682919007	1.0168701669117346	2.0317000403157954	14	-0.2130518141382184	-0.11871410328400517	0.5681510265618498
Si	9.771604223393444	11.842218850555044	3.761084584429914	14	1.015925987360751	0.6572040875410308	0.06234030514497039
Si	14.358336313793956	2.8817197200971623	14.56807717640306	14	-0.683947439528551	-0.17432454025348795	-0.44078104010703417
Si	3.4460704717338455	5.774988549431583	3.2071105101272033	14	0.7034238194392047	0.5163363123765017	-0.03438544833059638
Si	15.659458993213024	2.89968445530799	1.9524053267450798	14	0.43585351676097034	-0.06409277053118333	-0.42919718219763897
Si	7.409474883317984	15.998842004770413	7.172160583810228	14	-0.09333703666361161	-0.6060079812957102	-0.6512324383244548
Si	15.1272846199277	7.533335109011376	7.14326242985884	14	1.0744510293211536	-0.6448951779313538	-0.9968815531438819
Si	11.127978574992236	1.5144708988479194	0.5826659064387163	14	-0.1451486655225756	0.7553686315537524	0.31743611903091024
Si	0.5511952796939443	14.025925669616726	2.681528610085776	14	-0.14264595160394347	-0.5132255320496545	-0.16226914162837763
Si	15.241136600100303	4.6842584475622715	3.3601750975456066	14	-0.26231650606704376	-0.8421066693026719	0.3377874460820104
Si	0.6862247204883345	16.857800659076975	15.836081929503745	14	1.2275765490994883	-0.10238064251670045	-0.17785801029496748
Si	11.887562163172218	14.666026002043937	5.606582461312218	14	-0.23944601002326255	0.3926633182615269	0.26219669255912487
Si	2.535115445001378	11.17469409142918	13.677541459494584	14	0.33258764268254287	0.7658227457854745	0.2521848084424682
Si	14.894150793393534	5.885524643285534	11.778778167274297	14	0.2977579073526249	1.2846867118022136	-0.39789423203536817
H	9.364621342753148	7.365660972094203	9.132600999032158	1	-0.2502109708881905	0.24506953157949043	0.2663971073206507
H	7.721282820501993	9.080373742669991	4.068795559851322	1	0.49864042290005045	-0.1764590718902749	0.03601141533505802
H	3.2685944111112657	4.473114269113621	7.3445080735932935	1	0.14657665741738587	0.15348598874421981	-0.03557946964127315
H	3.9783611057246633	6.955485015739649	15.566738624369902	1	0.062212521210559035	-0.5521397252911596	-0.02646618683400828
H	2.1076559429217054	6.1677761616786	4.014470698366097	1	0.7390493118657084	-0.5891135053475491	-0.27056101238663055
H	13.847028280932621	12.981288843788757	9.59748498595765	1	-1.2268489262938864	0.9774817921717687	-0.07442887102871064
H	11.590691270432032	0.7017987426002823	11.506272898445976	1	-0.15755167758696995	-0.29543542791693517	0.374122306466343
H	8.052375297525389	1.3098815317244843	13.756772311551014	1	-0.03491946690559113	-0.049887156526833176	0.10372275949381776
H	13.574018669888922	6.510239263194202	5.499188681456042	1	0.6795493067679056	-1.2994955071146703	0.9181100852294413
H	14.9803851248499	8.120569569933567	5.6040083510441105	1	-0.27316939873392077	0.346600680898414	0.6837517784136876
H	7.549623070103537	10.979302419837529	0.3943677753568931	1	-0.05812369241992754	-0.5248212170435222	0.3015199486570656
