227
config_type=amorph dft_energy=-23272.772641144544 dft_virial="45.7881746701526 6.850072298671289 -10.622049683393112 6.8500722986712885 64.15992334397419 1.0771315098617396 -10.622049683393112 1.0771315098617396 60.85994740739403" pbc="T T T" Lattice="16.3747472526 0.0 0.0 0.06417263448293939 16.462712394840963 0.0 0.108400826812212 0.40922130858972655 16.29911229504024" Properties=species:S:1:pos:R:3:Z:I:1:dft_force:R:3
Si	15.578782250974191	15.517385136150565	9.349574587502735	14	0.9528387761202775	0.05259375909735306	-0.05575776130432728
Si	14.349706821991836	10.342983016550944	8.37690968827412	14	0.1822445730816721	0.03143690474945056	-0.48865090739967915
Si	2.8041934792297276	14.12845287458943	5.826246420756397	14	-0.06529476226835255	0.026539463335632497	-0.13010949917343345
Si	3.4074342555913355	15.896606270298806	13.312784139594568	14	0.13667455949789958	-0.5026850286791754	0.7854443931467165
Si	8.441940359513096	7.766447648374115	4.568965489631441	14	0.7526625432042965	-1.428773253717036	-0.8458990496498903
Si	8.830061168793122	9.414615083590062	9.84946942152901	14	0.2861897331856827	-0.13968789493311312	-0.18969203675201304
Si	14.608234606565334	11.386604608049252	14.756298346172795	14	0.3366458753198646	0.20697603515617646	-0.3608232641978771
Si	9.151959225234181	0.6578489209743039	0.25068591811422913	14	-0.014548342343525889	-0.5506376855631292	0.016911188132741974
Si	6.195393810394836	10.8640225617045	7.264576382354452	14	0.987750272599376	1.022112066761027	0.1762076177899644
Si	12.830244900181325	7.828247581980152	13.464252189155841	14	0.10577167332344378	1.1855374344518754	1.0339630625131855
Si	7.643525695698297	16.252974807181314	1.7540121639820287	14	0.047062283111586486	0.8378067527652562	0.21124869797719856
Si	7.756568763356621	4.582990460653292	9.90064869406701	14	0.307863893923999	-0.09915981888215096	-0.6748241294105375
Si	0.640265717374462	14.663759737024177	4.871053376846306	14	-0.23775807938058532	0.2879511974405161	0.5648127034141696
Si	5.183883098258877	8.688203458394398	15.090153243057706	14	-0.08087926005589813	0.6353332372457231	0.12507398940392345
Si	5.017998721216412	2.7093886050613496	13.553049168557243	14	0.4968069676962529	-0.49666015758247234	0.0728658961045926
Si	13.026045940454289	9.008319942334374	9.712001780868707	14	-0.309843645020513	-0.5749230608645879	0.7344400913582789
Si	8.253768313985116	6.646783368109459	14.694981467610708	14	0.17627369519669223	0.00742200972767146	-0.7610014090891327
Si	6.6911769453859815	3.8842832703343	14.55696036049327	14	-0.09247314527604185	-0.10426397716370893	0.07299470848113203
Si	12.19154788359366	13.846250480438123	14.141952216224473	14	0.3202584213408368	-0.1333359792396873	0.6534137640780684
Si	2.3849622876444867	1.9262286557870736	16.00684761870221	14	0.9224429119149548	0.05781644533416986	0.535077870386657
Si	3.930388008698721	5.229124887443086	15.81010175551277	14	0.4565647985568912	0.6469163238235222	0.6707838945104567
Si	1.7133241920087685	2.1011682680602255	7.5767052645846125	14	-0.4413263715454375	-0.9583306570841137	1.1068179028649017
Si	16.177934252946823	13.54623727370016	8.188280787297794	14	0.38408225425553266	0.49341362289472146	0.07138905320869954
Si	15.91437123359315	15.642245858901092	1.276802904799507	14	-0.6158751121828424	0.6756060025383945	0.05573667824070207
Si	5.721601960963932	10.043259642839354	11.493348310439501	14	-0.09267909081218571	0.9481686204167604	0.3836914462468701
Si	2.879625389923555	11.792546054764282	6.097870728182526	14	-0.36980927729179464	-0.03343156825682144	-0.30199380336756887
Si	0.6238516707284557	11.130637833946059	6.123754291164711	14	0.21275048059469703	-0.9022661629150927	-0.1875225380828721
Si	4.247378553388178	14.779493175656103	4.1688387156658075	14	0.5030658093770894	-0.44096050325838043	0.5701220359002753
Si	5.774587368123895	3.347433906708359	2.45907930613393	14	0.1664682708372435	-0.8544803707664166	0.7676006651143568
Si	16.451014275403708	9.414068167031825	7.745155564521559	14	-0.947119866556672	0.4410934294034321	-0.7745578190001455
Si	3.1366237731036613	3.5782146820623275	14.530980186502294	14	-0.16010195695402485	-1.2113695867139351	0.008822747906088134
Si	0.8804668848228514	14.814615371038204	10.922292099802878	14	0.17097439002133502	0.48088848332762	-0.6799984788673354
Si	0.5988015823814283	2.1035933681283354	12.105852281321905	14	0.029980373585586678	1.3308249396617389	-0.6016676984047682
Si	8.358949865487467	2.037462313873985	4.858290898837629	14	0.7335759428601772	0.13621921674570137	-0.1821196173631129
Si	16.10852661176723	6.7504699051876464	2.9160084408441067	14	-0.4876859715730276	0.49362393930990955	-0.6623547828288834
Si	10.983610615839687	1.3722758686557914	7.668354724957414	14	-0.6046553227867802	0.29861897052434255	0.34469189230873604
Si	2.9220015983385585	13.985900874907196	2.528627770139898	14	-0.630017734106849	-0.5864778652838654	-0.055214229639647984
Si	3.923346867380103	11.718797468088024	11.828897993665054	14	0.05394101828511066	-0.2031862259142782	0.049807966482972615
Si	9.419340835647162	12.908349169626774	7.97091584236788	14	0.42844204856511153	-0.3455226164376759	-1.0348850608809907
Si	14.266521468473902	8.135560651043322	11.609365032198898	14	-0.7620877010868953	0.3940877106088889	-0.34329063990925535
Si	15.903775134645992	12.935789971072682	15.904245089892141	14	-0.27322390616670794	-0.5603816605054263	0.360492105832642
Si	4.19681333387215	3.645739227307874	4.343026727040065	14	0.6451805706218902	-0.38521096949107764	0.10155300371414479
Si	0.3615364071154301	6.074987018897017	6.104651511019828	14	-0.19193558325437424	-0.11124015722886672	0.3904290277383182
Si	9.11104036932466	11.82810873084748	15.988673286726549	14	-0.32435393500530063	-0.9313996144082226	-0.7079656769872463
Si	13.40472670794319	12.84706340308447	5.368649196358314	14	0.5094136113020029	0.1670115453913908	0.6569878575836062
Si	4.527724051201042	13.967218925766705	12.47060960122192	14	0.6350247046073053	-0.6042233770929953	-0.06187930596106786
Si	10.207057877081837	6.8942958602061335	7.78691444496514	14	-0.6192931395954473	0.5392520598739174	-0.20747945757786146
Si	11.261560488129495	10.29371140206787	3.3981350366265843	14	0.23195098090449887	-0.19384977116522448	0.8196776320423602
Si	10.77562348866134	5.067206474185202	6.452832674276037	14	0.05628612344761772	-1.2410810226830342	0.04178328966825844
Si	14.889189244975995	0.889898739240349	2.7256012423161486	14	0.07152994978024366	-0.5187490376089287	-0.5461161397471167
Si	2.004945340779772	13.634328501494974	9.121957413317968	14	-0.8620093384754063	0.09222991871275585	0.7431162862611187
Si	8.15717695489148	1.0974666728890319	10.549874673138095	14	-0.5176336921210484	-0.28115576607936477	0.03573604995527017
Si	9.246801761321242	15.577066177462118	15.317329936541375	14	-0.3578567228794902	0.23108297574841688	-0.380390404126332
Si	5.894640465081057	14.405949166380342	8.483831875409422	14	-0.07276562299710683	0.4435899726692959	-0.3778146708166077
Si	1.7008761091473419	2.715694520228326	1.6126309587283552	14	0.9873072711527144	0.0033961730173835973	0.39340816747277374
Si	13.557049519311052	4.43305508743486	12.637170255325918	14	-0.4645300828387099	-1.0285956230468445	-0.029526059275516513
Si	14.327867821581044	14.165757823780304	0.3504556156495957	14	0.7528134670865891	1.4064951403390171	0.05826098944402345
Si	9.996740623369442	5.0334679449459445	14.726976086267564	14	0.5754308541653171	0.33162244974535926	-0.33650189342193637
Si	15.90797361984156	6.104327291024226	15.468943721353199	14	-0.11705676879463772	0.40171000944099994	-0.2736486527655964
Si	7.391423361946718	15.69995865559288	11.742382016555942	14	0.22542937225994325	0.3541908409140231	-0.5543575607403194
Si	6.367569365331749	1.215623574114343	5.799612894350044	14	-0.3690312608219178	-0.0756092654811906	0.8680545213041383
Si	8.883506706350882	16.390391686125135	3.724475561997276	14	0.7381633089723855	0.9931403377925343	-0.08674857928073217
Si	15.893424656907623	0.37717265326693783	4.853221277088224	14	-0.2757171069956555	0.15494586234499988	0.8909031629526983
Si	3.976445260296109	10.867061714794582	7.901709610579491	14	-0.08874658522501923	-0.5172277145909969	0.18904000444282348
Si	10.792425616817233	6.232834669987906	11.167495752536936	14	-0.4202862453790698	0.231189676619203	-0.23562843284390667
Si	9.977808140595988	14.59967225122695	9.404747660895644	14	-0.014450897451892278	0.7164912051183252	-0.3330648398299624
Si	15.944361583186286	9.765779725795696	11.63166252553276	14	-0.11547759590700275	0.6732578120495033	0.3616611874217133
Si	5.397467114048165	13.245199007784187	0.00233995138239654	14	-0.04240986803477853	-0.04935519483609454	0.6878316083356987
Si	4.799297596910687	11.067654006113658	0.7056779202244233	14	-0.5233695709797667	1.4767585636385556	0.7166824953541443
Si	2.283820386289352	4.052533798354766	8.79992017152526	14	-0.7811922991682556	0.36374661094688543	0.004994114973855629
Si	12.003598534628319	6.966069652363729	9.273915067822097	14	-0.37235158623235703	0.51866753357028	0.8361555889286573
Si	1.5278310551313157	10.234136796613463	2.3006356142430473	14	0.6302213656482046	-0.3043116548136824	-1.2373727174797846
Si	6.038450045352291	11.40624120495457	4.984168493392541	14	0.5306185453193922	0.16086326123932068	-0.08074890501616662
Si	8.985654017187327	13.472159554604124	0.5828836905771759	14	0.10258581672124828	0.7550989226056688	1.2842205704076708
Si	4.675789428283227	4.144682688518772	6.69013059903654	14	0.6078519780313203	-1.1313303067661293	0.08017606275083762
Si	6.407677671252268	5.877923485610878	13.370352838510534	14	-0.15544928476668488	0.0292671489697776	0.5002699894519603
Si	10.683027567897335	4.100711579721366	0.5933307793243348	14	1.0207622364679494	-0.19117093653216222	-0.19177283228760889
Si	7.265272309112688	12.470869959703238	8.587983455309583	14	-0.7715851070289903	-0.28844716365677264	-0.09516200721985271
Si	11.020620819580015	8.662886461667153	1.614109598405265	14	0.5981033750994468	-0.37192092609123223	0.7450016777923834
Si	3.512768092243136	10.23847282968595	15.6786649342656	14	0.010818182745055058	-0.2289453587852458	-1.0899008011899234
Si	12.885853541851153	4.905900476474565	1.2633772495271003	14	-1.1317913059500317	0.08809789535274587	-2.4872219806361198
Si	0.5683445524915923	5.874332503538382	13.321732938968115	14	-1.4465807291643817	0.12059538104675752	0.004071859495518512
Si	3.472476389153388	0.7071336352551794	8.160799048983755	14	0.58061985892244	0.27779635986805923	0.49022956606625007
Si	12.924648593042015	7.271339152969776	1.1084230162757465	14	0.4597231443321611	0.30595664799751315	-0.8195750449400863
Si	3.289062845177016	11.671703694989546	2.479370892929352	14	1.295130798723187	-0.52537220491363	-0.32184479332336813
Si	0.8329883051639377	6.629745443593128	0.8129718141223595	14	-0.6238306262644446	0.10787792280170906	0.21570365216541912
Si	3.4727875093511877	8.393593918249794	5.099404139707988	14	0.18866667995033798	-0.36190467109553137	-0.7067215191228265
Si	7.551542190481542	11.21689509004858	10.552057426946867	14	-0.26577927071221913	-0.1494562953759517	0.034160476615083424
Si	12.595973028713102	12.787963665300385	12.130348903211793	14	1.363730973991122	0.6812632055743163	-0.2999541455170954
Si	1.2848052437818525	7.552200455321096	4.495424862245288	14	-0.39116282119668844	0.4639006762563377	0.4250196502734624
Si	13.356357342033736	2.7011177202240613	10.878153968583495	14	-0.7855372100487739	0.7644001532118365	0.34747588514939237
Si	12.722872407496576	11.118409172697818	6.835307470703367	14	-0.05898372714951708	0.23733898921340116	0.4730990626496995
Si	9.228584855002724	14.245702614816947	11.525098945362291	14	-0.43949291634163995	0.7697431671776364	1.0819221471604397
Si	11.093596518185953	11.164070155411693	12.210540952931952	14	-1.3011813808730914	-1.0068127045534858	0.8827771845883702
Si	12.699124111556129	16.26599273124713	7.250657847189742	14	-0.26784361117376604	-0.10787843702277311	-0.6747845343886072
Si	3.8847548630551754	0.7270567902374178	10.487121729241956	14	0.13281430197022925	-0.14423592313392306	-0.24670963966321285
Si	12.787747518636651	12.813573770003453	1.4007564665522385	14	-0.22864582501544853	0.5316521296580917	1.0477593565505683
Si	7.708584204007602	10.704101867611433	3.5388137652231215	14	0.12047273932298644	0.6157105614423529	0.288123204386434
Si	6.310283949543253	13.64476576539378	4.069105042574397	14	0.5089634107604449	-0.0018540240463587796	-0.07872904467665828
Si	6.742570727112992	9.76013698789245	13.59894758510628	14	-0.17412527959117646	0.1621796671632365	0.5089176450857463
Si	12.81580237310453	4.294979943651486	7.484533449774451	14	-0.2639064775970233	0.13739498320860508	-0.5540089188589072
Si	9.437235159444803	8.65827533284082	6.413209060874196	14	0.35150994939670466	-0.5213581952878149	0.06559043938016959
Si	7.442674683372631	6.1554918262897	0.5298900960435865	14	0.17209590616198361	-0.7365661383475094	0.7718141925130155
Si	0.43489363733235287	9.79609920780861	4.196384315494131	14	-0.5480987190594829	-0.5178167548198429	1.5655799680283913
Si	4.876139373342963	6.845710347632944	3.8891956945100805	14	0.7296439514940747	0.773368939900109	0.37196951998178307
Si	1.100685948198893	2.073832264996735	5.375836072927481	14	0.6460467760042481	-0.701223724616754	-1.0438427918163866
Si	8.887351497005792	7.677103752414478	11.417133686827	14	-0.20966412576839127	-0.4565115766767641	-0.22657017169049296
Si	8.760183572367376	8.572222761078956	13.573455378583432	14	1.434607348798984	0.2571570690211026	-0.2324839710373656
Si	3.9857428417861356	10.596580364726686	4.403513405916445	14	-0.4684808432736494	0.4194233824336281	0.16978191137385035
Si	14.705810087968853	15.821048274051131	13.03237478026742	14	0.002076938877615618	0.10236521588477956	-0.4887473238491846
Si	1.9401095290331025	0.3110956356785211	11.644962095251325	14	0.43556272474926155	-0.7757906640011565	-0.19237369960092748
Si	6.0699681588640955	7.916794027748587	0.9045721502534039	14	0.11035132611969152	-0.05258218912341239	0.3003868625424763
Si	6.573902643037585	2.613429311211663	9.69294812496558	14	-0.2807991537714602	0.0704922516730319	1.0824957607573646
Si	1.790604811667414	4.056837081932748	12.789501254067405	14	-0.2983428338129586	-0.8203844288948688	-1.2229529304022662
Si	14.925503521958086	10.383946084278048	2.981188122283081	14	0.14770305865814273	0.14261021323999343	-0.19491883675734206
Si	11.076629005082808	10.180895943396358	10.165834450873415	14	-0.1636799071175429	-0.16716272638421548	-0.5665947365115641
Si	13.124820053356697	0.4281013921719744	11.358667651761591	14	-0.007449263444065028	-0.13625932598869567	0.3581498288859872
Si	7.676915442821073	9.122725388964115	7.773321767270756	14	-0.543793660311427	0.1102016877900589	0.6681816788159349
Si	4.2796384429505245	6.789571164152131	14.190996221720736	14	0.0969137012744696	0.13740192519296945	-0.4051599185595746
Si	5.777816468282107	7.681377561447406	8.078032888995487	14	0.6162263251695747	-0.34980736345370267	0.5333608862538621
Si	16.15626554990746	3.899673895277019	5.31795789128844	14	-0.7882175873450283	0.8820148518609463	0.6739862061867012
Si	7.689527273155026	11.888960566587592	14.080114620699755	14	0.008196683760632074	-0.41911073602669807	0.6371600075756884
Si	5.265774846743855	0.5723203411245236	14.333810217359012	14	-0.842887771098933	-0.19977436915444172	0.11621935979186548
Si	9.051269266903219	5.074555460752168	1.9182574288245078	14	-0.7836474476384651	0.22625443995717878	0.6897517097887853
Si	2.338187822117435	4.975995857038768	1.2311615717823352	14	0.59364379292165	-0.22572119271378008	0.640455650375054
Si	14.893227257648485	12.036894945691756	12.036303817315936	14	-0.3330689535984746	-0.7987321225517737	0.24082515091698997
Si	1.0710558430453132	6.002911931389974	8.348452015023826	14	-0.061532978074443904	-0.44258724159443813	-0.458783148227115
Si	13.268662383122436	15.626357441641893	9.41935229797024	14	0.16933942414825287	-0.23639050846079854	-0.05139896645508025
Si	12.64328786089949	12.025370398575376	15.80922079411058	14	-0.842056532748929	-0.451648073853172	-0.7121426946903588
Si	15.51772573089342	2.8594386015105497	10.181726143082065	14	1.0615217119977247	-0.6672547953480216	-0.1649333209611151
Si	13.007982956759944	4.529566210266959	3.4024710696990725	14	-0.6010840574970945	-0.749926887143659	1.5641450341492167
Si	5.370759901279175	15.143647904857223	10.630847798302202	14	0.2627669637191337	1.0809394707070792	0.5875811265767409
Si	8.82447574250526	3.17075202132753	13.986328255810488	14	-0.1599453766400278	-0.1693643638698583	-0.4086005716989967
Si	14.120191814600494	8.158799692344212	2.8704850060071534	14	0.8917493137135589	-0.339257089883007	0.1855312170124174
Si	11.078941119394877	9.491746693048709	13.890131528125638	14	-0.698499638530057	-0.45946397691589014	-0.17870338972423216
Si	12.256115149485389	2.4002563015784153	4.313607856126044	14	0.5335537191528732	1.2531523621611294	-0.3065348895840144
Si	8.50965485182677	4.836090016512554	7.617550434131497	14	0.47294273944623444	-0.5571089005434099	1.1271712868002577
Si	9.174700474218593	16.669816923142402	8.621478000814777	14	-0.004082915248395149	-0.07781064585630139	-0.5811785601085081
Si	13.937459460109828	3.059570762431827	5.805985945980755	14	0.12564271790074022	0.8092695405958686	0.40212395739754375
Si	10.480923887406846	15.203008001122624	13.426618107545192	14	-0.2169735210830403	0.05321288125844472	-1.0148515224474608
Si	4.326632330090762	0.2987490762500607	0.22178612668811543	14	-0.6176262920163953	1.039923141755821	-0.435986957127086
Si	16.04575238069966	1.2201037049626544	8.533951701800179	14	-0.16066785723498941	0.2910961734681212	-0.23909608258919038
Si	6.902612594335729	6.3868768298172895	11.16687678709079	14	1.0832015291677453	-0.20831043881733333	0.25710513269363555
Si	10.530660544711893	2.7090381854701437	5.757122062704272	14	-1.3799520774559362	-0.06649495423179769	0.7110900841722901
Si	8.102177453819447	14.84381809528849	5.20572209866967	14	-0.8272608500736047	-0.7775840099619599	0.03201334656222776
Si	14.50327247667617	1.1386295125326178	6.721442390732962	14	0.8092852243383217	-1.7948233179202422	0.28102361126590913
Si	13.897839121657437	6.086843973382625	8.451575260796524	14	0.7924822797395579	-0.48386942283579976	-0.6057128184049572
Si	2.777089997577224	1.9733633657536827	3.7012496204941883	14	-0.24195515170519505	-0.31813880211490675	0.4728391239018324
Si	11.342176643803496	0.8895794316689233	12.862440928229386	14	-0.8648758637968392	-0.1136084023392551	0.47616613418610404
Si	15.781326412165773	1.2379767415888672	13.825423439407539	14	-0.7679804173701427	0.5204711639523637	0.11966284114713979
Si	15.739716541922192	13.057149772860603	5.933412591625763	14	-0.7053490631029316	0.21309603714972494	0.31115825117070467
Si	10.963101244905806	10.381055941387963	16.07926493842683	14	-0.2167315800724143	0.6988737343541386	-1.370971977904255
Si	3.722556441619271	8.547955385650601	7.452325959403312	14	0.07614456960884543	0.3996150728261433	-0.5372964771674129
Si	12.422603754701473	0.897942015090826	2.651929616951976	14	0.4863284279639893	-0.029730462148468282	-1.2373323511262584
Si	12.41433450733891	1.4873985292151957	15.06896432011284	14	0.3502200258575864	-0.4018987285714988	-1.3946662560926117
Si	0.1352259377614213	11.956341014057315	1.7921194757882797	14	-1.536055451416067	-0.5626995119515399	-0.4824342318460931
Si	6.910040179689509	5.978780466363816	4.778881562036146	14	-0.26606594895541563	-0.032994223241864254	-0.14260507102935313
Si	7.698824854645052	3.9458195705095713	3.656410650092394	14	0.2846938641104205	0.7194433482469192	-0.8871537200643264
Si	5.353767826055152	7.93211751622757	10.516476738641693	14	-0.042810189133125585	-0.40564277213869837	-0.8785911680166371
Si	3.666836451668124	14.666826727184588	0.5534369825928253	14	-0.386187989512734	-0.6755995747750942	-1.2710966204115068
Si	11.45968019261343	9.504124364496949	5.670067356410549	14	0.5435584041746335	0.334464035345187	-0.6688671354942864
Si	15.717060441623495	5.183562153212726	9.674220326532783	14	-0.2566554463731417	-0.3246681240754228	-0.45199465885032797
Si	1.223704511883501	13.124304248818241	14.38236461791242	14	-0.05778404940713598	0.5905160432996899	-0.31634854148048763
Si	5.9214393764346624	4.375908856998011	0.42576471573902835	14	-0.02962170439342602	0.08330561214652185	-1.1597749591439916
Si	6.655031328300593	10.04512636402615	1.5616072462892536	14	0.23930897010969865	-0.01001085567452856	0.021048867924456278
Si	9.824355471667696	13.399057770444342	5.6348125255757004	14	0.5774545711628056	0.20088611509487372	1.4360047445404847
Si	11.7161382091342	5.823041882719064	13.22758960458874	14	0.3335358663246135	-0.7203170098347056	0.18509130089214007
Si	6.486813549774633	5.5954820201496815	7.0654348936419575	14	-1.46214645788309	1.1222208806168446	-0.6128916015693425
Si	12.097235889317586	13.719013781861245	9.992786121907939	14	0.4117728014429954	0.06960496322704879	0.13412582279403676
Si	6.348340499633021	13.744049132935745	14.166206491855025	14	-1.0471178657731912	0.27210573246297554	-0.5771234127975705
Si	3.2046870475338185	4.584187454677457	10.88993887418119	14	-0.013493674941201147	-1.249271021569834	0.429301826184169
Si	6.9484094874518005	14.052960377330768	1.6922056804770902	14	-0.04638813929664366	-1.188310114429123	-0.38027701838171346
Si	13.10207389194811	11.713356139575984	3.424377206573601	14	0.36177791560324807	-0.573347230413869	-0.6491647554259916
Si	2.167703778571715	15.0564310885657	15.142195464775916	14	0.3066595881920416	0.7130019580883523	-0.15092028274524402
Si	9.613090120089376	2.2880614458277755	11.89355532066667	14	0.38353049505382886	0.12842491096767245	0.9866408406537323
Si	5.35895370851005	2.1186810602468813	7.784420570958567	14	-0.3369796047904199	0.0543567660153786	-1.5495727805262134
Si	3.3112866521482447	6.875327352988721	10.898756675576717	14	-0.10148461231262886	0.9307408972252006	-0.1164767274344123
Si	11.425753353780767	11.906414409684137	8.666724702423162	14	-0.49774027892746664	-0.175454026820629	-0.4856162317903084
Si	13.429125081349564	15.771819233910916	14.916666070865858	14	-0.5075256486654182	-0.7554449933817607	0.5053306960536078
Si	2.208563685391128	7.859511886909542	9.054023499391107	14	-0.2842809445960048	-0.2160882895213133	0.9550427276007083
Si	14.919048596591113	12.236049534202053	9.645828152271498	14	-0.02489909814137803	-0.19563231848368315	-0.37881663055986936
Si	2.2641019156477715	7.347501377391068	12.9691174941559	14	0.4723603840912209	1.1939796587705815	-0.007539766351334242
Si	9.98384550990802	4.138201563556193	10.502607327718739	14	0.06855543803536435	-0.03576227522953568	0.2036965903203276
Si	4.758385290900066	2.8246930253152573	11.281671952705139	14	0.4183108651616	-0.293991238058608	-1.0614330088641797
Si	16.125675884564874	13.886589670294901	12.690484794905657	14	0.30295488253624026	0.08602918401215473	0.11271211502465149
Si	7.277828465305982	15.861680571883733	14.054768149427456	14	0.044587080019879925	-0.13942332819566988	-0.20185696446376167
Si	10.716869258044285	13.63207042384884	2.208740532661456	14	-0.3059509915658088	0.13145033059789069	-0.5288311129008253
Si	1.01542427672933	9.809567437423873	9.789634457593284	14	0.7394349776637307	0.032473831525066284	-0.02118205118003995
Si	3.5636165948866347	14.824851225545805	7.880307815920343	14	0.5909906693417892	0.174499118304726	-0.14064383189114418
Si	11.181360251035713	15.631107755819874	3.4166843503143296	14	-0.6173385853310708	-0.291942324228982	0.11777719250534321
Si	12.732955976854727	7.720377296978924	4.825660939987373	14	0.7374302868456113	1.0217204874207686	0.12334286419186774
Si	14.345645884673191	7.913897334959601	15.342594534077412	14	-0.16024979550993335	-0.40162053497585876	0.2902371671806598
Si	1.472499146690055	8.843755369920471	0.33652234321235835	14	-0.29543439947480715	0.5400424176493309	0.6422497676674535
Si	8.919329740915396	12.08872265822096	12.198397440369424	14	0.577531190101346	-0.009056975600753624	-0.3430330151561765
Si	1.05809195564543	9.511511012982597	13.359334271084258	14	0.6172776501349831	-0.2999502888591152	0.5505561815244804
Si	11.672000077914817	3.108685179341275	9.175956417332868	14	0.36880731754853296	-0.3720944757003422	0.018722788941318312
Si	9.96581527570818	7.0141295355501105	2.8586837256622046	14	-0.5480688942377692	-0.7270782454950989	0.916455578955926
Si	4.727590941216826	0.5083425661338902	4.03911469298126	14	-0.5552232519016133	0.5931354853998567	0.522541675066679
Si	14.759856578750785	4.225826111054306	16.26142253928893	14	0.22831800908712965	0.2310726913271363	1.1803255468574032
Si	11.473331819397922	5.949774239080561	4.487795867500301	14	-0.8686664443703335	0.07303198950827416	-2.0686100390415305
Si	15.987029262102388	9.619672768484921	15.31146286460077	14	0.1708975139722626	-0.48412319093089834	-0.5129077434320841
Si	2.7296736419578704	11.51843606070521	9.770890284413232	14	-0.015516877717625673	-0.19432851097583606	0.47133888394752604
Si	5.626705388210939	0.9836654544329124	1.995939229790842	14	0.3731799963665088	1.1270239624654133	0.1124292934394352
Si	9.783957332720806	12.045434376383986	3.785988937526393	14	-0.35078464058589093	-0.6869072959731055	-1.0352470725100678
Si	14.166355502055023	2.9322751147648396	14.474862290192908	14	0.08613408510921677	-0.3260241250212689	-0.7930438091414782
Si	3.3058174865658763	5.39305739461304	3.3240065558140643	14	-1.089861720389057	0.07443478457094696	-0.8518434451500727
Si	15.839681098949866	2.8869809263894224	1.8477150176603072	14	-1.426687830191864	-0.06305892908195178	-0.21092139626994375
Si	7.304427604743104	15.871040377413319	7.132815341111681	14	0.21138419522757035	0.2821602969279466	0.43234627199375636
Si	15.089784811244522	7.503094225785274	6.908523878093917	14	0.25468777947163235	0.4874440305624016	0.06388014012120707
Si	11.171219370062177	1.7312398029778382	0.6027724585901838	14	-0.07870976138675717	0.42249199663322473	1.603637211866691
Si	0.5762453680409718	14.062750838713098	2.651294276758575	14	0.5529125995503962	0.2752663922330335	-0.08012412642337063
Si	15.335374908013742	4.583463690848892	3.3453264767369495	14	0.08381649077363529	0.3665378028824382	-0.48950502858703226
Si	0.680169338954323	0.45834555034752655	15.587960296809271	14	0.06918201640188444	-1.1791209840149137	0.6047612523259702
Si	11.927672106567462	14.656296127226442	5.441294125069748	14	-0.3427879888191664	0.26806626889449087	0.8399428270652353
Si	2.599753122306291	11.326745081992646	13.740603886113798	14	-0.44780658539433876	-0.9561609013044405	0.09194812556966761
Si	15.11512473261792	5.96809758125622	11.706475470780441	14	0.7724379426636834	0.1959179682847516	1.1156187963757682
H	8.812839847107561	6.547375552488374	8.567120389835045	1	0.5651801143644187	-0.22130531932642575	-0.40473697173441014
H	7.6027705872613005	8.890646096153016	4.00539090101453	1	-0.35439832911335906	0.763139540273368	-0.27810232140115687
H	3.382027197754202	4.42521649592504	7.743509902422673	1	0.5907754678264928	0.5994228663497468	-0.48315414133573453
H	5.288938564207383	7.17485422973328	2.235048201597483	1	-0.1302262273549682	0.561380792032836	-0.0014151363682095026
H	1.983636882179964	5.808072088780737	4.011421720427663	1	0.22474648668691197	-0.10159594117299126	0.16903089150983508
H	13.725919012777666	13.151645164305906	9.196200517361257	1	0.05464807224815137	-0.1629471421013007	0.19308872399046065
H	11.329995469322288	0.3572462233352489	11.215187203910133	1	0.5355357842441753	-0.020619236225459532	-0.04222063468321564
H	8.84000064037545	2.012060168461027	15.285872409594406	1	-0.08654006263926814	0.22511621163194925	-0.19283521300589404
H	13.395312865747671	6.802782310235528	5.806133318706029	1	0.6328698612384892	-0.2911537662272926	0.4882930095391146
H	14.497564239783912	8.61037755965224	6.040449401991833	1	0.10986410166152345	0.004370621933719719	0.13145007348735868
H	7.872053305830307	10.481885085070575	0.557126213148836	1	0.14012986793764656	0.016566660019842132	-0.11316437245046553
