226
config_type=amorph dft_energy=-23258.313167907636 dft_virial="27.321206000582567 -0.5579056567150628 -6.266331651509764 -0.5579056567150628 35.548293039822795 10.41423892534784 -6.266331651509763 10.41423892534784 48.73588907029045" pbc="T T T" Lattice="16.3957026618 0.0 0.0 0.07573175059485421 16.453218786737597 0.0 0.026692203933410406 0.41135178408190026 16.322364683793772" Properties=species:S:1:pos:R:3:Z:I:1:dft_force:R:3
Si	15.309321763858867	15.131131627760158	9.535168458079983	14	-0.10451414571135935	-0.6675347887173857	-0.534106249686173
Si	13.909755072382827	9.908942931231303	8.65180242963779	14	0.7474933359581387	-1.7115022791417995	-0.1789317038766613
Si	2.5074341577554624	13.680143094025915	6.067351098198787	14	-0.7086603896447503	-0.29267740324001235	0.735047386434898
Si	3.103603220951971	15.423348957160888	13.602165132166395	14	-0.4054761645139528	-1.261787933599911	0.5408572009252859
Si	8.324504854821873	7.598978616334561	4.442948496551219	14	-0.5881387993206809	-0.18443309793018214	-0.241953609042003
Si	8.723768087331228	8.916647133444643	9.956857732690148	14	-1.1903510578322565	-0.2066813864864875	-0.21514623653201104
Si	14.207232143197462	10.688378240070614	15.158763305456091	14	1.4559840326517592	0.273381772033365	-0.2771247871584366
Si	8.890546814377323	0.2525823577860937	0.1481368131196292	14	-0.23093667985570046	0.9385902246570808	-0.15290543316293037
Si	6.123883480976674	10.673338462018945	7.353113577929007	14	0.11807081273290411	-0.34343153648079944	0.41652420407462915
Si	12.484857020294307	7.286904451440127	14.041089569414645	14	-0.05676769147408145	0.23978513881499006	0.09761432747420995
Si	7.393707698149358	15.958586670555349	1.8146714518972258	14	0.2984040261195781	-0.20951525877035468	0.3986395954676791
Si	7.63644443648704	3.828491666605739	9.975939051447952	14	0.2621033614360035	0.627518876846197	0.4440052061784998
Si	0.26466271150730797	14.113965188605812	5.0854468967591755	14	0.5783241189820797	-0.18936987725539847	-0.12206990994786243
Si	5.065921254459238	8.236143494466635	15.431102484949653	14	-0.1646175892278009	0.28600872737114424	0.19613214135791993
Si	4.5978305017459125	2.1690006216916515	13.764425203558899	14	1.162165315760133	0.24860891516320627	0.22177120361043656
Si	12.633439796526337	8.48801755789774	10.177258605291662	14	0.8833412850956108	0.2557684150376906	-0.09728959687227524
Si	8.249396140928168	6.097825790736276	14.831516557318425	14	-0.6332107898039409	-1.0107475241354404	0.36249782509288947
Si	6.322271483184454	3.315519317426002	14.95752573012569	14	-0.22351467012802903	-1.115091462674606	-1.2867438531688642
Si	11.77687910236592	13.242038441910756	14.468164832349212	14	0.22157014317440102	-0.44504110451198753	1.0031293390718419
Si	2.0341377694470157	1.1867734249096018	0.033975175055781966	14	0.045612179711022965	-0.45025067811167147	0.8116853511546799
Si	3.573140074640067	4.865228016457209	16.135102805412288	14	0.15729276728123104	-0.29267791746107635	-0.5295947311809093
Si	1.3558918187255364	1.4080383510413914	7.768565927246623	14	0.41509209841130656	0.2186169716036789	-0.49564148565462973
Si	15.943086173258882	13.105732767831881	8.30297729722693	14	0.21149655253006083	1.2086830387649126	1.2656283936166162
Si	15.734152455099034	15.186621243848753	1.5197373545654362	14	-0.052609957060869995	-0.3518364797723635	0.20373232868427765
Si	5.414841481945536	9.976737522167582	11.918349422783262	14	1.6594512803775296	0.5536453645666384	1.2288245636218882
Si	2.627091635351545	11.334962449381893	6.342757913660374	14	-0.47725679706291085	0.5881709381371828	0.36175194743951455
Si	0.37296616501009405	10.614884502889097	6.2466528629379665	14	0.38054158511915676	0.6506503400799732	0.12637059781687413
Si	4.076707848772995	14.213629746376096	4.586307601915199	14	-0.05089682958605533	0.5074636850272026	-1.6982243199369587
Si	5.549363303574807	2.9721047668935365	2.6353452320714954	14	-0.5972446259225174	-0.7785751710628769	0.8088864459031666
Si	16.147619284824305	9.307419031545452	8.03313518324876	14	-1.1906678180076988	-0.03564091905842468	0.6104266828989166
Si	2.7465572832264846	3.090148907347698	14.739687505850217	14	-0.018209082098352723	0.37170212502848765	-0.018779096147829553
Si	0.42983793883307975	14.333865992276142	11.112790840892906	14	0.5717210062988755	-0.33387808044272527	0.23412922133172834
Si	0.18363350938242617	1.578048671082128	12.201298261469274	14	0.6890765375317144	0.2575735880829666	0.4342018387033072
Si	8.043754679862808	1.6987997420457526	4.87385871433838	14	-0.5981421987897811	-0.4605492404715247	0.28244800361327116
Si	15.795841286364055	6.152489063410716	2.9405561558317004	14	0.5053569213278732	-0.08884634411144098	0.38912496311993905
Si	10.570625943123833	0.815950178237405	7.742483643452232	14	-0.409333850936303	0.08621301804254532	0.7281431973187042
Si	2.712503408797926	13.376589775804817	2.696373316519247	14	0.6386265660503008	-0.11298233819379905	0.835652423617504
Si	3.559208646088335	11.339407324373505	12.150697843914429	14	-0.4855714945577378	0.15117533639300273	-0.02369659218314477
Si	9.309453738245782	12.491494000731803	8.083294556402004	14	0.26124461225907397	-1.0153837412487314	0.43130394589696835
Si	13.790869832382116	7.605594282358598	12.112161384378132	14	-0.4310404076016532	-0.4220248267965539	-0.8958605111204756
Si	15.698180283459044	12.216690547128172	16.20876541833122	14	-1.2420467298412818	-0.23724642942187588	-0.6195577063328905
Si	3.882963109559037	3.45083633063437	4.548571252668801	14	-0.20792734412463126	0.06293397336339258	-0.19568913991125841
Si	16.41686295565532	5.335291172200749	6.280669027250403	14	0.36933233725490716	0.1618989024622763	-0.4226465200629657
Si	8.447421798107122	10.638756645964678	0.3153844572618525	14	-0.3980374426017004	0.9292445139288744	-0.3895844196406495
Si	13.201200025720746	12.27632991556047	5.73218686524574	14	-0.7423195007224048	0.3052637351137333	-0.20050764839174795
Si	4.287640203087319	13.512567535830456	12.735071838616038	14	-0.4903840894959909	-0.0015616893714579432	-0.6174365444437684
Si	9.604318973626391	6.208175427931254	8.127887588501567	14	0.1003548686349558	0.9112670884198671	-1.054942510593998
Si	11.330404444041912	9.668450764588021	3.7490692433417134	14	-0.11880743440712653	0.3366412473302884	-0.2594798055673243
Si	9.942344256693925	4.578009736798063	6.296076069041696	14	1.0657295829646791	-0.3519958883022127	0.16551310521080848
Si	14.541350330320688	0.24786531413029386	2.898347058899163	14	0.0997717419483462	-0.26935002178084083	-0.026681902570368704
Si	1.6348991304916534	13.115770217001437	9.45922192378026	14	-0.1102189141957039	-0.08505499220635063	-0.027138016654162975
Si	7.709262670718894	0.7221864338551032	10.81046883994171	14	-0.026190564343688407	-0.659918917648575	0.4569139546593673
Si	8.772363310450537	15.037953209962883	15.597492633842664	14	0.3028070439803317	-0.4496372123822842	0.23002522301970796
Si	5.751271463144075	13.931153103926743	8.791767624550777	14	-0.23502396598313985	0.21495057541714774	-0.2915288904935022
Si	1.4346698908749533	2.35085191819474	2.0035384695692984	14	-0.5844202096961508	-0.9572628770446561	-0.29228633812081783
Si	13.24554384313985	3.7750105240932132	12.846911845182973	14	0.16074319062086978	-0.16257793137732743	-0.6888122279048031
Si	14.325232015254436	13.621738322004052	0.5593885834152925	14	-0.5626827997669589	0.1816786728007075	0.5338871915128964
Si	9.787352400291395	4.15782558769225	15.026748386763808	14	-0.599356274721955	1.0267590825166628	-0.8570476194285844
Si	15.715128521300548	5.46473524471566	15.615480359232924	14	-0.03231365166362105	-0.0899997419580594	-0.2194780347753965
Si	7.131561727000636	15.369269371501206	12.196595973945872	14	0.11688861850670003	-0.26209153435153076	-1.006554308468811
Si	6.091521643062814	0.669864467520767	6.0729174392524685	14	0.5579715063783196	0.5974310310582281	0.09992806515181121
Si	8.617686251539117	16.005114395569006	3.836523921339755	14	-0.040611379863334955	0.27028461856471464	0.6015681966288785
Si	15.6892331485165	16.227933634313132	4.9846067671080405	14	-0.31936084847357316	0.2539832966139117	0.30210616067005935
Si	3.8758883638604704	10.483628705230057	8.123969015565397	14	-0.23324141866468123	0.2666323634574443	0.1881534873284364
Si	10.524690102976269	5.49545751236334	11.668421529258113	14	-0.7203301224718384	-0.21710696144915592	-0.3342285220978614
Si	10.071058720440385	14.885007537252546	10.075733135269266	14	0.22279193242253537	-0.1847516578793485	-0.4090163194292647
Si	15.62920028322032	9.012383280857161	12.088184308805516	14	-0.3306526288185994	0.7605350105840579	-0.8303670024108758
Si	5.340360723463777	12.743081139366327	0.45211478003966743	14	-1.197632428098916	0.33441801255995635	-1.0422708180236482
Si	4.820207056518172	10.565613776820122	1.0162286049620906	14	-0.46637279402166004	-0.04998974362910709	-0.12976342839734153
Si	2.3433508842269664	3.516447013976095	8.426325447492184	14	-0.45919915306791487	0.7654023700656302	0.5558907108427238
Si	11.674348575770354	6.658035798854924	9.186685995854756	14	0.5452771880811524	-0.7334481589257659	0.1679682536810179
Si	1.6333071077631924	9.426282957132704	2.4690846092295122	14	0.2949194070791814	0.3479307136805266	0.9103021525932155
Si	5.981063794230267	11.038821628334194	5.082100533845902	14	0.9438298801890106	-1.27145811781952	-0.13938064784735543
Si	8.798858765952007	12.960345514048637	0.930618443513502	14	-0.21147212702951942	-0.583588971346147	0.44788783232245544
Si	4.310663048765018	3.7585623551828955	6.930902919974197	14	-0.7002094235679555	-1.0368550417772882	0.11570179629091969
Si	6.209572341798039	5.217673320015795	13.65495109688606	14	0.576038663463	0.7722826479023465	0.25575633084268595
Si	10.58022890617285	3.4875676233076005	0.8092935229567142	14	-0.11923552344293119	-0.2333159807189655	0.2405754965904036
Si	7.226246909872531	11.957177725826936	8.847916347886377	14	-0.9894608289688707	1.2951955905772548	0.5402234234638694
Si	11.086316699804899	8.17357585353894	1.744110905921903	14	-0.3769821469139437	-0.1686686227702262	1.201401154277189
Si	3.224608425306853	9.737865250947284	15.87258957052394	14	1.4443202133669075	-0.3295897338792503	0.28701351533025815
Si	12.546732762569674	4.596294224406502	1.2085419993336737	14	0.5763759924810036	-0.07742215184242701	-0.7789371826919538
Si	0.20731054359633158	5.476713945080371	13.3755289738426	14	-0.14786323851958796	-0.7983210028110821	0.25557532502814745
Si	3.264151580986583	16.654944954007316	8.543356333521846	14	0.21197297834588427	-0.13467192556403623	-0.5494732319636341
Si	13.010618017550248	6.961089048144837	1.2649350186389348	14	0.04167093236576798	-0.5131705103958033	-0.4464369575902959
Si	3.333054521422797	11.10476350486969	2.665801889336055	14	-0.6705640650055841	-0.11107817759369738	-0.0015524333923054101
Si	0.6005483553774752	6.0524523231900105	0.9597519675732543	14	0.4663421978683503	-0.42846261740767266	0.07922501089291485
Si	2.9378803771572954	8.196772493664854	5.5266404992558185	14	0.13204117060046072	0.4716805838445738	-0.30416407336830587
Si	7.383773541906573	10.703806596275369	10.798096642713116	14	-0.020936510621965807	-0.29032124232462864	0.6620693901383469
Si	12.503030017124646	12.158889136964262	12.623851589609718	14	0.434268687441631	-0.224139962941889	-1.3639636590225954
Si	1.2316419048138838	6.722183985519217	4.57672759284991	14	-1.0137199789960638	-0.5904360819242332	0.5488741644240396
Si	13.124048407275378	2.0750220936044803	11.09759530366595	14	-0.8442872237246895	0.5589940349641425	-0.2349077520226692
Si	12.379827788613083	10.660590803199396	7.176292483002559	14	-0.6220730186675913	-0.29442549774718096	-0.18123027203287367
Si	8.961777944591516	13.909387808643205	11.900769950389279	14	-0.48221774477813667	-0.1449262649123828	-0.10735778819544312
Si	10.764595303464258	10.663315768981787	12.665978708028947	14	0.27075178840138553	-0.4491607865664607	-0.42973994253072223
Si	12.277128386280099	15.58778965700741	7.510591022855064	14	-0.13074816173495826	0.14703817082235243	-0.8909746396805984
Si	3.7639286686641027	16.659881700078788	10.785985137156842	14	-0.49187250236582464	0.29802530230592034	0.21380463377595776
Si	12.431523439105737	12.468863012347722	1.7391807181314998	14	2.1293791417253582	-0.6366558138224073	-0.11702514419919988
Si	7.812619540728614	9.930588537885413	3.911819546243805	14	-1.2410391136663157	-0.13404200476059996	0.13281301641756915
Si	6.131438620763232	13.149694565378967	4.261689084914222	14	0.30495777358063564	1.0592038605516112	0.0008068128494624672
Si	6.659132671362999	9.249745507862304	13.95177397916449	14	-0.643005672631577	0.01769486103432311	-0.6032381295343145
Si	12.264085604812639	3.725618469824541	7.645626029977648	14	-0.09560320889279013	-0.02912779506142557	-0.038314611480846666
Si	9.229032816689653	8.024071638817317	6.46514363617938	14	0.3631102623801488	-0.6268131084358163	1.3010764797760297
Si	7.3368129703426455	5.594118653130722	0.7392559998963032	14	0.530388945614303	-0.24398606779758	-1.309285247731666
Si	0.4816516383849001	9.123474003812452	4.498657815055483	14	-0.1344369265377747	-0.40564380058082644	-0.4249376320137497
Si	5.07186469667414	6.656145374338019	3.147768325212062	14	-0.053189998421095404	0.4536715337401286	0.5736089689354602
Si	0.732850198866338	1.511710018542219	5.440310566460376	14	-0.5494140965412706	-0.14508258811584782	1.1903541431586406
Si	8.715429232957437	7.120017512756463	11.444575919527356	14	0.12531130242497313	-0.29744268984037475	-0.020971734764851837
Si	8.712956760996038	7.9979762384607955	13.589792934937801	14	-0.21065785797462855	0.14187641978162316	0.4938365697198857
Si	3.8467548398007176	10.2852734944276	4.72149017036174	14	-0.4004717651188166	-0.6995108542524713	0.04170204274014176
Si	14.285902003709312	15.44670135646209	13.349707381720531	14	-0.03133097521026046	0.6401363190942917	0.2053289850880896
Si	1.7368804010480494	16.146679811061784	11.878473434339497	14	-0.07629652193326618	0.5309191075313174	-0.11834746366535204
Si	6.182011165623554	7.455129279460993	1.2296268729567486	14	-0.771006094110893	-0.10548345241705517	-0.5477148530351849
Si	6.118407316287633	2.0883616372901206	9.921585657553818	14	-0.1204249167640317	0.3897553981444394	-0.3794753477428913
Si	1.4148769986216283	3.5303440115522364	12.859039746441907	14	-1.1977221596745888	-0.7707890928218725	0.4229501676012752
Si	14.96601542496397	9.947212140814212	3.310780959356742	14	-0.3585876881220083	-1.3168131869985278	0.14605112348994762
Si	10.769615667619302	9.726027553625464	10.521399485452045	14	0.11726759943088985	0.6298680957772164	0.13592971028665268
Si	12.87558464999793	16.311305782348388	11.69548427607168	14	-0.27767268970216014	-0.3713681384474004	-0.6609033938756598
Si	7.464999492463397	8.787970379814304	7.882219298527954	14	0.2511429965667442	-0.31936521935261736	0.22025142325569705
Si	4.1665251475246015	6.3269262231701395	14.431553228305411	14	-0.11263909563355928	0.15592339658772017	0.08619090653679204
Si	5.648542548546301	7.268131371892365	8.357901261573694	14	-0.2054346575167477	-0.14841062684224748	-1.0574693929026395
Si	15.536882639812788	3.253897708541893	5.567936355550094	14	0.49952873978816165	0.4783253484339644	-0.006521351534023588
Si	7.453676620205157	11.332539164528477	14.511793797132261	14	0.02638056902684735	0.5677170239838087	-0.19452262942750725
Si	4.831100361366672	16.539215886769004	14.676454199394453	14	0.46643964275998395	-0.03714013057060303	0.762813267008241
Si	8.918567070226342	4.618246430700386	2.0848726317636896	14	0.5947946196629483	0.08196195250621248	0.21333772104981885
Si	2.2167121164374897	4.470437531633992	1.6934137537213514	14	-0.09225382999223322	1.645167247660915	0.2748239050074361
Si	14.537512096327559	11.0248787227906	12.813664639325376	14	0.06689733221440085	0.22419061371669594	0.4698029056292696
Si	0.8389910591880326	5.385366927270418	8.45304552412012	14	-0.021013386671038237	-0.42431645296840187	-0.093916820913305
Si	12.845644457367216	14.993271641068945	9.654730840600628	14	0.03996011888574144	0.07344439480162591	1.2308691065724702
Si	12.316938791913216	11.45548070136772	16.159079880984905	14	-2.086643514646517	0.09193784114838702	0.28177925911950064
Si	15.2400335244101	2.3955433245102746	10.334883611541676	14	0.655802063809954	-1.301485285521933	-0.44449397329985996
Si	12.573692216456472	4.191856508137083	3.4406578784219244	14	0.4551427202043173	-1.311568132145426	0.01835486377000512
Si	5.225872810916961	14.787767903905944	10.936117307290413	14	0.26775362248756085	-0.08623101577978634	0.5103968019764276
Si	8.376100491528293	2.3275405081501925	14.532686841034192	14	0.618699728487557	-0.755100722379393	0.4392823428159198
Si	14.102471801039892	7.671557473307551	3.1915612470217294	14	0.3703759489043552	0.7252141941379917	-0.2609931581587635
Si	10.780959854291	8.970208614900212	14.246996640863125	14	-0.4045526234829556	-0.6634261624157891	-0.4746134436832666
Si	11.823813440805589	2.1265800201947767	4.3095301057110875	14	0.5551749151215944	0.09733793365229403	-0.05627918146325332
Si	7.822838982197713	4.795075723478165	7.883116143463556	14	0.47176851564652283	-0.4547814799068365	0.7725428437607454
Si	8.677735512537959	16.383720682294758	8.815238072911145	14	1.000198536117405	-0.13410396839881553	-0.1371425006661665
Si	13.40279666693944	2.3940775486923096	6.0866439215209285	14	0.1302316266761405	-0.5828711187407616	0.13864865416270927
Si	10.070014314180828	14.614202995528128	13.781955488844895	14	0.32384614170457143	0.03259313081192115	-0.4865264030736408
Si	4.032949357938917	16.379654548034633	0.6250746869892618	14	-0.1756918540627427	-0.015117327950874662	-0.7073282999783815
Si	15.73159636505406	0.7447256063042796	8.625816880489102	14	-1.0695754423025565	0.3475669022777256	0.24002759404668003
Si	6.882481491303103	5.695571982061408	11.448868314484216	14	0.15042920162909576	-1.3040589619474015	-0.1726445800373032
Si	10.076733273131634	2.161924236422819	5.884345544228308	14	-0.0978426416266391	0.4487200991145874	0.17242269364817445
Si	7.812603145025952	14.37046939846861	5.45103499557146	14	0.8390581097245723	-0.6228525778006603	-1.0150317569304033
Si	14.171973184623262	0.24289577665350232	6.790024484422947	14	0.09952851538506019	0.8177487888311851	0.49963364088522366
Si	13.584723383674772	5.440289252046916	8.513796521192887	14	-0.44202622641358186	-0.4211714769407967	0.16148726850052064
Si	2.458842213776686	1.632436495951851	4.020280398492145	14	1.3673030106124038	0.08268854686968632	-0.07708328016123149
Si	11.053895837361454	16.630379272709142	13.096367542471462	14	-0.04610454637983132	0.201619908553244	1.0640190265951845
Si	15.471355574554638	0.7934634720367464	14.139186698010459	14	0.690131204934039	-0.2834149963241789	-0.2596721242452715
Si	15.368938178307438	12.617535964944391	6.2289586206253515	14	0.9540325403204222	-0.589354160805515	-0.8498978897543166
Si	10.413405910729567	9.867445407794289	16.313048645541336	14	0.9871715167918107	0.880254158937709	-0.006822427967012929
Si	3.480889653613449	8.23387924792904	7.800085026043668	14	0.0933074689524299	-0.6995219100053479	0.14155734561139277
Si	12.170356291405925	0.3381843213833515	2.801359919373551	14	-0.4444191541350437	0.008005650635345075	0.203061013085187
Si	12.236252259973966	0.7412120072238559	15.290306027911711	14	-0.6151351480717038	0.8529783310383859	-1.2160626252548015
Si	16.18848229456831	11.36399104094461	2.0203506230787083	14	0.6861331361612089	-0.11736890098050369	0.4446788357723786
Si	6.7505846216699865	5.75329961156334	4.585753427165231	14	-0.3830175595424593	0.4025828996971902	-0.022143387459243314
Si	7.491093253249652	3.6823846414756405	3.6378801461704504	14	0.23234924511858984	-0.400270961793313	0.4969445218308808
Si	4.996247715997918	6.016786751189796	10.212922537721608	14	0.5533676851920624	1.4778618249314313	0.5479704209040076
Si	3.420596096644946	14.120267696709009	0.6878521929110278	14	0.7176685142444211	0.0022571733605579983	0.09610740264607118
Si	11.369932843589245	8.909728146921365	5.960324869933356	14	0.48026704717174024	-0.13473800297076402	-0.14472186203943105
Si	15.432792881894084	4.640967595449108	9.820565175173405	14	-0.05172061173063078	0.47422057879034796	-0.2912596957664827
Si	0.9106976647794149	12.466772560258342	14.639614695083653	14	0.8988571343711083	1.1500975758294862	0.3980181593117993
Si	5.688979270021099	3.9285267672561788	0.5617364480364622	14	-0.32646069870463	0.4616360466903512	0.19601232785000103
Si	6.86899274672324	9.589908790556935	1.7560748501542187	14	0.21489503954223257	0.5318609034100877	-0.2973095065847911
Si	9.666116016528981	12.88741742860895	5.883529038235751	14	-0.7256682513375298	-0.08408311439533464	-0.5874821390219152
Si	11.53993988448945	5.096946842606163	13.747286775566518	14	-0.07755019288737039	0.1447971954253114	-0.44316754006519554
Si	5.900278888075046	5.429141813807158	6.8042903853089785	14	0.22308092466052004	0.9431336248683143	-0.15031144500543295
Si	12.593199823483483	12.799379063596149	10.34402421577563	14	-0.24835386151544758	0.0033745757326943534	-0.019272748369297984
Si	5.809148293540229	13.060713447463112	14.43055800915384	14	0.9768734686530216	0.2763742815154854	0.7182117887985683
Si	2.629941208474166	3.8111482923300866	10.949960199047771	14	0.812345611000894	0.7336703024254266	-1.0286455024900554
Si	6.805743044564814	13.616106398139724	1.9941847212007415	14	0.5065619983914267	0.30978373826655353	-0.15568634067720252
Si	13.106595181791894	11.187178143869492	3.7097310339452565	14	-0.43211230140962287	0.0931719717020581	-0.8219911126094294
Si	1.853132491201276	14.533454159918765	15.399878508800521	14	-0.2115826845582858	-0.2065476890098398	-0.9583252577629414
Si	9.197390750122644	1.5825066626358715	12.37300881587604	14	0.509275028725247	0.9271560050773181	0.03784924141789987
Si	4.957624359237517	1.6483091756987396	7.855417243386711	14	0.5157318455157348	0.23568216894509778	-0.08922095415658655
Si	2.881998903775082	6.274159933293668	11.05817675532645	14	-0.09848207551975993	-0.6156714806414867	-0.20522665509634772
Si	11.16584241599569	11.430869112102092	9.020149925208054	14	-0.1878914916963133	0.49135545308594286	-0.009766600669114493
Si	13.05585212162389	14.997983766013947	15.231006050524513	14	0.3143178824986347	-0.06548373850938342	0.2667128390539649
Si	1.8146239043595065	7.3487687167236295	9.270648389185835	14	0.2893311096658396	-0.0918211129668523	0.15059580925384133
Si	14.573995813890598	11.817458466453875	9.60528959922397	14	0.9844428027155376	-0.18508872978681992	1.253910324009509
Si	2.137725818864268	6.8216583531386235	13.18330083712486	14	0.42552230136355135	-0.01097013506947581	0.12595536430767024
Si	9.815595637696612	3.369467737464389	10.815707266942153	14	-0.3619810329235398	-0.09550576400115651	0.1746659830400036
Si	4.459173683905336	2.4139934087155983	11.447563216552336	14	-0.5916884673256775	-0.4382418164928558	0.3376542628264267
Si	16.03930763347019	12.839984660808362	12.796117958336717	14	-0.10592671097424869	0.3608158079924486	-0.5939651810866685
Si	6.806510363449386	15.228564730398173	14.474595226933168	14	-1.1265395662230973	-0.036523836625363536	-0.4265522861548027
Si	10.437583013874658	13.171297543206155	2.573384232142287	14	-0.7892195470882899	-0.036566259863145975	-0.11471474895851481
Si	0.7415300838554948	9.246540147991924	10.226667055262997	14	-0.025625178283787842	0.02424989404804064	-1.1543149598861249
Si	3.296572443430026	14.29209138146414	8.18405270753983	14	0.46942135359975967	0.05641416449256109	0.009698466378130568
Si	10.847050931720716	15.153954445865384	3.7874909329593756	14	0.3503233842914563	0.11143736100692206	-0.11218041044444485
Si	13.010644250674506	7.2442149604195984	5.2388106598873865	14	-1.252608573385918	0.44376480783106603	-0.01371196178288172
Si	14.275526803064924	7.289904865027236	15.562448458973334	14	-0.1560228983636099	0.209590335045703	0.5325728424732367
Si	1.2794534133459587	8.272089432982366	0.5274710690435663	14	-0.556780570394027	0.08036041100229224	-0.23144344471430162
Si	8.724864959839303	11.662809280236978	12.514882470578863	14	-0.9485213760666847	0.27330823842120877	0.026140427789945516
Si	0.9278836403095136	8.775678521528754	13.527392530177258	14	-0.05289175020395823	0.23899375259744848	1.1779321049148772
Si	11.383552753790402	2.3624748318116904	9.35632413344507	14	0.4408694861300472	0.3046458985053016	0.42785815054690585
Si	9.843148616019768	6.584830626040254	3.041788142776453	14	0.7064541241695312	-0.12981665027746858	-0.3263120888171254
Si	4.532129642039547	16.53290354124421	4.4326815075444	14	-0.862542842829337	-0.20408071345515774	-0.26208870613567864
Si	14.412529294506925	3.2702589802281032	0.20564965891669124	14	-0.368096406927512	0.33369141819648246	-0.07345853588088674
Si	11.385243150734834	5.656837134522905	4.6106781743516985	14	-0.3756253746365016	0.9279921285274304	0.5821257553084507
Si	15.835791055469798	9.028985569372498	15.463502032979635	14	0.14646687122021554	-0.48425200330743773	-0.15253956487587328
Si	2.5028335235885617	10.966372297412232	9.999214390946642	14	-0.1595874787794632	0.2850530475236452	0.7454976440086398
Si	5.3749228646748515	0.591966844604289	2.3632503485475933	14	-0.08713347374715832	0.811984884924477	-0.05949794821354669
Si	9.68890276408835	11.358862465151999	4.058149552930104	14	0.4585823449016114	0.03271937208314042	-0.37384719819708717
Si	13.879588619055383	2.4087402255827577	14.615719598024347	14	-0.19266629138636032	-0.5650505306562832	0.9006008579992328
Si	3.086033585979586	5.516352195835538	3.7302814076615567	14	0.024479236642597844	-0.6026051234044941	-1.0406109124289606
Si	15.403278977532578	2.231573181330145	2.0625761157139078	14	0.5887610068081568	0.8548290126478285	0.13599398791965636
Si	7.133148831018299	15.382522017962739	7.36117698449808	14	-0.9707568090963893	-0.07132528979675988	0.7258849955160183
Si	14.527920610270407	6.541180346843744	6.754604847962661	14	0.5987682629352372	0.38591699501199034	-0.14887908223157847
Si	11.004995654172635	1.091497996741882	0.8285732297167249	14	-0.18297862365057438	0.17130246306018593	0.3269831473056841
Si	0.4117305248133878	13.49605870282029	2.8348694564737382	14	-0.056178137024171494	0.2750285649909199	0.0583381226036279
Si	14.896379596618774	4.040258562185548	3.4942439534314853	14	0.22294362763642409	-0.0743070006365356	-0.04249368606821536
Si	0.5193174861098533	16.39884571800027	15.969463579701186	14	-0.18135497064090086	-0.00017817759868626187	-0.5375589870205999
Si	11.659526860564085	14.039240134154394	5.775082942119806	14	0.12836808954009715	0.7395028548441825	0.10588403062593423
Si	2.205102319382669	10.645919928457618	13.99169751514597	14	0.5145193122467531	0.31289554703552874	-0.4485241808891921
Si	14.730979748166535	5.462433288061942	11.879191566116084	14	0.35151432027574897	-0.09511084222398178	0.6851023800383614
H	2.5881092127028493	8.228168624691936	2.8291555540961006	1	0.26218460836412016	0.14918581509627216	-0.06273728380640126
H	5.033179036243624	8.71369456761582	11.393683658465129	1	-0.6756839070295949	-1.4409407525341047	-0.887251422066492
H	15.03398381034846	14.020553951830738	13.414408103564526	1	0.007164899195656652	-0.15181785561250774	-0.017367816437600273
H	15.410337327528483	7.935279071482072	7.020333280142985	1	0.08076638853234362	-0.18000385479516307	0.4546377551194402
H	5.047128500068283	8.049073445806295	3.786871175398759	1	-0.16095864924669817	-0.165244424704853	0.2172036350091935
H	8.802987203882246	4.829819856988786	5.282587185994393	1	-0.2154377998753158	0.06894213227551463	-0.014807766870328832
H	4.67096025432834	4.80275219146442	9.510440459325457	1	-0.04370416245294108	-1.213105597026099	-0.7616231023555445
H	11.8005282638853	5.813337395570319	10.731075928942476	1	-0.09997871592661813	0.066448674336035	-0.23191524254054882
H	9.681734562884614	13.8434803630833	8.659490374615908	1	0.19062149132524656	0.9245154799135261	0.3923684124813059
H	15.667074356369076	11.148776129095022	10.579735395522729	1	-0.7524573689997487	0.693083348062633	-0.3633956550706853
