72
config_type=amorph dft_energy=-6965.960559854163 dft_virial="9.361340509853491 -4.205874333595334 2.749414262332357 -4.205874333595333 -1.977163412802591 -10.883202933193907 2.749414262332357 -10.883202933193907 -2.1205454923569778" pbc="T T T" Lattice="11.105996452100001 0.0 0.0 0.0 11.105996452100001 0.0 0.0 0.0 11.105996452100001" Properties=species:S:1:pos:R:3:Z:I:1:dft_force:R:3
Si	10.667065260320106	8.059321763384764	6.216948011945895	14	-0.9572621057130601	0.15501013997800359	1.0294741697347392
Si	10.794895279483775	4.80566461879174	1.5735197893264323	14	0.6006541686875657	-0.29475717033348015	-0.47016466014781444
Si	10.058978636578274	5.932945470672793	7.1956195253013995	14	0.2684133681127109	0.10046465483212612	-0.12610320286357873
Si	4.969167098559556	4.1825293698573125	0.5701318808667796	14	-0.8619622872480475	0.43283246800979636	-0.1952353398222523
Si	1.3153275838080116	2.9818823054136856	1.3557200929042992	14	-0.7298861496152328	-0.08523059869971673	-0.05495274822858892
Si	3.692910410270032	7.860413366927654	0.11774133198658336	14	0.6966669546578556	0.05942698570671061	0.5063503964235785
Si	1.6298382973350314	0.21764754427073937	3.3627402417455508	14	-1.1201534548289136	-0.48186730312300047	-0.06225777266419364
Si	4.511244652846568	2.8392368869829134	4.510711565016868	14	0.43034749471787326	-0.7208428008726759	0.22204939720607658
Si	9.64751257402442	2.458312314672335	8.036476728682795	14	-0.0004694838314590393	0.7865062596439377	0.19880943332779014
Si	2.2554057594924686	10.613345555481297	6.970201115313126	14	0.481738490746461	-0.34924300583593015	-1.065798745697791
Si	4.384458597349394	5.597899769705841	2.3765832867813312	14	-0.3009764169923863	0.4980930345773909	-0.10018337591010192
Si	1.786721603217396	8.273623070924486	6.581602299454146	14	0.5669924865045911	1.000702215649622	-0.7241515563091745
Si	9.638794366809522	9.82319833190019	9.915466950424237	14	-0.6052451343472222	0.9356897607454218	-0.8369847703944049
Si	4.639374533914446	10.361017316089585	6.593796683558552	14	-0.08768831827524629	0.6849535130403249	0.7126702855020531
Si	5.568979754944572	9.251828132429003	8.501562542107386	14	-0.09063557630373202	0.2937953198332127	0.0029210327542202328
Si	9.3821792127873	9.751631290762859	7.479066766751895	14	0.22055429946241048	-1.0265842473548927	-0.06304247400790283
Si	0.6356095041494256	5.380610949120505	8.932952762296306	14	-0.4620098854039007	-0.18693529762775027	-0.9031503660346917
Si	0.7761647740479128	3.022830114332578	8.557225796325312	14	0.5519162962388389	-0.02754630817900249	0.1308376362000994
Si	7.312376866002327	6.356705871299121	10.594432043523371	14	-0.29161785073757934	0.15844925045423364	-0.5114974921639829
Si	9.857071621079095	0.6704645634146963	6.374031225764397	14	0.05001365490858446	-0.12188736147013192	1.030603913412412
Si	10.618987401678964	7.9313140482778595	3.8910080689861397	14	-0.37873229830536853	1.0069422882616212	0.2556311180135947
Si	10.542878007992723	4.487588880403596	5.292473761276639	14	-0.8209860675397835	0.352157867937382	0.25610137317664977
Si	8.542688046969513	8.918737086837618	3.408152661238188	14	-0.641391275601056	-0.44647346728584203	-0.001478899780149175
Si	6.382271875131855	0.9912035197520539	6.726002465324351	14	-1.14287148432721	-0.5834964115546216	0.10863048532891642
Si	5.527354480242102	10.546109852960283	2.844956475155745	14	-0.7711500760088212	-0.24879249208306484	0.02685339529522258
Si	2.6505793252510905	5.650153483012971	4.037862660072258	14	-0.007426637717247726	1.6725711166051813	-1.0708710222733793
Si	7.378246530959732	8.356895832322332	7.369195143851271	14	0.8185615152228839	0.04650229637285823	-0.4274056360105598
Si	3.7802590723657987	1.0183832248692783	2.956183029623526	14	0.7933633975327726	1.0335938517892123	0.0012454434170797294
Si	2.1969215821757095	0.04220389711762521	9.138780194543076	14	0.7927501889139174	0.18371113155628455	1.811085301959647
Si	7.828850125010785	6.141227328135478	8.105878100511967	14	0.8245377924290361	0.6686120818465278	0.00982856430733006
Si	6.9166257884281945	8.0468164113797	5.00689416850734	14	0.8345067390868461	-0.557112242980326	-0.5153600636864414
Si	4.1553196785496676	5.390328696016091	7.8583365455911105	14	-0.3818924438543625	-0.44971357421029257	-0.0017542651599370344
Si	6.042328429729526	2.6897612807340994	8.253854397239747	14	0.06520683046640349	0.9349937625352575	-0.7153637754354403
Si	7.823774684632175	2.6078878748892182	9.62857685007359	14	1.0848004995663454	-0.3724924828039012	-0.16346933359182278
Si	0.9611395873562192	0.9020034880477223	5.587537875016031	14	0.18062143429306263	-0.5646977750063589	-0.5584286489042418
Si	8.742362757181818	3.557761539444427	2.0283103440399275	14	-0.008011821288113428	1.0646409769721286	-0.479777251608252
Si	5.202404130050108	7.108604043099196	9.471482530258635	14	-0.28900483640071284	-0.2804173446314182	0.7648598668430789
Si	7.364930441213663	7.73293873965045	1.6735292873775927	14	-0.4791974673585586	-0.22885305610425244	-0.015801241966034052
Si	1.3950464263411855	8.323777750902169	0.6292901921681807	14	0.46399400737945906	0.5158015224699108	0.10717832504409677
Si	3.6365585842720765	2.494462333123921	1.1360990130640216	14	-0.7626065501405012	-1.807928241737037	-0.3991489314316004
Si	4.984082451794726	9.159948223780779	4.675402386405059	14	-0.7425030776422634	0.250149521471039	-0.5240187750731041
Si	8.9908261098082	1.310807443252007	1.7723282318154745	14	0.29701331525191005	-1.2840719605201663	-1.3624220242726348
Si	8.06315333216074	1.2877736066103513	5.15037253667202	14	-0.2175106249844192	0.7867242893750862	-0.5885419486348802
Si	6.39720944035993	6.251943006766463	3.3424051622417554	14	0.0072050084386509625	0.47144249949192807	0.5963979609405926
Si	5.539171260467136	9.142556233336789	0.9339443338439618	14	-0.06022068591904032	0.6884910968503166	0.1409482507610497
Si	1.1160971134537896	3.1430636319230127	6.171668864410684	14	-0.11752548129450072	-0.20761572615982932	0.7435667439132086
Si	1.3544762213016641	8.975410986732685	2.96371289521805	14	0.8519917979270453	0.07742343739508709	0.4147303438927618
Si	0.15787173956660153	6.426640330957994	10.968670805969785	14	-0.023786066648285923	-0.6256193442356716	1.1278832258634068
Si	3.0707191710340336	4.194223984121374	5.651852700470143	14	0.4435182388308638	-0.12402472132277102	1.157095610289865
Si	2.915801626523691	8.007012520095373	4.509389951439068	14	-0.13548542328733107	-0.4571571812226533	-0.318734012996521
Si	0.2190502316226396	0.8007012520095373	1.527729765954424	14	0.3830720669752465	0.621631559884122	-0.2835646346538115
Si	8.528461265514373	3.521833640921883	4.379205461027551	14	-0.15703205720176802	-0.16320553818597558	0.2814465580910735
Si	8.210829766984313	0.5393616070965913	10.646297046954679	14	-0.007573962052092212	-0.24236704277748278	0.6221136421316497
Si	4.067537882592269	1.2133079003990208	10.232843011035898	14	-0.7231475396816566	-0.08202880124453632	-0.27094230730560853
Si	9.386654929357496	7.556431138037224	10.416158588474262	14	-0.9614028708311586	0.3704831639962054	0.13838074498834982
Si	6.039418658659076	10.797571824628733	10.32873218440333	14	-0.617501079187304	-0.5973541550091558	0.09312183514831522
Si	7.162534761870593	4.1018665176257105	0.23970627442390036	14	2.1546428226011334	0.0488787690202711	0.5315747393879553
Si	0.34259111495650957	5.806603655033705	3.5937449679492306	14	-0.28813863101835485	-0.8903984549783532	-0.3859673886762652
Si	6.367423157875398	4.383792237562269	4.826033016284891	14	0.45006915807606906	-0.3099102366483048	-1.0682232980146906
Si	6.274221635649375	4.840148737775509	7.069266603665857	14	-0.22772768330562362	-0.6670933299339162	0.16540177635044606
Si	0.6022504226062528	10.422777762359713	10.731846537625204	14	0.4192706587776112	-0.02298439600946375	0.659588016393872
Si	7.741834642808581	0.037130677938305934	3.254234656408534	14	0.527124413189311	-0.25457902171659014	-0.16016803436075266
Si	2.340255572386512	6.790506092718148	8.208242069810973	14	0.06597481962553173	-0.14842296814778422	0.03756899093800373
Si	4.213126390082849	3.57946265651183	9.423493519589112	14	-0.5598311868563827	0.07468006801848909	0.28522042647998685
H	1.4691900586554048	3.152070595045666	2.8436792855637534	1	0.17223268896501548	-0.2006598578267007	0.5695299103450453
H	9.527767720277879	7.274871915983584	8.96418282431961	1	0.2636874194237467	0.15080072634785716	-0.7301129211044698
H	9.50191296053739	3.874049212403783	7.311443962300349	1	-0.19221351973948225	-0.791685751311376	0.10711944673226537
H	2.9118923157725516	9.769012175210394	9.348594679516149	1	0.1676612637057922	0.08271451503341982	0.1172961386999435
H	2.649557573577497	7.70036485205644	9.385255573804532	1	-0.10457328113372273	0.02765917970255699	-0.08524499688950955
H	4.005955132265375	6.94584566509367	1.5566497807156925	1	-0.2249768577235972	0.15904908932542422	-0.18619764751139978
H	4.76901483049981	1.898325761564549	5.704550653635358	1	0.2176777468302288	0.028311983343342582	-0.07204057129682506
H	7.314542535310486	0.30835910209220174	7.670289813664153	1	0.40554661279972487	-0.5198407289278635	0.5344446071463046
