72
config_type=amorph dft_energy=-6969.579764231314 dft_virial="2.2211644955530385 -0.6716318463337047 -2.47271200354319 -0.6716318463337047 7.306197369573953 -1.8199462203087466 -2.47271200354319 -1.8199462203087466 7.180423615578876" pbc="T T T" Lattice="11.105996452100001 0.0 0.0 0.0 11.105996452100001 0.0 0.0 0.0 11.105996452100001" Properties=species:S:1:pos:R:3:Z:I:1:dft_force:R:3
Si	10.853612682726029	8.016363769108041	6.344167201304701	14	-0.566659528365632	-0.3071810083509676	1.7610045412022066
Si	10.858210565257199	4.72311374716328	1.5728423235428541	14	0.12959167856195564	-0.7003135533334215	0.4296538105024973
Si	10.280432205833147	5.844808282828929	7.306768337794017	14	-0.16371076038138468	0.5153603207969734	-0.8448695790797031
Si	4.753033301605238	4.220900587599318	0.33013796113476984	14	0.9934326724674354	-0.6279559647506222	-0.4996655225911935
Si	0.9476424698679821	2.84350158962052	0.6872024106676562	14	0.3876419495712776	0.2776657477177958	0.16111471533963118
Si	3.7309040241326663	7.784092959308823	0.611506160049433	14	0.6012064421103337	0.3846970055375801	0.709071509385442
Si	1.4773307540547942	0.17735387854287532	3.404321092462214	14	0.5182417585292634	0.07687990573040777	0.48070824884467767
Si	4.895367752135352	2.6619851836073973	4.647182049420272	14	-0.48073550256107134	-0.13759167276559636	-0.3529901347295139
Si	9.900218417295504	2.432768522832505	8.400120370513905	14	-0.8311617310653335	1.0283945626108089	-0.6081396847166449
Si	2.386112231737233	10.465369258753517	6.8986118621828885	14	-0.26248079969700117	0.1968934456432158	-0.040281249940227935
Si	4.322209487235375	5.883290560535454	1.9908053940211856	14	0.03849998817442935	0.7624350574156473	-1.0079535039840355
Si	2.030376059380018	8.153000843458228	6.537900203415133	14	0.02837163298677002	0.19595859174880997	0.43722391589660925
Si	9.665826362173934	9.776264390893616	10.055224809777464	14	-0.2650670745385381	0.4124713707584796	-0.6359032512952
Si	4.710086413324967	10.587002131896917	6.5438863355028145	14	-0.220666913875433	-0.19038083586728072	-0.2217943435583179
Si	5.631784164881198	9.349083343360041	8.308951245638616	14	-0.16969115135604915	-0.019819622470893482	0.626111453793948
Si	9.476102624782708	9.589083926689923	7.629897304567866	14	0.8171844312134126	0.2578602663261631	-0.25404448892053133
Si	0.7665358751239421	5.5226788557357676	9.099054045233915	14	-0.8356004872900371	0.3903138422199755	0.014302030453855705
Si	0.7276337907515261	3.2163298905175166	9.471804604155746	14	-1.2306099391561993	0.19710016251095572	1.1594047199778903
Si	7.558141461490847	6.091938915881057	10.296991246543229	14	0.3664732681389025	0.5574403160191769	-1.7201152248537632
Si	9.790124674465837	0.7095643345239594	6.760353312350697	14	0.26487732696591126	-0.8469801994370126	0.512296848808017
Si	10.774460246011913	8.000260074252497	4.096802183243552	14	-1.0985690256662706	-0.44727205259828	-0.7494201222850578
Si	10.465513636707394	4.385924588881072	5.342261943371403	14	0.0903139310281815	0.3700522467445486	0.015555444297427895
Si	8.551439572173768	8.838907184339924	3.672353210837195	14	0.8043109068754312	-0.1945097739009065	-0.08316754379082991
Si	5.9687067792485555	1.4518758101865812	6.242658393732507	14	0.2776626623914116	-0.4864173882080664	0.6313544517627939
Si	5.464694448259354	10.689888083029171	3.002661624775565	14	0.3407653002638059	-0.04295905613116216	-0.4726154377389796
Si	2.8542744061790564	5.657305744728124	3.7600239468300725	14	-1.1548284096185588	0.23313497490442706	-0.04943644176421122
Si	7.4907280630266	8.494510234360304	7.251327203505133	14	-0.1827220273396236	-1.290679958303479	-0.1840988542385629
Si	3.740877208946652	1.2316216885485338	3.231211925763331	14	-0.06424909373464834	-0.08192184326321816	-1.4955191478280803
Si	2.3406776002516922	10.793929057792443	9.210002949790393	14	-0.30504056317194433	-0.4860587190159058	-0.11597690456017551
Si	7.984211909379212	6.250743559149636	7.884235729317408	14	-0.33682328158695485	0.042969083441910735	0.6576519740878004
Si	6.845958333003482	7.998183252915954	4.937115192798795	14	0.022883608680913946	-0.3003958614110968	0.4719317808343522
Si	3.9035356329841084	4.932561734253434	7.410342860706301	14	0.6243790430292323	-0.19473937360599572	-0.20079638351920057
Si	6.152699822470496	2.8903577886519294	8.074459236548977	14	-0.09139996591541204	0.09755364938865445	-0.05655686083782931
Si	7.846952899227708	2.425316399213146	9.583075582609336	14	0.6804142265976034	0.2846969494368047	-0.06391099338504885
Si	0.7422592774792967	0.6016207126074187	5.628208034023622	14	0.6838121993887112	0.3034490489787727	-0.04940070340026116
Si	8.829678101288229	3.4995216940496143	1.9955365485097805	14	-0.37824970183677675	-0.41076672793122154	-0.9105196681033001
Si	4.061762764437177	7.896407901428909	9.450814270861278	14	0.34824130320320046	0.40845479002734436	-0.2290307194818747
Si	7.904159886952474	7.491083454913068	1.94709219198572	14	0.49746388510555073	0.8334212184206797	-0.8815872770462058
Si	1.4554963650299657	8.370811645876813	0.7991852834938257	14	0.4111763050087211	-0.8959623268911536	0.4959621024880522
Si	3.2550898181353456	2.7483009880331184	1.297369187544966	14	-0.20432702534482794	-0.08232113591943717	1.9187040573450849
Si	4.8895371039979985	9.150052780941957	4.669605056257062	14	0.21535732427879517	0.7699722526616614	0.019740689537564936
Si	9.004719711369777	1.0516967718269974	1.628016913916887	14	-0.3597189744628735	0.5608385459208167	-0.11357266397530505
Si	8.14920259267161	1.2978578513888583	5.267707389188456	14	-0.5415210603189481	0.5046722359811179	-0.16629677811238963
Si	6.326752998867808	6.292702013745669	3.1833783990441358	14	-0.1070729097259707	0.046238243856479025	0.45985427070348867
Si	5.325247556806786	9.547325380030026	0.9276450126563308	14	-0.0697111498767709	-0.22703811285875994	1.0255216095260753
Si	1.1500481446078594	2.916767848215023	5.814722138440189	14	-0.051925014603582544	0.2530201605609843	0.34223494406480254
Si	1.457217794480041	8.96972471654921	3.0800815260431538	14	-0.06066574424995796	0.43309677763670756	-0.32510804019570017
Si	0.13148722379534755	6.473396576021337	0.09967964995653314	14	-0.7913065132766541	0.6552898996301805	-0.4572258297347012
Si	3.2337551989508615	4.022514172975455	5.3709709442000815	14	-0.9556945027993657	-0.07845085108101826	0.6269311221700112
Si	2.9637684252003105	7.898917856627084	4.428105163406148	14	0.446040236039397	-0.3643937581559667	0.3617637745239873
Si	0.234267667961307	0.7627676105277446	1.5250421148130158	14	-0.03788832221876612	0.43936461818616457	-0.5639058745677533
Si	8.453684591402384	3.5093505009097234	4.321942943320524	14	1.2818741796925037	-0.6736650751322147	0.3369898892117004
Si	7.99239702876441	0.3771918469030271	10.653293824719501	14	1.782613395865391	0.0895968497543922	0.4071216719188476
Si	3.975657973944046	1.0954521766489809	9.938367515108467	14	0.5388715362865356	0.6220190254558682	0.4316261053935829
Si	9.130839407079826	7.664148197626142	10.968726335952045	14	0.29874495468502976	-0.7436125095879073	0.8511230214393672
Si	5.918374403327639	10.833022165303834	10.189040961028818	14	-1.2206499913670095	-0.9190544522135315	-0.44381674415853295
Si	7.270162973487894	4.041316624968861	0.14513538283533323	14	-0.10727756970945451	-1.0073490371232687	1.0646386629773403
Si	0.3499543906042519	5.664358052475207	3.639412825360266	14	0.3273767835301988	0.37083257720921353	-0.01973400466373255
Si	6.416267330271733	4.39902966469455	4.5181192646504185	14	-0.21689638792343582	0.5878197251504506	0.6444876577381103
Si	6.2785640802621465	4.961281841078565	6.909684540645633	14	-0.1644944332829658	-0.31185244960714464	-0.4032243904745671
Si	0.8004391504932677	10.32629997118032	10.907643355465495	14	-1.243699436341073	0.23960207611619552	-0.38125146729804965
Si	7.9774372515434315	11.039693653280963	3.395325235336012	14	-1.0553106928758431	0.310590294005484	-0.3116174505808832
Si	2.6131854351968697	6.615797662530162	8.260729009043597	14	0.05344273807406595	0.5026657453892742	-0.8020591328360455
Si	4.0827642037280985	3.3721803387298364	9.207126496709298	14	1.0504875564057772	0.06345102264327437	0.1951816037210612
H	0.919538745845943	3.068864469626533	7.337176556079865	1	0.27394227299315727	0.027675634776605937	-0.6538490522087695
H	2.985747192179016	3.777926813110857	2.4929741295993395	1	-0.1871962648177453	-0.23440715781683635	-0.03472457712232391
H	3.1824343893457074	9.424792921174006	9.625345005106029	1	-0.07962995998083816	-0.08046505498882225	-0.18835351932234393
H	3.65513891633644	1.231077494722381	0.3755226156362765	1	-0.015223771711128788	-0.2545998476696833	-0.42402540384616105
H	9.598446281699042	3.623164752550844	7.3570673957255766	1	0.19981807794488424	-0.7486248794095359	0.7271893172449293
H	6.170624900744186	6.642696385937149	10.453352570592346	1	-0.32892150360654376	0.40288551879337164	-0.056256555736436016
H	1.748417021454103	2.4643539767422777	8.852945163855377	1	1.392048870876701	-1.0078881979089038	-0.541137451405182
H	6.7927161860121155	8.775047704740349	1.4396814260821753	1	-0.35016577553533124	-0.31120555950859546	-0.3625029673035298
