72
config_type=amorph dft_energy=-6966.134576051298 dft_virial="10.217859774559958 -1.7193272171126859 -2.250092458971906 -1.7193272171126859 7.4608990869878955 -13.78857665048016 -2.250092458971906 -13.78857665048016 -4.007151802283115" pbc="T T T" Lattice="11.105996452100001 0.0 0.0 0.0 11.105996452100001 0.0 0.0 0.0 11.105996452100001" Properties=species:S:1:pos:R:3:Z:I:1:dft_force:R:3
Si	10.633580681017023	8.065574439387296	6.307850592906334	14	0.49616342003461983	0.7484672706534109	-0.03733450613280622
Si	10.868839003861858	4.778055111611819	1.6820253746634495	14	1.7424072222005116	0.6572791638163791	-1.560820080749201
Si	10.108555804740448	6.053090140291611	7.213111469713457	14	-0.22989512509050847	-1.327355490142731	-0.03464744396271947
Si	5.013802098300546	4.098523612693628	0.5345060654477333	14	-0.3746866640841155	-0.17002282394234822	0.3028862340241923
Si	1.4553408810796362	2.9531510925921025	1.4387818403695551	14	-0.8345082817500383	1.713877723347084	1.2272613315872383
Si	3.7734955205264695	7.813312835974297	0.16920651954561478	14	-0.8021198109216009	0.702681541333278	1.280234071608781
Si	1.5876244048205994	0.18345440239401387	3.3159284666999493	14	0.5985245221508871	0.5885607177037173	1.0933450538767935
Si	4.452949277469495	3.1586675569382137	4.640685041495794	14	0.16482327765341276	-1.9867360183372673	-0.9057690368032625
Si	9.743923729225102	2.5969706803768036	8.036676636618932	14	-0.3001276951262054	0.024703437026514757	0.5044472642656049
Si	2.423650499745331	10.590122916899956	7.0151915069405835	14	0.014268348974161765	0.1599921707568545	0.1432486186909862
Si	4.079643418725058	5.541103703849801	2.2282071741812755	14	0.26711341726284404	0.5901118655433626	-0.13035015463139932
Si	1.81736304742874	8.341402967271652	6.582990549010659	14	0.2635035853933561	0.2820075732719298	-0.9298896042536996
Si	9.614883156448151	9.91590008428587	9.923218935947803	14	-0.3364034200881747	0.7668833267300356	-0.3608129797765965
Si	4.772935247247401	10.302033368932483	6.639508964955396	14	-1.2594523415270884	-0.04855506686046446	-0.32963164289596864
Si	5.681683406940484	9.143444713052958	8.45049717042063	14	-0.3328717498204193	0.6971775761744369	0.4752986432510862
Si	9.397150096004731	9.588772958789264	7.540405185156844	14	0.05988078579571675	0.9687161228037877	-0.1461519108184974
Si	0.5790211204270405	5.49677967200947	8.958241116217739	14	0.08374090027722293	0.7228832300547454	-1.1452453858693028
Si	0.8885519051449386	3.2841764228433954	8.614377254067819	14	-0.17699386179686571	-1.2258942748885155	0.141873848676303
Si	7.3039252027022785	6.3405133284719595	10.48770341761869	14	-0.7821343521575579	0.13074353374538197	0.2604578540311087
Si	9.781695223158692	0.6713008449475394	6.585411656237217	14	0.5085358359457043	-0.5039736666656337	0.21944281063251048
Si	10.52816256269369	8.121415389548456	3.9515135376571804	14	0.5933632853312218	-0.5657115618340933	-0.12024211117576916
Si	10.470333639167606	4.5129994002860006	5.289275234298434	14	-1.102208168136408	-0.5376474330436131	1.5811387547627354
Si	8.432716470100818	8.851079356451425	3.2791565124470465	14	-0.48946260534924985	-1.2723037543593165	-0.332120729956404
Si	6.32047811087237	0.9262178921122359	6.644562193341101	14	-0.1000373371279175	0.2757556735754577	-0.08571705182628875
Si	5.44960139908095	10.539579527046449	2.9324717271982927	14	0.18720937745487806	-0.026311406293735365	-0.14970389281828198
Si	2.534466132344385	5.693766731080368	4.052655847346455	14	-0.016226759896518558	0.2548567010911661	-0.24354743722996275
Si	7.400558477832	8.354408089117062	7.20260519706977	14	0.9500483555163206	-0.688947725155175	0.24725239999629614
Si	3.956655614014503	1.2488915130315492	3.1518706871095286	14	-1.1590794751548914	0.011882620347596361	-0.6300167056647209
Si	2.4302030376520705	10.786887856041812	9.38229027275182	14	-0.7311254223795441	0.026860851500651012	-0.8075890661586198
Si	7.914310767709694	6.222178936274834	8.191494227161206	14	0.04386794186183451	0.04611843034856012	-1.48812027804829
Si	6.946345434934014	7.890144119429924	4.900432086517509	14	-0.15310006583566557	0.6966088476776202	-0.245027622562772
Si	4.244800691964238	5.2988819212295	7.8608576067857365	14	-0.18391322043444822	-0.31146961202497464	-0.11587971677907391
Si	6.160540655965678	2.7117844716986137	8.106344552362955	14	-0.7830699773835598	1.0361184201030658	-0.20046496804343347
Si	7.875517522102508	2.5460385806474735	9.551934368557648	14	0.9915202843303093	0.10402794969531934	0.12460013469342018
Si	0.9472559811914489	0.8232164386168797	5.687791704989138	14	-0.14530858827348883	-0.44291454330169305	-0.5128743190629221
Si	8.951199914467107	3.64133416274648	1.882566352599019	14	-1.6444475952818056	-1.0732318111783394	0.7482510406959864
Si	5.054772119212343	7.16352319555483	9.53729666523378	14	0.7896653767508035	-1.2552987208823891	-0.48364650800454284
Si	7.010982334285237	7.608918077269848	1.608448148168287	14	0.8951645129103116	0.6010051245637661	-0.09385408594349338
Si	1.519400268615349	8.38560483315101	0.6746082106909747	14	-0.5796585226432366	-0.6293862706402206	-0.15915964685419057
Si	3.5956440933425404	2.285891719753483	1.0173059432134246	14	1.1078108637395427	-0.40384839773576703	0.6258648847937458
Si	4.849755424706577	9.014115384368253	4.654967352933195	14	1.244359439076755	0.8572702771493093	0.10357954892748551
Si	9.182593350546611	1.2770896380234311	1.5703323683446795	14	-1.1631891298986161	-0.2584163964069111	0.6608686839538377
Si	8.08146712031025	1.2321992003640432	5.1066149106507455	14	0.058911479090020924	0.34175131915408263	-0.26083092141306213
Si	6.028979021994102	6.3722653723285125	3.30466698629752	14	0.008862600038550428	-0.7543340187729248	0.44359974286951254
Si	5.474134545243638	9.271119248266299	0.8736087869186382	14	-0.2732660722939584	0.18516200628844412	1.1615127692298797
Si	1.046696852224262	3.1005609835008263	6.274510391557129	14	0.017660665333565143	0.17986270111308691	-0.15515180788114374
Si	1.4227780994820791	8.978287439813778	2.988134981416218	14	-0.26749625484501405	0.06720997862133087	0.009424900772066813
Si	0.057872236912247896	6.446964304465338	10.987850861842562	14	0.23883254429387518	0.24578249908476751	1.7725536891897797
Si	2.9885236912920417	4.295755003686471	5.861589443468051	14	-0.364189869504079	0.5954731343569354	0.40017660222806356
Si	2.8592387865931452	7.947784241016324	4.441898810999656	14	-0.46099481302350637	-0.2585459801150466	0.6555156426772895
Si	0.35982873204981397	0.9545081968746703	1.492501545208363	14	-0.04065303176952135	-0.9349012027437322	-0.32228908032268977
Si	8.456883118380588	3.483462423179878	4.337158158459901	14	0.383219391310091	0.017678663070806174	-0.5763741927072794
Si	8.128501015284895	0.5683638062316053	10.703193066778786	14	0.2796436990405856	-0.6873587820673234	-0.4195187704410055
Si	3.979145256830005	1.1318454164228675	10.157100115232577	14	0.8550488421527013	0.5007011638141492	0.006459902116872049
Si	9.267098877550639	7.693556876231303	10.51896679763135	14	-0.16357192069409668	-0.052310166180540726	0.5501656306263499
Si	6.008588412508047	10.734489764780804	10.291093962427164	14	-0.3979839636110413	0.2601634624719517	-0.454269572837595
Si	7.3406083089835645	4.093947942155363	0.16316929987425322	14	0.462065164168284	0.16783584175703023	0.4163167158752931
Si	0.23041721899136394	5.798662867570453	3.6979303206663814	14	-0.022840671222067475	1.0684300148824308	-0.7955755765502279
Si	6.324642859541909	4.433835857575431	4.6735476849975575	14	1.0784472983202595	0.6153385225025275	-1.0126822808888518
Si	6.36959993318001	4.813916374155649	6.922623026512329	14	0.2435140128608008	0.1951939450265979	1.2580886272652818
Si	0.6283062008825246	10.41118310206372	10.842806548178135	14	0.3660186967183003	0.03315800265075769	0.05104312547877175
Si	7.823297126784735	11.032918995445183	3.1856551283168164	14	0.058296470697441496	1.039335901300699	-0.43471271733042066
Si	2.426804602737728	6.707133377352233	8.071560571474977	14	-0.27222451752876636	0.6908230893756908	1.0589932870258911
Si	4.224254598527852	3.5500539779066695	9.48255520872138	14	-0.06642219195123748	-0.5854705062194313	-0.7145741889916228
H	1.7094905038894928	3.2674952161723416	3.0254067055094653	1	-0.04131971937903575	-0.5521646650127651	-0.852976788375194
H	9.41359807675029	7.414241065460987	9.073632419355057	1	0.3599030656037961	-0.043828346839904234	-0.9119851981357845
H	9.019890502523346	3.5920679624849634	7.1054055161209915	1	0.36516020465190285	-0.10953962817012078	0.10966278411495588
H	3.3171834442990367	9.5754790810361	9.496670930211998	1	0.12324670485289421	-0.31601326934674034	0.2570650234506413
H	2.796156726745217	7.680873828283005	9.278271509981451	1	-0.2771975494389968	-0.4549843401165961	-0.5800087071878407
H	4.0423939066247145	7.156570841775815	1.6894997102757128	1	-0.12885222867188106	-0.3680858653956994	-0.12833440806040322
H	5.052939629797746	2.1720441501230057	5.613448164738781	1	0.13003776533500136	-0.3888755659038847	0.4005599540312977
H	7.263221725705332	0.3144729531390828	7.6185469761938185	1	0.42619361696264196	-0.6340541123489495	0.5767115217252828
