ITEM: TIMESTEP
0
ITEM: NUMBER OF ATOMS
72
ITEM: BOX BOUNDS pp pp pp
0.0000000000000000e+00 1.1105996452100001e+01
0.0000000000000000e+00 1.1105996452100001e+01
0.0000000000000000e+00 1.1105996452100001e+01
ITEM: ATOMS id type xs ys zs
5 2 0.104012 0.238255 0.0537535
51 2 0.0033121 0.0593393 0.144542
7 2 0.156835 0.0280384 0.299594
35 2 0.122366 0.080513 0.491291
29 2 0.193486 0.0377484 0.848649
72 1 0.223652 0.220264 0.761241
46 2 0.0833847 0.281893 0.562776
67 1 0.0779039 0.282178 0.706767
17 2 0.0601283 0.49947 0.809052
18 2 0.0981437 0.266993 0.833631
70 1 0.238851 0.320342 0.879978
26 2 0.240208 0.529258 0.353816
58 2 0.0163658 0.524143 0.325481
71 1 0.154717 0.605773 0.578555
39 2 0.11311 0.759349 0.0630873
47 2 0.110943 0.814463 0.270637
10 2 0.249485 0.98675 0.649352
12 2 0.171843 0.756398 0.630643
61 2 0.0477457 0.943858 0.96582
40 2 0.34267 0.212125 0.0986997
28 2 0.36393 0.122538 0.282665
8 2 0.419264 0.2473 0.444006
54 2 0.373274 0.0953245 0.923048
4 2 0.436313 0.376547 0.0258941
65 1 0.383108 0.317448 0.342328
49 2 0.260199 0.378226 0.495948
32 2 0.34909 0.45302 0.665314
64 2 0.366284 0.304294 0.845749
68 1 0.442735 0.252 0.797685
6 2 0.333783 0.697943 0.065857
11 2 0.351193 0.521731 0.177324
50 2 0.254198 0.734106 0.42498
37 2 0.426324 0.631576 0.87344
63 2 0.251758 0.614813 0.770744
45 2 0.491936 0.822227 0.1008
41 2 0.431345 0.837319 0.428898
14 2 0.45886 0.929031 0.606581
43 2 0.746468 0.100355 0.457266
24 2 0.569765 0.111568 0.578751
34 2 0.730732 0.242794 0.859393
53 2 0.731074 0.0456501 0.94832
59 2 0.570898 0.38283 0.388645
60 2 0.570337 0.45192 0.618222
33 2 0.570388 0.260751 0.720376
57 2 0.640094 0.405877 0.985578
38 2 0.654123 0.700165 0.121896
69 1 0.639719 0.558773 0.179874
44 2 0.531918 0.552509 0.287834
31 2 0.600588 0.712367 0.437412
27 2 0.684767 0.738153 0.644127
30 2 0.72179 0.559535 0.719131
19 2 0.65813 0.602882 0.92015
23 2 0.737785 0.769163 0.306051
25 2 0.509101 0.958928 0.270536
62 2 0.71594 0.988211 0.286246
15 2 0.52383 0.805132 0.76976
56 2 0.524905 0.955037 0.944363
66 1 0.950663 0.229631 0.0012204
42 2 0.807568 0.113557 0.133785
20 2 0.908122 0.0484227 0.573961
9 2 0.908503 0.225586 0.722965
2 2 0.982607 0.40905 0.147572
36 2 0.768491 0.315928 0.162212
22 2 0.946007 0.392247 0.483961
52 2 0.75585 0.296955 0.38051
3 2 0.904269 0.498517 0.672098
48 2 0.982428 0.572065 0.0002339
55 2 0.826722 0.726735 0.0015535
21 2 0.94425 0.728411 0.383108
1 2 0.975 0.708619 0.590477
16 2 0.848838 0.855212 0.6646
13 2 0.86973 0.88319 0.872892
ITEM: TIMESTEP
4000
ITEM: NUMBER OF ATOMS
72
ITEM: BOX BOUNDS pp pp pp
0.0000000000000000e+00 1.1105996452100001e+01
0.0000000000000000e+00 1.1105996452100001e+01
0.0000000000000000e+00 1.1105996452100001e+01
ITEM: ATOMS id type xs ys zs
51 2 0.0291807 0.0852425 0.131902
7 2 0.129821 0.0178065 0.299614
35 2 0.0929165 0.0679023 0.503679
71 1 0.160285 0.218603 0.813501
5 2 0.117753 0.273218 0.0795309
65 1 0.246598 0.463538 0.0782847
46 2 0.101674 0.26742 0.521465
67 1 0.110658 0.252179 0.664849
18 2 0.0702302 0.301455 0.876499
48 2 0.00156317 0.603379 0.0100061
58 2 0.0141013 0.513638 0.330344
26 2 0.24558 0.521048 0.344062
12 2 0.175815 0.735813 0.613719
66 1 0.0350548 0.502002 0.726971
17 2 0.101579 0.519672 0.854083
39 2 0.138694 0.759557 0.079099
47 2 0.129629 0.811408 0.287958
10 2 0.216242 0.940968 0.641657
29 2 0.211855 0.954891 0.855241
61 2 0.0391465 0.934308 0.988767
40 2 0.329146 0.210154 0.0888163
28 2 0.325509 0.0937375 0.259243
8 2 0.42239 0.206807 0.42019
72 1 0.324448 0.185206 0.642368
64 2 0.360813 0.240968 0.762844
54 2 0.356832 0.104629 0.911853
4 2 0.470127 0.364551 0.118664
49 2 0.285874 0.356879 0.473851
32 2 0.350069 0.431565 0.661344
6 2 0.333733 0.708821 0.0425389
11 2 0.332166 0.521883 0.156328
50 2 0.275415 0.717282 0.420198
63 2 0.272407 0.60362 0.735843
37 2 0.424886 0.665948 0.863807
45 2 0.49786 0.845218 0.093078
25 2 0.493052 0.951913 0.263585
41 2 0.447184 0.825828 0.432821
14 2 0.420876 0.944854 0.597323
68 1 0.273561 0.834687 0.899117
62 2 0.69968 0.00947503 0.286013
43 2 0.737111 0.12853 0.463859
24 2 0.544099 0.107319 0.558962
34 2 0.714043 0.234118 0.861559
53 2 0.721628 0.0286066 0.945877
57 2 0.651495 0.377554 0.010926
70 1 0.517429 0.349632 0.239734
59 2 0.580539 0.378 0.424747
60 2 0.551531 0.443849 0.623239
33 2 0.571027 0.254312 0.710963
69 1 0.594632 0.577719 0.174836
38 2 0.670897 0.729879 0.146117
44 2 0.556843 0.573337 0.320059
31 2 0.63344 0.726346 0.436465
30 2 0.693898 0.568744 0.69554
19 2 0.630911 0.561085 0.897559
27 2 0.685276 0.776988 0.656742
15 2 0.506219 0.844094 0.76566
56 2 0.518289 0.991001 0.937959
42 2 0.799473 0.121344 0.136391
20 2 0.903786 0.0687775 0.591631
9 2 0.905012 0.232445 0.747264
36 2 0.792257 0.336787 0.175135
2 2 0.990651 0.422499 0.143548
22 2 0.935251 0.395337 0.492287
52 2 0.774098 0.313345 0.382663
21 2 0.962281 0.711767 0.363536
1 2 0.968654 0.714075 0.571942
3 2 0.90286 0.532361 0.649846
55 2 0.787129 0.688826 0.987078
23 2 0.770916 0.807964 0.305938
16 2 0.872078 0.863881 0.684733
13 2 0.851888 0.872336 0.892155
ITEM: TIMESTEP
8000
ITEM: NUMBER OF ATOMS
72
ITEM: BOX BOUNDS pp pp pp
0.0000000000000000e+00 1.1105996452100001e+01
0.0000000000000000e+00 1.1105996452100001e+01
0.0000000000000000e+00 1.1105996452100001e+01
ITEM: ATOMS id type xs ys zs
51 2 0.0208221 0.0794777 0.1302
7 2 0.13564 0.0261844 0.315821
35 2 0.0776081 0.0662984 0.51651
71 1 0.106381 0.116957 0.837155
29 2 0.185771 0.0025606 0.858258
5 2 0.11971 0.258233 0.061392
46 2 0.105877 0.279512 0.529534
67 1 0.105683 0.284698 0.669307
18 2 0.0932762 0.303034 0.840804
17 2 0.126842 0.497151 0.855975
65 1 0.233867 0.471082 0.923626
48 2 0.0111732 0.579087 0.010179
26 2 0.230164 0.53256 0.355125
58 2 0.0179983 0.508318 0.317863
39 2 0.129179 0.75572 0.108248
47 2 0.117928 0.814016 0.299803
12 2 0.178808 0.75882 0.608948
10 2 0.205363 0.970137 0.639492
61 2 0.0417153 0.921821 0.988983
68 1 0.241344 0.825696 0.879658
40 2 0.330824 0.204217 0.0701858
28 2 0.334645 0.098798 0.243013
8 2 0.401026 0.228929 0.413303
72 1 0.282333 0.194076 0.657634
54 2 0.361758 0.089642 0.90489
4 2 0.47691 0.35152 0.121525
49 2 0.283279 0.38804 0.49824
32 2 0.360187 0.445537 0.670944
64 2 0.361074 0.252057 0.767187
6 2 0.342982 0.706887 0.0802051
11 2 0.380836 0.521647 0.197396
50 2 0.268198 0.727146 0.41415
63 2 0.251318 0.615588 0.737065
37 2 0.359795 0.741765 0.865066
25 2 0.497699 0.967064 0.248094
41 2 0.437333 0.845299 0.407567
14 2 0.412609 0.954625 0.590646
43 2 0.732153 0.123255 0.454269
24 2 0.538667 0.122379 0.541253
34 2 0.717829 0.216585 0.868527
53 2 0.73039 0.0321775 0.947604
57 2 0.658321 0.365887 0.00660286
70 1 0.563446 0.333073 0.220433
59 2 0.574304 0.374285 0.421383
60 2 0.560683 0.433086 0.615303
33 2 0.571382 0.257358 0.701748
69 1 0.638875 0.565112 0.204645
38 2 0.68341 0.701057 0.153649
44 2 0.548876 0.558283 0.325786
31 2 0.61039 0.734627 0.448696
30 2 0.695832 0.558594 0.698881
19 2 0.674234 0.550714 0.903338
45 2 0.51768 0.835564 0.097634
62 2 0.710768 0.998279 0.289021
27 2 0.67411 0.766381 0.653018
15 2 0.501178 0.835456 0.743701
56 2 0.535167 0.951177 0.919677
42 2 0.807655 0.112451 0.133446
20 2 0.881826 0.0717209 0.604431
9 2 0.8976 0.216906 0.756646
36 2 0.805769 0.324764 0.157662
2 2 0.997259 0.415679 0.138564
52 2 0.770158 0.308211 0.365697
22 2 0.931707 0.397069 0.481021
66 1 0.925713 0.448582 0.739571
21 2 0.95545 0.720537 0.37235
1 2 0.963978 0.715747 0.581826
3 2 0.88442 0.522816 0.635607
55 2 0.824106 0.673825 0.981863
23 2 0.771169 0.790599 0.330922
16 2 0.857067 0.875779 0.690414
13 2 0.861413 0.869606 0.903055
ITEM: TIMESTEP
12000
ITEM: NUMBER OF ATOMS
72
ITEM: BOX BOUNDS pp pp pp
0.0000000000000000e+00 1.1105996452100001e+01
0.0000000000000000e+00 1.1105996452100001e+01
0.0000000000000000e+00 1.1105996452100001e+01
ITEM: ATOMS id type xs ys zs
51 2 0.0268189 0.0841165 0.149099
7 2 0.14256 0.0272713 0.308565
35 2 0.0802915 0.0518491 0.50746
5 2 0.124026 0.266778 0.0602713
46 2 0.0897005 0.263575 0.531197
67 1 0.106002 0.285952 0.665122
18 2 0.0641123 0.302442 0.868791
71 1 0.187507 0.258869 0.810304
65 1 0.220523 0.46332 0.962662
58 2 0.0229067 0.500632 0.320164
26 2 0.232006 0.534339 0.344101
12 2 0.167917 0.741524 0.605165
17 2 0.111038 0.51499 0.885115
39 2 0.133268 0.756412 0.0985377
47 2 0.118143 0.815486 0.290015
10 2 0.21182 0.943428 0.646647
29 2 0.211734 0.977707 0.851491
61 2 0.0613962 0.929707 0.994429
40 2 0.334693 0.225145 0.0833362
28 2 0.329057 0.096981 0.244234
8 2 0.4292 0.224621 0.399989
72 1 0.335865 0.169474 0.672928
54 2 0.36702 0.107789 0.927073
4 2 0.46956 0.379729 0.0914736
70 1 0.488249 0.330384 0.221274
49 2 0.271216 0.341553 0.467595
32 2 0.360013 0.421656 0.626129
64 2 0.359226 0.271099 0.77013
6 2 0.333602 0.715697 0.0332781
11 2 0.38263 0.5745 0.190603
50 2 0.257057 0.721617 0.419378
63 2 0.262041 0.596996 0.732244
37 2 0.437122 0.653344 0.843654
25 2 0.485559 0.97121 0.274208
41 2 0.437061 0.83914 0.424016
14 2 0.425611 0.957687 0.602351
68 1 0.297192 0.884867 0.891096
62 2 0.695193 0.0122709 0.309406
43 2 0.726463 0.113466 0.484923
24 2 0.537335 0.120877 0.560077
34 2 0.716351 0.21919 0.859051
53 2 0.717829 0.0256151 0.942449
57 2 0.667422 0.373062 0.0151484
59 2 0.582117 0.375377 0.40603
60 2 0.576447 0.436819 0.605175
33 2 0.573418 0.259469 0.720691
69 1 0.633575 0.603958 0.18927
38 2 0.682845 0.737166 0.143381
44 2 0.554819 0.558497 0.308988
31 2 0.601878 0.725205 0.446883
30 2 0.704385 0.571053 0.704772
19 2 0.658722 0.559025 0.89752
45 2 0.503703 0.835384 0.103108
27 2 0.663217 0.76197 0.649301
15 2 0.51229 0.840252 0.765114
56 2 0.523151 0.953081 0.94071
42 2 0.800628 0.106493 0.143935
20 2 0.888331 0.0612048 0.606556
9 2 0.896303 0.23345 0.756268
36 2 0.806256 0.307023 0.177007
2 2 0.97827 0.414666 0.134839
22 2 0.940697 0.387607 0.482762
52 2 0.775259 0.285133 0.388845
48 2 0.984848 0.598737 0.0275595
21 2 0.948473 0.727839 0.359703
1 2 0.962026 0.724301 0.57058
3 2 0.893217 0.536845 0.620469
66 1 0.973995 0.521384 0.749044
55 2 0.802166 0.685417 0.96971
23 2 0.753918 0.812169 0.329924
16 2 0.858518 0.863761 0.676827
13 2 0.873188 0.881091 0.890689
ITEM: TIMESTEP
16000
ITEM: NUMBER OF ATOMS
72
ITEM: BOX BOUNDS pp pp pp
0.0000000000000000e+00 1.1105996452100001e+01
0.0000000000000000e+00 1.1105996452100001e+01
0.0000000000000000e+00 1.1105996452100001e+01
ITEM: ATOMS id type xs ys zs
5 2 0.0997693 0.231593 0.0850482
51 2 0.0224907 0.0542929 0.147576
7 2 0.158506 0.0346805 0.328304
35 2 0.0803756 0.0699676 0.526916
71 1 0.169062 0.229755 0.816208
46 2 0.100648 0.287556 0.522747
67 1 0.0671052 0.305979 0.66225
65 1 0.232461 0.490959 0.954793
17 2 0.112187 0.493823 0.885322
18 2 0.0518499 0.295093 0.889018
39 2 0.122911 0.74209 0.0692348
58 2 0.0231608 0.530432 0.327981
26 2 0.2453 0.539308 0.327033
12 2 0.175009 0.739325 0.612061
63 2 0.245379 0.597962 0.743683
47 2 0.111935 0.82807 0.270251
10 2 0.220781 0.951492 0.641508
29 2 0.211514 0.967787 0.86341
61 2 0.0530519 0.921093 0.987166
40 2 0.312462 0.220937 0.107364
28 2 0.344397 0.116393 0.282915
8 2 0.419905 0.241491 0.430627
72 1 0.304388 0.180975 0.659235
64 2 0.339164 0.247669 0.771439
54 2 0.344604 0.103541 0.927238
4 2 0.452796 0.371918 0.096365
49 2 0.283104 0.378892 0.483286
32 2 0.364905 0.43377 0.664417
6 2 0.330108 0.702953 0.048221
11 2 0.383495 0.556226 0.167972
50 2 0.254533 0.733372 0.399292
37 2 0.418361 0.652892 0.856267
45 2 0.486772 0.838838 0.0970425
25 2 0.488163 0.954262 0.267037
41 2 0.443847 0.829275 0.436991
14 2 0.436573 0.945338 0.618819
68 1 0.285729 0.860669 0.871334
43 2 0.746625 0.0896295 0.471737
24 2 0.545496 0.105089 0.560164
34 2 0.709731 0.245518 0.860462
53 2 0.727335 0.0546464 0.95891
57 2 0.655201 0.380581 0.0155823
70 1 0.519955 0.286271 0.221346
59 2 0.571156 0.382864 0.382072
60 2 0.57148 0.426508 0.590853
33 2 0.553752 0.251212 0.709885
38 2 0.649755 0.719309 0.129862
69 1 0.68004 0.518595 0.21839
44 2 0.579834 0.571615 0.283964
31 2 0.635515 0.715891 0.431444
30 2 0.692831 0.562185 0.702223
19 2 0.642547 0.559917 0.902965
62 2 0.719287 0.989986 0.260779
27 2 0.686224 0.76757 0.633397
15 2 0.522834 0.825157 0.773456
56 2 0.52125 0.979825 0.940594
42 2 0.824393 0.129876 0.128497
20 2 0.900076 0.0570935 0.616136
9 2 0.889309 0.233005 0.763437
36 2 0.792934 0.344313 0.16011
2 2 0.997086 0.427484 0.141763
52 2 0.769526 0.303986 0.364585
22 2 0.931226 0.403478 0.473712
66 1 0.935006 0.428411 0.762007
48 2 0.988698 0.59558 0.0184027
21 2 0.953769 0.723403 0.360694
1 2 0.973405 0.710311 0.579621
3 2 0.90435 0.520168 0.641253
55 2 0.808169 0.689679 0.983637
23 2 0.774446 0.793807 0.289955
16 2 0.865636 0.85749 0.680028
13 2 0.857914 0.890804 0.896272
ITEM: TIMESTEP
20000
ITEM: NUMBER OF ATOMS
72
ITEM: BOX BOUNDS pp pp pp
0.0000000000000000e+00 1.1105996452100001e+01
0.0000000000000000e+00 1.1105996452100001e+01
0.0000000000000000e+00 1.1105996452100001e+01
ITEM: ATOMS id type xs ys zs
51 2 0.0247071 0.0762038 0.129464
7 2 0.137696 0.0247735 0.294655
35 2 0.0845914 0.0712817 0.4993
71 1 0.150718 0.181823 0.816266
5 2 0.108139 0.267145 0.0744252
46 2 0.112283 0.27973 0.541916
67 1 0.0989273 0.305592 0.668347
18 2 0.0381666 0.258467 0.863401
17 2 0.119854 0.47333 0.864287
65 1 0.171455 0.424464 0.982688
48 2 0.00768666 0.602736 0.000680052
39 2 0.135074 0.748538 0.0986508
58 2 0.0212112 0.522614 0.346813
26 2 0.238879 0.532708 0.336101
12 2 0.177483 0.745846 0.621835
47 2 0.118267 0.819233 0.29406
10 2 0.218172 0.954011 0.635471
29 2 0.215199 0.953604 0.855605
68 1 0.248553 0.827476 0.847352
61 2 0.0562469 0.928529 0.989226
40 2 0.316667 0.218625 0.0572567
28 2 0.341929 0.108223 0.250485
8 2 0.404932 0.244507 0.396019
72 1 0.296306 0.198606 0.660675
54 2 0.372158 0.0713599 0.908225
4 2 0.465671 0.36548 0.0963175
49 2 0.285344 0.379137 0.483301
32 2 0.365972 0.451788 0.661491
64 2 0.355438 0.250985 0.779565
6 2 0.347813 0.710071 0.0786549
11 2 0.383255 0.537301 0.187141
50 2 0.264883 0.730083 0.424107
37 2 0.42896 0.671011 0.874252
63 2 0.250976 0.616171 0.770312
25 2 0.486362 0.972111 0.274941
41 2 0.446239 0.829574 0.423289
14 2 0.424966 0.950682 0.601418
62 2 0.717155 0.00958294 0.289008
43 2 0.718798 0.13283 0.457844
24 2 0.519356 0.124436 0.529123
33 2 0.549646 0.246752 0.703311
34 2 0.692394 0.231055 0.846101
53 2 0.737124 0.0431082 0.930786
70 1 0.516189 0.27919 0.184383
69 1 0.62168 0.46613 0.231305
59 2 0.567016 0.390859 0.406787
60 2 0.570015 0.435205 0.607258
57 2 0.649629 0.367965 0.997645
38 2 0.692977 0.714618 0.160217
44 2 0.562387 0.57455 0.302857
31 2 0.612585 0.727831 0.450114
30 2 0.693756 0.561881 0.703302
19 2 0.641007 0.564437 0.917965
45 2 0.514627 0.832765 0.119225
27 2 0.672499 0.75725 0.657993
15 2 0.512818 0.851883 0.766876
56 2 0.546211 0.969205 0.936787
42 2 0.813164 0.10742 0.125359
20 2 0.888891 0.0520521 0.572893
9 2 0.881708 0.193858 0.746378
36 2 0.796468 0.315281 0.146671
2 2 0.987661 0.436768 0.150501
52 2 0.768212 0.314796 0.367061
22 2 0.932341 0.405317 0.482389
21 2 0.944393 0.718199 0.402693
1 2 0.975705 0.703468 0.602822
3 2 0.895789 0.526206 0.652145
66 1 0.987844 0.512995 0.765397
55 2 0.816003 0.692271 0.971017
23 2 0.763151 0.809583 0.32637
16 2 0.854254 0.858704 0.662547
13 2 0.860553 0.888092 0.884624
ITEM: TIMESTEP
24000
ITEM: NUMBER OF ATOMS
72
ITEM: BOX BOUNDS pp pp pp
0.0000000000000000e+00 1.1105996452100001e+01
0.0000000000000000e+00 1.1105996452100001e+01
0.0000000000000000e+00 1.1105996452100001e+01
ITEM: ATOMS id type xs ys zs
51 2 0.0303345 0.0789102 0.145004
7 2 0.130836 0.0135735 0.320355
35 2 0.0783919 0.0697356 0.515537
71 1 0.188134 0.208884 0.788917
5 2 0.107259 0.265778 0.0894202
46 2 0.0843132 0.271582 0.532697
67 1 0.0647199 0.274759 0.667721
17 2 0.137283 0.478822 0.874996
18 2 0.078077 0.265784 0.870089
39 2 0.138772 0.747838 0.0822289
48 2 0.0121713 0.58554 0.0101933
58 2 0.0226858 0.524199 0.361017
26 2 0.247571 0.539571 0.328205
12 2 0.173691 0.744101 0.596007
63 2 0.234238 0.60028 0.74959
47 2 0.137951 0.805451 0.292357
10 2 0.208746 0.938611 0.637294
29 2 0.200085 0.987272 0.854053
61 2 0.0648704 0.927834 0.995299
40 2 0.313901 0.209291 0.0910722
28 2 0.330476 0.0966064 0.270361
72 1 0.33683 0.196191 0.652841
54 2 0.350353 0.103929 0.918712
4 2 0.459728 0.351692 0.0767844
49 2 0.259897 0.376511 0.459648
8 2 0.417769 0.253492 0.413139
32 2 0.321477 0.436906 0.64652
64 2 0.373752 0.263318 0.75602
65 1 0.255585 0.462544 0.945718
6 2 0.351256 0.695709 0.0434195
11 2 0.383355 0.519373 0.176263
50 2 0.28184 0.728494 0.412113
37 2 0.413855 0.670637 0.845904
25 2 0.481172 0.936962 0.251621
41 2 0.469297 0.809376 0.443517
14 2 0.408756 0.946014 0.607418
68 1 0.287523 0.880806 0.842696
43 2 0.711989 0.115164 0.454711
24 2 0.525378 0.120679 0.544257
34 2 0.71904 0.247848 0.857153
53 2 0.743639 0.0557244 0.967904
57 2 0.672522 0.399074 0.0212071
70 1 0.541448 0.322099 0.18798
59 2 0.570854 0.414996 0.411873
60 2 0.541102 0.453282 0.609342
33 2 0.567752 0.26998 0.710803
38 2 0.687886 0.699135 0.119556
69 1 0.644777 0.556658 0.167242
44 2 0.550797 0.588651 0.267832
31 2 0.645554 0.69009 0.448182
30 2 0.696705 0.585779 0.676439
19 2 0.656885 0.566853 0.886669
45 2 0.513003 0.822595 0.0896105
62 2 0.703939 0.989983 0.279926
27 2 0.677207 0.793625 0.661185
15 2 0.509055 0.852953 0.770653
56 2 0.541477 0.971842 0.936155
42 2 0.823175 0.109269 0.139336
20 2 0.875494 0.0671945 0.597545
9 2 0.895621 0.188572 0.783726
36 2 0.789426 0.318411 0.186531
2 2 0.982323 0.421533 0.163682
52 2 0.754585 0.320151 0.407168
22 2 0.918014 0.395255 0.49961
66 1 0.915 0.488253 0.7706
21 2 0.943632 0.707245 0.359478
1 2 0.958745 0.737341 0.582642
3 2 0.890898 0.54866 0.643787
55 2 0.827474 0.66779 0.966322
23 2 0.764615 0.788104 0.287453
16 2 0.861084 0.876743 0.694722
13 2 0.874377 0.889416 0.90178
ITEM: TIMESTEP
28000
ITEM: NUMBER OF ATOMS
72
ITEM: BOX BOUNDS pp pp pp
0.0000000000000000e+00 1.1105996452100001e+01
0.0000000000000000e+00 1.1105996452100001e+01
0.0000000000000000e+00 1.1105996452100001e+01
ITEM: ATOMS id type xs ys zs
51 2 0.0192783 0.0932672 0.145533
7 2 0.126317 0.031469 0.313727
35 2 0.083398 0.0731153 0.517918
71 1 0.175874 0.249667 0.803892
5 2 0.103716 0.272284 0.0715152
46 2 0.102962 0.279495 0.518231
67 1 0.0843049 0.28506 0.657649
18 2 0.0490602 0.292841 0.847648
48 2 0.0192099 0.598065 0.0190659
58 2 0.0220249 0.551418 0.33237
26 2 0.239608 0.544643 0.345433
63 2 0.232419 0.592855 0.728891
17 2 0.0393872 0.505665 0.807992
39 2 0.149495 0.752008 0.071762
47 2 0.133925 0.816979 0.274845
50 2 0.248897 0.755294 0.424248
12 2 0.156579 0.767123 0.613914
10 2 0.209293 0.956374 0.652234
29 2 0.227417 0.997279 0.85828
61 2 0.0649215 0.928059 0.988049
40 2 0.311812 0.204203 0.0814645
28 2 0.327493 0.104773 0.269495
8 2 0.426771 0.23287 0.408408
72 1 0.300613 0.211498 0.668558
54 2 0.393021 0.115657 0.913672
4 2 0.457822 0.352903 0.109891
49 2 0.272521 0.375771 0.456205
32 2 0.342717 0.443138 0.657167
64 2 0.377279 0.255139 0.764945
6 2 0.356252 0.680263 0.0540136
11 2 0.378557 0.537131 0.191848
37 2 0.399721 0.666068 0.852433
65 1 0.467554 0.541541 0.877164
25 2 0.493726 0.959904 0.262964
41 2 0.460327 0.838796 0.415823
14 2 0.422806 0.946447 0.596744
15 2 0.492394 0.832687 0.761365
68 1 0.311335 0.882781 0.903927
62 2 0.698485 0.00104379 0.287992
43 2 0.726968 0.0938947 0.470051
24 2 0.524714 0.116744 0.557961
33 2 0.57823 0.242225 0.709636
34 2 0.695076 0.211298 0.863474
53 2 0.724944 0.0283809 0.951912
57 2 0.653936 0.358559 0.0168564
69 1 0.696133 0.447529 0.216868
70 1 0.508747 0.301879 0.223441
59 2 0.593846 0.381809 0.40704
60 2 0.572244 0.427992 0.617311
38 2 0.690952 0.696572 0.140021
44 2 0.567611 0.557896 0.280046
31 2 0.639567 0.733693 0.444103
30 2 0.7062 0.561137 0.714681
19 2 0.696901 0.539543 0.912348
45 2 0.51699 0.815881 0.0973634
27 2 0.679083 0.779197 0.664639
56 2 0.522759 0.952273 0.930879
42 2 0.810737 0.0923604 0.139952
20 2 0.880135 0.0726218 0.617937
9 2 0.870606 0.242696 0.756445
36 2 0.786946 0.326755 0.178648
2 2 0.978612 0.434509 0.152598
52 2 0.773432 0.289314 0.404817
22 2 0.940915 0.40584 0.470644
66 1 0.847928 0.346134 0.656742
1 2 0.961496 0.724865 0.566779
3 2 0.889265 0.535937 0.627251
55 2 0.826508 0.6723 0.993644
23 2 0.775464 0.795531 0.299056
21 2 0.952602 0.750899 0.356657
16 2 0.864661 0.866678 0.715881
13 2 0.851705 0.859156 0.919934
ITEM: TIMESTEP
32000
ITEM: NUMBER OF ATOMS
72
ITEM: BOX BOUNDS pp pp pp
0.0000000000000000e+00 1.1105996452100001e+01
0.0000000000000000e+00 1.1105996452100001e+01
0.0000000000000000e+00 1.1105996452100001e+01
ITEM: ATOMS id type xs ys zs
5 2 0.0883293 0.245472 0.0602804
51 2 0.0347266 0.0577675 0.140535
7 2 0.155765 0.00535925 0.304542
35 2 0.0660135 0.055751 0.50124
46 2 0.11208 0.265488 0.518338
67 1 0.120868 0.258935 0.668342
18 2 0.038505 0.286936 0.856671
71 1 0.154227 0.283557 0.793494
39 2 0.144685 0.737143 0.077046
48 2 0.0204475 0.577405 0.0178537
58 2 0.0465698 0.516969 0.331355
12 2 0.174688 0.747199 0.600294
63 2 0.236717 0.604792 0.738081
17 2 0.0407996 0.504324 0.821056
47 2 0.146402 0.801409 0.283558
10 2 0.20958 0.963133 0.629457
29 2 0.196233 0.977993 0.841231
61 2 0.0489744 0.917675 0.983767
40 2 0.305352 0.233591 0.077861
28 2 0.354599 0.100466 0.257171
8 2 0.425873 0.224381 0.405217
72 1 0.279299 0.138726 0.683914
64 2 0.35338 0.240034 0.762056
54 2 0.338377 0.0919249 0.927051
4 2 0.452074 0.381331 0.108784
49 2 0.276189 0.361379 0.463609
32 2 0.337292 0.431716 0.649934
6 2 0.339348 0.729068 0.0222975
11 2 0.398897 0.568251 0.192923
26 2 0.2538 0.528928 0.348061
50 2 0.275252 0.714644 0.428242
37 2 0.414669 0.655722 0.847989
45 2 0.488961 0.851185 0.0818633
41 2 0.439503 0.848057 0.421696
14 2 0.403091 0.956829 0.590511
15 2 0.491255 0.84218 0.755916
68 1 0.283412 0.879344 0.833822
62 2 0.715708 0.0202662 0.27705
43 2 0.722407 0.124461 0.453327
24 2 0.532015 0.128051 0.55088
33 2 0.568893 0.249354 0.70813
34 2 0.691115 0.22827 0.86268
53 2 0.72447 0.0365635 0.950936
57 2 0.673947 0.372641 0.0302401
70 1 0.524671 0.339754 0.207826
59 2 0.586745 0.393606 0.443022
60 2 0.547188 0.44465 0.637575
38 2 0.686079 0.73434 0.141312
69 1 0.639488 0.613287 0.166398
44 2 0.560006 0.570955 0.336957
31 2 0.621875 0.735292 0.458245
30 2 0.698726 0.554925 0.704566
19 2 0.714314 0.547173 0.913251
65 1 0.584867 0.625181 0.944995
25 2 0.507252 0.965051 0.257767
27 2 0.67929 0.757892 0.683343
56 2 0.509796 0.985231 0.936228
42 2 0.819356 0.10608 0.130041
20 2 0.866572 0.0613844 0.597442
9 2 0.866553 0.215107 0.755334
36 2 0.809097 0.305317 0.186456
2 2 0.979107 0.419626 0.146724
22 2 0.957663 0.398318 0.47886
52 2 0.768342 0.319942 0.394791
66 1 0.884945 0.288641 0.645783
55 2 0.836117 0.694448 0.00740143
21 2 0.97507 0.711069 0.365847
1 2 0.971275 0.71868 0.582948
3 2 0.91997 0.537693 0.65138
23 2 0.756931 0.81802 0.33233
16 2 0.870446 0.857939 0.681619
13 2 0.845121 0.878946 0.893765
ITEM: TIMESTEP
36000
ITEM: NUMBER OF ATOMS
72
ITEM: BOX BOUNDS pp pp pp
0.0000000000000000e+00 1.1105996452100001e+01
0.0000000000000000e+00 1.1105996452100001e+01
0.0000000000000000e+00 1.1105996452100001e+01
ITEM: ATOMS id type xs ys zs
51 2 0.0155221 0.0760024 0.105235
7 2 0.131117 0.0268512 0.290826
35 2 0.0831302 0.0858431 0.488944
71 1 0.0989632 0.153766 0.803571
29 2 0.187424 0.0326459 0.834037
5 2 0.111196 0.260249 0.0552858
46 2 0.0959002 0.288853 0.533773
67 1 0.100002 0.252487 0.658956
18 2 0.034778 0.307463 0.855189
48 2 0.0183977 0.59902 0.0208244
26 2 0.242811 0.535443 0.335376
58 2 0.027783 0.521593 0.300468
17 2 0.0799652 0.517852 0.817151
39 2 0.123221 0.774639 0.0908807
47 2 0.106446 0.818269 0.287849
12 2 0.182219 0.753634 0.602174
10 2 0.208975 0.966016 0.634129
61 2 0.0688853 0.930063 0.965845
40 2 0.320396 0.208541 0.0895286
28 2 0.33188 0.0935665 0.265605
8 2 0.408256 0.224142 0.433799
72 1 0.305013 0.188007 0.698007
54 2 0.372108 0.0883832 0.932807
4 2 0.469443 0.356046 0.124072
49 2 0.270397 0.377134 0.488613
32 2 0.356862 0.446486 0.652436
64 2 0.359447 0.264379 0.798807
6 2 0.331223 0.732178 0.079584
11 2 0.386283 0.556822 0.187756
63 2 0.252057 0.603037 0.749629
37 2 0.40097 0.694984 0.876334
45 2 0.497847 0.827816 0.0950854
41 2 0.454524 0.844352 0.421768
50 2 0.252995 0.753922 0.41457
14 2 0.432962 0.938065 0.603747
68 1 0.309818 0.803468 0.916777
43 2 0.711184 0.094183 0.456938
24 2 0.540078 0.113248 0.584514
33 2 0.563659 0.24724 0.73514
34 2 0.711503 0.211979 0.870594
53 2 0.740353 0.0286915 0.948191
57 2 0.660446 0.370191 0.0364363
70 1 0.513401 0.314384 0.256435
59 2 0.57947 0.371028 0.430648
60 2 0.571789 0.42722 0.649008
38 2 0.660812 0.712096 0.103575
69 1 0.622128 0.591337 0.147658
44 2 0.530519 0.548099 0.352392
31 2 0.602774 0.719125 0.446716
30 2 0.711099 0.562002 0.723457
27 2 0.671531 0.747439 0.651033
19 2 0.692793 0.561717 0.930145
65 1 0.540239 0.603655 0.901233
62 2 0.720837 0.981682 0.290603
23 2 0.748069 0.778877 0.298815
25 2 0.507575 0.975229 0.256588
15 2 0.524325 0.839806 0.762445
56 2 0.538158 0.95843 0.926697
42 2 0.814216 0.0933925 0.127292
20 2 0.880888 0.0598914 0.598162
9 2 0.889572 0.205217 0.748592
36 2 0.800477 0.301978 0.168676
2 2 0.987816 0.395831 0.142845
22 2 0.946 0.394568 0.45823
52 2 0.773473 0.299569 0.386319
66 1 0.850233 0.30565 0.651797
55 2 0.837246 0.699203 0.00320531
21 2 0.933975 0.70544 0.348098
1 2 0.979926 0.733471 0.561482
3 2 0.925567 0.54532 0.643227
16 2 0.85107 0.857661 0.647511
13 2 0.871993 0.879384 0.874006
ITEM: TIMESTEP
40000
ITEM: NUMBER OF ATOMS
72
ITEM: BOX BOUNDS pp pp pp
0.0000000000000000e+00 1.1105996452100001e+01
0.0000000000000000e+00 1.1105996452100001e+01
0.0000000000000000e+00 1.1105996452100001e+01
ITEM: ATOMS id type xs ys zs
51 2 0.0163419 0.0638754 0.126812
7 2 0.133815 0.0177076 0.297093
35 2 0.0844587 0.0691865 0.522388
71 1 0.136905 0.134201 0.814327
5 2 0.0992163 0.253684 0.0485562
46 2 0.101174 0.273206 0.523364
67 1 0.0812733 0.275895 0.670577
18 2 0.0657582 0.267951 0.83375
48 2 0.0160023 0.577416 0.0258424
39 2 0.133768 0.738948 0.0981496
58 2 0.0333784 0.512758 0.318032
26 2 0.24061 0.553029 0.341319
63 2 0.222607 0.606175 0.734353
17 2 0.0570784 0.501722 0.827862
47 2 0.104091 0.824195 0.297141
12 2 0.15363 0.759327 0.620084
10 2 0.218555 0.961096 0.653529
29 2 0.198794 0.996829 0.858267
68 1 0.22749 0.818201 0.860789
61 2 0.0741469 0.908484 0.988832
40 2 0.312144 0.220629 0.083196
28 2 0.333561 0.097946 0.260185
8 2 0.413124 0.239576 0.403369
72 1 0.358972 0.159607 0.617605
64 2 0.357766 0.233195 0.73701
54 2 0.37275 0.0952334 0.928868
4 2 0.453743 0.386081 0.0485881
49 2 0.291515 0.380797 0.483332
32 2 0.362181 0.463687 0.6567
6 2 0.338306 0.719954 0.0819059
11 2 0.379422 0.545224 0.179739
37 2 0.352011 0.716826 0.866987
45 2 0.49978 0.840583 0.0977588
25 2 0.496726 0.96251 0.268052
41 2 0.444833 0.829873 0.428122
50 2 0.258652 0.760783 0.423744
14 2 0.425424 0.957163 0.607251
15 2 0.497107 0.822987 0.757223
62 2 0.716854 0.00869922 0.311101
43 2 0.746143 0.144248 0.466579
24 2 0.535785 0.127271 0.536813
33 2 0.579889 0.225323 0.704321
34 2 0.703215 0.220249 0.866318
53 2 0.734207 0.0294698 0.97626
57 2 0.669854 0.362716 0.00917465
70 1 0.506285 0.319157 0.335855
60 2 0.578499 0.430317 0.623525
38 2 0.653796 0.688067 0.151725
44 2 0.574394 0.500148 0.214506
31 2 0.630133 0.717648 0.440668
59 2 0.623934 0.500773 0.425345
30 2 0.706595 0.548657 0.735042
27 2 0.664272 0.729419 0.667418
19 2 0.660804 0.563318 0.937945
65 1 0.531392 0.602088 0.942806
56 2 0.537947 0.952618 0.928148
42 2 0.805026 0.0954601 0.152753
20 2 0.897663 0.0692612 0.597822
9 2 0.879429 0.207249 0.750333
36 2 0.80236 0.31486 0.176534
2 2 0.997556 0.389948 0.152659
22 2 0.954921 0.412328 0.491772
52 2 0.776681 0.342288 0.399025
66 1 0.86248 0.308385 0.657695
55 2 0.824189 0.687799 0.0130216
21 2 0.950758 0.693883 0.344409
1 2 0.954597 0.723559 0.565328
3 2 0.919621 0.539771 0.666051
69 1 0.850696 0.789664 0.0898146
23 2 0.771339 0.80198 0.298287
16 2 0.833898 0.86231 0.675485
13 2 0.86004 0.868241 0.889549
ITEM: TIMESTEP
44000
ITEM: NUMBER OF ATOMS
72
ITEM: BOX BOUNDS pp pp pp
0.0000000000000000e+00 1.1105996452100001e+01
0.0000000000000000e+00 1.1105996452100001e+01
0.0000000000000000e+00 1.1105996452100001e+01
ITEM: ATOMS id type xs ys zs
51 2 0.0124277 0.0804772 0.140782
7 2 0.156502 0.0213441 0.326152
35 2 0.0740899 0.0652632 0.531667
71 1 0.181366 0.235426 0.842442
5 2 0.0879464 0.271627 0.0770717
46 2 0.0887974 0.28327 0.546531
67 1 0.0902053 0.256894 0.691859
18 2 0.0689897 0.310028 0.871934
17 2 0.0601301 0.497135 0.816942
58 2 0.0342988 0.536822 0.328685
26 2 0.241676 0.527764 0.352211
63 2 0.220594 0.562615 0.71691
39 2 0.123224 0.759257 0.0801386
47 2 0.120074 0.82243 0.289311
12 2 0.184577 0.751554 0.60695
10 2 0.214829 0.952125 0.654708
29 2 0.249507 0.963844 0.853765
61 2 0.0744801 0.933623 0.97753
40 2 0.294153 0.21811 0.0889895
28 2 0.35217 0.113534 0.281319
8 2 0.432272 0.226882 0.431307
72 1 0.300625 0.196549 0.66056
54 2 0.376025 0.127402 0.911685
4 2 0.442977 0.376037 0.0685208
49 2 0.28788 0.365767 0.479264
32 2 0.363897 0.457387 0.663853
64 2 0.355963 0.266507 0.7568
6 2 0.339403 0.706265 0.0428679
11 2 0.378954 0.545099 0.167444
50 2 0.267782 0.723149 0.422881
37 2 0.402389 0.655787 0.83804
45 2 0.496345 0.82622 0.0827766
25 2 0.497122 0.964375 0.247436
41 2 0.441135 0.829922 0.413886
14 2 0.409422 0.919636 0.609179
15 2 0.49617 0.830097 0.770597
68 1 0.305309 0.848917 0.890441
62 2 0.70416 0.014996 0.296362
43 2 0.741421 0.130672 0.466966
24 2 0.543138 0.0897875 0.563872
33 2 0.566066 0.239626 0.703491
34 2 0.699196 0.223989 0.845588
53 2 0.725268 0.0391061 0.965334
57 2 0.6377 0.340236 0.0260973
70 1 0.531166 0.36958 0.224431
59 2 0.577884 0.375957 0.409115
60 2 0.568848 0.444296 0.619744
38 2 0.682015 0.713676 0.149885
44 2 0.570606 0.53516 0.266107
69 1 0.582342 0.589295 0.449473
31 2 0.620321 0.73529 0.451043
30 2 0.704456 0.556965 0.719166
27 2 0.679388 0.749344 0.667714
19 2 0.665334 0.560841 0.922592
65 1 0.540745 0.61801 0.939261
56 2 0.540643 0.974396 0.924984
42 2 0.812514 0.0955213 0.140238
20 2 0.873506 0.0653738 0.60816
9 2 0.881227 0.218825 0.755333