ITEM: TIMESTEP
0
ITEM: NUMBER OF ATOMS
72
ITEM: BOX BOUNDS pp pp pp
0.0000000000000000e+00 1.1105996452100001e+01
0.0000000000000000e+00 1.1105996452100001e+01
0.0000000000000000e+00 1.1105996452100001e+01
ITEM: ATOMS id type xs ys zs
51 2 0.0321308 0.0858433 0.12967
7 2 0.147814 0.0303179 0.296924
35 2 0.107504 0.0589108 0.502265
29 2 0.184682 0.0309831 0.820847
5 2 0.105681 0.25363 0.0661896
46 2 0.0895618 0.287533 0.563091
66 1 0.0808277 0.298835 0.718015
17 2 0.0678592 0.488011 0.82199
18 2 0.103175 0.253209 0.826138
58 2 0.0359116 0.50095 0.319232
50 2 0.247869 0.730756 0.4135
12 2 0.18711 0.749361 0.612834
39 2 0.100141 0.753015 0.0698026
47 2 0.120481 0.827561 0.27401
10 2 0.199563 0.948548 0.642035
61 2 0.0610426 0.944224 0.979178
40 2 0.293987 0.218806 0.107696
28 2 0.353097 0.0920069 0.27528
8 2 0.428249 0.249004 0.430405
69 1 0.332626 0.212388 0.736857
54 2 0.370284 0.115528 0.938728
4 2 0.453165 0.362173 0.0776132
49 2 0.27249 0.367124 0.489081
32 2 0.354355 0.440657 0.661072
64 2 0.379919 0.291888 0.827235
6 2 0.323487 0.705365 0.0711976
11 2 0.36908 0.545818 0.176884
26 2 0.252923 0.53109 0.34388
63 2 0.250565 0.597346 0.747848
65 1 0.359956 0.591433 0.815392
67 1 0.321156 0.652683 0.857242
37 2 0.430999 0.674933 0.899181
45 2 0.486551 0.826293 0.107882
41 2 0.44968 0.824457 0.421531
14 2 0.418686 0.969268 0.607149
72 1 0.40178 0.913116 0.93358
43 2 0.74782 0.102706 0.475697
24 2 0.547326 0.134186 0.543563
33 2 0.553353 0.247603 0.726758
34 2 0.717295 0.227807 0.854649
53 2 0.725531 0.045795 0.943616
57 2 0.652482 0.375077 0.0109722
68 1 0.503655 0.324025 0.203116
59 2 0.57668 0.388861 0.421064
60 2 0.566397 0.449355 0.61596
38 2 0.651053 0.682392 0.131171
44 2 0.551982 0.565333 0.292277
31 2 0.626224 0.705063 0.42828
30 2 0.700557 0.567786 0.702326
19 2 0.637584 0.582575 0.927243
25 2 0.519533 0.966441 0.281987
62 2 0.740581 0.985675 0.298638
27 2 0.686024 0.767891 0.626792
15 2 0.513683 0.842465 0.773304
56 2 0.524592 0.963446 0.937387
42 2 0.789272 0.0908946 0.133197
20 2 0.920156 0.0677104 0.594552
9 2 0.902915 0.21347 0.736543
2 2 0.965324 0.399941 0.134902
36 2 0.766229 0.306587 0.174088
22 2 0.920611 0.400391 0.466817
52 2 0.775051 0.307386 0.39439
70 1 0.888469 0.335772 0.649996
48 2 0.990572 0.575332 0.0083619
21 2 0.962471 0.704639 0.363278
1 2 0.961966 0.712832 0.585777
3 2 0.917043 0.522961 0.660031
55 2 0.810001 0.693246 0.970975
71 1 0.762657 0.526659 0.944233
23 2 0.779795 0.779846 0.280616
16 2 0.861822 0.876916 0.676474
13 2 0.86284 0.895694 0.894001
ITEM: TIMESTEP
4000
ITEM: NUMBER OF ATOMS
72
ITEM: BOX BOUNDS pp pp pp
0.0000000000000000e+00 1.1105996452100001e+01
0.0000000000000000e+00 1.1105996452100001e+01
0.0000000000000000e+00 1.1105996452100001e+01
ITEM: ATOMS id type xs ys zs
51 2 0.034068 0.081563 0.124594
7 2 0.122108 0.0328297 0.309927
35 2 0.0778348 0.0768539 0.494684
66 1 0.148276 0.228817 0.772337
5 2 0.116496 0.267237 0.0624983
65 1 0.0948162 0.29924 0.344602
46 2 0.0809987 0.276124 0.478855
18 2 0.0837401 0.313913 0.85998
39 2 0.143627 0.73481 0.0710314
58 2 0.031911 0.516502 0.329204
26 2 0.242853 0.52701 0.344971
17 2 0.0709098 0.520987 0.804796
47 2 0.124011 0.818588 0.274431
12 2 0.178412 0.752591 0.610085
10 2 0.205369 0.970302 0.62278
29 2 0.206341 0.973614 0.836836
61 2 0.0614364 0.922823 0.978182
40 2 0.317148 0.213689 0.0739866
28 2 0.340879 0.106464 0.263156
8 2 0.428602 0.241553 0.406325
69 1 0.301666 0.170045 0.671103
64 2 0.365692 0.236565 0.769049
54 2 0.360241 0.0849003 0.922541
4 2 0.461529 0.362828 0.109078
68 1 0.49909 0.301228 0.215174
49 2 0.274929 0.357179 0.478995
32 2 0.344697 0.431609 0.657806
6 2 0.357426 0.707726 0.0581203
11 2 0.392736 0.544415 0.198326
50 2 0.258273 0.729072 0.411979
63 2 0.250366 0.599163 0.74989
37 2 0.430245 0.642192 0.862996
25 2 0.492701 0.959546 0.270705
41 2 0.432666 0.824879 0.410862
14 2 0.409156 0.939777 0.592228
72 1 0.270758 0.859567 0.852255
15 2 0.498297 0.821146 0.767548
43 2 0.733317 0.115103 0.455587
24 2 0.542406 0.109742 0.549109
33 2 0.555099 0.236392 0.716881
53 2 0.727768 0.0437575 0.953842
34 2 0.6921 0.235632 0.878254
57 2 0.654661 0.36386 0.0212614
59 2 0.590813 0.388588 0.4298
60 2 0.554973 0.430298 0.622958
38 2 0.671132 0.710868 0.166423
44 2 0.572968 0.572123 0.315291
31 2 0.608961 0.728651 0.454135
30 2 0.698767 0.555795 0.708389
19 2 0.642101 0.562926 0.912804
45 2 0.514054 0.830582 0.105909
62 2 0.713691 0.999329 0.286569
27 2 0.660362 0.754559 0.649591
56 2 0.530069 0.958794 0.920788
42 2 0.822913 0.0977693 0.133095
20 2 0.888342 0.0580988 0.583153
67 1 0.898229 0.141527 0.694573
36 2 0.815974 0.312251 0.165299
2 2 0.994885 0.423624 0.141347
22 2 0.937726 0.412411 0.487383
52 2 0.783393 0.321133 0.387787
70 1 0.843789 0.363058 0.710749
9 2 0.880867 0.29183 0.820894
71 1 0.869717 0.391095 0.9119
48 2 0.998558 0.593857 0.00870645
21 2 0.961481 0.714073 0.365547
1 2 0.967369 0.72363 0.5795
3 2 0.916174 0.535143 0.671874
55 2 0.809391 0.708087 0.985605
23 2 0.76614 0.804562 0.332624
16 2 0.855174 0.873347 0.670738
13 2 0.871491 0.887131 0.887195
ITEM: TIMESTEP
8000
ITEM: NUMBER OF ATOMS
72
ITEM: BOX BOUNDS pp pp pp
0.0000000000000000e+00 1.1105996452100001e+01
0.0000000000000000e+00 1.1105996452100001e+01
0.0000000000000000e+00 1.1105996452100001e+01
ITEM: ATOMS id type xs ys zs
51 2 0.0187799 0.0672697 0.140741
7 2 0.137431 0.0284188 0.316589
35 2 0.0797567 0.0510432 0.516756
5 2 0.0981477 0.252929 0.0807389
65 1 0.139178 0.27093 0.316479
46 2 0.114463 0.25182 0.453914
66 1 0.131473 0.260763 0.742107
18 2 0.0764784 0.292731 0.871163
39 2 0.131042 0.745471 0.0606145
26 2 0.234276 0.522216 0.344042
58 2 0.0244019 0.500925 0.306593
17 2 0.0862861 0.510308 0.822611
47 2 0.117888 0.811289 0.268411
12 2 0.187036 0.756758 0.607132
10 2 0.214001 0.959758 0.646522
29 2 0.218723 0.99033 0.86211
61 2 0.0529745 0.929637 0.987963
40 2 0.306019 0.217166 0.104174
28 2 0.34235 0.0926201 0.279797
8 2 0.432488 0.230176 0.42862
69 1 0.312726 0.139631 0.662513
64 2 0.357874 0.237458 0.749551
54 2 0.368654 0.127768 0.930579
4 2 0.446551 0.371288 0.111747
68 1 0.495247 0.321495 0.240472
49 2 0.288416 0.363059 0.473915
32 2 0.357404 0.430729 0.667242
6 2 0.343321 0.709853 0.0541115
11 2 0.37498 0.560346 0.19265
50 2 0.256271 0.724879 0.413298
63 2 0.265104 0.606936 0.737664
37 2 0.435092 0.64944 0.869485
25 2 0.489915 0.951293 0.256994
41 2 0.445962 0.811863 0.415882
14 2 0.426147 0.929826 0.591599
72 1 0.313011 0.899827 0.909311
62 2 0.719749 0.00787006 0.295588
43 2 0.741369 0.128455 0.493521
24 2 0.528599 0.107522 0.568356
34 2 0.686452 0.228799 0.869944
53 2 0.728038 0.0430435 0.954232
57 2 0.629261 0.384529 0.00957393
59 2 0.571179 0.388711 0.405924
60 2 0.573947 0.435429 0.617866
33 2 0.566922 0.257996 0.71314
38 2 0.665295 0.70751 0.161117
44 2 0.558483 0.580436 0.287998
31 2 0.633906 0.711701 0.44004
30 2 0.718984 0.56898 0.683699
19 2 0.654469 0.568975 0.885055
45 2 0.510487 0.823246 0.0978558
27 2 0.659399 0.773403 0.643053
15 2 0.500527 0.827039 0.778035
56 2 0.525867 0.983208 0.939414
42 2 0.807265 0.108753 0.14163
20 2 0.899082 0.0404118 0.612371
67 1 0.891721 0.105102 0.730537
36 2 0.787335 0.317152 0.158651
2 2 0.986287 0.413793 0.13221
52 2 0.766972 0.318057 0.384157
22 2 0.945543 0.40975 0.470045
70 1 0.885593 0.347785 0.70245
9 2 0.879095 0.310194 0.83096
71 1 0.844406 0.424918 0.873102
48 2 0.997855 0.592972 0.00109896
21 2 0.95901 0.702305 0.357632
1 2 0.977313 0.735246 0.572433
3 2 0.946176 0.53659 0.633009
55 2 0.793756 0.696321 0.984119
23 2 0.766946 0.808966 0.30061
16 2 0.84832 0.862196 0.691023
13 2 0.863578 0.876667 0.897057
ITEM: TIMESTEP
12000
ITEM: NUMBER OF ATOMS
72
ITEM: BOX BOUNDS pp pp pp
0.0000000000000000e+00 1.1105996452100001e+01
0.0000000000000000e+00 1.1105996452100001e+01
0.0000000000000000e+00 1.1105996452100001e+01
ITEM: ATOMS id type xs ys zs
51 2 0.0150864 0.0794194 0.12355
7 2 0.128925 0.0266695 0.301788
35 2 0.0936927 0.0672143 0.521013
66 1 0.163569 0.175294 0.833307
5 2 0.107042 0.250942 0.0753405
65 1 0.131488 0.282792 0.352102
46 2 0.103016 0.277098 0.497759
18 2 0.103479 0.29871 0.869063
48 2 0.000575771 0.588658 0.0235234
39 2 0.130595 0.742423 0.0847156
58 2 0.0144344 0.51504 0.325589
26 2 0.224001 0.522297 0.343044
17 2 0.0714255 0.515939 0.829043
47 2 0.116484 0.811797 0.280449
12 2 0.191295 0.758757 0.611199
10 2 0.215252 0.955489 0.645637
29 2 0.220193 0.95571 0.85298
61 2 0.046529 0.91519 0.97821
40 2 0.323308 0.215971 0.093611
28 2 0.331387 0.103989 0.285145
8 2 0.418429 0.249241 0.418293
69 1 0.276847 0.17013 0.65874
64 2 0.345419 0.239614 0.758789
54 2 0.382139 0.0979044 0.915454
4 2 0.454719 0.371922 0.120228
49 2 0.285448 0.384022 0.484104
32 2 0.369492 0.452081 0.664274
6 2 0.346373 0.696738 0.0450308
11 2 0.36262 0.555251 0.185693
50 2 0.256371 0.727735 0.416774
37 2 0.43339 0.66676 0.859227
63 2 0.25973 0.602832 0.75809
45 2 0.485662 0.848788 0.0966503
25 2 0.495771 0.959268 0.274125
41 2 0.44391 0.825336 0.422264
14 2 0.425545 0.957081 0.5927
72 1 0.274977 0.828026 0.874765
62 2 0.700053 0.00324359 0.28578
24 2 0.558397 0.110468 0.530205
34 2 0.689303 0.232958 0.861002
53 2 0.737012 0.0250893 0.950803
57 2 0.646106 0.363624 0.0278667
68 1 0.504008 0.300268 0.241731
59 2 0.585139 0.39771 0.394946
60 2 0.577588 0.449393 0.6115
33 2 0.536957 0.257299 0.68352
38 2 0.659304 0.727559 0.133628
44 2 0.557855 0.582113 0.278819
31 2 0.632261 0.736291 0.447416
30 2 0.722219 0.574268 0.718115
19 2 0.626235 0.557946 0.904314
27 2 0.686404 0.770588 0.646161
15 2 0.517164 0.852526 0.754007
56 2 0.538058 0.965914 0.931133
42 2 0.801936 0.108254 0.130719
43 2 0.753057 0.0884638 0.465431
20 2 0.894433 0.0443932 0.595709
67 1 0.894202 0.155211 0.68251
36 2 0.793851 0.322811 0.185828
2 2 0.983515 0.416421 0.152686
22 2 0.924604 0.40835 0.484112
52 2 0.76605 0.300345 0.390436
70 1 0.898498 0.343324 0.706939
9 2 0.895856 0.267793 0.819857
71 1 0.877651 0.390038 0.893329
21 2 0.946139 0.723521 0.354695
1 2 0.982698 0.715298 0.57257
3 2 0.916988 0.521829 0.655746
55 2 0.807129 0.655279 0.979001
23 2 0.768287 0.807555 0.296358
16 2 0.861116 0.855167 0.677676
13 2 0.857959 0.867974 0.898844
ITEM: TIMESTEP
16000
ITEM: NUMBER OF ATOMS
72
ITEM: BOX BOUNDS pp pp pp
0.0000000000000000e+00 1.1105996452100001e+01
0.0000000000000000e+00 1.1105996452100001e+01
0.0000000000000000e+00 1.1105996452100001e+01
ITEM: ATOMS id type xs ys zs
51 2 0.0398119 0.068504 0.129478
7 2 0.140591 0.0304849 0.321849
35 2 0.0956722 0.0764721 0.529287
66 1 0.150933 0.16877 0.81613
5 2 0.0962673 0.259538 0.0752519
65 1 0.0636006 0.254691 0.360525
46 2 0.073722 0.27822 0.491208
18 2 0.121365 0.298888 0.859868
39 2 0.115695 0.730034 0.0804346
58 2 0.0202821 0.514357 0.321328
26 2 0.235518 0.540703 0.33563
17 2 0.0733613 0.511277 0.823453
47 2 0.116532 0.815503 0.283771
12 2 0.186684 0.754017 0.609561
10 2 0.217134 0.965518 0.662956
29 2 0.230192 0.964974 0.871173
61 2 0.0538031 0.905178 0.975732
40 2 0.300213 0.196671 0.107268
28 2 0.34443 0.107301 0.288777
8 2 0.419368 0.248007 0.415919
69 1 0.320632 0.186929 0.691987
54 2 0.379637 0.0877891 0.942101
4 2 0.444743 0.363234 0.0799664
49 2 0.267622 0.388993 0.485272
32 2 0.36718 0.439199 0.667103
64 2 0.356653 0.259657 0.803068
6 2 0.329811 0.693467 0.0468189
11 2 0.371627 0.532365 0.17568
50 2 0.263231 0.731403 0.422841
63 2 0.258692 0.619116 0.731774
37 2 0.434442 0.656454 0.860589
45 2 0.485786 0.843924 0.0938617
25 2 0.493031 0.963417 0.260484
41 2 0.44057 0.85031 0.428899
14 2 0.424252 0.959984 0.600411
72 1 0.290494 0.845594 0.889969
43 2 0.726585 0.0992152 0.46235
24 2 0.534855 0.129029 0.553276
34 2 0.713504 0.239988 0.856762
53 2 0.736038 0.0485858 0.951587
57 2 0.665062 0.385137 0.0252131
68 1 0.507504 0.31375 0.195018
59 2 0.587301 0.406314 0.399213
60 2 0.558964 0.47117 0.597298
33 2 0.555283 0.270005 0.706892
38 2 0.66155 0.711623 0.132539
44 2 0.555553 0.5689 0.272073
31 2 0.594988 0.710536 0.450371
30 2 0.724657 0.56323 0.710741
19 2 0.658703 0.558495 0.910189
62 2 0.704428 0.981858 0.291754
27 2 0.678914 0.750786 0.65481
15 2 0.522496 0.84485 0.75867
56 2 0.549353 0.957279 0.929191
42 2 0.823535 0.0861768 0.147519
20 2 0.888177 0.039768 0.575813
67 1 0.895097 0.133169 0.670086
36 2 0.797862 0.291709 0.168658
2 2 0.970364 0.414992 0.137872
52 2 0.753052 0.287971 0.374764
22 2 0.910684 0.398127 0.468367
70 1 0.868747 0.350039 0.687878
9 2 0.910314 0.315176 0.828645
71 1 0.849212 0.423499 0.884115
48 2 0.990665 0.580848 0.000273947
21 2 0.96211 0.712577 0.360143
1 2 0.979728 0.717669 0.573995
3 2 0.936954 0.515517 0.650996
55 2 0.804345 0.704617 0.979086
23 2 0.760033 0.78634 0.30562
16 2 0.851615 0.857624 0.677333
13 2 0.862513 0.884132 0.880128
ITEM: TIMESTEP
20000
ITEM: NUMBER OF ATOMS
72
ITEM: BOX BOUNDS pp pp pp
0.0000000000000000e+00 1.1105996452100001e+01
0.0000000000000000e+00 1.1105996452100001e+01
0.0000000000000000e+00 1.1105996452100001e+01
ITEM: ATOMS id type xs ys zs
51 2 0.0317198 0.0643458 0.124676
7 2 0.14727 0.0254903 0.304861
35 2 0.0728066 0.0776823 0.497658
66 1 0.115888 0.185643 0.803872
5 2 0.10882 0.265247 0.0795028
65 1 0.138427 0.266992 0.353152
46 2 0.103342 0.282506 0.478083
18 2 0.0706646 0.291077 0.870581
58 2 0.00223586 0.510437 0.306983
26 2 0.21555 0.530295 0.341737
12 2 0.1777 0.749912 0.5996
63 2 0.23876 0.627066 0.748547
17 2 0.060392 0.500698 0.814831
39 2 0.124469 0.754516 0.0668496
47 2 0.142248 0.808231 0.275854
10 2 0.204531 0.951642 0.621756
29 2 0.2164 0.978412 0.83149
61 2 0.053204 0.925031 0.952854
40 2 0.313275 0.206201 0.0953816
28 2 0.346249 0.118921 0.287755
69 1 0.300148 0.188239 0.65678
54 2 0.371898 0.11198 0.918339
4 2 0.459207 0.357437 0.127583
49 2 0.284867 0.388994 0.490496
8 2 0.444248 0.267241 0.416742
32 2 0.359124 0.471707 0.6782
64 2 0.350236 0.268235 0.758931
6 2 0.329788 0.694964 0.0588308
11 2 0.37143 0.530851 0.19424
50 2 0.276564 0.72187 0.417222
37 2 0.417048 0.660866 0.866083
45 2 0.495014 0.827311 0.108894
41 2 0.470321 0.830868 0.433175
14 2 0.432416 0.941032 0.60468
72 1 0.288539 0.865056 0.870811
43 2 0.704958 0.115727 0.46691
24 2 0.525276 0.121217 0.558243
53 2 0.744597 0.0303295 0.970902
34 2 0.691621 0.209928 0.893583
57 2 0.642637 0.386765 0.0235371
68 1 0.511629 0.310418 0.247319
59 2 0.6098 0.385105 0.417813
60 2 0.572223 0.445601 0.618175
33 2 0.555374 0.257112 0.725005
38 2 0.659017 0.704888 0.172391
44 2 0.561041 0.558761 0.322859
31 2 0.642097 0.735002 0.443687
30 2 0.719737 0.561556 0.71707
19 2 0.651554 0.555861 0.905081
62 2 0.701283 0.999487 0.29016
25 2 0.504173 0.958679 0.268889
27 2 0.679068 0.755282 0.653544
15 2 0.511787 0.832001 0.764138
56 2 0.539565 0.959535 0.946745
42 2 0.82286 0.101867 0.151028
20 2 0.864858 0.0491729 0.57477
67 1 0.877634 0.144384 0.687916
2 2 0.978586 0.410738 0.124585
36 2 0.794724 0.309411 0.148245
52 2 0.781454 0.292831 0.370411
22 2 0.938363 0.400792 0.478118
70 1 0.874456 0.325034 0.679052
9 2 0.872963 0.284472 0.807011
71 1 0.845028 0.409554 0.866211
21 2 0.9668 0.708414 0.355618
1 2 0.982271 0.718672 0.554835
3 2 0.932514 0.532468 0.642571
55 2 0.792101 0.691263 0.984242
48 2 0.991323 0.598589 0.998624
23 2 0.785236 0.801123 0.312233
16 2 0.853838 0.862073 0.660387
13 2 0.862405 0.868737 0.881226
ITEM: TIMESTEP
24000
ITEM: NUMBER OF ATOMS
72
ITEM: BOX BOUNDS pp pp pp
0.0000000000000000e+00 1.1105996452100001e+01
0.0000000000000000e+00 1.1105996452100001e+01
0.0000000000000000e+00 1.1105996452100001e+01
ITEM: ATOMS id type xs ys zs
51 2 0.0262614 0.0619494 0.135664
7 2 0.145067 0.0149612 0.305456
35 2 0.0868608 0.0656657 0.491814
66 1 0.142987 0.248432 0.804775
5 2 0.0748167 0.26538 0.0668085
65 1 0.0882777 0.283938 0.329903
46 2 0.0933864 0.270135 0.460813
18 2 0.0540226 0.311863 0.872244
48 2 0.00168914 0.614685 0.0529476
58 2 0.0260874 0.518264 0.333151
26 2 0.24783 0.509609 0.321585
12 2 0.20035 0.721949 0.594375
17 2 0.0401571 0.517758 0.85267
63 2 0.212011 0.59168 0.75538
39 2 0.139973 0.76488 0.0857347
47 2 0.127147 0.818976 0.282002
10 2 0.20862 0.948208 0.624884
29 2 0.198392 0.958674 0.838212
61 2 0.0496043 0.915967 0.979731
40 2 0.291045 0.212734 0.0858264
28 2 0.337046 0.0935532 0.264404
8 2 0.424684 0.222868 0.38598
54 2 0.339759 0.0981251 0.905753
4 2 0.41281 0.363385 0.0303068
49 2 0.287261 0.36739 0.483904
32 2 0.361444 0.458845 0.683219
64 2 0.407182 0.298504 0.809179
6 2 0.33594 0.711223 0.0544971
11 2 0.36924 0.529223 0.14595
50 2 0.272648 0.703565 0.390365
37 2 0.359379 0.715493 0.847965
25 2 0.485831 0.939775 0.26492
41 2 0.460468 0.806131 0.423282
14 2 0.417963 0.938476 0.589183
15 2 0.495574 0.858311 0.765129
72 1 0.288479 0.833935 0.84458
62 2 0.693819 0.022981 0.29109
43 2 0.722237 0.125159 0.472887
24 2 0.520543 0.120507 0.558324
34 2 0.723895 0.134641 0.782552
53 2 0.722989 0.0274058 0.97674
57 2 0.643438 0.381333 0.0730942
68 1 0.536891 0.277381 0.313623
59 2 0.624398 0.491953 0.42312
60 2 0.562571 0.490287 0.614447
33 2 0.579927 0.262272 0.71025
19 2 0.740411 0.483817 0.911144
44 2 0.581794 0.535978 0.208169
38 2 0.675252 0.714478 0.153927
31 2 0.647585 0.728979 0.471721
30 2 0.708393 0.581985 0.728413
45 2 0.510786 0.837241 0.0933059
27 2 0.677866 0.779598 0.687656
56 2 0.521458 0.983912 0.932509
42 2 0.823946 0.108271 0.148341
20 2 0.901963 0.0318647 0.560288
67 1 0.914932 0.152182 0.661573
69 1 0.754041 0.0132558 0.709488
36 2 0.798754 0.31256 0.193663
2 2 0.983792 0.413297 0.160905
22 2 0.948479 0.405976 0.495546
52 2 0.766798 0.346844 0.40083
70 1 0.879098 0.378351 0.710836
9 2 0.886602 0.250056 0.769743
71 1 0.835744 0.393832 0.903966
55 2 0.80317 0.666966 0.000768193
21 2 0.959996 0.71328 0.371471
1 2 0.984313 0.722366 0.57954
3 2 0.910401 0.534274 0.684905
23 2 0.781426 0.81771 0.315345
16 2 0.867457 0.878383 0.696949
13 2 0.845356 0.856035 0.919997
ITEM: TIMESTEP
28000
ITEM: NUMBER OF ATOMS
72
ITEM: BOX BOUNDS pp pp pp
0.0000000000000000e+00 1.1105996452100001e+01
0.0000000000000000e+00 1.1105996452100001e+01
0.0000000000000000e+00 1.1105996452100001e+01
ITEM: ATOMS id type xs ys zs
5 2 0.0890498 0.243249 0.0599946
51 2 0.016089 0.0589604 0.139013
7 2 0.136592 0.013912 0.296868
65 1 0.112092 0.239821 0.362919
35 2 0.0876525 0.0683003 0.493963
67 1 0.136061 0.118009 0.798016
29 2 0.199123 0.00388912 0.844734
46 2 0.0992508 0.270017 0.491043
18 2 0.0603266 0.28813 0.84895
17 2 0.0558912 0.49764 0.821553
66 1 0.183555 0.289134 0.791574
48 2 0.0034008 0.584817 0.00727209
39 2 0.134494 0.735603 0.0712936
58 2 0.0111603 0.532824 0.323583
26 2 0.232727 0.513087 0.342768
12 2 0.189897 0.74598 0.598366
63 2 0.238517 0.588525 0.727207
47 2 0.139382 0.801148 0.277042
10 2 0.201998 0.970362 0.646244
61 2 0.0474299 0.913347 0.974008
40 2 0.292458 0.21171 0.0899686
28 2 0.339441 0.0907853 0.26127
8 2 0.421341 0.227862 0.405895
54 2 0.357175 0.101894 0.925034
4 2 0.425625 0.359427 0.0391187
49 2 0.289901 0.359442 0.487483
32 2 0.355059 0.441803 0.664659
64 2 0.386504 0.313046 0.830098
6 2 0.34433 0.716873 0.0476509
11 2 0.318474 0.522073 0.149406
50 2 0.277296 0.707934 0.417594
37 2 0.365671 0.722153 0.832743
25 2 0.49722 0.938244 0.278241
41 2 0.446322 0.816482 0.446073
14 2 0.410542 0.951092 0.598017
72 1 0.28297 0.830034 0.84565
62 2 0.706456 0.00653504 0.30683
43 2 0.740262 0.129356 0.475521
24 2 0.52778 0.126273 0.560327
69 1 0.714794 0.0492883 0.734314
34 2 0.72749 0.184583 0.809624
53 2 0.729446 0.0289367 0.963694
57 2 0.634817 0.387956 0.0862184
68 1 0.525116 0.290966 0.353736
59 2 0.638506 0.495585 0.427367
33 2 0.563269 0.266277 0.716855
60 2 0.562957 0.462099 0.63165
38 2 0.664755 0.715549 0.143149
44 2 0.5403 0.534791 0.223925
31 2 0.637972 0.713229 0.455406
30 2 0.712547 0.575823 0.739821
19 2 0.705684 0.505523 0.928173
45 2 0.51816 0.837206 0.0991413
27 2 0.681764 0.760608 0.654274
15 2 0.507772 0.856698 0.747813
56 2 0.535657 0.978668 0.92168
42 2 0.811955 0.097205 0.153013
20 2 0.891003 0.045552 0.587489
9 2 0.908066 0.222708 0.727621
36 2 0.795912 0.313222 0.177731
2 2 0.989244 0.425579 0.144721
22 2 0.953912 0.412603 0.490424
52 2 0.786045 0.358807 0.375722
70 1 0.905819 0.33367 0.665935
71 1 0.830112 0.436107 0.927225
55 2 0.815444 0.664362 0.00942632
21 2 0.949208 0.735862 0.372282
1 2 0.989382 0.726996 0.593775
3 2 0.918024 0.551686 0.675771
23 2 0.762961 0.802652 0.310942
16 2 0.857965 0.859233 0.701794
13 2 0.866339 0.855638 0.914443
ITEM: TIMESTEP
32000
ITEM: NUMBER OF ATOMS
72
ITEM: BOX BOUNDS pp pp pp
0.0000000000000000e+00 1.1105996452100001e+01
0.0000000000000000e+00 1.1105996452100001e+01
0.0000000000000000e+00 1.1105996452100001e+01
ITEM: ATOMS id type xs ys zs
51 2 0.00455776 0.0996965 0.144213
7 2 0.126457 0.0231379 0.29698
35 2 0.107434 0.0688701 0.502163
5 2 0.0939946 0.269817 0.0869425
65 1 0.11386 0.260234 0.314521
46 2 0.104781 0.277594 0.443958
67 1 0.166591 0.262193 0.814196
18 2 0.0552812 0.280494 0.876665
58 2 0.0225783 0.533339 0.348861
26 2 0.229133 0.527201 0.342533
12 2 0.182768 0.742853 0.595217
63 2 0.234129 0.608499 0.742767
17 2 0.0553277 0.504002 0.804888
39 2 0.113423 0.756758 0.064303
47 2 0.114751 0.811539 0.285118
10 2 0.232367 0.957993 0.625146
29 2 0.203193 0.987663 0.838294
61 2 0.0476727 0.953316 0.989564
40 2 0.312777 0.220781 0.106655
28 2 0.338582 0.110304 0.273147
8 2 0.419685 0.221735 0.425528
66 1 0.299937 0.216411 0.626575
54 2 0.355869 0.0965867 0.928829
4 2 0.416168 0.395728 0.0754203
49 2 0.285323 0.381605 0.487825
32 2 0.34788 0.444799 0.673981
64 2 0.35185 0.252626 0.757779
6 2 0.326119 0.707742 0.0319693
11 2 0.366046 0.561618 0.174633
50 2 0.261478 0.720026 0.401233
37 2 0.405736 0.650088 0.846553
45 2 0.482632 0.833524 0.103191
25 2 0.476665 0.950523 0.264421
41 2 0.448455 0.807565 0.422869
14 2 0.428665 0.939384 0.605953
15 2 0.495366 0.83389 0.780033
72 1 0.273684 0.872 0.862502
62 2 0.69971 0.00486573 0.279939
43 2 0.740284 0.109748 0.46587
24 2 0.554213 0.114221 0.553957
69 1 0.717718 0.0596518 0.700117
34 2 0.724625 0.165989 0.790151
53 2 0.733101 0.0294523 0.962953
57 2 0.634862 0.422601 0.0815763
68 1 0.544338 0.279439 0.36152
59 2 0.634855 0.479176 0.436097
60 2 0.561909 0.452646 0.647241
33 2 0.558597 0.251953 0.701583
19 2 0.742635 0.495801 0.919161
44 2 0.578444 0.558723 0.246525
38 2 0.666758 0.728981 0.14287
31 2 0.644766 0.701402 0.462218
30 2 0.727624 0.555597 0.720532
27 2 0.660222 0.752431 0.68615
56 2 0.523719 0.955192 0.947051
42 2 0.790313 0.11663 0.135667
20 2 0.915196 0.0284204 0.591988
9 2 0.91907 0.214468 0.742458
36 2 0.800772 0.317442 0.164024
2 2 0.978765 0.446291 0.150442
52 2 0.779125 0.30891 0.38883
22 2 0.943292 0.409229 0.487991
70 1 0.966606 0.285536 0.638386
71 1 0.872147 0.467831 0.900652
21 2 0.942409 0.731719 0.376634
1 2 0.969472 0.724853 0.583684
3 2 0.925162 0.53834 0.643749
55 2 0.803642 0.679596 0.990397
48 2 0.999648 0.593543 0.991872
23 2 0.759015 0.808494 0.330611
16 2 0.864238 0.850833 0.69523
13 2 0.868322 0.865394 0.908056
ITEM: TIMESTEP
36000
ITEM: NUMBER OF ATOMS
72
ITEM: BOX BOUNDS pp pp pp
0.0000000000000000e+00 1.1105996452100001e+01
0.0000000000000000e+00 1.1105996452100001e+01
0.0000000000000000e+00 1.1105996452100001e+01
ITEM: ATOMS id type xs ys zs
51 2 0.0371856 0.0749068 0.131442
7 2 0.150776 0.0279402 0.314726
65 1 0.124033 0.24592 0.362155
35 2 0.0739144 0.0716103 0.517461
5 2 0.118906 0.263903 0.0657795
46 2 0.102423 0.266893 0.504008
18 2 0.0589993 0.322254 0.864463
67 1 0.177273 0.275043 0.805206
58 2 0.0281953 0.511567 0.307778
26 2 0.241038 0.500275 0.319921
12 2 0.165089 0.741424 0.590941
63 2 0.241816 0.604331 0.725109
17 2 0.0492129 0.534525 0.820345
39 2 0.123369 0.764732 0.0819126
47 2 0.112431 0.817472 0.273176
10 2 0.200762 0.945637 0.630944
29 2 0.233698 0.967928 0.845649
61 2 0.0679371 0.932002 0.981008
40 2 0.310117 0.211946 0.108741
28 2 0.338117 0.0967832 0.280157
8 2 0.423611 0.243563 0.394466
69 1 0.323383 0.160282 0.66384
54 2 0.37593 0.110357 0.925293
4 2 0.4427 0.352986 0.0320717
49 2 0.289809 0.364083 0.461239
32 2 0.365754 0.454957 0.640482
64 2 0.347836 0.282844 0.757236
66 1 0.431919 0.444357 0.93104
6 2 0.326647 0.708566 0.054647
11 2 0.361588 0.512062 0.155801
50 2 0.260902 0.707983 0.410156
37 2 0.37841 0.712476 0.859171
25 2 0.484322 0.953263 0.279922
41 2 0.426824 0.819457 0.422231
14 2 0.412339 0.957207 0.60051
72 1 0.284395 0.834638 0.821726
62 2 0.680137 0.0109576 0.301933
43 2 0.717715 0.130562 0.481082
24 2 0.520976 0.122397 0.557039
33 2 0.572182 0.231649 0.729478
34 2 0.736537 0.208244 0.87216
53 2 0.743337 0.0164186 0.97669
57 2 0.661641 0.338775 0.0103335
44 2 0.559479 0.480887 0.210962
68 1 0.535147 0.305821 0.304723
60 2 0.576273 0.448596 0.642615
38 2 0.664963 0.687081 0.154582
31 2 0.618987 0.727698 0.471994
59 2 0.640019 0.508691 0.442741
30 2 0.71524 0.576016 0.723052
19 2 0.748135 0.502526 0.916716
45 2 0.514266 0.831606 0.109925
23 2 0.74276 0.824884 0.319363
27 2 0.689447 0.771696 0.656586
15 2 0.523071 0.859058 0.764757
56 2 0.540301 0.969566 0.951618
42 2 0.825811 0.101163 0.157675
20 2 0.872568 0.0647361 0.613891
9 2 0.914621 0.226256 0.75387
36 2 0.773135 0.316202 0.184087
2 2 0.94959 0.397009 0.127476
52 2 0.752329 0.33956 0.410589
22 2 0.944432 0.395349 0.478777
70 1 0.809951 0.307178 0.710543
71 1 0.869497 0.421369 0.910574
55 2 0.813032 0.69249 0.00544773
48 2 0.999656 0.592307 0.034754
21 2 0.933464 0.726516 0.354493
1 2 0.963359 0.720948 0.570936
3 2 0.914634 0.535471 0.652108
16 2 0.860339 0.877264 0.679032
13 2 0.873142 0.865274 0.889137
ITEM: TIMESTEP
40000
ITEM: NUMBER OF ATOMS
72
ITEM: BOX BOUNDS pp pp pp
0.0000000000000000e+00 1.1105996452100001e+01
0.0000000000000000e+00 1.1105996452100001e+01
0.0000000000000000e+00 1.1105996452100001e+01
ITEM: ATOMS id type xs ys zs
51 2 0.0161135 0.0754108 0.1126
7 2 0.14146 0.0161666 0.287527
35 2 0.0931636 0.0635182 0.501724
67 1 0.159252 0.246976 0.747842
5 2 0.112812 0.260795 0.0634608
65 1 0.0542079 0.263468 0.355681
46 2 0.124465 0.278902 0.464306
18 2 0.0593208 0.302544 0.850067
58 2 0.0358879 0.503058 0.323804
26 2 0.242927 0.534279 0.341918
17 2 0.0721396 0.518644 0.829425
39 2 0.107876 0.769847 0.0936863
47 2 0.118039 0.817074 0.300657
12 2 0.18612 0.75541 0.600269
10 2 0.233032 0.959217 0.63233
29 2 0.203124 0.977628 0.834959
61 2 0.0363477 0.918127 0.973964
40 2 0.304596 0.185075 0.0917202
28 2 0.350141 0.0813293 0.279053
8 2 0.430095 0.237079 0.394825
69 1 0.284099 0.165676 0.662813
64 2 0.365071 0.23264 0.766781
54 2 0.340917 0.07921 0.926668
4 2 0.415587 0.360861 0.0700154
68 1 0.484168 0.307306 0.284152
49 2 0.30202 0.374072 0.470763
32 2 0.363785 0.427244 0.670451
66 1 0.38984 0.358694 0.930199
6 2 0.31466 0.729724 0.0590729
11 2 0.375452 0.556743 0.168317
50 2 0.264474 0.722802 0.421532
63 2 0.253983 0.600793 0.740483
37 2 0.366866 0.729236 0.854983
45 2 0.485601 0.85472 0.0918807
25 2 0.498131 0.941858 0.274158
41 2 0.461506 0.797444 0.426368
14 2 0.429734 0.953772 0.576872
72 1 0.259448 0.849969 0.857011
43 2 0.740377 0.119032 0.46017
24 2 0.53775 0.129282 0.535918
34 2 0.725791 0.243553 0.821493
53 2 0.724525 0.0607426 0.964274
57 2 0.619733 0.400471 0.110917
59 2 0.627996 0.498056 0.454896
33 2 0.571975 0.25704 0.711018
60 2 0.560128 0.463455 0.65021
19 2 0.73837 0.415534 0.918457
44 2 0.586594 0.547201 0.24335
38 2 0.664847 0.723872 0.135542
31 2 0.620448 0.696056 0.463587
30 2 0.711191 0.586774 0.762612
62 2 0.715697 0.989845 0.296032
27 2 0.674598 0.779003 0.651426
15 2 0.504995 0.855587 0.744558
56 2 0.52616 0.983383 0.91973
42 2 0.812894 0.107322 0.157627
20 2 0.904159 0.0342989 0.559537
9 2 0.89699 0.188576 0.724872
36 2 0.772939 0.317387 0.221413
2 2 0.960856 0.426871 0.154122
52 2 0.771513 0.334958 0.421625
22 2 0.952243 0.413595 0.515084
70 1 0.914062 0.294009 0.625464
71 1 0.857519 0.41179 0.980665
48 2 0.986178 0.587905 0.0122939
21 2 0.943073 0.683218 0.370108
1 2 0.984393 0.71877 0.581608
3 2 0.934248 0.553273 0.692795
55 2 0.785705 0.679445 0.951094
23 2 0.75024 0.778727 0.319624
16 2 0.866641 0.871835 0.665451
13 2 0.833031 0.876964 0.878973
ITEM: TIMESTEP
44000
ITEM: NUMBER OF ATOMS
72
ITEM: BOX BOUNDS pp pp pp
0.0000000000000000e+00 1.1105996452100001e+01
0.0000000000000000e+00 1.1105996452100001e+01
0.0000000000000000e+00 1.1105996452100001e+01
ITEM: ATOMS id type xs ys zs
5 2 0.118712 0.243878 0.0830403
51 2 0.0296465 0.0567469 0.126851
7 2 0.146902 0.026353 0.308653
35 2 0.0782291 0.0823398 0.502467
67 1 0.15886 0.133791 0.785577
69 1 0.151433 0.186347 0.826201
2 2 0.00190966 0.411952 0.144217
65 1 0.0736807 0.301429 0.363558
46 2 0.094943 0.290065 0.49525
18 2 0.0231847 0.307538 0.891569
39 2 0.150973 0.742277 0.0842877
48 2 0.00334268 0.585302 0.0281422
58 2 0.0147283 0.531026 0.327492
26 2 0.229737 0.528567 0.325989
12 2 0.179011 0.749927 0.594544
63 2 0.215434 0.5938 0.745675
17 2 0.0529846 0.511733 0.842691
47 2 0.150523 0.8164 0.293195
10 2 0.226576 0.950917 0.632992
29 2 0.211299 0.968892 0.847901
61 2 0.048738 0.916119 0.984178
40 2 0.328049 0.188934 0.0832395
28 2 0.351479 0.107272 0.288069
8 2 0.441199 0.238898 0.405075
54 2 0.374197 0.0819145 0.914664
4 2 0.471734 0.371317 0.0544796
68 1 0.403447 0.373832 0.313374
49 2 0.284209 0.349881 0.498045
32 2 0.347458 0.434604 0.656991
64 2 0.379945 0.312508 0.849441
6 2 0.349336 0.686981 0.0407141
11 2 0.389789 0.523696 0.185571
50 2 0.285397 0.710847 0.41481
37 2 0.364167 0.715255 0.841574
45 2 0.495904 0.825848 0.0983108
25 2 0.487006 0.960072 0.260367
41 2 0.440919 0.836207 0.413413
14 2 0.436979 0.952073 0.600615
72 1 0.253592 0.828469 0.840107
62 2 0.695047 0.031327 0.289317
43 2 0.733468 0.106847 0.471884
24 2 0.523867 0.131492 0.579909
34 2 0.713757 0.222808 0.855221
53 2 0.728492 0.0315622 0.958211
57 2 0.67478 0.366361 0.0335027
59 2 0.577645 0.398908 0.427096
60 2 0.563747 0.46135 0.624992
33 2 0.558537 0.281981 0.723408
38 2 0.648668 0.706432 0.15593
44 2 0.563736 0.555152 0.311757
31 2 0.645094 0.737885 0.415455
30 2 0.714442 0.554522 0.701375
27 2 0.67803 0.738419 0.625624
19 2 0.685141 0.554546 0.899841
66 1 0.553784 0.588266 0.962484
15 2 0.518103 0.819617 0.747693
56 2 0.536619 0.953101 0.930014
42 2 0.831692 0.0831201 0.134879
20 2 0.883161 0.0592222 0.59951