ITEM: TIMESTEP
0
ITEM: NUMBER OF ATOMS
72
ITEM: BOX BOUNDS pp pp pp
0.0000000000000000e+00 1.1105996452100001e+01
0.0000000000000000e+00 1.1105996452100001e+01
0.0000000000000000e+00 1.1105996452100001e+01
ITEM: ATOMS id type xs ys zs
51 2 0.0357198 0.0832445 0.108555
7 2 0.142871 0.0210702 0.307625
35 2 0.0971355 0.063898 0.501769
29 2 0.18475 0.0447583 0.826928
72 1 0.188151 0.199588 0.773343
5 2 0.105016 0.276822 0.0582263
46 2 0.0943038 0.263748 0.566387
71 1 0.0925664 0.274217 0.710708
17 2 0.0815369 0.476813 0.811495
18 2 0.0744056 0.267446 0.839171
39 2 0.150825 0.747532 0.0606819
26 2 0.246217 0.520953 0.341912
58 2 0.0204585 0.516291 0.327884
12 2 0.170798 0.747185 0.608083
63 2 0.239355 0.599579 0.752299
48 2 0.0137793 0.579205 0.996238
47 2 0.138779 0.803195 0.289056
10 2 0.199311 0.954757 0.641422
61 2 0.0730693 0.910983 0.973994
40 2 0.322765 0.224976 0.11364
28 2 0.351478 0.0959788 0.271912
8 2 0.394729 0.221155 0.424582
67 1 0.408287 0.158227 0.640484
54 2 0.373254 0.115185 0.937648
4 2 0.437764 0.386597 0.0244768
49 2 0.256875 0.369416 0.481529
32 2 0.347672 0.455828 0.648856
69 1 0.341959 0.348361 0.739837
64 2 0.371507 0.303676 0.843806
68 1 0.25985 0.349902 0.782267
6 2 0.358795 0.710982 0.0175962
11 2 0.379165 0.558778 0.161563
50 2 0.271572 0.714213 0.429038
37 2 0.43352 0.637413 0.840301
41 2 0.43879 0.837642 0.44565
14 2 0.402109 0.952757 0.636138
65 1 0.268263 0.924823 0.842843
43 2 0.724564 0.108826 0.459677
24 2 0.517127 0.123222 0.592278
66 1 0.605246 0.103024 0.520899
53 2 0.742105 0.0783616 0.930844
57 2 0.653513 0.382982 0.0108651
59 2 0.555543 0.38589 0.409613
60 2 0.567931 0.450676 0.597045
33 2 0.547256 0.266789 0.735821
34 2 0.721614 0.268433 0.857417
38 2 0.674482 0.677509 0.154727
44 2 0.55222 0.542624 0.272059
31 2 0.604362 0.696575 0.439238
30 2 0.707327 0.564606 0.696095
19 2 0.658322 0.58874 0.908513
45 2 0.524954 0.8394 0.0944234
25 2 0.510864 0.947766 0.278965
62 2 0.718566 0.994821 0.28789
27 2 0.685129 0.766924 0.656166
15 2 0.507678 0.806386 0.76537
56 2 0.537166 0.984196 0.921737
42 2 0.821229 0.104803 0.125851
20 2 0.877452 0.0394051 0.601778
9 2 0.890634 0.20574 0.761064
2 2 0.97475 0.435989 0.143141
36 2 0.799961 0.3382 0.159267
22 2 0.935205 0.390397 0.476135
52 2 0.751898 0.31068 0.382785
3 2 0.912851 0.493436 0.675382
70 1 0.886481 0.298106 0.675781
55 2 0.823502 0.702315 0.0019323
21 2 0.960292 0.705303 0.37962
1 2 0.960233 0.70732 0.602793
23 2 0.757326 0.787967 0.310226
16 2 0.861355 0.861615 0.700328
13 2 0.857071 0.882937 0.908551
ITEM: TIMESTEP
4000
ITEM: NUMBER OF ATOMS
72
ITEM: BOX BOUNDS pp pp pp
0.0000000000000000e+00 1.1105996452100001e+01
0.0000000000000000e+00 1.1105996452100001e+01
0.0000000000000000e+00 1.1105996452100001e+01
ITEM: ATOMS id type xs ys zs
51 2 0.0317647 0.0746888 0.123566
7 2 0.141355 0.00864028 0.304138
35 2 0.095737 0.0576129 0.502884
29 2 0.22044 0.00420723 0.841606
5 2 0.1084 0.265033 0.0408794
46 2 0.0874887 0.269054 0.524296
18 2 0.0590639 0.274163 0.837674
17 2 0.0509187 0.490764 0.800828
71 1 0.195744 0.258192 0.783562
58 2 0.0248433 0.520304 0.317424
50 2 0.243714 0.72176 0.416971
63 2 0.220147 0.603226 0.731333
39 2 0.129748 0.76138 0.0788898
47 2 0.113865 0.805113 0.289137
12 2 0.149161 0.755189 0.601854
10 2 0.21721 0.959183 0.641669
61 2 0.0582446 0.92657 0.973565
40 2 0.335433 0.239306 0.0836358
28 2 0.337206 0.11177 0.249527
8 2 0.401215 0.224971 0.413154
24 2 0.487175 0.11898 0.576966
69 1 0.400999 0.23569 0.812538
54 2 0.399045 0.109462 0.912366
4 2 0.464967 0.407741 0.0806652
49 2 0.267239 0.378433 0.492214
32 2 0.359076 0.466548 0.65946
68 1 0.33074 0.359483 0.737768
6 2 0.341046 0.734021 0.053692
11 2 0.369449 0.555721 0.180674
26 2 0.250671 0.527395 0.34613
37 2 0.378949 0.683797 0.851635
25 2 0.481233 0.961293 0.261594
41 2 0.429926 0.831046 0.412046
14 2 0.413531 0.926974 0.596339
65 1 0.293845 0.887009 0.851151
43 2 0.745674 0.104227 0.452304
66 1 0.615613 0.0759975 0.534847
33 2 0.550773 0.247709 0.739547
34 2 0.722397 0.20979 0.868614
53 2 0.744953 0.0198876 0.949354
57 2 0.676876 0.338936 0.028655
59 2 0.558402 0.380502 0.423253
60 2 0.566147 0.431729 0.627977
72 1 0.505564 0.401055 0.83697
38 2 0.676717 0.698719 0.159562
44 2 0.555639 0.554018 0.298436
31 2 0.604751 0.708473 0.449163
30 2 0.715213 0.528657 0.710086
27 2 0.64788 0.709217 0.654441
19 2 0.718018 0.5236 0.913922
64 2 0.500119 0.518128 0.91332
45 2 0.507583 0.837652 0.0954851
23 2 0.736909 0.798374 0.325701
62 2 0.690628 0.99325 0.288064
67 1 0.734151 0.840446 0.628357
15 2 0.50104 0.825778 0.748189
56 2 0.544931 0.951087 0.916941
42 2 0.819666 0.0704138 0.149081
20 2 0.890022 0.0563698 0.597252
9 2 0.885252 0.210312 0.743283
36 2 0.812269 0.305827 0.187416
2 2 0.991781 0.416195 0.131891
22 2 0.932717 0.408439 0.473914
52 2 0.753441 0.306892 0.394235
70 1 0.85363 0.32029 0.648883
21 2 0.936602 0.723635 0.366578
1 2 0.959361 0.720178 0.569524
3 2 0.919559 0.533149 0.641948
55 2 0.814961 0.685843 0.99696
48 2 0.991807 0.590126 0.998446
16 2 0.857045 0.862511 0.679159
13 2 0.873854 0.868923 0.891233
ITEM: TIMESTEP
8000
ITEM: NUMBER OF ATOMS
72
ITEM: BOX BOUNDS pp pp pp
0.0000000000000000e+00 1.1105996452100001e+01
0.0000000000000000e+00 1.1105996452100001e+01
0.0000000000000000e+00 1.1105996452100001e+01
ITEM: ATOMS id type xs ys zs
51 2 0.0398467 0.0838844 0.116011
7 2 0.137468 0.0285926 0.298422
35 2 0.0897438 0.0725639 0.519519
5 2 0.120718 0.272859 0.0579174
46 2 0.110153 0.279527 0.534924
18 2 0.0624313 0.306648 0.858638
71 1 0.163275 0.299284 0.776353
58 2 0.0217562 0.511244 0.337863
26 2 0.242233 0.527354 0.349332
63 2 0.219087 0.609888 0.712848
17 2 0.0459703 0.514156 0.825112
39 2 0.130468 0.750526 0.076391
47 2 0.119885 0.811975 0.27203
12 2 0.167759 0.761493 0.578639
10 2 0.207221 0.951964 0.642753
29 2 0.217856 0.969313 0.844015
61 2 0.0493875 0.921055 0.964161
40 2 0.321944 0.225531 0.0911245
28 2 0.349205 0.107118 0.255354
8 2 0.429446 0.241261 0.392367
69 1 0.36228 0.173675 0.836881
72 1 0.470752 0.229975 0.804107
54 2 0.364324 0.0839701 0.948835
4 2 0.451959 0.376422 0.0421591
49 2 0.289901 0.365774 0.475129
32 2 0.355341 0.457296 0.657103
68 1 0.294363 0.352233 0.724132
6 2 0.33163 0.688858 0.0652552
11 2 0.367716 0.515178 0.184249
50 2 0.266146 0.733277 0.391514
37 2 0.340351 0.696573 0.86545
64 2 0.443545 0.503833 0.868166
25 2 0.494954 0.955658 0.260141
41 2 0.441257 0.849136 0.418946
14 2 0.411231 0.946743 0.598665
15 2 0.483349 0.824355 0.766205
65 1 0.294377 0.856785 0.882242
66 1 0.661346 0.0937997 0.559222
24 2 0.508936 0.132974 0.570173
33 2 0.583261 0.246245 0.720507
34 2 0.726093 0.208376 0.852484
53 2 0.717895 0.0287153 0.952952
57 2 0.664707 0.35784 0.00769827
59 2 0.587034 0.396873 0.41271
60 2 0.570281 0.438653 0.618569
38 2 0.647138 0.685505 0.16444
44 2 0.52993 0.567155 0.315614
31 2 0.598784 0.720168 0.445855
30 2 0.715094 0.559047 0.720874
27 2 0.631857 0.727649 0.643069
19 2 0.678253 0.554298 0.924982
45 2 0.510564 0.818237 0.0994326
62 2 0.711415 0.987951 0.300199
67 1 0.737206 0.844977 0.623768
56 2 0.528166 0.941585 0.936789
42 2 0.808613 0.0858573 0.141658
43 2 0.771694 0.110308 0.467729
20 2 0.907771 0.0460977 0.602895
9 2 0.912513 0.222213 0.747671
36 2 0.808386 0.297785 0.165092
2 2 0.997278 0.409759 0.151543
22 2 0.941345 0.379804 0.486475
52 2 0.77528 0.298777 0.377087
70 1 0.873474 0.321736 0.656182
55 2 0.81517 0.702211 0.00676148
48 2 0.991832 0.581325 0.0232819
21 2 0.952228 0.715577 0.352123
1 2 0.963082 0.708726 0.56689
3 2 0.913182 0.525066 0.658912
23 2 0.757577 0.780519 0.310856
16 2 0.868824 0.862202 0.676351
13 2 0.855407 0.878746 0.888808
ITEM: TIMESTEP
12000
ITEM: NUMBER OF ATOMS
72
ITEM: BOX BOUNDS pp pp pp
0.0000000000000000e+00 1.1105996452100001e+01
0.0000000000000000e+00 1.1105996452100001e+01
0.0000000000000000e+00 1.1105996452100001e+01
ITEM: ATOMS id type xs ys zs
51 2 0.0430099 0.064633 0.117235
7 2 0.156192 0.0193088 0.292258
35 2 0.0846074 0.0657394 0.485682
71 1 0.167429 0.247961 0.804131
5 2 0.101018 0.266341 0.0673947
46 2 0.103164 0.285606 0.530339
18 2 0.0591966 0.310174 0.867389
58 2 0.0261873 0.524444 0.312723
26 2 0.24984 0.53083 0.34609
12 2 0.149347 0.737889 0.575626
63 2 0.205222 0.604467 0.732811
17 2 0.0509348 0.511797 0.807994
48 2 0.00539443 0.581602 0.992387
39 2 0.124609 0.754112 0.0563106
47 2 0.118588 0.816102 0.268968
10 2 0.198334 0.954034 0.634409
29 2 0.211678 0.972732 0.833027
61 2 0.0602999 0.91979 0.963286
40 2 0.31592 0.247321 0.0807463
28 2 0.344155 0.130851 0.260097
8 2 0.426457 0.223763 0.432239
69 1 0.389124 0.119776 0.817733
54 2 0.35046 0.0886354 0.940439
4 2 0.460457 0.388417 0.0576716
49 2 0.293491 0.383425 0.485692
32 2 0.347513 0.444231 0.695978
68 1 0.287929 0.326175 0.739928
72 1 0.469197 0.272958 0.843734
64 2 0.45773 0.498899 0.869748
6 2 0.323961 0.699089 0.0684845
11 2 0.374068 0.527423 0.181608
50 2 0.271837 0.723908 0.398603
37 2 0.362775 0.688416 0.855362
45 2 0.4849 0.822737 0.128871
41 2 0.449999 0.837097 0.433456
14 2 0.415728 0.936835 0.611335
65 1 0.256876 0.844841 0.847548
15 2 0.496005 0.829213 0.786695
66 1 0.634872 0.0797154 0.531962
24 2 0.503352 0.124474 0.590607
34 2 0.727498 0.205391 0.870168
33 2 0.572806 0.236574 0.760154
53 2 0.732492 0.0208187 0.9786
57 2 0.660295 0.327526 0.0293339
59 2 0.567358 0.371396 0.38804
60 2 0.569401 0.416706 0.63443
38 2 0.651337 0.691254 0.135216
44 2 0.558776 0.560071 0.281113
31 2 0.607354 0.710653 0.441296
27 2 0.617974 0.726944 0.649864
30 2 0.704483 0.536524 0.699831
19 2 0.685864 0.504238 0.906628
62 2 0.714268 0.999475 0.300983
25 2 0.504186 0.983819 0.269634
67 1 0.730892 0.853256 0.638603
56 2 0.528154 0.961498 0.979853
42 2 0.826503 0.112907 0.138292
43 2 0.757261 0.130846 0.458593
20 2 0.903168 0.0691705 0.58568
9 2 0.91037 0.208073 0.754798
36 2 0.812965 0.310678 0.168017
2 2 0.982848 0.417636 0.135513
22 2 0.947292 0.393418 0.476337
52 2 0.774523 0.33163 0.381065
70 1 0.878481 0.334874 0.684315
21 2 0.962772 0.732028 0.343522
1 2 0.941977 0.710392 0.561083
3 2 0.90409 0.524242 0.646775
55 2 0.806773 0.671199 0.989902
23 2 0.77698 0.784456 0.280639
16 2 0.872548 0.886738 0.679022
13 2 0.866644 0.872971 0.892156
ITEM: TIMESTEP
16000
ITEM: NUMBER OF ATOMS
72
ITEM: BOX BOUNDS pp pp pp
0.0000000000000000e+00 1.1105996452100001e+01
0.0000000000000000e+00 1.1105996452100001e+01
0.0000000000000000e+00 1.1105996452100001e+01
ITEM: ATOMS id type xs ys zs
51 2 0.0364617 0.0611746 0.120832
5 2 0.104365 0.249546 0.0463143
7 2 0.15237 0.021499 0.285857
35 2 0.0967417 0.0722937 0.498327
46 2 0.11367 0.271025 0.522682
18 2 0.0547493 0.296779 0.853518
71 1 0.146134 0.277145 0.75394
39 2 0.122378 0.732219 0.0652266
58 2 0.0425364 0.51973 0.307243
26 2 0.234329 0.527577 0.353613
63 2 0.212325 0.628057 0.739178
17 2 0.0540513 0.508649 0.821212
47 2 0.114423 0.821667 0.268268
12 2 0.169526 0.772962 0.591071
10 2 0.220346 0.972337 0.635463
29 2 0.208049 0.979501 0.847102
61 2 0.0515347 0.917349 0.980231
40 2 0.31688 0.2138 0.0711968
28 2 0.340495 0.111304 0.264959
8 2 0.438572 0.232115 0.407401
24 2 0.498677 0.149459 0.596292
69 1 0.414814 0.178372 0.827269
54 2 0.367182 0.082603 0.917427
4 2 0.460849 0.371902 0.0597794
49 2 0.300606 0.367419 0.48735
32 2 0.333572 0.472516 0.674668
72 1 0.44168 0.307022 0.797051
68 1 0.294098 0.361408 0.753769
64 2 0.468843 0.493062 0.899103
6 2 0.329832 0.712819 0.0592457
11 2 0.374743 0.547778 0.187481
50 2 0.250448 0.733044 0.403682
37 2 0.376961 0.679168 0.850052
45 2 0.482092 0.854073 0.105436
25 2 0.498489 0.977613 0.270629
41 2 0.421769 0.849978 0.42791
14 2 0.42209 0.946407 0.619121
65 1 0.276413 0.853362 0.847371
66 1 0.640777 0.109615 0.567494
34 2 0.709574 0.19659 0.871637
53 2 0.741649 0.0170232 0.974833
57 2 0.682089 0.327812 0.0235761
59 2 0.579765 0.385436 0.395848
60 2 0.581343 0.441743 0.596667
33 2 0.559842 0.28603 0.732117
38 2 0.655765 0.706401 0.141806
44 2 0.567708 0.568613 0.274387
31 2 0.583821 0.714451 0.430326
27 2 0.59547 0.661799 0.624794
30 2 0.727223 0.543409 0.709061
19 2 0.689404 0.503431 0.906388
62 2 0.717496 0.987541 0.31291
67 1 0.71214 0.886254 0.656441
15 2 0.518151 0.81447 0.759679
56 2 0.533365 0.963534 0.933382
42 2 0.832054 0.074598 0.165404
43 2 0.759409 0.109716 0.47322
20 2 0.904645 0.068391 0.615056
9 2 0.8771 0.220178 0.750358
36 2 0.806782 0.269798 0.185412
2 2 0.977867 0.400193 0.137185
22 2 0.951862 0.420635 0.486422
52 2 0.778998 0.310634 0.395881
70 1 0.859062 0.334314 0.680509
48 2 0.986723 0.574347 0.00822106
21 2 0.938719 0.726185 0.352705
1 2 0.959517 0.74087 0.562712
3 2 0.928597 0.551942 0.651965
55 2 0.802957 0.67312 0.988289
23 2 0.751947 0.787261 0.310134
16 2 0.843506 0.865043 0.6796
13 2 0.863155 0.856808 0.891117
ITEM: TIMESTEP
20000
ITEM: NUMBER OF ATOMS
72
ITEM: BOX BOUNDS pp pp pp
0.0000000000000000e+00 1.1105996452100001e+01
0.0000000000000000e+00 1.1105996452100001e+01
0.0000000000000000e+00 1.1105996452100001e+01
ITEM: ATOMS id type xs ys zs
51 2 0.0114573 0.0682725 0.113772
7 2 0.145697 0.0360799 0.304059
35 2 0.100682 0.0682795 0.521386
5 2 0.0953855 0.258642 0.0562901
46 2 0.117775 0.286387 0.533184
18 2 0.0634517 0.31136 0.850458
71 1 0.183588 0.2796 0.800708
26 2 0.219482 0.515067 0.350732
58 2 0.0099491 0.509709 0.331629
50 2 0.248561 0.719843 0.411574
12 2 0.164815 0.735614 0.597388
63 2 0.229448 0.604186 0.745311
17 2 0.050481 0.508123 0.808461
39 2 0.130662 0.75143 0.0800311
47 2 0.100319 0.821264 0.280595
10 2 0.222826 0.95004 0.650619
29 2 0.215838 0.979988 0.854241
61 2 0.0421642 0.927075 0.966138
40 2 0.310824 0.220873 0.063451
28 2 0.343175 0.118719 0.258528
8 2 0.441087 0.237501 0.412235
69 1 0.422506 0.164862 0.800014
54 2 0.374646 0.0964842 0.905068
4 2 0.452671 0.374075 0.0597686
49 2 0.293749 0.367177 0.484766
32 2 0.362122 0.465505 0.654365
68 1 0.305506 0.370702 0.744906
6 2 0.32892 0.71016 0.0646772
11 2 0.363687 0.522231 0.199662
37 2 0.373232 0.685141 0.860598
64 2 0.484032 0.511143 0.915736
25 2 0.491978 0.950214 0.243047
41 2 0.422362 0.836402 0.413381
14 2 0.430643 0.923371 0.605356
65 1 0.282325 0.866876 0.889841
66 1 0.638325 0.111994 0.497254
24 2 0.521737 0.119041 0.564115
34 2 0.721059 0.244816 0.870428
53 2 0.705976 0.0498859 0.946102
57 2 0.664129 0.350616 0.0423539
59 2 0.580379 0.389983 0.419268
60 2 0.56689 0.433962 0.621504
33 2 0.574744 0.251644 0.723708
72 1 0.532134 0.410529 0.81359
38 2 0.647882 0.678057 0.134376
44 2 0.541235 0.560981 0.300022
31 2 0.582804 0.705309 0.452947
30 2 0.710848 0.55084 0.71973
27 2 0.659976 0.737447 0.649285
19 2 0.688759 0.544558 0.94644
45 2 0.508007 0.823256 0.090709
62 2 0.714686 0.966755 0.282238
67 1 0.678236 0.776142 0.3766
15 2 0.506027 0.818135 0.761853
56 2 0.527355 0.951573 0.917762
42 2 0.806347 0.0899213 0.138355
43 2 0.782972 0.0936476 0.436346
20 2 0.911969 0.0430412 0.593394
9 2 0.909522 0.20246 0.740438
36 2 0.803225 0.300201 0.182124
2 2 0.984044 0.424889 0.14225
52 2 0.762508 0.307898 0.394028
22 2 0.93848 0.388426 0.492458
70 1 0.867883 0.312152 0.661378
55 2 0.816039 0.713339 0.0114693
48 2 0.993119 0.595891 0.0171484
21 2 0.95019 0.708042 0.365203
1 2 0.962839 0.733411 0.575981
3 2 0.910393 0.538626 0.649993
23 2 0.806237 0.784748 0.240318
16 2 0.832717 0.859726 0.68253
13 2 0.836743 0.884471 0.88833
ITEM: TIMESTEP
24000
ITEM: NUMBER OF ATOMS
72
ITEM: BOX BOUNDS pp pp pp
0.0000000000000000e+00 1.1105996452100001e+01
0.0000000000000000e+00 1.1105996452100001e+01
0.0000000000000000e+00 1.1105996452100001e+01
ITEM: ATOMS id type xs ys zs
51 2 0.020964 0.0755908 0.135632
7 2 0.134495 0.0309939 0.316227
35 2 0.0952185 0.0845164 0.510368
5 2 0.10643 0.259148 0.0702225
2 2 0.000785243 0.415971 0.135676
46 2 0.107099 0.282884 0.530764
71 1 0.108952 0.29557 0.67346
18 2 0.0878053 0.328805 0.864468
39 2 0.122256 0.747777 0.0814235
26 2 0.222654 0.537474 0.34438
58 2 0.00793937 0.543263 0.333814
12 2 0.16334 0.718898 0.583957
63 2 0.231059 0.591127 0.726241
17 2 0.0517934 0.518372 0.833363
47 2 0.117983 0.817048 0.284585
10 2 0.202492 0.926706 0.621353
29 2 0.226271 0.961741 0.820065
61 2 0.0674712 0.932073 0.970059
40 2 0.320783 0.231435 0.0953843
28 2 0.342214 0.0939943 0.250885
8 2 0.409553 0.230752 0.412668
24 2 0.47678 0.143808 0.589726
69 1 0.353443 0.189406 0.812043
54 2 0.362282 0.100474 0.916455
4 2 0.459132 0.3906 0.0913954
49 2 0.276852 0.384701 0.473962
32 2 0.36823 0.446221 0.654778
68 1 0.318059 0.32033 0.721499
64 2 0.496444 0.470684 0.890418
6 2 0.326802 0.691445 0.0488417
11 2 0.333334 0.532079 0.182226
50 2 0.27183 0.725858 0.397997
37 2 0.393347 0.652762 0.841649
45 2 0.497711 0.81412 0.108652
41 2 0.442183 0.832581 0.423123
14 2 0.418867 0.95301 0.60562
15 2 0.485543 0.828434 0.773719
65 1 0.292655 0.847379 0.850322
43 2 0.722564 0.115725 0.471275
66 1 0.608955 0.0809461 0.529864
53 2 0.718389 0.0224748 0.947258
57 2 0.660717 0.335201 0.0353103
59 2 0.563429 0.383033 0.39851
60 2 0.558449 0.453915 0.600257
33 2 0.607078 0.267143 0.693502
72 1 0.521721 0.259017 0.805695
19 2 0.723087 0.497913 0.89655
38 2 0.671116 0.680539 0.158845
44 2 0.528654 0.548204 0.258629
31 2 0.607987 0.692554 0.443521
30 2 0.709353 0.551102 0.700577
23 2 0.740375 0.795393 0.321174
25 2 0.500753 0.952646 0.27026
62 2 0.720457 0.998551 0.303284
67 1 0.638488 0.788088 0.548127
27 2 0.66914 0.762918 0.683936
56 2 0.527305 0.959915 0.942556
42 2 0.81715 0.0902983 0.144273
20 2 0.886369 0.0424351 0.594503
34 2 0.754689 0.218796 0.868675
9 2 0.935346 0.234772 0.754149
36 2 0.818508 0.294339 0.178121
52 2 0.761814 0.322397 0.371271
22 2 0.930113 0.391972 0.476965
70 1 0.912675 0.311476 0.657528
48 2 0.981923 0.605227 0.0168771
21 2 0.945727 0.745919 0.364302
1 2 0.958244 0.72576 0.573563
3 2 0.904501 0.526202 0.646513
55 2 0.791104 0.677462 0.976905
16 2 0.855583 0.85964 0.683542
13 2 0.859674 0.875358 0.894
ITEM: TIMESTEP
28000
ITEM: NUMBER OF ATOMS
72
ITEM: BOX BOUNDS pp pp pp
0.0000000000000000e+00 1.1105996452100001e+01
0.0000000000000000e+00 1.1105996452100001e+01
0.0000000000000000e+00 1.1105996452100001e+01
ITEM: ATOMS id type xs ys zs
51 2 0.0291838 0.0928956 0.127409
7 2 0.159388 0.0225515 0.283108
35 2 0.0735278 0.0466143 0.506132
5 2 0.111735 0.255597 0.0478675
46 2 0.10577 0.25605 0.531447
18 2 0.0578707 0.300414 0.845217
71 1 0.187841 0.314945 0.785288
39 2 0.105184 0.748986 0.0814544
26 2 0.233579 0.520692 0.344036
58 2 0.0328122 0.500965 0.316928
12 2 0.1738 0.746278 0.602641
63 2 0.232887 0.599475 0.737848
17 2 0.0471921 0.512676 0.820359
47 2 0.112282 0.81327 0.292433
10 2 0.214077 0.946554 0.631627
29 2 0.207419 0.987196 0.832264
61 2 0.0577805 0.931457 0.995426
40 2 0.338479 0.221587 0.0725227
28 2 0.362461 0.11541 0.262773
8 2 0.438093 0.244375 0.401796
72 1 0.432183 0.247684 0.728418
69 1 0.371822 0.176948 0.821041
54 2 0.364004 0.0873793 0.915388
4 2 0.444557 0.397413 0.0448872
49 2 0.280575 0.362465 0.474586
32 2 0.370853 0.459399 0.675209
68 1 0.288941 0.349906 0.71217
6 2 0.307596 0.72915 0.0657998
11 2 0.343979 0.557728 0.168844
50 2 0.262817 0.719569 0.4097
37 2 0.365987 0.701733 0.870729
64 2 0.46251 0.520201 0.86641
41 2 0.431113 0.830188 0.443103
14 2 0.430065 0.944212 0.61432
65 1 0.271551 0.850114 0.883563
43 2 0.74214 0.117216 0.449238
24 2 0.544893 0.100319 0.542132
33 2 0.583246 0.241217 0.70622
34 2 0.727123 0.20363 0.864106
53 2 0.726843 0.0270745 0.961513
57 2 0.658874 0.34249 0.0149806
59 2 0.59129 0.394678 0.389089
60 2 0.556217 0.46157 0.595185
44 2 0.526465 0.516333 0.208615
38 2 0.659961 0.67231 0.1655
31 2 0.615431 0.723496 0.484536
67 1 0.581431 0.574341 0.487938
30 2 0.699622 0.554594 0.705281
19 2 0.674593 0.5321 0.913696
45 2 0.504135 0.83762 0.119559
25 2 0.503064 0.962788 0.284767
62 2 0.72209 0.975522 0.293957
66 1 0.617199 0.965246 0.551341
27 2 0.674388 0.765359 0.68369
15 2 0.501243 0.834517 0.777257
56 2 0.538368 0.960775 0.950631
42 2 0.820199 0.104402 0.145641
20 2 0.875139 0.0502617 0.601441
9 2 0.898011 0.215426 0.75112
36 2 0.788439 0.313198 0.175424
2 2 0.988775 0.413884 0.128756
52 2 0.780504 0.312428 0.38376
22 2 0.949043 0.390844 0.485514
70 1 0.82768 0.292795 0.657567
48 2 0.988724 0.599085 0.00229968
21 2 0.942294 0.687618 0.355552
1 2 0.975654 0.721793 0.585522
3 2 0.900651 0.535399 0.65878
55 2 0.787961 0.679636 0.984536
23 2 0.753124 0.771767 0.32772
16 2 0.860626 0.86781 0.702018
13 2 0.867159 0.875003 0.907864
ITEM: TIMESTEP
32000
ITEM: NUMBER OF ATOMS
72
ITEM: BOX BOUNDS pp pp pp
0.0000000000000000e+00 1.1105996452100001e+01
0.0000000000000000e+00 1.1105996452100001e+01
0.0000000000000000e+00 1.1105996452100001e+01
ITEM: ATOMS id type xs ys zs
51 2 0.0284885 0.0893366 0.145909
7 2 0.142941 0.0260793 0.326018
35 2 0.101244 0.0761862 0.520327
29 2 0.200071 0.0046187 0.8453
5 2 0.11182 0.259694 0.0678286
46 2 0.0835638 0.281523 0.512364
71 1 0.072813 0.319582 0.647304
18 2 0.072303 0.298112 0.874423
26 2 0.221185 0.527172 0.340443
58 2 0.0170883 0.533797 0.325583
50 2 0.244606 0.719705 0.408835
12 2 0.157214 0.744117 0.603303
63 2 0.237745 0.574922 0.71509
17 2 0.0819976 0.503518 0.820041
39 2 0.126232 0.754864 0.0635511
47 2 0.125101 0.812268 0.276886
10 2 0.188714 0.945216 0.654324
61 2 0.0480679 0.949692 0.975698
40 2 0.327001 0.23025 0.0754531
28 2 0.339105 0.117136 0.265175
8 2 0.413697 0.246501 0.413929
69 1 0.354482 0.193446 0.79705
54 2 0.367049 0.116598 0.902603
4 2 0.482409 0.389913 0.0740872
49 2 0.260755 0.364727 0.457447
32 2 0.339098 0.422898 0.641819
68 1 0.304689 0.30864 0.71457
72 1 0.486953 0.385821 0.792316
64 2 0.492305 0.495738 0.902447
6 2 0.330199 0.705669 0.03511
11 2 0.343808 0.5422 0.171404
37 2 0.388569 0.664874 0.830338
45 2 0.486108 0.82353 0.107506
25 2 0.495013 0.955963 0.25937
41 2 0.420512 0.824278 0.420427
14 2 0.394658 0.943266 0.602027
15 2 0.491005 0.85016 0.772128
65 1 0.252 0.88721 0.876415
24 2 0.502614 0.110534 0.556596
66 1 0.634454 0.0373874 0.507756
33 2 0.573678 0.238893 0.704047
34 2 0.724384 0.195466 0.852273
53 2 0.73053 0.0224004 0.965152
57 2 0.675741 0.331785 0.0327445
59 2 0.566422 0.382304 0.386213
60 2 0.566943 0.419221 0.588155
38 2 0.664898 0.700998 0.146386
44 2 0.558256 0.539841 0.236986
31 2 0.603416 0.723043 0.474037
67 1 0.621499 0.589548 0.451144
30 2 0.723062 0.538689 0.718123
19 2 0.730134 0.51012 0.913456
62 2 0.714224 0.988291 0.293682
23 2 0.749834 0.791626 0.330726
27 2 0.672321 0.750343 0.668274
56 2 0.522876 0.94998 0.954671
42 2 0.814957 0.0876946 0.133311
43 2 0.763501 0.103666 0.471589
20 2 0.910682 0.0587485 0.61714
9 2 0.904874 0.236105 0.754546
36 2 0.824338 0.309647 0.178358
2 2 0.99496 0.422145 0.148954
52 2 0.759564 0.307699 0.392143
22 2 0.923998 0.415858 0.451263
70 1 0.870418 0.348619 0.652457
21 2 0.943437 0.737483 0.364383
1 2 0.953559 0.727674 0.591504
3 2 0.923434 0.516062 0.66001
55 2 0.807018 0.684693 0.997033
48 2 0.999539 0.588195 0.998484
16 2 0.86 0.869714 0.703021
13 2 0.860333 0.870504 0.904473
ITEM: TIMESTEP
36000
ITEM: NUMBER OF ATOMS
72
ITEM: BOX BOUNDS pp pp pp
0.0000000000000000e+00 1.1105996452100001e+01
0.0000000000000000e+00 1.1105996452100001e+01
0.0000000000000000e+00 1.1105996452100001e+01
ITEM: ATOMS id type xs ys zs
51 2 0.0219836 0.0809039 0.135605
7 2 0.132301 0.00967573 0.305891
35 2 0.08479 0.071179 0.494019
5 2 0.117853 0.252939 0.0583828
46 2 0.116907 0.276454 0.555466
71 1 0.142106 0.270476 0.702745
18 2 0.0908438 0.283881 0.838089
17 2 0.0444247 0.492445 0.811228
39 2 0.120175 0.741992 0.0648813
58 2 0.0303867 0.508514 0.310916
12 2 0.171095 0.749077 0.592228
63 2 0.233964 0.617351 0.755671
47 2 0.123849 0.77976 0.283583
10 2 0.204437 0.944656 0.625905
29 2 0.204455 0.979371 0.850732
65 1 0.244367 0.85023 0.855971
61 2 0.0496158 0.933162 0.984501
40 2 0.314774 0.190329 0.113605
28 2 0.331507 0.0902767 0.296838
8 2 0.414003 0.249921 0.421865
24 2 0.473792 0.143942 0.596182
69 1 0.376083 0.152321 0.844356
68 1 0.275642 0.249933 0.84238
54 2 0.361348 0.055619 0.953723
4 2 0.417279 0.35549 0.0406356
49 2 0.288823 0.392328 0.501739
32 2 0.385737 0.496644 0.675525
64 2 0.351848 0.358235 0.843138
72 1 0.285198 0.463148 0.908555
6 2 0.322764 0.708437 0.0403534
11 2 0.373318 0.518621 0.161912
26 2 0.251291 0.518966 0.323192
50 2 0.286972 0.728867 0.398338
37 2 0.434259 0.645016 0.851509
45 2 0.486986 0.812048 0.119167
25 2 0.499417 0.962904 0.265033
41 2 0.450362 0.856822 0.438287
14 2 0.403126 0.9512 0.632226
62 2 0.724687 0.0114746 0.291368
66 1 0.634495 0.10426 0.578261
34 2 0.716176 0.216648 0.860385
53 2 0.741054 0.0365947 0.950504
57 2 0.650102 0.370808 0.00192535
59 2 0.578604 0.35958 0.39828
60 2 0.585156 0.430192 0.611541
33 2 0.53269 0.269175 0.751859
38 2 0.657104 0.686618 0.149952
44 2 0.547355 0.527544 0.274743
67 1 0.546153 0.655872 0.393395
30 2 0.714261 0.563386 0.704428
19 2 0.659609 0.572455 0.913454
31 2 0.6161 0.752863 0.451118
27 2 0.682892 0.779331 0.65424
15 2 0.504623 0.827797 0.778683
56 2 0.537775 0.946683 0.950951
42 2 0.818586 0.120733 0.121205
43 2 0.757354 0.130132 0.461259
20 2 0.904295 0.059455 0.601908
9 2 0.89551 0.223836 0.761801
2 2 0.992739 0.424396 0.121635
36 2 0.798088 0.341686 0.160697
52 2 0.786429 0.30207 0.357283
22 2 0.949814 0.412132 0.477625
70 1 0.890945 0.341036 0.681084
55 2 0.79927 0.71017 0.00515898
21 2 0.950036 0.682676 0.346674
1 2 0.96732 0.730527 0.565615
3 2 0.928306 0.551074 0.634023
48 2 0.999147 0.608581 0.988524
23 2 0.773447 0.788171 0.288558
16 2 0.864964 0.855716 0.701652
13 2 0.862274 0.8738 0.904319
ITEM: TIMESTEP
40000
ITEM: NUMBER OF ATOMS
72
ITEM: BOX BOUNDS pp pp pp
0.0000000000000000e+00 1.1105996452100001e+01
0.0000000000000000e+00 1.1105996452100001e+01
0.0000000000000000e+00 1.1105996452100001e+01
ITEM: ATOMS id type xs ys zs
51 2 0.0332269 0.0872104 0.142155
7 2 0.149525 0.00604096 0.291593
35 2 0.0999796 0.0540209 0.496275
69 1 0.171407 0.232607 0.789915
29 2 0.184715 0.00604259 0.805583
5 2 0.128529 0.271601 0.0540412
26 2 0.237564 0.490141 0.34435
46 2 0.0924173 0.268486 0.526011
71 1 0.0834318 0.252001 0.661671
18 2 0.0581335 0.285232 0.850392
48 2 0.00395717 0.578598 0.00660028
58 2 0.00813673 0.532688 0.339922
12 2 0.179374 0.726924 0.582752
63 2 0.245377 0.599717 0.748814
17 2 0.0591441 0.504228 0.816949
39 2 0.107514 0.758066 0.0481689
47 2 0.125087 0.815044 0.270403
10 2 0.237792 0.933292 0.616538
61 2 0.0411668 0.959914 0.967761
40 2 0.334532 0.187767 0.088613
28 2 0.334489 0.104791 0.274157
8 2 0.431384 0.232583 0.425351
54 2 0.347267 0.111712 0.896173
4 2 0.459724 0.360373 0.0472405
49 2 0.282775 0.347956 0.503887
32 2 0.33241 0.421229 0.684663
64 2 0.418981 0.314254 0.851509
6 2 0.314741 0.685946 0.0463883
11 2 0.360913 0.518816 0.174395
50 2 0.275882 0.703496 0.38886
37 2 0.365344 0.744262 0.849676
67 1 0.373131 0.784436 0.142079
25 2 0.499825 0.959813 0.2762
41 2 0.457106 0.796806 0.444798
14 2 0.450191 0.94948 0.590405
65 1 0.259388 0.835003 0.828734
62 2 0.701744 0.00395846 0.320708
43 2 0.740286 0.122896 0.482292
24 2 0.549503 0.120751 0.570092
34 2 0.711725 0.220935 0.874412
53 2 0.703292 0.0345784 0.953094
57 2 0.676595 0.350213 0.0302036
59 2 0.566964 0.425502 0.454594
52 2 0.745487 0.322187 0.418184
33 2 0.584475 0.261067 0.726033
60 2 0.548315 0.450495 0.646035
68 1 0.670977 0.524045 0.191154
44 2 0.563075 0.570936 0.269278
31 2 0.62367 0.66884 0.444186
30 2 0.708781 0.567996 0.722216
19 2 0.662749 0.54394 0.926095
72 1 0.578415 0.6599 0.959292
45 2 0.502297 0.852896 0.0899884
38 2 0.702806 0.771111 0.108955
66 1 0.656662 0.836222 0.53938
27 2 0.683334 0.770422 0.661197
15 2 0.519113 0.837563 0.757501
56 2 0.500638 0.968558 0.919364
42 2 0.809101 0.105232 0.151104
20 2 0.908417 0.0432491 0.599535
9 2 0.892415 0.198723 0.766095
36 2 0.798964 0.318653 0.214308
2 2 0.983655 0.405478 0.148
22 2 0.923209 0.413102 0.469585
70 1 0.881729 0.287358 0.666581
21 2 0.965996 0.722605 0.350339
1 2 0.97221 0.726662 0.560334
3 2 0.911659 0.538945 0.646957
55 2 0.822016 0.703575 0.970248
23 2 0.754536 0.789689 0.298835
16 2 0.867409 0.864716 0.690156
13 2 0.85465 0.89969 0.892186
ITEM: TIMESTEP
44000
ITEM: NUMBER OF ATOMS
72
ITEM: BOX BOUNDS pp pp pp
0.0000000000000000e+00 1.1105996452100001e+01
0.0000000000000000e+00 1.1105996452100001e+01
0.0000000000000000e+00 1.1105996452100001e+01
ITEM: ATOMS id type xs ys zs
51 2 0.0104588 0.0960927 0.1197
7 2 0.137963 0.0267044 0.280825
35 2 0.0848711 0.0730541 0.498339
69 1 0.141699 0.17156 0.817902
5 2 0.0994691 0.264251 0.0513067
46 2 0.115363 0.272025 0.53343
71 1 0.13339 0.25541 0.686859
18 2 0.0489065 0.27818 0.845788
39 2 0.123704 0.739143 0.0804141
48 2 0.00150959 0.567604 0.0265596
58 2 0.0285259 0.516024 0.352103
12 2 0.171407 0.715322 0.597389
63 2 0.231706 0.602816 0.744801
17 2 0.0586716 0.506645 0.811633
47 2 0.149171 0.817226 0.285405
10 2 0.191907 0.930459 0.627305
29 2 0.19609 0.987942 0.838559
61 2 0.0365372 0.936436 0.957151
40 2 0.302373 0.206891 0.0862934
28 2 0.329784 0.0946599 0.256203
8 2 0.413914 0.217063 0.388764
54 2 0.354198 0.108329 0.872587
4 2 0.455824 0.370581 0.0259795
49 2 0.305219 0.369314 0.47338
32 2 0.360212 0.465509 0.655831
64 2 0.40187 0.307194 0.828645
6 2 0.3241 0.68459 0.0338265
11 2 0.391939 0.522124 0.157968
26 2 0.251602 0.511917 0.325248
50 2 0.280817 0.702353 0.409223
37 2 0.392451 0.676059 0.85012
72 1 0.479115 0.584146 0.788963
45 2 0.48414 0.817978 0.0780138
25 2 0.489942 0.938857 0.249702
41 2 0.451594 0.830821 0.436029
14 2 0.40536 0.956131 0.604302
15 2 0.493555 0.856323 0.763114
65 1 0.268307 0.886621 0.89837
62 2 0.716456 0.0135466 0.308799
43 2 0.712661 0.125896 0.480071
24 2 0.512265 0.144431 0.574025
34 2 0.726451 0.221279 0.870248
53 2 0.719027 0.0177073 0.976025
57 2 0.65944 0.34483 0.0327392
67 1 0.517477 0.280406 0.323661
59 2 0.633044 0.476267 0.429716
33 2 0.577494 0.266214 0.727066
60 2 0.582036 0.465329 0.648103
38 2 0.658632 0.732625 0.164361
68 1 0.550775 0.685049 0.35851
44 2 0.588416 0.562021 0.250061
31 2 0.638983 0.740321 0.484003
66 1 0.715169 0.596365 0.479067
30 2 0.723723 0.564385 0.746531
19 2 0.67237 0.552162 0.945608
27 2 0.675813 0.752258 0.686591
56 2 0.529262 0.957943 0.924211
42 2 0.795438 0.109385 0.150572
20 2 0.878498 0.0624501 0.581178