ITEM: TIMESTEP
0
ITEM: NUMBER OF ATOMS
72
ITEM: BOX BOUNDS pp pp pp
0.0000000000000000e+00 1.1105996452100001e+01
0.0000000000000000e+00 1.1105996452100001e+01
0.0000000000000000e+00 1.1105996452100001e+01
ITEM: ATOMS id type xs ys zs
51 2 0.0376818 0.085692 0.116451
67 1 0.176767 0.0739318 0.0911005
7 2 0.138933 0.0296166 0.291963
35 2 0.0869712 0.0670879 0.508296
29 2 0.183565 0.0333672 0.844092
5 2 0.110914 0.279414 0.0223527
46 2 0.152114 0.271947 0.574022
70 1 0.0535322 0.314292 0.535568
17 2 0.0897029 0.491007 0.813157
18 2 0.138306 0.272967 0.791869
58 2 0.0584089 0.515264 0.334413
63 2 0.232365 0.632849 0.720504
48 2 0.0117396 0.5878 0.994592
39 2 0.113817 0.750357 0.0936009
47 2 0.0943754 0.822007 0.292772
12 2 0.163822 0.77739 0.612063
10 2 0.212895 0.97644 0.644023
61 2 0.0752801 0.926225 0.990693
40 2 0.319072 0.209687 0.0718894
28 2 0.337911 0.125129 0.256105
8 2 0.436286 0.240455 0.423839
71 1 0.262786 0.194425 0.61027
54 2 0.371321 0.102522 0.904081
4 2 0.436574 0.379162 0.0162758
49 2 0.320223 0.396551 0.50074
32 2 0.3674 0.48529 0.680777
64 2 0.356273 0.303478 0.810427
6 2 0.323243 0.70897 0.0578942
11 2 0.353011 0.515083 0.154514
26 2 0.263929 0.51327 0.34594
50 2 0.268033 0.733759 0.401671
37 2 0.3994 0.662337 0.87026
45 2 0.4993 0.811548 0.0978039
25 2 0.49091 0.95326 0.250075
41 2 0.445871 0.836106 0.421525
14 2 0.415974 0.948157 0.599071
15 2 0.496999 0.829448 0.766402
68 1 0.259611 0.911852 0.856678
69 1 0.663296 0.133571 0.139065
62 2 0.70051 0.0010553 0.30112
43 2 0.728107 0.0936198 0.486244
24 2 0.534199 0.121114 0.558515
34 2 0.746245 0.220896 0.866551
53 2 0.725445 0.0458034 0.957459
57 2 0.654568 0.357719 0.0086379
59 2 0.596681 0.392343 0.416334
33 2 0.557466 0.250337 0.723027
60 2 0.580403 0.440462 0.627676
38 2 0.658543 0.660184 0.125601
44 2 0.544384 0.556101 0.275457
31 2 0.596704 0.698518 0.453578
27 2 0.669965 0.735545 0.655275
30 2 0.721445 0.552628 0.757686
19 2 0.585753 0.54394 0.935774
23 2 0.742161 0.772711 0.303931
56 2 0.522587 0.937619 0.933365
42 2 0.793065 0.1001 0.144123
20 2 0.90143 0.0539752 0.591217
9 2 0.874536 0.24316 0.70521
65 1 0.789507 0.149709 0.779599
2 2 0.975807 0.416255 0.145853
36 2 0.783026 0.302795 0.180764
22 2 0.95579 0.422852 0.496593
52 2 0.80178 0.308702 0.402636
66 1 0.840956 0.353652 0.795546
21 2 0.937917 0.71075 0.378322
1 2 0.94972 0.71763 0.607085
3 2 0.920384 0.518669 0.690034
55 2 0.834435 0.699631 0.994756
72 1 0.888832 0.76051 0.10777
16 2 0.834829 0.87804 0.682683
13 2 0.8723 0.876113 0.906399
ITEM: TIMESTEP
4000
ITEM: NUMBER OF ATOMS
72
ITEM: BOX BOUNDS pp pp pp
0.0000000000000000e+00 1.1105996452100001e+01
0.0000000000000000e+00 1.1105996452100001e+01
0.0000000000000000e+00 1.1105996452100001e+01
ITEM: ATOMS id type xs ys zs
51 2 0.0024903 0.0683861 0.135227
7 2 0.123038 0.00302664 0.302295
35 2 0.0817412 0.0589722 0.500196
71 1 0.0877305 0.245464 0.667407
5 2 0.0878603 0.254872 0.0672114
46 2 0.0963768 0.264024 0.531374
18 2 0.0879582 0.297373 0.863883
39 2 0.130952 0.728358 0.0766107
58 2 0.0287649 0.513086 0.323522
26 2 0.241744 0.528309 0.341346
12 2 0.196567 0.735531 0.620609
17 2 0.0654932 0.500663 0.832733
63 2 0.241213 0.581567 0.763942
47 2 0.135251 0.800404 0.26467
10 2 0.228597 0.955606 0.630247
29 2 0.232463 0.979875 0.860021
61 2 0.0665418 0.915579 0.980872
40 2 0.292304 0.194642 0.109439
67 1 0.267568 0.00146817 0.00588044
28 2 0.332333 0.0830537 0.285816
65 1 0.276092 0.162619 0.685009
64 2 0.329766 0.246848 0.785102
54 2 0.380351 0.113674 0.937179
69 1 0.498835 0.291799 0.230985
4 2 0.446682 0.349415 0.125612
49 2 0.270867 0.367611 0.485815
8 2 0.42315 0.258967 0.40756
32 2 0.350322 0.430455 0.667197
6 2 0.334498 0.683789 0.0508518
11 2 0.394823 0.54175 0.187868
50 2 0.270194 0.721597 0.411314
37 2 0.411387 0.657515 0.866101
25 2 0.497074 0.947264 0.265538
41 2 0.453169 0.826356 0.421003
14 2 0.433709 0.947279 0.586496
68 1 0.30973 0.858765 0.875414
62 2 0.713115 0.00739839 0.297759
43 2 0.737692 0.126776 0.468053
24 2 0.539793 0.127443 0.551635
34 2 0.714877 0.24385 0.855476
53 2 0.746183 0.0542121 0.942059
57 2 0.646542 0.368895 0.0240617
59 2 0.584622 0.423833 0.421831
60 2 0.563297 0.439886 0.621673
33 2 0.56531 0.259453 0.715843
38 2 0.657214 0.680209 0.0706122
44 2 0.596219 0.573944 0.284945
31 2 0.630821 0.711012 0.433792
30 2 0.69158 0.574134 0.710927
19 2 0.593679 0.545029 0.908181
45 2 0.502001 0.84456 0.0893638
27 2 0.675027 0.768113 0.638357
15 2 0.511745 0.845048 0.749734
56 2 0.55426 0.970421 0.928529
42 2 0.801388 0.10689 0.138308
20 2 0.89051 0.0697754 0.601134
9 2 0.89765 0.220572 0.753219
36 2 0.78892 0.320995 0.166874
2 2 0.983073 0.413606 0.144087
22 2 0.932709 0.404983 0.493648
52 2 0.760339 0.327846 0.378766
66 1 0.876642 0.333365 0.677931
48 2 0.992777 0.584002 0.0103753
21 2 0.956037 0.731449 0.382932
1 2 0.981129 0.731974 0.58872
3 2 0.913308 0.539469 0.661763
70 1 0.793879 0.673391 0.84284
55 2 0.838531 0.721318 0.971184
72 1 0.750864 0.787598 0.185395
23 2 0.771937 0.805803 0.323783
16 2 0.857239 0.878114 0.677343
13 2 0.88414 0.909458 0.884281
ITEM: TIMESTEP
8000
ITEM: NUMBER OF ATOMS
72
ITEM: BOX BOUNDS pp pp pp
0.0000000000000000e+00 1.1105996452100001e+01
0.0000000000000000e+00 1.1105996452100001e+01
0.0000000000000000e+00 1.1105996452100001e+01
ITEM: ATOMS id type xs ys zs
51 2 0.0353126 0.0933654 0.136837
7 2 0.143768 0.0339044 0.304774
35 2 0.0725195 0.0694755 0.493903
29 2 0.224273 0.0107633 0.838662
5 2 0.126458 0.265294 0.0666247
46 2 0.0922064 0.28406 0.514803
71 1 0.0829571 0.290802 0.656443
18 2 0.0761498 0.292439 0.845836
48 2 0.0102494 0.58291 0.0155969
58 2 0.0240145 0.518984 0.314567
26 2 0.241012 0.532167 0.334193
12 2 0.18339 0.749648 0.617014
63 2 0.243847 0.591763 0.744963
17 2 0.0498687 0.502991 0.816078
39 2 0.156076 0.781419 0.086154
47 2 0.121863 0.822799 0.293768
10 2 0.207607 0.962495 0.622744
61 2 0.074173 0.946618 0.976679
40 2 0.327303 0.191505 0.099
67 1 0.258248 0.0731882 0.0221881
28 2 0.360471 0.0928864 0.285601
8 2 0.431616 0.23963 0.412564
65 1 0.284267 0.175661 0.66806
54 2 0.388285 0.130702 0.900744
4 2 0.455078 0.369789 0.100482
69 1 0.480052 0.313378 0.221177
49 2 0.275157 0.376379 0.472015
32 2 0.339917 0.434461 0.656509
64 2 0.278579 0.265548 0.778276
6 2 0.365134 0.713585 0.0655161
11 2 0.388258 0.551161 0.190941
50 2 0.265526 0.725281 0.411056
37 2 0.394649 0.657741 0.870031
41 2 0.441648 0.825919 0.42067
14 2 0.416625 0.942481 0.593237
15 2 0.490694 0.817844 0.74859
68 1 0.277308 0.881014 0.858913
62 2 0.72386 0.0113324 0.294224
43 2 0.731364 0.124231 0.470194
24 2 0.530885 0.114177 0.558719
33 2 0.555769 0.211738 0.734312
34 2 0.710779 0.209938 0.865917
53 2 0.746139 0.0361858 0.971915
57 2 0.662688 0.367755 0.0164774
59 2 0.586801 0.388819 0.418541
60 2 0.560034 0.4057 0.64618
38 2 0.665276 0.665748 0.0747828
72 1 0.727966 0.702593 0.202437
44 2 0.578529 0.566339 0.287926
31 2 0.614338 0.71545 0.436447
30 2 0.70277 0.545403 0.72409
27 2 0.650225 0.731682 0.645185
19 2 0.580523 0.548711 0.903056
45 2 0.529214 0.825218 0.0917704
25 2 0.520653 0.957001 0.253846
56 2 0.548573 0.953842 0.914978
42 2 0.830889 0.126124 0.151184
20 2 0.878242 0.0551393 0.608337
9 2 0.89479 0.230561 0.749712
36 2 0.791531 0.336793 0.182437
2 2 0.980266 0.414879 0.145591
22 2 0.936345 0.430635 0.490117
52 2 0.760887 0.307579 0.387241
66 1 0.852054 0.323056 0.655587
21 2 0.967753 0.720592 0.375268
1 2 0.96906 0.727849 0.609926
3 2 0.911024 0.538236 0.661021
70 1 0.785225 0.623245 0.86529
55 2 0.849042 0.69141 0.970816
23 2 0.77451 0.795085 0.311218
16 2 0.822465 0.867395 0.700632
13 2 0.878457 0.887739 0.897151
ITEM: TIMESTEP
12000
ITEM: NUMBER OF ATOMS
72
ITEM: BOX BOUNDS pp pp pp
0.0000000000000000e+00 1.1105996452100001e+01
0.0000000000000000e+00 1.1105996452100001e+01
0.0000000000000000e+00 1.1105996452100001e+01
ITEM: ATOMS id type xs ys zs
51 2 0.0304464 0.0819299 0.119318
7 2 0.144049 0.0100187 0.305469
35 2 0.0736364 0.0545754 0.497114
5 2 0.118646 0.275631 0.0603686
46 2 0.106541 0.268628 0.508713
71 1 0.0965872 0.261365 0.657593
18 2 0.109475 0.304317 0.84423
39 2 0.134255 0.747005 0.0648373
58 2 0.0300432 0.516411 0.329465
12 2 0.189118 0.741994 0.577755
63 2 0.238038 0.610776 0.740867
17 2 0.0566023 0.52586 0.815938
47 2 0.120166 0.813453 0.260763
10 2 0.204006 0.949572 0.627368
29 2 0.213674 0.959007 0.840736
61 2 0.0696992 0.929415 0.9854
40 2 0.312995 0.224235 0.104137
28 2 0.322705 0.105435 0.277779
8 2 0.418265 0.249676 0.426445
65 1 0.296897 0.179433 0.658449
54 2 0.359643 0.0646964 0.961878
4 2 0.479687 0.359196 0.122218
69 1 0.498454 0.2962 0.241215
49 2 0.280272 0.375132 0.476508
32 2 0.340733 0.436085 0.660507
64 2 0.311832 0.260796 0.772346
6 2 0.341317 0.698408 0.0464877
11 2 0.399741 0.547005 0.184642
26 2 0.260608 0.521 0.332322
50 2 0.264654 0.737806 0.390757
37 2 0.397813 0.680602 0.851505
67 1 0.322907 0.961348 0.0543108
45 2 0.496802 0.829433 0.114496
25 2 0.481801 0.966658 0.270533
41 2 0.45062 0.842501 0.433472
14 2 0.416566 0.952259 0.608513
68 1 0.283487 0.82392 0.854732
62 2 0.698697 0.00940105 0.292728
43 2 0.716468 0.116872 0.47399
24 2 0.532606 0.113463 0.573244
34 2 0.72693 0.223359 0.857502
53 2 0.73627 0.0297638 0.945652
57 2 0.68566 0.331795 0.0266396
59 2 0.583433 0.396646 0.428498
60 2 0.548601 0.436662 0.638052
33 2 0.531886 0.250386 0.741985
38 2 0.665053 0.706234 0.164185
44 2 0.560547 0.576814 0.315931
31 2 0.62973 0.734418 0.455671
30 2 0.713342 0.551305 0.702894
19 2 0.675863 0.531181 0.909832
72 1 0.551989 0.587679 0.929087
70 1 0.705279 0.702502 0.87701
27 2 0.680191 0.76027 0.660204
15 2 0.516873 0.833681 0.753899
56 2 0.534966 0.958686 0.942687
42 2 0.810781 0.0928808 0.129391
20 2 0.88514 0.0634172 0.587337
9 2 0.90901 0.233252 0.737323
36 2 0.815164 0.303825 0.189572
2 2 0.974434 0.424009 0.131017
22 2 0.942042 0.406284 0.477207
52 2 0.771085 0.314312 0.406622
66 1 0.875753 0.343351 0.676489
48 2 0.979817 0.591605 0.00038836
21 2 0.955447 0.727587 0.347882
1 2 0.977526 0.725546 0.566384
3 2 0.909375 0.538428 0.630819
55 2 0.801373 0.708482 0.9896
23 2 0.763823 0.807906 0.318526
16 2 0.867855 0.865679 0.682124
13 2 0.875155 0.889778 0.894191
ITEM: TIMESTEP
16000
ITEM: NUMBER OF ATOMS
72
ITEM: BOX BOUNDS pp pp pp
0.0000000000000000e+00 1.1105996452100001e+01
0.0000000000000000e+00 1.1105996452100001e+01
0.0000000000000000e+00 1.1105996452100001e+01
ITEM: ATOMS id type xs ys zs
51 2 0.0387562 0.073959 0.127984
7 2 0.149436 0.0318726 0.293042
35 2 0.0878486 0.0650666 0.489893
5 2 0.123309 0.258013 0.06019
46 2 0.0849185 0.276823 0.514021
71 1 0.0733901 0.281769 0.657936
18 2 0.0791483 0.309376 0.853428
48 2 0.0032006 0.592359 0.00299654
39 2 0.132483 0.748349 0.0759122
58 2 0.00713405 0.524636 0.309764
26 2 0.23752 0.544254 0.3397
12 2 0.1909 0.749738 0.602345
63 2 0.245997 0.587662 0.728952
17 2 0.0383794 0.507173 0.814787
47 2 0.110809 0.827796 0.277309
10 2 0.218144 0.949813 0.62291
29 2 0.247716 0.99713 0.832763
61 2 0.0813923 0.924211 0.978251
40 2 0.332898 0.211009 0.0644245
28 2 0.353608 0.115432 0.256859
8 2 0.419496 0.239149 0.422608
65 1 0.251178 0.190786 0.643278
54 2 0.417935 0.14833 0.881224
4 2 0.468837 0.369 0.10485
49 2 0.274826 0.374702 0.460348
32 2 0.346415 0.410225 0.655786
64 2 0.269119 0.255201 0.77271
6 2 0.346542 0.725156 0.0722319
11 2 0.382319 0.540295 0.191868
50 2 0.259947 0.737696 0.401427
37 2 0.383783 0.691429 0.852247
45 2 0.431306 0.909505 0.103517
67 1 0.321078 0.965504 0.0598603
25 2 0.495193 0.976711 0.286018
41 2 0.44717 0.818578 0.423309
14 2 0.423447 0.937887 0.605034
68 1 0.304851 0.865266 0.813374
43 2 0.735217 0.107426 0.473067
24 2 0.534787 0.117401 0.563368
33 2 0.564038 0.228778 0.749759
34 2 0.728906 0.20544 0.864399
53 2 0.74329 0.0238404 0.972276
57 2 0.667275 0.353724 0.00199293
69 1 0.503226 0.321291 0.220522
59 2 0.580098 0.382394 0.428736
60 2 0.549505 0.427898 0.647187
38 2 0.680126 0.685503 0.154164
44 2 0.553286 0.567561 0.302715
31 2 0.615526 0.715076 0.45136
30 2 0.714456 0.54098 0.721148
27 2 0.674688 0.748807 0.655119
19 2 0.675793 0.550672 0.930815
72 1 0.536146 0.595093 0.880873
70 1 0.593128 0.783356 0.119543
62 2 0.716332 0.997736 0.29691
15 2 0.520581 0.840295 0.769338
56 2 0.545405 0.971677 0.938308
42 2 0.82082 0.109176 0.145656
20 2 0.893775 0.0621926 0.606136
9 2 0.913418 0.210131 0.753181
36 2 0.800077 0.31327 0.172479
2 2 0.986198 0.414629 0.134354
22 2 0.925204 0.403299 0.460033
52 2 0.7637 0.293245 0.384961
66 1 0.882652 0.319324 0.680634
55 2 0.817186 0.677346 0.00214075
21 2 0.947386 0.730876 0.369306
1 2 0.969754 0.724541 0.584623
3 2 0.911143 0.524814 0.642381
23 2 0.751329 0.791073 0.317338
16 2 0.849926 0.867186 0.699533
13 2 0.876385 0.871942 0.90881
ITEM: TIMESTEP
20000
ITEM: NUMBER OF ATOMS
72
ITEM: BOX BOUNDS pp pp pp
0.0000000000000000e+00 1.1105996452100001e+01
0.0000000000000000e+00 1.1105996452100001e+01
0.0000000000000000e+00 1.1105996452100001e+01
ITEM: ATOMS id type xs ys zs
51 2 0.0351119 0.0708821 0.127458
7 2 0.144668 0.019707 0.294038
35 2 0.0813942 0.0552374 0.492563
65 1 0.225639 0.193911 0.657948
5 2 0.111288 0.254854 0.0723579
2 2 0.00299281 0.418981 0.143872
46 2 0.082909 0.261574 0.527876
71 1 0.0790459 0.305617 0.653757
18 2 0.0832318 0.294266 0.854661
39 2 0.150347 0.74028 0.0930339
48 2 0.0309928 0.586286 0.0235855
58 2 0.0374073 0.522591 0.333685
26 2 0.248064 0.53386 0.348737
63 2 0.240336 0.608196 0.732063
17 2 0.0731869 0.51001 0.821717
47 2 0.129909 0.815747 0.289389
12 2 0.164769 0.7577 0.609322
10 2 0.217295 0.951491 0.636148
29 2 0.223833 0.951932 0.850035
61 2 0.0669166 0.903494 0.990169
40 2 0.333662 0.226023 0.073804
28 2 0.350277 0.127384 0.260542
8 2 0.420536 0.240735 0.423779
54 2 0.361797 0.110904 0.898384
4 2 0.489231 0.377389 0.111539
49 2 0.250588 0.371297 0.477902
32 2 0.342929 0.451105 0.656722
64 2 0.272601 0.272848 0.756119
6 2 0.347405 0.694517 0.0494705
11 2 0.387355 0.554527 0.207811
50 2 0.275255 0.728255 0.418757
37 2 0.38668 0.679042 0.841726
45 2 0.432374 0.878674 0.0885408
67 1 0.323023 0.960345 0.0738173
25 2 0.498553 0.973624 0.269699
41 2 0.456797 0.832826 0.441416
14 2 0.429005 0.931123 0.607366
68 1 0.305736 0.83748 0.87089
62 2 0.706875 0.0100342 0.286943
43 2 0.740053 0.124955 0.46972
24 2 0.538248 0.119467 0.55193
33 2 0.541886 0.242586 0.737546
34 2 0.717273 0.22139 0.864676
53 2 0.730849 0.0294853 0.951794
69 1 0.536458 0.338023 0.228739
59 2 0.57474 0.390084 0.422262
60 2 0.557561 0.424547 0.623454
57 2 0.673904 0.376341 0.989052
70 1 0.590916 0.731093 0.114095
38 2 0.701596 0.674801 0.172625
44 2 0.570658 0.563264 0.30143
31 2 0.62475 0.721886 0.443899
30 2 0.71008 0.545876 0.683343
27 2 0.671692 0.749643 0.647739
19 2 0.685155 0.562714 0.889615
72 1 0.563459 0.602413 0.913364
15 2 0.508873 0.827352 0.770526
56 2 0.533055 0.966117 0.931672
42 2 0.82551 0.117254 0.133812
20 2 0.89641 0.0526607 0.611264
9 2 0.883325 0.223417 0.760959
36 2 0.806522 0.340692 0.159688
22 2 0.926291 0.398208 0.483881
52 2 0.764835 0.301704 0.380055
66 1 0.856273 0.311647 0.659672
21 2 0.956181 0.718048 0.370341
1 2 0.946786 0.728009 0.5807
3 2 0.911252 0.537894 0.649356
55 2 0.835356 0.673217 0.981763
23 2 0.755016 0.802789 0.319242
16 2 0.838859 0.865165 0.677308
13 2 0.86172 0.872009 0.905965
ITEM: TIMESTEP
24000
ITEM: NUMBER OF ATOMS
72
ITEM: BOX BOUNDS pp pp pp
0.0000000000000000e+00 1.1105996452100001e+01
0.0000000000000000e+00 1.1105996452100001e+01
0.0000000000000000e+00 1.1105996452100001e+01
ITEM: ATOMS id type xs ys zs
51 2 0.0409324 0.0758108 0.131182
7 2 0.145498 0.0272182 0.301136
35 2 0.0662933 0.0619591 0.495488
5 2 0.116118 0.254077 0.0639892
46 2 0.097933 0.27976 0.526028
71 1 0.0938839 0.281919 0.664603
18 2 0.103121 0.277266 0.84646
17 2 0.0573476 0.492612 0.805894
39 2 0.132839 0.748074 0.0683182
58 2 0.0175934 0.504872 0.316938
26 2 0.233071 0.53008 0.337912
63 2 0.246271 0.590168 0.749685
48 2 0.0126278 0.577362 0.997612
47 2 0.130921 0.803164 0.287037
12 2 0.183188 0.761266 0.622976
10 2 0.204999 0.966811 0.651147
29 2 0.242157 0.982742 0.850911
61 2 0.0691867 0.929729 0.986638
40 2 0.330071 0.207927 0.0847225
28 2 0.344379 0.115134 0.28137
8 2 0.430579 0.24554 0.418043
65 1 0.323304 0.202525 0.637174
54 2 0.392944 0.132897 0.906717
4 2 0.445842 0.388812 0.080592
49 2 0.279064 0.383473 0.4672
32 2 0.360228 0.437118 0.667067
64 2 0.302156 0.26875 0.765675
6 2 0.323968 0.713718 0.0566903
11 2 0.361497 0.551334 0.182294
50 2 0.258853 0.730157 0.422352
37 2 0.392878 0.692437 0.853766
45 2 0.453358 0.871545 0.102384
67 1 0.324404 0.97505 0.081063
25 2 0.49954 0.971544 0.300112
41 2 0.451468 0.840148 0.448461
14 2 0.42737 0.932984 0.630131
68 1 0.329206 0.888985 0.845086
43 2 0.736939 0.120227 0.467262
24 2 0.525213 0.123097 0.572523
33 2 0.552619 0.249454 0.73817
34 2 0.707974 0.2174 0.868158
53 2 0.728471 0.0311826 0.977044
69 1 0.529433 0.351262 0.192937
59 2 0.593321 0.387394 0.408348
60 2 0.564568 0.416604 0.628674
57 2 0.655424 0.384704 0.994594
38 2 0.671946 0.687076 0.148999
44 2 0.550894 0.558142 0.293503
31 2 0.618753 0.715598 0.447405
30 2 0.712219 0.55795 0.708013
27 2 0.677158 0.747931 0.643315
19 2 0.654344 0.569652 0.91343
72 1 0.517613 0.590192 0.906964
70 1 0.57542 0.80041 0.0946587
62 2 0.709627 0.985045 0.289787
15 2 0.522153 0.829954 0.777339
56 2 0.532731 0.974843 0.933711
42 2 0.842763 0.0962685 0.150978
20 2 0.890827 0.0449896 0.59336
9 2 0.901235 0.198598 0.745944
36 2 0.791565 0.309838 0.151529
2 2 0.986977 0.413022 0.127658
22 2 0.93641 0.41588 0.474213
52 2 0.783102 0.311172 0.376342
66 1 0.881627 0.323928 0.694949
21 2 0.955265 0.721594 0.352195
1 2 0.981881 0.737468 0.573272
3 2 0.913362 0.529293 0.641398
55 2 0.808715 0.688091 0.976387
23 2 0.762054 0.778 0.318129
16 2 0.85008 0.850059 0.687242
13 2 0.878742 0.887154 0.892969
ITEM: TIMESTEP
28000
ITEM: NUMBER OF ATOMS
72
ITEM: BOX BOUNDS pp pp pp
0.0000000000000000e+00 1.1105996452100001e+01
0.0000000000000000e+00 1.1105996452100001e+01
0.0000000000000000e+00 1.1105996452100001e+01
ITEM: ATOMS id type xs ys zs
51 2 0.0244881 0.0631797 0.116972
5 2 0.104677 0.249112 0.0392784
7 2 0.147335 0.0155989 0.292737
35 2 0.0858496 0.0709196 0.502864
29 2 0.188762 0.00392776 0.829677
46 2 0.107204 0.282899 0.498571
71 1 0.104779 0.278172 0.634899
18 2 0.101142 0.273461 0.826016
39 2 0.134378 0.737566 0.0770088
58 2 0.0255044 0.529588 0.331168
26 2 0.240385 0.508717 0.33002
12 2 0.157824 0.742098 0.602288
63 2 0.2417 0.600178 0.739928
17 2 0.0727884 0.503795 0.816722
47 2 0.137765 0.786693 0.278441
10 2 0.212989 0.938905 0.634328
61 2 0.0636435 0.906887 0.971139
40 2 0.319888 0.198865 0.0682608
28 2 0.348404 0.124219 0.268786
64 2 0.334558 0.249333 0.741174
65 1 0.271893 0.189506 0.6393
54 2 0.382687 0.115075 0.891051
4 2 0.465498 0.3601 0.0702283
69 1 0.495294 0.323351 0.198359
49 2 0.300144 0.371462 0.483628
8 2 0.44999 0.256901 0.414781
32 2 0.372056 0.449524 0.666081
6 2 0.339384 0.707082 0.0436801
11 2 0.381419 0.526726 0.167828
50 2 0.260339 0.702962 0.417773
37 2 0.356558 0.739882 0.839602
45 2 0.424101 0.890859 0.0924046
67 1 0.306119 0.969141 0.0697356
25 2 0.493936 0.967653 0.270222
41 2 0.448548 0.834985 0.429348
14 2 0.422223 0.951238 0.593267
68 1 0.253531 0.841466 0.852641
62 2 0.707711 0.0020468 0.315267
43 2 0.735605 0.107676 0.474066
24 2 0.531271 0.122199 0.548448
33 2 0.562779 0.237563 0.727589
34 2 0.728475 0.212268 0.864085
53 2 0.740584 0.0419844 0.969513
57 2 0.664996 0.353062 0.0175601
59 2 0.593036 0.410681 0.427542
60 2 0.582076 0.456411 0.638249
38 2 0.686948 0.695232 0.146762
44 2 0.556019 0.569848 0.269068
31 2 0.605931 0.70727 0.458029
30 2 0.718748 0.577616 0.730759
19 2 0.64652 0.542675 0.920508
72 1 0.544023 0.621528 0.966346
70 1 0.596048 0.781131 0.0862775
27 2 0.660393 0.788164 0.646729
15 2 0.510549 0.861141 0.76631
56 2 0.524731 0.976153 0.93802
42 2 0.807196 0.107978 0.158129
20 2 0.898576 0.0623587 0.620848
9 2 0.914179 0.21761 0.757716
36 2 0.79039 0.304876 0.19255
2 2 0.979161 0.394885 0.151967
22 2 0.946182 0.421257 0.491976
52 2 0.781899 0.306538 0.408801
66 1 0.873425 0.331125 0.701735
48 2 0.999068 0.564146 0.0227625
21 2 0.957625 0.720568 0.38178
1 2 0.951413 0.726583 0.593052
3 2 0.921043 0.534655 0.668282
55 2 0.822705 0.662679 0.991012
23 2 0.76758 0.804321 0.332325
16 2 0.846821 0.874441 0.694887
13 2 0.869906 0.861719 0.907808
ITEM: TIMESTEP
32000
ITEM: NUMBER OF ATOMS
72
ITEM: BOX BOUNDS pp pp pp
0.0000000000000000e+00 1.1105996452100001e+01
0.0000000000000000e+00 1.1105996452100001e+01
0.0000000000000000e+00 1.1105996452100001e+01
ITEM: ATOMS id type xs ys zs
5 2 0.0889059 0.247848 0.0478308
51 2 0.0314847 0.0741483 0.132164
7 2 0.14145 0.0199153 0.309209
35 2 0.105486 0.075712 0.493696
2 2 0.000830746 0.425953 0.123074
46 2 0.0814863 0.277646 0.518054
71 1 0.0837765 0.258988 0.661064
18 2 0.092646 0.292788 0.837852
58 2 0.0212368 0.516732 0.310438
26 2 0.236145 0.537303 0.340342
17 2 0.0744468 0.515081 0.814541
48 2 0.0154528 0.605198 0.999602
39 2 0.12902 0.76967 0.068492
47 2 0.123723 0.81418 0.268307
12 2 0.188652 0.750141 0.603828
10 2 0.239468 0.95672 0.646939
29 2 0.217804 0.976435 0.84733
61 2 0.0493267 0.938645 0.959922
40 2 0.305887 0.222473 0.0807081
28 2 0.332311 0.129099 0.277569
8 2 0.43062 0.241496 0.419306
65 1 0.294989 0.152913 0.685008
64 2 0.298995 0.232969 0.793665
54 2 0.386154 0.0999065 0.928607
4 2 0.441853 0.381043 0.083682
69 1 0.489888 0.346483 0.197788
49 2 0.271871 0.362953 0.487613
32 2 0.365479 0.423102 0.658694
6 2 0.319885 0.703124 0.0448591
11 2 0.374135 0.563301 0.186205
50 2 0.259105 0.74271 0.405846
63 2 0.254547 0.598208 0.734079
37 2 0.409482 0.688662 0.850455
72 1 0.497133 0.573947 0.860924
45 2 0.4323 0.854998 0.117984
67 1 0.325711 0.937219 0.0947733
41 2 0.445521 0.838826 0.417166
14 2 0.442874 0.930557 0.612554
68 1 0.302012 0.873429 0.856676
43 2 0.741327 0.110078 0.475023
24 2 0.539222 0.125721 0.563189
34 2 0.690042 0.2318 0.870209
53 2 0.721364 0.0469583 0.955683
57 2 0.642545 0.360761 0.0236308
59 2 0.572918 0.398106 0.410847
60 2 0.571265 0.445866 0.630011
33 2 0.521588 0.266165 0.749364
70 1 0.586113 0.719252 0.108608
38 2 0.702865 0.666088 0.164629
44 2 0.536503 0.57863 0.306227
31 2 0.621034 0.724641 0.434192
30 2 0.741524 0.522351 0.723533
27 2 0.669815 0.717129 0.65717
19 2 0.671179 0.548569 0.931355
25 2 0.505107 0.985709 0.27717
62 2 0.71787 0.991184 0.30084
15 2 0.530433 0.829279 0.758976
56 2 0.541345 0.945276 0.960155
42 2 0.808905 0.090869 0.145166
20 2 0.913948 0.0544137 0.597958
9 2 0.915398 0.225543 0.755393
36 2 0.800816 0.312838 0.183026
52 2 0.768553 0.307383 0.390461
22 2 0.930627 0.417648 0.463474
66 1 0.898929 0.341518 0.662153
21 2 0.951813 0.716508 0.362433
1 2 0.978966 0.725876 0.579085
3 2 0.940109 0.536238 0.651263
55 2 0.828361 0.673071 0.992116
23 2 0.768395 0.792161 0.305033
16 2 0.845432 0.858107 0.657417
13 2 0.857227 0.879214 0.882829
ITEM: TIMESTEP
36000
ITEM: NUMBER OF ATOMS
72
ITEM: BOX BOUNDS pp pp pp
0.0000000000000000e+00 1.1105996452100001e+01
0.0000000000000000e+00 1.1105996452100001e+01
0.0000000000000000e+00 1.1105996452100001e+01
ITEM: ATOMS id type xs ys zs
5 2 0.103165 0.239324 0.0524033
51 2 0.0265408 0.0533944 0.130078
7 2 0.137604 0.0274929 0.301514
35 2 0.0851571 0.0585142 0.49874
2 2 0.0043241 0.395703 0.134624
46 2 0.102676 0.27601 0.513941
71 1 0.133559 0.256646 0.656412
18 2 0.0666621 0.287184 0.865158
17 2 0.0697949 0.49827 0.826869
39 2 0.111361 0.722178 0.0852491
58 2 0.0254662 0.530919 0.318272
26 2 0.248075 0.527511 0.338821
63 2 0.237584 0.608994 0.733076
47 2 0.112534 0.801552 0.291033
12 2 0.183509 0.753294 0.601345
10 2 0.241819 0.970829 0.618976
29 2 0.231631 0.980391 0.836301
61 2 0.0773083 0.916222 0.971818
40 2 0.302101 0.232608 0.0711819
28 2 0.338535 0.130801 0.251321
8 2 0.431094 0.246406 0.41696
65 1 0.291143 0.156555 0.696425
64 2 0.262213 0.247086 0.790456
54 2 0.404226 0.131557 0.899437
4 2 0.462982 0.37456 0.0904648
49 2 0.279519 0.369218 0.483786
32 2 0.373627 0.417314 0.66626
6 2 0.335015 0.704296 0.0565092
11 2 0.392218 0.547897 0.178779
50 2 0.263748 0.725585 0.40571
37 2 0.369537 0.718375 0.843642
45 2 0.447475 0.878979 0.0869474
67 1 0.356871 0.96583 0.0441837
25 2 0.48694 0.986809 0.256578
41 2 0.431643 0.842046 0.412605
14 2 0.437112 0.945623 0.596154
68 1 0.289549 0.840177 0.854992
62 2 0.712592 0.00996973 0.29665
43 2 0.732751 0.116253 0.490686
24 2 0.534741 0.122757 0.549636
33 2 0.543042 0.224939 0.751496
53 2 0.731168 0.0323002 0.961096
34 2 0.714949 0.227577 0.881075
57 2 0.659314 0.383384 0.0185703
69 1 0.501697 0.307347 0.210429
59 2 0.581318 0.392085 0.426137
60 2 0.58888 0.411016 0.643489
70 1 0.625141 0.708631 0.104636
38 2 0.717526 0.658538 0.175883
44 2 0.557784 0.573992 0.305866
31 2 0.597129 0.738276 0.436791
30 2 0.720609 0.561333 0.721876
19 2 0.685932 0.551582 0.916747
72 1 0.575245 0.603184 0.931204
27 2 0.664894 0.761658 0.654576
15 2 0.51658 0.846399 0.76081
56 2 0.552374 0.972332 0.925006
42 2 0.828764 0.0943688 0.143565
20 2 0.88229 0.053582 0.621715
9 2 0.882567 0.224318 0.764648
36 2 0.802223 0.316116 0.170796
22 2 0.941417 0.401692 0.482465
52 2 0.759599 0.313343 0.394766
66 1 0.88359 0.30328 0.666462
48 2 0.998345 0.580903 0.00404135
21 2 0.937608 0.711189 0.372152
1 2 0.973732 0.716751 0.573576
3 2 0.928282 0.529146 0.660785
55 2 0.835309 0.676782 0.977419
23 2 0.759847 0.812241 0.316324
16 2 0.852548 0.85077 0.664286
13 2 0.871379 0.881419 0.889179
ITEM: TIMESTEP
40000
ITEM: NUMBER OF ATOMS
72
ITEM: BOX BOUNDS pp pp pp
0.0000000000000000e+00 1.1105996452100001e+01
0.0000000000000000e+00 1.1105996452100001e+01
0.0000000000000000e+00 1.1105996452100001e+01
ITEM: ATOMS id type xs ys zs
51 2 0.0364109 0.0844303 0.148193
7 2 0.145336 0.0208559 0.308902
35 2 0.0610267 0.055259 0.521699
2 2 0.00919545 0.418578 0.119339
5 2 0.136655 0.260268 0.0626202
46 2 0.0869195 0.257835 0.536168
71 1 0.11305 0.287141 0.674082
18 2 0.0880263 0.291096 0.839484
39 2 0.126494 0.736403 0.0830591
26 2 0.239696 0.51316 0.318713
58 2 0.0373122 0.511029 0.306825
63 2 0.226925 0.606538 0.717824
17 2 0.0681529 0.502554 0.793416
47 2 0.122236 0.807676 0.281986
12 2 0.15175 0.756594 0.601058
10 2 0.206096 0.973082 0.64918
29 2 0.210555 0.985928 0.856249
61 2 0.0568671 0.913607 0.99256
40 2 0.337541 0.226899 0.0835482
28 2 0.349238 0.124723 0.272165
8 2 0.421284 0.242948 0.438765
65 1 0.251906 0.162641 0.684437
54 2 0.392542 0.118227 0.903232
4 2 0.485721 0.376432 0.111626
49 2 0.273087 0.363032 0.465692
32 2 0.349007 0.452009 0.650924
64 2 0.314301 0.266369 0.778967
6 2 0.333758 0.693378 0.0557098
11 2 0.405143 0.547185 0.214946
50 2 0.250551 0.701036 0.415578
37 2 0.359984 0.716402 0.845806
45 2 0.43266 0.87712 0.0852792
67 1 0.32715 0.962611 0.0781617
25 2 0.475895 0.962302 0.266879
41 2 0.42424 0.825106 0.407438
14 2 0.401728 0.941181 0.583834
15 2 0.494773 0.839321 0.734742
68 1 0.28725 0.839402 0.86995
62 2 0.707313 0.00982135 0.261428
43 2 0.734787 0.125802 0.457191
24 2 0.551815 0.118525 0.560823
34 2 0.723885 0.220692 0.865293
33 2 0.549311 0.235366 0.750203
57 2 0.667817 0.364292 0.0158297
69 1 0.54427 0.312255 0.22742
59 2 0.59712 0.374974 0.440916
60 2 0.562161 0.426014 0.653317
38 2 0.702986 0.713265 0.151122
44 2 0.576581 0.572806 0.328522
31 2 0.608947 0.749009 0.472951
30 2 0.72237 0.550677 0.733432
19 2 0.67599 0.558357 0.944875
72 1 0.530149 0.59063 0.914414
70 1 0.598089 0.806562 0.111387
27 2 0.668041 0.754959 0.665975
56 2 0.535696 0.963231 0.913152
42 2 0.841727 0.107287 0.139428
20 2 0.881868 0.0512329 0.604952
9 2 0.90307 0.215966 0.750953
53 2 0.755996 0.0244986 0.961391
36 2 0.813253 0.327151 0.165803
52 2 0.783627 0.317334 0.374143
22 2 0.943023 0.400836 0.470387
66 1 0.890761 0.332542 0.669044
21 2 0.951613 0.689481 0.363694
1 2 0.958643 0.705234 0.56266
3 2 0.924551 0.52412 0.656152
55 2 0.810647 0.704183 0.976891
48 2 0.991577 0.57873 0.982972
23 2 0.762831 0.817499 0.322611
16 2 0.859032 0.852163 0.680286
13 2 0.875397 0.866426 0.895055
ITEM: TIMESTEP
44000
ITEM: NUMBER OF ATOMS
72
ITEM: BOX BOUNDS pp pp pp
0.0000000000000000e+00 1.1105996452100001e+01
0.0000000000000000e+00 1.1105996452100001e+01
0.0000000000000000e+00 1.1105996452100001e+01
ITEM: ATOMS id type xs ys zs
5 2 0.112716 0.229248 0.0461085
51 2 0.0146714 0.067596 0.129416
7 2 0.118617 0.0160947 0.322197
35 2 0.0558036 0.0703225 0.532061
29 2 0.184005 0.00777487 0.826124
65 1 0.105997 0.136235 0.788802
2 2 0.000193107 0.405395 0.143503
58 2 0.0477333 0.482571 0.326946
46 2 0.118372 0.270959 0.540054
71 1 0.0920721 0.323199 0.665237
18 2 0.0682239 0.295813 0.81951
48 2 0.00432327 0.576332 0.0152465
39 2 0.120273 0.74983 0.0645765
63 2 0.203433 0.622022 0.722958
17 2 0.0421242 0.514967 0.802893
47 2 0.115119 0.801848 0.270685
12 2 0.152613 0.752292 0.565425
10 2 0.213747 0.948765 0.627512
61 2 0.0612043 0.927395 0.969953
40 2 0.313663 0.21495 0.0968671
28 2 0.316734 0.0622062 0.227866
69 1 0.408499 0.159553 0.329853
54 2 0.369678 0.095396 0.914357
4 2 0.45859 0.376322 0.0506656
8 2 0.47026 0.255865 0.420295
49 2 0.304067 0.350814 0.498724
32 2 0.349583 0.448886 0.686427
64 2 0.370749 0.303434 0.844526
6 2 0.336732 0.699653 0.0528542
11 2 0.393005 0.530294 0.149197
26 2 0.264295 0.515882 0.340336
50 2 0.266493 0.711913 0.406677
37 2 0.349161 0.749478 0.849484
67 1 0.282993 0.969137 0.128013
41 2 0.441883 0.843133 0.400404
14 2 0.413279 0.950689 0.566977
68 1 0.252949 0.856885 0.878966
62 2 0.683101 0.00983889 0.303617
43 2 0.722787 0.131271 0.469375
24 2 0.535271 0.131444 0.569408
34 2 0.705453 0.232045 0.873877
57 2 0.682177 0.346998 0.0325969
59 2 0.603432 0.442211 0.411592
33 2 0.569167 0.26993 0.72373
60 2 0.547694 0.446872 0.632351
70 1 0.597852 0.733708 0.0382599
44 2 0.576083 0.58647 0.272613
31 2 0.617928 0.733071 0.444852
30 2 0.699297 0.583698 0.727933
19 2 0.688307 0.542807 0.930899
72 1 0.55216 0.591571 0.886591
45 2 0.50498 0.828191 0.0798889
25 2 0.501947 0.949151 0.236974
27 2 0.672058 0.781013 0.640543
15 2 0.507183 0.850862 0.748496
56 2 0.547885 0.964459 0.904999
42 2 0.799055 0.0924511 0.136623
20 2 0.867069 0.0717173 0.627871