ITEM: TIMESTEP
0
ITEM: NUMBER OF ATOMS
72
ITEM: BOX BOUNDS pp pp pp
0.0000000000000000e+00 1.1105996452100001e+01
0.0000000000000000e+00 1.1105996452100001e+01
0.0000000000000000e+00 1.1105996452100001e+01
ITEM: ATOMS id type xs ys zs
5 2 0.120909 0.249607 0.0580705
51 2 0.0119327 0.0795092 0.148504
7 2 0.148761 0.0040176 0.313412
35 2 0.0437235 0.0511398 0.504132
29 2 0.180098 0.0572004 0.81619
67 1 0.0040474 0.149533 0.896783
46 2 0.1193 0.25935 0.566516
68 1 0.122884 0.271548 0.703628
18 2 0.0837046 0.257276 0.830569
48 2 0.0195288 0.593973 0.0112891
26 2 0.224415 0.51922 0.332411
58 2 0.0269819 0.509101 0.324495
50 2 0.236616 0.716335 0.434898
63 2 0.237879 0.570601 0.728926
17 2 0.0630325 0.500426 0.824476
66 1 0.0446544 0.63842 0.798842
39 2 0.126656 0.777825 0.0529833
47 2 0.134117 0.807291 0.268655
10 2 0.207173 0.967508 0.622596
12 2 0.185004 0.757158 0.636475
61 2 0.0483082 0.943292 0.953583
40 2 0.328515 0.211205 0.0771177
28 2 0.346902 0.0947917 0.273064
54 2 0.373404 0.0956261 0.913745
4 2 0.434351 0.398129 0.0402655
8 2 0.437754 0.252428 0.411723
49 2 0.278274 0.362323 0.470317
32 2 0.365254 0.444609 0.637692
64 2 0.407587 0.311957 0.832955
6 2 0.336736 0.720264 0.0455694
11 2 0.377295 0.538905 0.216058
71 1 0.352376 0.654865 0.150088
37 2 0.407446 0.652446 0.844554
25 2 0.494563 0.943776 0.278588
41 2 0.432839 0.816983 0.429117
14 2 0.414863 0.957882 0.582471
15 2 0.484127 0.82444 0.742293
70 1 0.324838 0.847186 0.953191
43 2 0.723841 0.118792 0.473298
24 2 0.530173 0.133006 0.558027
34 2 0.717885 0.229093 0.88259
53 2 0.741835 0.0271745 0.967454
57 2 0.652399 0.369147 0.0209544
59 2 0.596388 0.402255 0.412011
60 2 0.605822 0.440964 0.615932
33 2 0.596496 0.258243 0.714842
38 2 0.6781 0.711499 0.150738
44 2 0.58774 0.560941 0.268511
72 1 0.586894 0.669932 0.33881
31 2 0.585902 0.698709 0.465273
27 2 0.674925 0.746086 0.665488
30 2 0.729966 0.558413 0.749781
19 2 0.578988 0.526673 0.895743
45 2 0.504491 0.838251 0.0873395
23 2 0.744166 0.805563 0.352858
62 2 0.713949 0.999219 0.298013
56 2 0.535075 0.969212 0.909036
42 2 0.812951 0.124284 0.155748
20 2 0.873918 0.0812201 0.622343
2 2 0.988394 0.418708 0.135118
36 2 0.807543 0.330997 0.166015
52 2 0.78326 0.325073 0.365725
22 2 0.947933 0.396581 0.475904
69 1 0.858673 0.370562 0.689788
9 2 0.879269 0.251199 0.769959
65 1 0.859915 0.747173 0.0706775
21 2 0.958023 0.711153 0.360247
1 2 0.989327 0.730135 0.599142
3 2 0.928878 0.516957 0.661685
55 2 0.793373 0.663811 0.978011
16 2 0.846063 0.866131 0.68452
13 2 0.857686 0.846826 0.90004
ITEM: TIMESTEP
4000
ITEM: NUMBER OF ATOMS
72
ITEM: BOX BOUNDS pp pp pp
0.0000000000000000e+00 1.1105996452100001e+01
0.0000000000000000e+00 1.1105996452100001e+01
0.0000000000000000e+00 1.1105996452100001e+01
ITEM: ATOMS id type xs ys zs
51 2 0.0201654 0.0703071 0.155515
7 2 0.162503 0.0183484 0.309824
35 2 0.0972288 0.0686834 0.506635
29 2 0.165335 0.0407047 0.844028
18 2 0.066303 0.244533 0.822274
67 1 0.0356049 0.197674 0.96698
5 2 0.100861 0.256707 0.103865
46 2 0.109372 0.275156 0.51013
68 1 0.0839557 0.269176 0.645665
17 2 0.0667624 0.462895 0.81418
65 1 0.0635932 0.668899 0.0655972
26 2 0.236079 0.514839 0.346838
58 2 0.0158033 0.532547 0.318586
12 2 0.190405 0.747703 0.629912
39 2 0.14462 0.777201 0.0830863
47 2 0.147665 0.817898 0.302544
10 2 0.211366 0.959109 0.650208
61 2 0.0413869 0.939715 0.979188
40 2 0.305466 0.223446 0.086581
28 2 0.347029 0.112718 0.271757
8 2 0.443766 0.221562 0.409305
54 2 0.355688 0.112686 0.917058
4 2 0.414283 0.391835 0.0126063
49 2 0.298286 0.349621 0.473334
32 2 0.355331 0.442147 0.644546
64 2 0.379426 0.311952 0.808449
11 2 0.363646 0.532363 0.174935
71 1 0.361951 0.66136 0.12783
50 2 0.268098 0.70554 0.432014
37 2 0.44721 0.644721 0.856167
63 2 0.250456 0.580857 0.76134
6 2 0.338488 0.763426 0.00437149
25 2 0.483576 0.956311 0.261421
41 2 0.429438 0.835652 0.419398
14 2 0.417352 0.951411 0.600502
70 1 0.311068 0.876027 0.93519
43 2 0.733877 0.112632 0.483435
24 2 0.537473 0.11909 0.558086
53 2 0.722946 0.0557137 0.944893
57 2 0.629296 0.369713 0.028578
59 2 0.593839 0.410898 0.406539
60 2 0.563214 0.453267 0.622132
33 2 0.560167 0.256053 0.720738
34 2 0.712959 0.251227 0.867023
38 2 0.684684 0.710234 0.15069
44 2 0.58606 0.52182 0.224646
72 1 0.602775 0.59353 0.467132
31 2 0.610622 0.733752 0.472977
30 2 0.716909 0.562715 0.716507
19 2 0.640433 0.563682 0.918608
45 2 0.516775 0.833485 0.104939
62 2 0.698819 0.9922 0.297036
27 2 0.675528 0.764931 0.668495
15 2 0.506504 0.847701 0.758696
56 2 0.534585 0.972024 0.926623
42 2 0.801646 0.0987259 0.136648
20 2 0.900541 0.0533815 0.583866
9 2 0.882259 0.192556 0.739488
36 2 0.775166 0.29811 0.183079
2 2 0.968535 0.410099 0.15745
22 2 0.958819 0.411219 0.471443
52 2 0.77572 0.306039 0.394284
69 1 0.868396 0.320023 0.685438
66 1 0.876971 0.458602 0.917937
21 2 0.966261 0.74054 0.389916
1 2 0.995122 0.714576 0.596857
3 2 0.919499 0.520764 0.656419
48 2 0.964337 0.549594 0.986901
55 2 0.804074 0.686314 0.988008
23 2 0.763581 0.796609 0.338649
16 2 0.871467 0.860966 0.680331
13 2 0.855906 0.880597 0.893951
ITEM: TIMESTEP
8000
ITEM: NUMBER OF ATOMS
72
ITEM: BOX BOUNDS pp pp pp
0.0000000000000000e+00 1.1105996452100001e+01
0.0000000000000000e+00 1.1105996452100001e+01
0.0000000000000000e+00 1.1105996452100001e+01
ITEM: ATOMS id type xs ys zs
51 2 0.0158692 0.0799549 0.135533
35 2 0.0650287 0.0466091 0.498601
5 2 0.113624 0.259195 0.0618475
46 2 0.0939954 0.264622 0.518997
68 1 0.119159 0.250784 0.652223
18 2 0.0533529 0.28111 0.860787
17 2 0.0513019 0.48297 0.802036
65 1 0.10537 0.660665 0.0514681
58 2 0.0126124 0.51686 0.310972
26 2 0.244054 0.521418 0.325952
12 2 0.188573 0.732846 0.626282
63 2 0.247922 0.584838 0.783445
39 2 0.171297 0.780053 0.0786842
71 1 0.249975 0.906798 0.099957
47 2 0.14466 0.805296 0.290188
7 2 0.135779 0.998971 0.305843
10 2 0.207147 0.950039 0.633696
29 2 0.199659 0.988882 0.846295
61 2 0.0532161 0.929524 0.982303
40 2 0.318731 0.219632 0.0939915
28 2 0.331808 0.106811 0.276265
8 2 0.433632 0.246757 0.419797
54 2 0.358735 0.113556 0.917303
4 2 0.433158 0.379758 0.0267136
49 2 0.271776 0.368641 0.476862
32 2 0.344776 0.426825 0.662181
64 2 0.389663 0.295185 0.832294
6 2 0.362719 0.705111 0.0422574
11 2 0.385463 0.525131 0.160867
50 2 0.26827 0.694241 0.429251
37 2 0.436845 0.672858 0.85048
25 2 0.478333 0.967444 0.268181
41 2 0.454693 0.825777 0.422694
14 2 0.408903 0.950729 0.59034
70 1 0.26008 0.865656 0.867275
62 2 0.688517 0.0139126 0.283061
43 2 0.724902 0.107695 0.47176
24 2 0.539719 0.135351 0.561845
34 2 0.712716 0.246738 0.852284
53 2 0.72251 0.0615339 0.951586
57 2 0.64673 0.40179 0.0490887
59 2 0.609538 0.406213 0.412074
60 2 0.564969 0.449909 0.616816
33 2 0.575756 0.27453 0.716678
38 2 0.690109 0.708277 0.169287
44 2 0.590664 0.524092 0.21743
31 2 0.637838 0.747242 0.468163
72 1 0.643863 0.612181 0.448816
30 2 0.697896 0.553252 0.729037
19 2 0.630947 0.591844 0.922688
45 2 0.517951 0.83122 0.0989731
27 2 0.690333 0.76359 0.667816
15 2 0.520498 0.849109 0.761493
56 2 0.528023 0.972155 0.93784
42 2 0.793085 0.111496 0.132314
20 2 0.874949 0.0431774 0.586883
9 2 0.893677 0.199899 0.737564
36 2 0.798889 0.315395 0.183554
2 2 0.979963 0.401711 0.15268
22 2 0.931831 0.402813 0.474128
52 2 0.776779 0.300206 0.393522
69 1 0.87994 0.292291 0.637226
66 1 0.843113 0.457804 0.909737
67 1 0.945936 0.300311 0.947408
21 2 0.966421 0.731696 0.368749
1 2 0.976873 0.714325 0.5844
3 2 0.898413 0.526147 0.649482
48 2 0.938523 0.533496 0.984152
55 2 0.808641 0.692502 0.997871
23 2 0.770326 0.825585 0.321715
16 2 0.877883 0.852809 0.698636
13 2 0.855173 0.891659 0.90111
ITEM: TIMESTEP
12000
ITEM: NUMBER OF ATOMS
72
ITEM: BOX BOUNDS pp pp pp
0.0000000000000000e+00 1.1105996452100001e+01
0.0000000000000000e+00 1.1105996452100001e+01
0.0000000000000000e+00 1.1105996452100001e+01
ITEM: ATOMS id type xs ys zs
51 2 0.0123887 0.0803159 0.128503
7 2 0.129153 0.0414359 0.31632
35 2 0.0692222 0.072104 0.539171
5 2 0.106186 0.259816 0.0663055
46 2 0.115378 0.280521 0.530793
18 2 0.0675817 0.28861 0.864469
17 2 0.0740847 0.49193 0.803347
68 1 0.192752 0.257304 0.799462
65 1 0.0603337 0.676084 0.0715722
58 2 0.0336932 0.520716 0.321456
26 2 0.248979 0.517848 0.331906
63 2 0.246341 0.590975 0.734845
39 2 0.186947 0.825602 0.113304
71 1 0.227443 0.951556 0.12926
47 2 0.113115 0.836131 0.321383
12 2 0.187003 0.759571 0.614672
10 2 0.224787 0.966359 0.644731
29 2 0.198735 0.985668 0.857308
61 2 0.0254692 0.922232 0.969444
70 1 0.24721 0.852577 0.894106
40 2 0.315286 0.209029 0.10224
28 2 0.33551 0.120467 0.283662
8 2 0.439703 0.247812 0.418791
54 2 0.35425 0.0863946 0.942179
4 2 0.427242 0.366422 0.0238925
49 2 0.289634 0.364112 0.471259
32 2 0.37224 0.442386 0.651875
64 2 0.385202 0.293492 0.82798
6 2 0.34193 0.704503 0.0430139
11 2 0.368398 0.54244 0.155718
50 2 0.260641 0.718523 0.418415
37 2 0.407989 0.649016 0.859758
45 2 0.49735 0.835215 0.103794
25 2 0.486892 0.961506 0.286202
41 2 0.443575 0.826665 0.438398
14 2 0.419271 0.953719 0.595633
15 2 0.493263 0.827472 0.757766
62 2 0.702143 0.0194077 0.291686
43 2 0.745391 0.116456 0.46319
24 2 0.544984 0.114923 0.550919
33 2 0.561773 0.246944 0.715975
34 2 0.706887 0.216614 0.85058
53 2 0.716621 0.0169036 0.935589
57 2 0.648678 0.371129 0.000339498
59 2 0.599659 0.405137 0.406494
60 2 0.574917 0.432056 0.604356
38 2 0.667823 0.700847 0.159589
44 2 0.565426 0.528224 0.235462
31 2 0.625245 0.719913 0.465124
72 1 0.654579 0.579881 0.436684
30 2 0.724135 0.555322 0.699677
19 2 0.634682 0.561005 0.897271
27 2 0.677604 0.760002 0.660008
56 2 0.523069 0.952483 0.935848
42 2 0.787669 0.106491 0.124241
20 2 0.874169 0.0622665 0.619502
9 2 0.891341 0.222412 0.754384
36 2 0.802834 0.324718 0.163825
2 2 0.99143 0.418462 0.142724
52 2 0.791213 0.316851 0.381431
22 2 0.96387 0.405462 0.470938
69 1 0.893589 0.335171 0.670892
66 1 0.81097 0.416789 0.886197
67 1 0.880685 0.403749 0.893597
48 2 0.994484 0.571264 0.00125551
21 2 0.950996 0.735788 0.378579
1 2 0.978309 0.725429 0.592015
3 2 0.932672 0.525273 0.645418
55 2 0.791294 0.648229 0.99837
23 2 0.765464 0.818498 0.302587
16 2 0.854234 0.861652 0.696348
13 2 0.843048 0.849301 0.897342
ITEM: TIMESTEP
16000
ITEM: NUMBER OF ATOMS
72
ITEM: BOX BOUNDS pp pp pp
0.0000000000000000e+00 1.1105996452100001e+01
0.0000000000000000e+00 1.1105996452100001e+01
0.0000000000000000e+00 1.1105996452100001e+01
ITEM: ATOMS id type xs ys zs
51 2 0.0230977 0.0935156 0.134122
7 2 0.125161 0.0318599 0.313844
35 2 0.0840567 0.0878631 0.51614
68 1 0.202384 0.218579 0.786907
5 2 0.104746 0.27825 0.0539088
46 2 0.112729 0.300416 0.552076
18 2 0.0807074 0.274226 0.835602
17 2 0.0528725 0.488858 0.806948
65 1 0.0834884 0.643217 0.0389995
58 2 0.0297262 0.547503 0.326246
26 2 0.242976 0.53729 0.329847
63 2 0.240545 0.61987 0.759256
39 2 0.187016 0.824205 0.0864911
47 2 0.133287 0.829956 0.285142
12 2 0.162623 0.757652 0.601648
10 2 0.208047 0.959249 0.63479
29 2 0.210717 0.973435 0.849797
61 2 0.0477827 0.932886 0.981496
40 2 0.305312 0.215359 0.106995
28 2 0.328882 0.111341 0.293501
8 2 0.430446 0.248183 0.428307
54 2 0.360603 0.11567 0.922151
4 2 0.418587 0.372216 0.00907079
49 2 0.283599 0.388236 0.478954
32 2 0.358093 0.456511 0.667848
64 2 0.38681 0.294829 0.808697
6 2 0.352966 0.706508 0.0572884
11 2 0.368726 0.513121 0.158315
50 2 0.26636 0.729518 0.417592
37 2 0.4423 0.64439 0.860519
71 1 0.276764 0.933242 0.101813
25 2 0.49761 0.97343 0.283595
41 2 0.461732 0.833625 0.42509
14 2 0.41139 0.942519 0.609308
70 1 0.281815 0.862565 0.868993
43 2 0.728945 0.107887 0.467304
24 2 0.528942 0.113544 0.559173
34 2 0.717426 0.195138 0.831525
53 2 0.735404 0.0285346 0.938527
57 2 0.631927 0.381984 0.0369045
44 2 0.566551 0.485343 0.223011
59 2 0.596052 0.369717 0.391483
60 2 0.568931 0.441932 0.600952
33 2 0.553757 0.250287 0.712381
38 2 0.654273 0.693627 0.171594
72 1 0.595335 0.607352 0.470331
31 2 0.638521 0.736863 0.472973
30 2 0.703675 0.552647 0.717749
19 2 0.646001 0.561406 0.924305
45 2 0.502223 0.838949 0.111005
62 2 0.706836 0.998331 0.288384
27 2 0.676639 0.759906 0.680691
15 2 0.505726 0.840835 0.770821
56 2 0.535345 0.967935 0.938581
42 2 0.805172 0.0700905 0.134403
20 2 0.892532 0.0544645 0.605223
9 2 0.893086 0.20293 0.749547
36 2 0.777893 0.282366 0.164581
2 2 0.972505 0.429535 0.145347
22 2 0.94552 0.400547 0.47558
52 2 0.786482 0.297093 0.388697
69 1 0.874528 0.313202 0.661975
66 1 0.914776 0.317241 0.957063
67 1 0.849102 0.309206 0.913512
55 2 0.805475 0.691908 0.0105201
21 2 0.956163 0.738804 0.360358
1 2 0.969267 0.716795 0.571147
3 2 0.906067 0.525355 0.651122
48 2 0.982046 0.569366 0.988582
23 2 0.757257 0.79633 0.325412
16 2 0.864757 0.847645 0.68511
13 2 0.874636 0.877517 0.891378
ITEM: TIMESTEP
20000
ITEM: NUMBER OF ATOMS
72
ITEM: BOX BOUNDS pp pp pp
0.0000000000000000e+00 1.1105996452100001e+01
0.0000000000000000e+00 1.1105996452100001e+01
0.0000000000000000e+00 1.1105996452100001e+01
ITEM: ATOMS id type xs ys zs
51 2 0.0118403 0.059994 0.144287
7 2 0.138861 0.0342348 0.313761
35 2 0.0722661 0.0697728 0.52022
68 1 0.188068 0.186854 0.791023
5 2 0.098696 0.256394 0.0427512
46 2 0.110115 0.286661 0.539575
18 2 0.0775467 0.282354 0.827508
17 2 0.0310224 0.489241 0.806663
65 1 0.067605 0.652816 0.0581249
58 2 0.0222512 0.529291 0.319473
26 2 0.237291 0.520183 0.322821
12 2 0.204313 0.744446 0.616544
63 2 0.225826 0.575229 0.767455
39 2 0.176481 0.802999 0.108535
71 1 0.225406 0.935293 0.100354
47 2 0.15466 0.830307 0.318113
10 2 0.214126 0.957681 0.642394
29 2 0.214752 0.97099 0.844694
61 2 0.044695 0.928683 0.971464
40 2 0.300544 0.197857 0.0867274
28 2 0.347833 0.107241 0.272419
54 2 0.365456 0.0844276 0.931397
4 2 0.407675 0.366586 0.018579
49 2 0.285688 0.371178 0.472542
8 2 0.454657 0.264328 0.394215
32 2 0.354364 0.439049 0.660207
64 2 0.354964 0.268033 0.814366
6 2 0.353661 0.688675 0.0636354
11 2 0.371757 0.505499 0.169523
50 2 0.283722 0.707117 0.417457
37 2 0.405486 0.673658 0.861236
25 2 0.492068 0.957256 0.260418
41 2 0.459942 0.83411 0.442101
14 2 0.431335 0.960981 0.607266
70 1 0.272748 0.854841 0.886069
62 2 0.694902 0.00800689 0.276733
43 2 0.718353 0.132046 0.460509
24 2 0.547186 0.137211 0.561487
34 2 0.724792 0.217374 0.852356
53 2 0.733395 0.0343239 0.939934
57 2 0.621598 0.402322 0.0511666
59 2 0.598685 0.418972 0.393549
60 2 0.574241 0.439358 0.609086
33 2 0.558675 0.257367 0.731147
38 2 0.674044 0.690829 0.154396
44 2 0.565667 0.526363 0.227619
31 2 0.631929 0.737927 0.475011
72 1 0.644543 0.613941 0.46317
30 2 0.716995 0.556665 0.74562
19 2 0.602117 0.562875 0.911539
45 2 0.505918 0.825589 0.108501
27 2 0.672499 0.751411 0.698777
15 2 0.510534 0.852331 0.766069
56 2 0.53895 0.952548 0.949629
42 2 0.807036 0.108898 0.124129
20 2 0.871324 0.0598782 0.582704
9 2 0.892079 0.225769 0.721137
36 2 0.787048 0.325358 0.169773
2 2 0.985349 0.402587 0.140227
52 2 0.770918 0.306605 0.379586
22 2 0.946227 0.411894 0.480946
69 1 0.855685 0.33388 0.639287
67 1 0.892247 0.40342 0.90708
66 1 0.826563 0.383109 0.925211
21 2 0.977366 0.723149 0.363796
1 2 0.991755 0.732095 0.590851
3 2 0.906401 0.542508 0.640964
55 2 0.798039 0.681408 0.987315
48 2 0.985709 0.578015 0.999413
23 2 0.782146 0.800506 0.323496
16 2 0.862456 0.871511 0.682432
13 2 0.85109 0.864219 0.901769
ITEM: TIMESTEP
24000
ITEM: NUMBER OF ATOMS
72
ITEM: BOX BOUNDS pp pp pp
0.0000000000000000e+00 1.1105996452100001e+01
0.0000000000000000e+00 1.1105996452100001e+01
0.0000000000000000e+00 1.1105996452100001e+01
ITEM: ATOMS id type xs ys zs
51 2 0.00883924 0.0778091 0.150501
7 2 0.132977 0.0221271 0.312263
35 2 0.0948154 0.0672685 0.520773
29 2 0.201511 0.00534595 0.84995
5 2 0.0916885 0.257659 0.0640589
46 2 0.0940139 0.26595 0.538695
68 1 0.127025 0.265086 0.684519
18 2 0.0748216 0.285112 0.860386
65 1 0.0608662 0.684718 0.0710392
58 2 0.0163081 0.505975 0.321979
26 2 0.228108 0.509608 0.330765
63 2 0.232409 0.599944 0.729786
17 2 0.0644914 0.500661 0.828517
39 2 0.16753 0.815287 0.0967501
47 2 0.125169 0.812521 0.295697
12 2 0.181124 0.753327 0.609465
10 2 0.23056 0.965109 0.651309
61 2 0.0483294 0.940455 0.978589
40 2 0.299986 0.211651 0.111385
28 2 0.346694 0.0903121 0.27142
8 2 0.443694 0.245177 0.393831
54 2 0.385488 0.101634 0.945402
4 2 0.402321 0.372367 0.015332
49 2 0.292408 0.386631 0.484515
32 2 0.385169 0.470752 0.664366
64 2 0.360946 0.31973 0.80539
6 2 0.348192 0.716296 0.0338724
11 2 0.330027 0.540714 0.144619
50 2 0.264779 0.710059 0.411893
37 2 0.433126 0.652272 0.846836
71 1 0.252967 0.926707 0.113391
25 2 0.498684 0.946195 0.258845
41 2 0.446269 0.829914 0.423856
14 2 0.42182 0.951846 0.590381
70 1 0.270907 0.896491 0.905279
43 2 0.738594 0.111088 0.47215
24 2 0.534171 0.131237 0.562451
34 2 0.702483 0.235424 0.871055
53 2 0.727603 0.0435969 0.952747
57 2 0.625737 0.387726 0.0114725
44 2 0.542694 0.490308 0.210039
59 2 0.590198 0.392017 0.39077
60 2 0.593988 0.436121 0.600958
33 2 0.559591 0.27608 0.721063
38 2 0.664258 0.665239 0.180754
72 1 0.597144 0.585617 0.470439
31 2 0.610712 0.724865 0.482716
30 2 0.733028 0.563265 0.689645
19 2 0.673999 0.558697 0.898023
45 2 0.521472 0.81975 0.0979028
62 2 0.72016 0.979479 0.292199
27 2 0.685224 0.767627 0.674099
15 2 0.518837 0.825022 0.765736
56 2 0.540159 0.961035 0.918596
42 2 0.803086 0.0854875 0.140246
20 2 0.893961 0.0696107 0.623237
9 2 0.877811 0.217633 0.758649
36 2 0.770735 0.287468 0.165449
2 2 0.972615 0.397309 0.127215
52 2 0.781041 0.309191 0.37907
22 2 0.938791 0.41524 0.485713
69 1 0.865638 0.318737 0.6643
66 1 0.837591 0.395781 0.918039
67 1 0.890317 0.426501 0.938883
55 2 0.802005 0.69155 0.00311294
48 2 0.992446 0.585473 0.0145429
21 2 0.95774 0.706434 0.369476
1 2 0.966893 0.746691 0.587721
3 2 0.946499 0.558173 0.654618
23 2 0.755306 0.768741 0.326498
16 2 0.85873 0.878589 0.703298
13 2 0.858982 0.881638 0.907522
ITEM: TIMESTEP
28000
ITEM: NUMBER OF ATOMS
72
ITEM: BOX BOUNDS pp pp pp
0.0000000000000000e+00 1.1105996452100001e+01
0.0000000000000000e+00 1.1105996452100001e+01
0.0000000000000000e+00 1.1105996452100001e+01
ITEM: ATOMS id type xs ys zs
51 2 0.0197755 0.101755 0.135892
7 2 0.135941 0.0361074 0.318221
35 2 0.0768 0.0785404 0.522542
68 1 0.209791 0.190737 0.817143
5 2 0.106115 0.272441 0.0480008
46 2 0.104729 0.276682 0.579063
18 2 0.106454 0.28138 0.82329
17 2 0.0466787 0.487813 0.804456
65 1 0.0446742 0.667023 0.0350223
58 2 0.0346584 0.525643 0.327133
26 2 0.247845 0.510596 0.343982
12 2 0.176869 0.749214 0.600019
63 2 0.225208 0.600853 0.763126
39 2 0.180426 0.815171 0.0887766
47 2 0.130754 0.814308 0.300195
10 2 0.220646 0.960023 0.634343
29 2 0.224251 0.985027 0.838226
70 1 0.236826 0.84384 0.873038
61 2 0.0655581 0.951398 0.980974
40 2 0.309238 0.20258 0.0729644
28 2 0.339423 0.114549 0.267901
8 2 0.42144 0.238864 0.424256
54 2 0.386276 0.099651 0.901045
4 2 0.43844 0.362498 0.0190303
49 2 0.279607 0.373361 0.509884
32 2 0.356633 0.466484 0.684984
64 2 0.389785 0.306086 0.803834
6 2 0.340179 0.684125 0.0466241
11 2 0.366618 0.514246 0.161913
50 2 0.275666 0.718981 0.4217
37 2 0.420332 0.655247 0.839443
71 1 0.269823 0.930423 0.107246
45 2 0.48942 0.827937 0.100453
25 2 0.494101 0.957955 0.262204
41 2 0.465295 0.805917 0.412432
14 2 0.439682 0.934174 0.579896
43 2 0.732192 0.116243 0.470121
24 2 0.536323 0.110602 0.553866
34 2 0.703573 0.244079 0.864688
53 2 0.718416 0.0338817 0.958712
57 2 0.630649 0.377821 0.0269176
59 2 0.565676 0.400158 0.411154
60 2 0.558041 0.460692 0.617953
33 2 0.56452 0.260853 0.705912
38 2 0.668157 0.703378 0.152688
44 2 0.556082 0.512834 0.220075
31 2 0.651754 0.712691 0.446301
72 1 0.649023 0.577626 0.437632
30 2 0.707369 0.571257 0.707988
19 2 0.634441 0.562078 0.902149
62 2 0.693608 0.990564 0.298748
27 2 0.666136 0.769224 0.650095
15 2 0.509402 0.828941 0.762784
56 2 0.539079 0.947209 0.944445
42 2 0.7974 0.0984429 0.160648
20 2 0.889386 0.0684432 0.613333
9 2 0.897951 0.209105 0.766469
36 2 0.808578 0.311251 0.198026
2 2 0.985563 0.414628 0.154701
22 2 0.951457 0.39961 0.49704
52 2 0.771245 0.315021 0.425803
69 1 0.852311 0.292253 0.676045
67 1 0.912258 0.376019 0.953366
66 1 0.862457 0.335558 0.928548
21 2 0.965191 0.719269 0.353887
1 2 0.969296 0.715711 0.578597
3 2 0.89927 0.532879 0.641726
55 2 0.789112 0.689261 0.986347
48 2 0.955031 0.568921 0.993282
23 2 0.774655 0.805853 0.309751
16 2 0.855079 0.868144 0.68405
13 2 0.847533 0.879132 0.902878
ITEM: TIMESTEP
32000
ITEM: NUMBER OF ATOMS
72
ITEM: BOX BOUNDS pp pp pp
0.0000000000000000e+00 1.1105996452100001e+01
0.0000000000000000e+00 1.1105996452100001e+01
0.0000000000000000e+00 1.1105996452100001e+01
ITEM: ATOMS id type xs ys zs
51 2 0.0396884 0.0723987 0.145712
7 2 0.143642 0.0260369 0.317083
35 2 0.0672435 0.0699385 0.512676
5 2 0.113632 0.262932 0.0526081
46 2 0.105318 0.262553 0.540483
18 2 0.09079 0.300048 0.82966
68 1 0.225693 0.266916 0.801507
65 1 0.0956854 0.630412 0.0679112
26 2 0.245827 0.517872 0.371348
58 2 0.0247651 0.523979 0.323723
12 2 0.184566 0.743513 0.60463
17 2 0.0605621 0.507699 0.824736
63 2 0.238343 0.610614 0.759541
39 2 0.156574 0.796676 0.103553
47 2 0.143172 0.817051 0.305267
10 2 0.211001 0.952153 0.630701
29 2 0.200758 0.994804 0.832064
61 2 0.0443102 0.938037 0.971717
40 2 0.305432 0.20698 0.0803242
28 2 0.340125 0.12282 0.263369
8 2 0.414823 0.235346 0.423699
54 2 0.36235 0.108955 0.919395
4 2 0.424396 0.36748 0.0434055
49 2 0.273667 0.362901 0.526862
32 2 0.352205 0.450148 0.695208
64 2 0.367827 0.308568 0.839595
6 2 0.335976 0.691845 0.0334518
11 2 0.367905 0.531718 0.17125
50 2 0.285292 0.710248 0.411024
37 2 0.423615 0.649841 0.843528
45 2 0.487988 0.82472 0.0889472
71 1 0.264455 0.901369 0.0903107
25 2 0.498813 0.966342 0.251436
41 2 0.453215 0.839739 0.409551
14 2 0.426386 0.944478 0.600241
70 1 0.264624 0.874749 0.880927
43 2 0.719327 0.111711 0.471213
24 2 0.527647 0.127906 0.570883
34 2 0.695657 0.227723 0.872085
53 2 0.737888 0.0424834 0.960014
57 2 0.638933 0.378488 0.0169418
59 2 0.575329 0.374241 0.398986
60 2 0.559303 0.456688 0.603783
33 2 0.552773 0.267502 0.728573
38 2 0.672951 0.718071 0.128507
44 2 0.577643 0.534673 0.248318
72 1 0.570921 0.645596 0.345449
30 2 0.721874 0.563976 0.715271
19 2 0.657064 0.574695 0.912867
62 2 0.728247 0.994864 0.292579
31 2 0.630325 0.765076 0.458584
27 2 0.683576 0.758877 0.656743
15 2 0.515626 0.826836 0.754158
56 2 0.523285 0.966757 0.939458
42 2 0.82769 0.106675 0.142834
20 2 0.869547 0.0600407 0.605434
9 2 0.888622 0.214987 0.773319
36 2 0.770638 0.302263 0.162888
2 2 0.978091 0.397274 0.157002
22 2 0.941942 0.38945 0.47767
52 2 0.769044 0.293643 0.385518
69 1 0.881582 0.312817 0.673772
66 1 0.87635 0.373611 0.902801
67 1 0.866061 0.434594 0.934569
48 2 0.985936 0.570531 0.022089
21 2 0.961285 0.711182 0.338557
1 2 0.971478 0.699117 0.555224
3 2 0.925877 0.519965 0.65752
55 2 0.819094 0.684581 0.978992
23 2 0.760182 0.794973 0.323327
16 2 0.869625 0.859403 0.671571
13 2 0.86001 0.886566 0.874933
ITEM: TIMESTEP
36000
ITEM: NUMBER OF ATOMS
72
ITEM: BOX BOUNDS pp pp pp
0.0000000000000000e+00 1.1105996452100001e+01
0.0000000000000000e+00 1.1105996452100001e+01
0.0000000000000000e+00 1.1105996452100001e+01
ITEM: ATOMS id type xs ys zs
5 2 0.0886118 0.233431 0.065964
7 2 0.122409 0.0350018 0.309755
35 2 0.0730697 0.0647098 0.518353
68 1 0.15115 0.162237 0.806338
46 2 0.100985 0.256822 0.510817
18 2 0.0666677 0.265736 0.863074
17 2 0.0828553 0.497759 0.809662
65 1 0.102391 0.679828 0.0206216
26 2 0.217743 0.5238 0.338568
58 2 0.009833 0.535279 0.318612
12 2 0.19514 0.744278 0.605123
48 2 0.00805813 0.56665 0.992518
39 2 0.195352 0.815132 0.107546
47 2 0.130803 0.819993 0.297987
10 2 0.195082 0.955989 0.641772
29 2 0.213498 0.973703 0.863895
61 2 0.0373955 0.917852 0.976085
40 2 0.304709 0.186234 0.111646
28 2 0.347025 0.0825806 0.281999
54 2 0.371205 0.0928671 0.931688
4 2 0.427054 0.356374 0.0383016
49 2 0.27573 0.363349 0.474953
8 2 0.429885 0.252785 0.399233
32 2 0.372639 0.422314 0.656861
64 2 0.41495 0.2913 0.824469
6 2 0.351322 0.70455 0.0536264
11 2 0.345152 0.524511 0.17219
50 2 0.264831 0.70606 0.414118
63 2 0.255865 0.57418 0.72591
37 2 0.397962 0.669388 0.831332
71 1 0.274974 0.924406 0.113394
25 2 0.495496 0.942455 0.26184
41 2 0.440661 0.821796 0.436781
14 2 0.397657 0.954354 0.597371
15 2 0.493996 0.861073 0.758527
70 1 0.277868 0.847325 0.895902
43 2 0.723714 0.129032 0.476711
24 2 0.529312 0.137513 0.563542
34 2 0.714882 0.244142 0.868879
53 2 0.721073 0.0426655 0.933983
57 2 0.663132 0.383552 0.0247827
59 2 0.538243 0.419543 0.383245
52 2 0.749101 0.340032 0.397483
60 2 0.587019 0.466018 0.590935
33 2 0.599616 0.266273 0.707043
38 2 0.683581 0.702135 0.159602
44 2 0.538727 0.57046 0.242285
72 1 0.506392 0.644497 0.361162
31 2 0.634135 0.712969 0.468887
30 2 0.729743 0.567118 0.706746
19 2 0.664778 0.576364 0.910786
45 2 0.523784 0.835967 0.087816
62 2 0.718144 0.993002 0.300304
27 2 0.675595 0.772663 0.688074
56 2 0.526947 0.961615 0.938293
42 2 0.789785 0.10636 0.139414
51 2 0.990783 0.0599614 0.129423
20 2 0.878402 0.0572644 0.611415
9 2 0.909476 0.206358 0.761464
36 2 0.790485 0.317566 0.17851
2 2 0.98073 0.421756 0.141285
22 2 0.951851 0.402067 0.489303
69 1 0.861141 0.286132 0.667373
67 1 0.88026 0.354829 0.931624
66 1 0.93207 0.412062 0.935293
21 2 0.956741 0.722686 0.369179
1 2 0.986897 0.710583 0.581897
3 2 0.930902 0.536664 0.663013
55 2 0.813689 0.707348 0.988304
23 2 0.771335 0.791649 0.32803
16 2 0.855003 0.856336 0.671781
13 2 0.857591 0.874306 0.888408
ITEM: TIMESTEP
40000
ITEM: NUMBER OF ATOMS
72
ITEM: BOX BOUNDS pp pp pp
0.0000000000000000e+00 1.1105996452100001e+01
0.0000000000000000e+00 1.1105996452100001e+01
0.0000000000000000e+00 1.1105996452100001e+01
ITEM: ATOMS id type xs ys zs
51 2 0.022908 0.0749034 0.112157
7 2 0.109909 0.0392575 0.308041
35 2 0.0690702 0.0797741 0.507288
29 2 0.183599 0.0174141 0.827261
5 2 0.0820127 0.263375 0.0666831
2 2 0.00653288 0.425743 0.169638
46 2 0.107728 0.273684 0.525837
68 1 0.118778 0.269395 0.670329
17 2 0.0617942 0.496721 0.808063
18 2 0.085924 0.27534 0.84378
65 1 0.0382896 0.684552 0.028995
58 2 0.039019 0.528498 0.342126
12 2 0.200091 0.743704 0.606837
39 2 0.174058 0.794717 0.0546688
47 2 0.135014 0.826632 0.27384
10 2 0.197254 0.945129 0.630748
70 1 0.23041 0.889159 0.846562
61 2 0.0525472 0.929158 0.955319
40 2 0.269252 0.179637 0.0837726
28 2 0.332126 0.108893 0.275171
54 2 0.342156 0.112684 0.904074
4 2 0.424565 0.332493 0.0690114
49 2 0.288432 0.375546 0.487554
8 2 0.441128 0.259843 0.382854
32 2 0.365874 0.436278 0.668898
64 2 0.407868 0.309585 0.850213
6 2 0.35283 0.696109 0.0332832
11 2 0.379433 0.525247 0.16184
26 2 0.259229 0.523203 0.334514
50 2 0.272149 0.743475 0.405907
63 2 0.260711 0.593603 0.737984
37 2 0.441246 0.655363 0.847068
71 1 0.258699 0.907502 0.0730548
41 2 0.438633 0.864874 0.438009
14 2 0.407749 0.972568 0.610699
43 2 0.726664 0.110173 0.477568
24 2 0.50261 0.132817 0.549973
34 2 0.706155 0.204758 0.866047
53 2 0.705342 0.0350759 0.982465
57 2 0.645372 0.358663 0.0392628
59 2 0.601267 0.385718 0.39124
60 2 0.570435 0.449145 0.59611
33 2 0.558459 0.258764 0.707709
38 2 0.679056 0.684805 0.165138
44 2 0.573737 0.503694 0.23241
72 1 0.555566 0.626231 0.478387
30 2 0.716466 0.553092 0.713288
19 2 0.629777 0.554308 0.916701
45 2 0.510031 0.820862 0.121033
62 2 0.718531 0.988243 0.303435
25 2 0.506009 0.975728 0.254246
31 2 0.616168 0.75075 0.49199
27 2 0.668834 0.762635 0.680552
15 2 0.510181 0.855987 0.774373
56 2 0.511135 0.952063 0.960255
42 2 0.815612 0.0995167 0.136419
20 2 0.885327 0.0529489 0.611654
9 2 0.899999 0.203609 0.771047
36 2 0.825127 0.307162 0.171925
52 2 0.787174 0.316175 0.379661
22 2 0.947736 0.401232 0.486782
69 1 0.839182 0.291248 0.680565
67 1 0.884354 0.380223 0.87359
66 1 0.846905 0.390529 0.94253
21 2 0.970275 0.736298 0.361726
1 2 0.9837 0.74562 0.581551
3 2 0.920464 0.542213 0.636836
55 2 0.793694 0.675556 0.990065
48 2 0.981766 0.562638 0.990269
23 2 0.766749 0.782382 0.328194
16 2 0.843215 0.860594 0.682745
13 2 0.828612 0.873019 0.91053
ITEM: TIMESTEP
44000
ITEM: NUMBER OF ATOMS
72
ITEM: BOX BOUNDS pp pp pp
0.0000000000000000e+00 1.1105996452100001e+01
0.0000000000000000e+00 1.1105996452100001e+01
0.0000000000000000e+00 1.1105996452100001e+01
ITEM: ATOMS id type xs ys zs
51 2 0.000295016 0.0776421 0.164116
7 2 0.135858 0.0238016 0.329278
35 2 0.0863296 0.0796554 0.519999
68 1 0.101463 0.133511 0.80493
5 2 0.092509 0.256182 0.074699
46 2 0.0998912 0.293578 0.562461
18 2 0.11252 0.274762 0.823569
17 2 0.0687961 0.487585 0.811393
65 1 0.0919389 0.660799 0.0683168
48 2 0.0017115 0.563278 0.0121707
58 2 0.0214821 0.530941 0.331799
26 2 0.222333 0.526546 0.338763
63 2 0.209271 0.592225 0.714423
39 2 0.177456 0.812421 0.0902838
47 2 0.124221 0.830045 0.309573
12 2 0.175697 0.759127 0.600201
10 2 0.216229 0.961467 0.637849
29 2 0.188606 0.988218 0.84381
61 2 0.0521809 0.935239 0.995155
40 2 0.294892 0.20221 0.085664
28 2 0.364414 0.110922 0.273469
8 2 0.455072 0.247216 0.406143
54 2 0.356422 0.105825 0.901681
4 2 0.42538 0.358515 0.0128794
11 2 0.341348 0.499035 0.14842
49 2 0.302991 0.367637 0.481855
32 2 0.384858 0.49031 0.656149
64 2 0.401345 0.334108 0.799705
6 2 0.345535 0.685906 0.0528652
50 2 0.263971 0.716458 0.393189
37 2 0.338275 0.702425 0.842915
71 1 0.286737 0.914198 0.0709988
45 2 0.491994 0.816267 0.103681
25 2 0.485236 0.946047 0.257484
41 2 0.438847 0.849809 0.435392
14 2 0.446346 0.95915 0.616205
15 2 0.496305 0.826413 0.78456
70 1 0.255665 0.826046 0.864949
43 2 0.728615 0.11458 0.478812
24 2 0.537431 0.117034 0.566832
34 2 0.698956 0.193009 0.83659
53 2 0.713554 0.00807524 0.957278
57 2 0.630466 0.399915 0.0523094
59 2 0.601343 0.401291 0.391703
60 2 0.592385 0.470637 0.571788
33 2 0.565669 0.278208 0.700969
67 1 0.695735 0.260266 0.955775
38 2 0.666971 0.690119 0.154142
44 2 0.56209 0.512403 0.216741
31 2 0.611537 0.722606 0.466332
72 1 0.634743 0.607874 0.428002
30 2 0.73067 0.554384 0.695357
19 2 0.701013 0.516074 0.892095
62 2 0.706113 0.993728 0.28013
23 2 0.740732 0.803168 0.31364
27 2 0.675826 0.766977 0.671285
56 2 0.521455 0.953804 0.960931
42 2 0.806509 0.0836587 0.132403