72
config_type=amorph dft_energy=-6960.222763396976 dft_virial="-9.231793543238563 -13.80492723849952 4.720288987435194 -13.80492723849952 -13.783545700320358 14.295444879080316 4.720288987435195 14.295444879080316 2.280278159930724" pbc="T T T" Lattice="11.105996452100001 0.0 0.0 0.0 11.105996452100001 0.0 0.0 0.0 11.105996452100001" Properties=species:S:1:pos:R:3:Z:I:1:dft_force:R:3
Si	10.656447927711897	8.0251375063052	6.418532953547961	14	-0.42778847359272987	0.3183272641348736	-0.5009027384712487
Si	10.865240661011377	4.584244367526221	1.7875545529513037	14	-0.5443963273984697	2.0385576745069796	0.27918655651466334
Si	9.929460505953884	5.984788262111197	7.434809370890276	14	0.9851665688631592	0.0492693199184016	0.16839788538001463
Si	3.355576874033946	4.135684276822355	0.4483190905808564	14	-0.9610148910383484	-1.5087168885469324	0.8262684034200276
Si	1.0208165486919334	3.16674161635889	0.5458141910352614	14	1.0068350731697713	-0.6747338836138004	-0.2607666437800585
Si	3.6804716942436797	8.135875396929091	0.565511786342706	14	-0.12172126806645035	-2.248731393349824	-0.5416804688487973
Si	1.875080910990304	0.22109928796805206	3.2589658108971284	14	-2.264891561618551	-1.097379375234638	0.9645100516105577
Si	4.869401932430342	2.8617598477877717	4.4210306436661595	14	-0.06258353170825641	-0.32659568173393777	-1.0093601557046885
Si	9.359622933993084	2.672869060130455	7.969663054026961	14	1.1962854260216904	-0.4002655624721407	-0.9933701946081557
Si	2.246865248220803	10.58470319063133	7.09075670680067	14	0.05391350745818507	0.36205610919888814	-0.2669172419269167
Si	3.977279449426052	5.89812817179546	1.8322784006639101	14	-0.6027984705245693	1.5571472567993696	-0.5257514429483519
Si	1.8031584779665042	8.250778036222517	6.966791574402331	14	0.3432816410406348	-0.6111813023103801	0.35181462537714225
Si	9.87237568419009	9.957158861105421	10.012622207387208	14	-0.4370490807348392	-0.29957002238226527	-0.5927485340491744
Si	4.6137307881065475	10.644797737433645	6.761841515875277	14	-0.43470963200403645	-0.4285050406454551	0.07558689686490531
Si	5.382287954584771	9.24557545642647	8.555937500736867	14	0.9236734429211776	1.4311049891318786	0.058437624379517626
Si	9.342497487463946	9.712549289247917	7.691035815036676	14	1.930819876945219	0.40318376701050873	-0.14644295994073817
Si	0.3761867542241121	5.531297108982597	9.300083687013377	14	0.26601452684901267	1.0645880122025333	-0.7914047294998838
Si	10.648240596333796	3.4331189412625083	9.766202358108014	14	0.2773369033473488	0.267704257265414	1.1090398520825735
Si	6.850200823648184	4.863360270360399	9.864512638702003	14	-0.621613562146881	-0.7957272717641167	-1.3431613600983414
Si	9.745589628692915	0.704421147566992	6.595307099076038	14	-1.0218739824083813	0.020698426269320096	0.10449203420560607
Si	10.811276624250624	7.9052704865976855	3.675285193900549	14	-2.5659116874013796	-0.11704494171016504	2.2259339166971355
Si	10.409028538752013	4.101833199636355	5.748130583713397	14	0.44975316923222286	0.7265164589826466	1.1546420044828478
Si	8.504983189014633	8.729912935159014	3.517557832287825	14	0.6337355523997831	-2.11193110680177	0.4196447546016928
Si	5.767788197433615	1.410117263526685	5.980090425611959	14	-0.5444307802097597	0.0457222230187253	0.23834249161985502
Si	5.553353617936468	10.594198817597878	2.8738098539383006	14	1.0099759354288642	0.03163770807495413	2.221964387193359
Si	2.878996354281431	6.0412178300843165	3.906034482185831	14	-1.1478481157848885	-0.5114144454621422	0.4302760179899731
Si	7.4297006125223115	8.585479451299454	7.722077075120295	14	-0.9597036273250726	-0.28250353948818635	-0.8228370062597581
Si	3.86282104999071	1.0722772938523837	2.7939688454441534	14	3.015589009026658	2.0673046888704913	-0.2751018414925441
Si	2.5768910387914072	11.06638136275536	9.361477635400586	14	0.03305104466943953	-1.1164747173368457	0.17038252157663691
Si	8.13254359799346	6.726779885075998	8.880132643170118	14	0.5472677378200111	-0.8065081734820295	0.48592759264457824
Si	7.127306541124533	8.055934434466874	5.427478254148367	14	-0.3942890281554565	-0.574247631496985	0.12557252672550018
Si	4.217602106653045	4.774801054651353	7.263077347751454	14	0.6779660201117584	1.3755786273063644	1.4479475287525725
Si	5.736358227474172	2.3602796839896483	8.074859052421253	14	-0.7611500189766373	0.13645781531941106	1.0135256034338604
Si	7.604508996678365	2.344009399187322	9.375815476820247	14	0.07549485129444401	0.935556577489838	-0.06040220595464278
Si	0.7230803322061652	0.48384162023289823	5.505031427373381	14	1.4479470145315083	1.258128993618808	-0.24343250882215217
Si	8.806810854593355	3.246005113037528	1.9276011682122847	14	0.5652240802653932	-1.3904445011569286	0.2502626501051255
Si	4.381704310229274	7.400669537796522	9.45241353435038	14	-0.3447366295413066	-0.1418075141590432	1.2335566829636209
Si	7.6452568976611195	7.610095312893772	1.598130677464286	14	-2.0192165347361657	0.8118018222256825	0.6366306169902698
Si	1.4389040063305283	8.549562658773363	0.9380890917198855	14	-0.10650186723436582	-0.7292670274541411	-0.4652448501177111
Si	4.993955682640642	2.2229873558487885	0.6863294793465211	14	-1.1661785540543523	0.8835508301792029	0.6517245478827312
Si	5.250792956591908	9.316687151709266	4.980484108944245	14	-1.24962017767231	-0.10660316878397966	-1.2510186018559386
Si	9.371861742083299	0.8404407285144416	1.8072676966537813	14	0.2670244570187669	1.6675967991422906	-1.3056844147307989
Si	7.844887183887618	1.1966822237102273	5.107869888249833	14	2.223111357276677	1.4965272782241104	1.170617053168524
Si	6.237871709261651	5.712769091009911	2.1595610101108456	14	1.1593489269924429	-0.7807595821428747	0.11442935626797839
Si	5.547189789905552	9.180560953195876	1.175658572426402	14	1.909541409315673	-0.4716271048539146	-0.3544299537087969
Si	1.412982610611327	2.953950724336654	4.962192532787637	14	-1.2462425166132316	-0.8631611936588326	1.7270109293224007
Si	1.604572155406504	8.918992524756018	3.2442947895839045	14	1.1370772413777244	1.4305555439249629	-0.45669438226502657
Si	10.976134035585597	6.700691899410015	0.22506857110003256	14	1.0977910091963936	-0.7349851656861504	0.7781833346120863
Si	3.2958710371074567	4.271443977452825	5.406932160711982	14	-1.352720215457588	-1.233038605241611	-2.4933643512459533
Si	2.9858360401506334	8.115640271393362	4.947388239516988	14	1.2646259196522902	0.06018880421307048	-0.48744814433091377
Si	0.6145891846645359	1.0097949578128693	1.4998981388454615	14	-0.29404266016501096	-0.06544825725596538	-0.5480768646642618
Si	8.829322709401762	3.376322875406469	4.230229624619082	14	-1.9752179807240675	-0.7354315095697281	0.7565328280427154
Si	8.449297722803804	0.5814810986411806	10.70136057736419	14	-0.002809446783325806	-0.37564877169491495	0.4477045125131288
Si	4.660242701247943	1.06561924897935	9.753241660248412	14	0.36235178631070514	0.00504605130132262	0.17740421020596134
Si	9.029830369347975	7.826473441770035	10.90000242990645	14	0.0706118080704188	0.1123318485478016	-1.1739252943839587
Si	6.387480587467891	10.609458456723063	10.622441366575567	14	-1.5699151087086929	-0.6691939229804772	-1.0311538728403917
Si	6.921634592828092	3.8064914359856585	0.7490672533044339	14	-0.9470645877922887	0.14146170049348328	0.9392260590027534
Si	0.03851559569588281	5.605629543236503	3.999302640390567	14	1.2352896079494005	0.15147307038907587	-1.0913197942161128
Si	6.7069667874054515	4.52537148033364	4.188204534044336	14	-0.25095607720996943	-0.8259382734969206	-0.29370018893636723
Si	6.1242129415708595	5.810646237742268	5.98596549773512	14	0.19459899125551566	0.8585465738302307	1.0241985187283271
Si	0.8508137292007029	10.51261416766075	10.879978318303314	14	0.30597027485570993	0.23421741024420942	0.39538663301662774
Si	8.194270726274231	10.932987239369188	3.436006500340055	14	-1.9068489478244144	-0.23812369055711038	-1.1832908026231297
Si	2.6111974618319436	6.205864227486699	8.481993776358786	14	-0.29328752653248347	0.7790433693416758	-0.9981732764567243
Si	4.3390461778567575	4.241624376978937	9.545726116540925	14	1.9710998413327867	-0.23918247172794738	-1.0211427600553313
H	0.7658350867478146	3.1486721601313237	3.626085629617746	1	0.3312658374374548	-0.10317100029211398	-0.4870812476017287
H	7.598334062650998	2.3219306782405473	2.8787187043701286	1	0.2443655629428339	0.4004154579123053	-0.26118496261564655
H	1.8225939717576791	2.5996805435111163	8.148980472742567	1	-0.8213848459749384	2.0529131839514947	-0.2328434115611223
H	5.680073037454928	6.475395655382713	9.557354094826273	1	-0.5581717954827591	0.6204794475901637	0.2087146165736606
H	1.497632515569233	3.404487682408995	8.078957165112078	1	0.9462904279803922	-2.210745883349957	0.1768205692982877
H	7.079595180366311	5.859434880156344	7.225505761754	1	-0.10258890204763246	-0.5911742462616478	-0.3622507418716233
H	9.649633819346771	4.065172305347972	10.847837564570938	1	0.10542791654213997	-0.2910118412136204	-0.8463176255960104
H	3.175748579481543	9.563517922857189	9.393129725289072	1	-0.18384560036452832	0.912605091628472	0.15832943694631474
