72
config_type=amorph dft_energy=-6957.943521901748 dft_virial="-0.5106414412200077 -3.8688006728885305 -0.4854866904209926 -3.8688006728885314 -2.0337616021003755 -4.051172616181391 -0.4854866904209926 -4.051172616181391 2.169597256415057" pbc="T T T" Lattice="11.105996452100001 0.0 0.0 0.0 11.105996452100001 0.0 0.0 0.0 11.105996452100001" Properties=species:S:1:pos:R:3:Z:I:1:dft_force:R:3
Si	11.034351668987505	7.963254894074098	6.214948932584517	14	-0.6039672950031085	0.45026019120135613	-0.22563583201715118
Si	11.017737098295163	4.516464471179056	1.372334663596641	14	-1.0819828252459953	1.4593544946159414	0.654952827722709
Si	10.501441535229937	5.863732900783306	7.058571529082485	14	-0.5707463002720073	0.02369119286197246	1.211406353520013
Si	4.828976105344697	4.424040368704679	1.1000311789861816	14	0.18598347443823143	-0.9299726509555403	-1.3709380393140291
Si	1.1382868943650855	2.857661735096947	0.43456542457457575	14	0.6573156735119251	-0.32339774093673757	0.8217882523996697
Si	3.5548517683739767	8.079312556998545	0.23595466882238098	14	-1.5021497713382101	0.40238518169807075	-0.313247017132793
Si	1.6434653549817582	0.6560556436177417	3.351178899438915	14	0.3473113344089029	-0.5562480944822242	-0.21896638481668704
Si	4.843791504611798	2.5640747188856836	4.426028342069605	14	-0.42901591927256855	-0.3178058439759476	0.7717455440009675
Si	9.649855939275813	1.9542999836831332	8.224268022691353	14	-0.3051413505004942	-0.20583626416775483	1.5285982175455093
Si	2.6994568156367826	10.728670222639904	7.214610779234491	14	-3.6491885499550056	0.7560975399120143	0.011931214238147159
Si	3.2377533576736175	6.096425738447705	1.2458928939894824	14	-0.45866719137717626	-0.9837493756106936	1.2784551238377708
Si	2.0856061797363115	8.603104667668937	6.6480383702306085	14	-0.2470210005174828	-0.8335119784384809	-0.510406315066112
Si	9.552067640515073	9.564173176647863	10.172248694393241	14	0.7427357626737368	0.19058678140342455	-1.0479033384484966
Si	4.831597120507393	10.425731957415973	7.056694615682081	14	0.9589816609511751	0.997264390726052	-1.0460950800768363
Si	5.792687841479223	9.214900694225769	8.627626707835173	14	1.2695724691777233	-0.12514957990033582	0.7481654228888255
Si	9.729041693979287	9.279115565711813	7.718878548142091	14	-0.3454323706409387	1.0544012929241067	-0.6692039502912258
Si	0.9657796726739065	5.469892054598936	9.01927967271848	14	-0.27472311767888624	-0.1994596658632556	-1.1105987132381794
Si	0.5177026928157059	2.820889780844044	9.372905705749796	14	0.673478669996504	0.16163562127749315	-1.547066981281197
Si	7.76535714329413	6.20369855817854	0.7066701118485422	14	-0.6935993689003869	-0.4785647183392703	-0.26325495950889777
Si	9.90653772927675	0.34460685331256574	6.495386448996494	14	-1.151780364261523	-1.115299207984474	0.5382763254049212
Si	10.828690826687517	8.355474264776463	3.689800731263444	14	-1.4342160265692576	-0.3220767070232455	1.05945762864671
Si	10.723983492137117	4.4872223825206765	5.181491538730803	14	-1.033449869891284	-0.6828326082617346	0.3552190259315503
Si	8.411115307001484	9.00563040307885	3.3449040114434783	14	-0.07165927637784711	-0.011202048769353167	0.3150131093772027
Si	5.812578681124934	1.3221910896154094	6.479471556080634	14	-0.02161065443690863	0.664884493353377	-1.1905436336207356
Si	5.182280064478903	10.293170783763706	2.800576913333153	14	0.39089105536434876	1.1865255102264083	1.6297128478025689
Si	2.0727343298483274	5.915242512328146	3.498377776415048	14	2.9816113379998375	0.36310717705376466	0.16331403883048584
Si	7.594846779765038	8.33932614593511	7.332434295594819	14	0.39511975228439633	0.7762740318013444	1.279989045271771
Si	3.924714768218263	1.1900852618176798	2.715293966577477	14	-0.40953105471435836	-0.06913676494824983	-0.047902520330210877
Si	2.1219338941311303	11.080163904352416	9.501901854540938	14	3.1011998742032247	-0.20568816850131433	-2.018157239344265
Si	8.24000521966398	6.32961834595245	8.156532550329995	14	2.169447247034546	-0.05259427331841709	0.25026984920002193
Si	7.09175624648136	8.052458257577367	5.20294832387626	14	-1.1150703796109809	0.20404703197546376	-2.4241234565322376
Si	4.03919537964651	5.320049950467203	6.677669168764812	14	-0.6545769321249034	-0.38771111230438965	0.8316422706496692
Si	5.5942236848801965	2.5191953872227475	8.450086248551903	14	-0.7616269590135248	0.42068579514582083	-0.6031424844164051
Si	7.548534774559781	2.4041372639789915	9.491850927751786	14	2.071032534474174	-1.0066656373291734	0.09794394317625293
Si	0.9470138704687932	0.5888776922782791	5.539959786215235	14	0.9801171751249205	1.213849417795218	1.321731711475971
Si	8.776313788335889	3.695842393333386	1.82624784459042	14	1.3317849903882824	-0.010757761770031576	0.7885032371460966
Si	4.49628487562559	7.5294657786515256	9.389864562332153	14	-0.10489775462512543	-1.1870392170693738	-0.05537620927481731
Si	5.787845627026107	6.588054883392816	1.893983316951778	14	-0.5838208850460244	0.7097150570470749	-0.20262392518076183
Si	1.3847733796229929	8.501917933993854	0.8423931626907206	14	-0.31723274460008655	-0.28256653156852996	-0.23979927989425087
Si	3.4396603731727953	2.410167820052482	0.6776945671050133	14	0.40994783088675435	1.183482864190545	1.8439183168979378
Si	4.915247485784611	9.357712702603324	5.079849459201184	14	0.708343372358776	-1.6570714652932006	-2.496468960920032
Si	8.878433425712947	1.3777210718759092	1.5316723946949196	14	0.47337005715044306	-0.7790752510476457	0.03283892848052731
Si	7.819976433845557	0.9934513734339588	5.219896074462166	14	1.509056788670256	0.3639849524100631	-0.4600676724450609
Si	6.460746846062394	5.9811677072678116	4.055943222296277	14	0.8329152248936745	1.8358404182030965	-0.5106803948932399
Si	5.389595700250253	8.93858350249752	1.0284052760676532	14	1.1416802912323856	0.3088185453293699	0.28482704736600417
Si	1.2462371798794973	3.023563110098417	5.988564300904911	14	-0.440309756501851	-0.8255019569240916	-0.46119355946475377
Si	1.7258163186740798	9.445438968578461	3.040444224705609	14	-1.1253136632064509	-0.07708996503506388	-1.0769812540667112
Si	0.07022765796520915	6.357672092990454	11.015693594947976	14	1.1429131362333964	0.5022669669541193	0.33158671138140927
Si	3.0240850919316657	4.073801664591254	4.965846405620377	14	1.0232443815440202	0.4966848401935458	-0.3739346157779722
Si	2.837915273405113	8.133087791819612	4.422485529201385	14	1.4677524959231412	-1.0556256532775612	1.3567900180688504
Si	0.20751332250819812	1.1466274977006126	1.6141011003624057	14	-0.850494386188591	-1.2644865657439384	-0.828878589541042
Si	9.023133453487358	3.128226020663007	4.118392240346435	14	-1.2877231871853085	-0.3593952723030668	0.9877911531739663
Si	8.11197529256417	0.2189058536687623	10.710978370291707	14	0.0029853103872239345	0.9059711256814261	-0.16408305643174212
Si	4.106475506153331	1.3173155571729374	9.991009938291421	14	1.0874543944778021	-1.4866403498260128	-0.8731345111956867
Si	9.185825195514171	7.1848244967499575	10.291327188352657	14	-0.8684507286339732	0.46681990923683386	-0.4329430255385627
Si	5.945684048603352	10.654304470396642	10.543344459843711	14	-0.9461806417832218	-0.21375218322742676	-0.1016640754639752
Si	7.268685875959766	3.8901084832735195	0.18551567533552363	14	-1.4026716496174247	0.7518161353329037	-0.5553806035472064
Si	10.95516591428403	5.899827389252631	3.41371676546069	14	-0.39288828997703984	0.36379494772690424	-0.9198034151932908
Si	6.760431054325861	3.8578899875659776	4.620927473807508	14	0.888448528703553	-0.6368026239361878	0.690443080009373
Si	6.541387486301092	4.838571686279312	7.905859104409647	14	-1.5785787051954638	-1.570436271757087	0.4323622128467413
Si	0.5676719026526394	10.47432069189391	10.963184443722447	14	-1.6380450288135728	-0.3228418679665216	1.4248746867200957
Si	7.413630235656122	0.19641621085325978	2.9475314583873407	14	0.4168826161562577	-1.2294015196557297	1.1215760474025516
Si	2.808295580867363	6.8520333130627815	7.993596476381237	14	-0.41342293683746645	-1.6038066477072888	0.18845944886153404
Si	5.632439418671871	5.416794285561446	10.023628249871239	14	0.010276965075163888	0.47620984297654656	0.5929909892808644
H	5.153326731728278	6.251221116997075	6.6656191626142824	1	1.108525888129076	1.0138462202672829	-0.8709521569999452
H	9.77305475791896	2.9986745720492607	7.280025098337359	1	-0.046988749499430243	1.832486668423495	-1.2794948788292386
H	1.0328576700453	3.245549767182992	7.495081613635824	1	0.40417389966929784	0.27854403729515836	-0.6647394830133206
H	3.4527432369933693	9.788003429143487	9.411254711498897	1	-1.1498216962286343	0.5099136912867718	0.46867059084627644
H	7.663637321789346	5.723464165593283	2.8048416159707594	1	-0.15754550693420158	0.18319253961321072	0.9239246399109561
H	7.773486732697067	8.013676117966632	2.2918778518411647	1	0.4818179379008536	0.4355650387440497	0.14803498835497383
H	7.075430431696773	4.194390574068155	6.328807608211446	1	-0.42869247422329393	-0.2600161381371073	-0.6209458460952385
H	1.6093588398773593	1.7496386810638342	8.565355385728248	1	-0.8181372828450595	0.6852059955827635	1.3091260963123492
