72
config_type=amorph dft_energy=-6957.687605525218 dft_virial="-11.05048202600736 -14.193568138344304 4.34799867560977 -14.193568138344302 -2.3771239505069324 2.934301680705118 4.34799867560977 2.934301680705118 -8.190386860159336" pbc="T T T" Lattice="11.105996452100001 0.0 0.0 0.0 11.105996452100001 0.0 0.0 0.0 11.105996452100001" Properties=species:S:1:pos:R:3:Z:I:1:dft_force:R:3
Si	10.656647835648034	7.91587671320944	6.640786154547387	14	-0.1087757527795048	0.5386805031612485	0.8556034295702571
Si	10.305054199967453	4.849189018887519	1.9968137381017719	14	0.5674527143568976	1.2886022480942672	-0.28818722490890575
Si	10.11845124757927	5.839666206471605	7.762969354056928	14	0.4632699841213054	0.4583002946479911	-0.21679071549477774
Si	6.1228357980108	4.473584218877497	10.885386938575486	14	0.6755221845049577	0.05002702465624924	-0.045836637205471896
Si	1.5069726585854493	2.726710930930236	0.7933668519525704	14	0.12367350833603881	0.06556215722164796	1.744035246089229
Si	3.477209747177346	7.810147626985448	0.43048286027878374	14	1.719018391324188	-0.668391738120591	0.29271442715662244
Si	1.3447695804025286	0.4315768009293156	3.405009664242243	14	0.7573008172018436	-1.5338833816416058	-0.5948257300373221
Si	4.71354037822157	2.6168948380118713	4.3233645108663925	14	0.5727049683048961	0.04853012713885902	0.001158025836194695
Si	0.7483786815244038	2.142857591446887	8.62554988649863	14	0.009282461537330608	0.9648702634659101	0.5259489038369394
Si	2.3052827895588495	10.614711593044905	6.635588548207804	14	-2.0940935494221784	-0.621042005434212	0.4468329078095986
Si	3.1332237190664523	5.47556721878596	1.6232857594282923	14	1.7022095331831884	0.2921577828548104	-1.0235804250093634
Si	1.8467717260339007	8.222069035393837	6.8460916049609075	14	-0.25024645214160857	0.8133686538077807	-1.4871003205677873
Si	9.629287633846525	9.874141537625974	10.15494555192087	14	-1.0748793754674901	1.1664395212443475	-1.2539213797623858
Si	4.492097914963147	10.729058932515727	6.740906712563069	14	1.9819612186472202	-1.9848879078331447	-0.3364923803322518
Si	5.750995930798039	9.472137784049309	8.503306183550366	14	-1.8981717244794465	0.6405101578078413	0.14629563560589368
Si	9.429346379719368	9.682096646976259	7.694889595805555	14	-0.4521283563269757	-2.3164789900935983	1.1970711558075278
Si	0.6906452695678071	5.833913300309418	9.450880906839991	14	0.07422858192427108	-0.1769031017790645	-0.09384482996434086
Si	1.782157038675583	3.8552134424210216	10.04283051773692	14	0.3396502118864576	0.1339612720535473	-1.5564689992159144
Si	6.070026784881064	5.852149346483766	8.966093055709374	14	0.6546219264680059	0.24586554578660827	-0.23888756594772637
Si	9.39412926496976	0.5785391201810193	6.82511237766289	14	1.5745420698428314	0.02400075394251829	-1.4925497782938413
Si	10.337094999731763	8.003780675127812	4.370287345876515	14	1.4827991184777116	-0.3581416013489626	-0.9395168510144621
Si	10.418613013690177	4.394631690099518	5.953302762169493	14	-0.42224902718047086	0.8507520109416699	-1.428685579025619
Si	8.45651662049767	8.584035671760681	3.2667177964206946	14	-0.863099744241681	0.892116467553276	0.49029281525712565
Si	5.68795829493592	1.3662596835373422	5.991596237936333	14	0.8410741134061004	0.5042660013405345	1.2780838562295413
Si	5.467104449489459	10.496332776861971	3.1142991011120738	14	-0.18740143902229311	-0.23938738882196314	-0.4316371611464595
Si	2.5000264373464227	5.397902985596424	3.8440741279795647	14	-0.6862172113051777	1.68504997627652	0.5706570829173981
Si	7.386520498316546	8.332784714024822	7.442616886396102	14	1.2499816750803228	1.1226623394003141	-1.2332370945723266
Si	3.6751074979573155	0.9843144701528163	3.01210172175985	14	0.5365837667726677	0.2838662253078648	-0.6855057864630927
Si	2.1049306135629653	0.2565029834580564	8.833476352074847	14	-0.36234535854740474	0.14452645803509978	1.6832648578527412
Si	8.288949346028383	6.761086308116535	8.804945047189403	14	-0.87266914113274	-0.6831216004997194	0.84912372994242
Si	7.0597154467170515	8.076824813793275	5.073285815297993	14	-1.5377855481859946	-0.27070833672147504	0.4899521438022061
Si	3.6906781049831596	4.797879315278817	7.223728802321664	14	0.9687539180519938	-2.0350314035603962	-1.0684636963621246
Si	6.96890171372823	3.117630900047704	8.615787715617234	14	-0.366500007634232	-0.785383457950629	-0.5069988291853198
Si	9.327837572147175	1.8621424251236074	8.644130218562994	14	-0.4223829817676505	1.325063863970883	1.605697438559726
Si	0.5284033203973043	0.7808781589421839	5.4567647667925545	14	-0.47446329113256996	0.0818601367355346	2.0189092876504082
Si	8.550151276585323	3.364295081248845	2.291344764011464	14	0.8578006961768558	-0.09502239620096868	1.1575100724674732
Si	4.435246319124848	7.528577298935358	9.277560726208518	14	-0.5154821911891484	0.28042968593695494	0.41281821286616766
Si	7.277237493227882	7.680129726520714	1.452320050044665	14	-0.7570609330754738	-0.6277867860205565	0.37371967137320783
Si	1.3784318556488437	8.605992226746483	0.8709500113680054	14	-1.3390149385485388	-0.4635016407106507	0.6046447812549677
Si	4.233061653714368	2.7833070888501372	0.8982296704532987	14	-4.181907688320958	2.4372551198443624	0.9466470402882966
Si	4.771957919559616	9.10558437114775	4.884650465559075	14	0.42351632499277186	-0.39091496664382613	0.12689330352846023
Si	9.012505014882699	1.1835660419002971	1.5657344858135103	14	-1.1912843690634702	-0.3057249914081678	0.7587452641707029
Si	7.985589052939272	1.2536337735165959	5.267507481252318	14	-1.248718748147066	0.3771451549912411	-0.6572346836943405
Si	5.879281295816247	5.612126551160981	1.8922507815052503	14	-0.6437942306332665	0.05286912447714092	0.7009678996373991
Si	5.5027658040971525	9.172042653917115	1.1630421604568162	14	-0.9625233585296791	0.7222185993294871	-0.5012007295778539
Si	0.9803962746045154	2.8920125821232925	6.409314976492719	14	0.03091754147478065	-0.7759174194934398	-0.36144444324322483
Si	1.1253150905090326	9.046178396125466	3.300635509585408	14	0.3769587498555304	0.29683770875854393	-0.4179367693375185
Si	10.78164582571642	6.7000144336264364	0.32704494112286	14	0.586228982288875	0.3128960612565928	0.3808673441632195
Si	2.8361049959834213	3.5151367250612675	5.145485898233096	14	-0.16665621863614632	1.4585695361617002	1.5422320177266586
Si	2.615217832547604	7.781116552259659	4.648103847125797	14	1.2172257933016362	0.08938550489707603	-0.1698176497378004
Si	0.18409855018823568	0.9032606868461	1.4894251841911312	14	0.6607126178609047	-0.15286532391993604	-1.1717144009191631
Si	8.487113640723203	3.5593608029335293	4.806919596390826	14	-0.12826344555356714	-0.9103425189467419	-1.0212317202994083
Si	8.106111326437462	0.7826473441770035	10.553373174639956	14	0.7225387019418456	-0.8920912707211387	-0.7605784622639684
Si	4.089616603539044	1.190429547707695	10.064920344680147	14	-0.6140645398163942	0.31135236962237584	-2.11669742184426
Si	8.770827426088552	7.86425604170008	10.843450695972358	14	0.9307972044317119	-1.086526482567761	-0.49895229797538443
Si	5.8726732279272476	10.952211719227773	10.428552880514806	14	1.2657638908669877	-1.7367744446651308	0.09951283164260728
Si	8.562167964746497	4.0819090420012865	10.368480545705397	14	-0.9396047828164111	0.7178600615907721	-0.8075340445047687
Si	0.12109534291511756	5.794009455057022	3.952513077337869	14	-0.5212509801959647	-0.5125459889135394	0.7814188135469606
Si	6.36209227957839	4.430903874512077	4.271255175513139	14	-0.5963524523764261	0.6169701459386936	0.11061846396245491
Si	6.0650957224563316	4.534145217530798	6.862983825564552	14	-0.7029862173137155	0.5232723831986651	0.10517826221555358
Si	0.6664541880958429	10.490990792568512	10.694319375613558	14	0.7260199785453261	0.0974623751497892	0.512541618034495
Si	7.908102515692971	10.934264428961178	3.372302504690809	14	-0.30060232116830476	0.29171169608176467	-0.9064033284857429
Si	2.5845763883362602	6.508402676838355	8.107022018146534	14	0.022335963247722405	1.2134514106916592	1.5594913335197487
Si	4.33308225776198	3.6530954129892534	9.683173928632113	14	-1.6121349720603124	-0.836707091019829	-1.009696199170032
H	7.475101926018496	4.138827273818299	1.5780954598646975	1	-0.47652891714677703	-0.08449243436230222	0.17784078388932248
H	10.039965170652279	3.3288225285808375	0.10982719891481692	1	0.5395143126165726	0.21319605314667872	0.4760766597209629
H	5.342317473353663	2.0217467001367364	0.9725854272997534	1	3.449883150410959	-1.9363459536098133	0.538461444987972
H	5.743865881075791	1.7334350322402203	7.892609650642291	1	0.6350678991766837	0.25804281480389357	-0.8208366863206829
H	6.844248009549859	6.552526800742549	4.829631359135371	1	0.0009178845992928642	0.10870067650415646	0.16377323824066428
H	3.6520736613156606	1.2026128258156488	0.38827785256151337	1	-0.7995469058277288	-0.7206633377213296	0.8676017496572602
H	10.009112712508344	2.679321644069125	10.759922496656113	1	0.44229490691953727	-0.5845485078516262	-0.3080271591118284
H	0.313786602558343	3.781936077830065	1.7476618136953603	1	0.5880603806084164	-0.21453482768687984	-0.14136528404397772
