72
config_type=amorph dft_energy=-6961.412109569355 dft_virial="-5.432168435047323 -14.455177546654062 14.167155650005338 -14.455177546654062 4.5052158681036145 13.357172674277049 14.167155650005338 13.357172674277049 -10.500850721048879" pbc="T T T" Lattice="11.105996452100001 0.0 0.0 0.0 11.105996452100001 0.0 0.0 0.0 11.105996452100001" Properties=species:S:1:pos:R:3:Z:I:1:dft_force:R:3
Si	10.713388371521814	8.179988414836831	6.500073179499281	14	-0.20014563676267108	-0.4962341254309239	-0.37621338642321944
Si	10.639677873069227	4.505047506826297	1.7555581771728035	14	1.183083571534326	-0.37887730864542485	-0.7903240939338255
Si	10.436271548049016	6.284361410410143	7.853683133077681	14	-0.5764315283559187	-0.8545428486256961	-0.9763811019842131
Si	3.4099407266669757	3.895383831588267	0.3076483183192673	14	0.9745106228638056	1.0442204871879164	-0.675543267568583
Si	1.232543486254058	3.2136866633619166	0.44860784648861096	14	-1.2526471399657204	-0.4738128014865725	1.1768946639181976
Si	3.6640015015052154	8.008389663655434	0.4334737051233343	14	1.6447239891037213	-1.0085769970241714	0.6865051751010343
Si	1.618687876897123	0.6083720478506504	3.207045277483561	14	0.6405366401926388	-1.268248092827315	1.0324710500959036
Si	4.4736730668491145	2.642849551720429	4.635665131099445	14	1.8693465485142025	-2.2014523660597494	-0.17124101364303437
Si	9.859403880334035	2.6352752621400968	8.031512348268706	14	0.3747149462426372	0.2647904236060902	-0.5656146311635237
Si	2.481734861189814	10.44185786426442	6.801389969241206	14	-0.9694002939294791	0.20835029094979562	-0.7947870185485385
Si	4.117259428708321	5.821674492219204	1.5216658918915775	14	-0.8175762676642031	0.6166847532481571	0.1423826704191603
Si	1.8387643025919367	8.202877873524608	6.3951326190233875	14	1.5341448630526648	-0.15093699492982499	1.3682052114692438
Si	9.734061604375636	9.869221581197692	10.13300010293152	14	-0.09872350230932184	0.3156821109815053	-0.16598670281077976
Si	4.76717123508876	10.347934452269012	6.683244378983765	14	-0.034005953185342525	0.28646407012334246	-1.2027759242918723
Si	5.811090477600352	9.387565621066567	8.416001945440408	14	1.2159278993360254	-1.3548339211412819	0.6738242265515318
Si	9.5553772274578	9.716714037917455	7.781394202170962	14	0.10151520846593862	0.09423358108874724	-0.14539600585437387
Si	0.8349921266550413	5.834224268210076	9.59144950393422	14	1.0478058935568628	-0.08321999433936093	-1.082240449999074
Si	0.661192166976838	3.452721025000465	9.416552271806548	14	-0.2921071320800035	0.3330098181761112	-1.4628442558669785
Si	6.705345311923445	5.281612096746485	9.33585610158559	14	-0.28279201750510696	-0.9686575016024884	0.5759468750030708
Si	9.720667772654403	0.6052634794437075	6.613021163417137	14	2.1100917380557354	0.1248317912827655	1.4427199574156473
Si	10.77270549857248	8.049492956524656	4.075323186105191	14	-1.287400770578162	-0.3512430686644733	0.11585014906789222
Si	9.984257492448545	4.308471369624126	6.1383841930437395	14	-0.7589632939018514	0.7138031145061103	1.3795049622407627
Si	8.368534916604133	8.623561913133704	3.7427763343399607	14	1.0900041596237933	-2.019585231239075	0.287688430476797
Si	5.788822954713892	1.2927490930208922	6.41852184755151	14	0.021494183365905924	0.9948506370514969	-0.6147836779744396
Si	5.656828186880684	10.488014385519348	3.1481501782980748	14	-0.6093686730596757	-0.08253710876632961	-0.25139702177237483
Si	2.884182854624562	5.90034937108588	3.599209118203664	14	-1.1353052355910782	-2.293257023952553	-0.6489896631536896
Si	7.776307655795899	8.307107650227566	7.3848212808593745	14	-1.033939922565304	0.6424541705404052	1.871964962172241
Si	4.0157617271325785	1.2323768963072765	2.802931384580998	14	0.5069049838411345	-0.700721330637197	0.3087426977224256
Si	2.675656665239932	10.942593926300255	8.975255502782355	14	-1.4495323580719115	-1.8498285166973618	2.250704716683038
Si	8.511280289002974	6.7842534167156145	9.123242905506588	14	-0.8042957373540421	-0.07195803881604833	-1.1916319825027542
Si	7.083226841206147	7.315697558941504	5.48551819160704	14	-0.8096994294053975	1.0120911837757498	-1.147754270440703
Si	3.537359823961919	4.871078937894609	7.33111268201702	14	0.1438811105997426	-1.2735011181069094	-3.803159192052074
Si	5.7046617135998785	2.3347247861533664	8.616864997273089	14	1.0188560189835916	-1.3562606274834317	-0.45775084944107547
Si	7.984933799148599	2.93996827480346	9.450214547052864	14	-1.0431642771223995	-1.2830309199760384	0.26081523767060927
Si	0.89736451332968	0.8175390532305661	5.666568145769174	14	-0.06472989042951603	-0.7659631281359546	-0.641409787559361
Si	8.660978015180829	3.5980207765832897	2.3790821359830536	14	-0.25751548110273126	-0.947655942015923	-0.5989736942503171
Si	4.479692516926153	7.689514293522738	9.388465206779188	14	-0.3874953965680292	-0.2007673300290829	-0.27263306616413796
Si	7.390574187021563	7.772909220881557	1.8046577874875376	14	1.2178932522427468	-1.3736191879418795	-0.14368390682168727
Si	1.471511211913894	8.33679397874403	0.8830655428976013	14	-0.6086677897494034	1.3793661225534746	0.6800295892417093
Si	4.894423742436922	2.22897348793647	0.7659516997105617	14	0.1572521438171727	-0.09095773580034658	0.4628570646068895
Si	5.167409135229541	8.852822997894405	4.890381159728358	14	0.549211236331511	0.3567701737711957	-0.23743797676822687
Si	9.147887111633798	1.3740116690609079	1.6492182611439459	14	0.323786492061144	-1.3277748374204474	-0.17034318366523865
Si	7.974449738497816	0.9369162984945438	5.350969044589849	14	-1.605333884267457	1.70956392284094	-1.2563305054473644
Si	6.289503486767464	5.698786641476717	2.387622647254719	14	-0.17688227582597127	-0.6001841706350427	-0.4878723767087383
Si	5.70314019208594	9.096244228131532	1.2325545922505101	14	-1.8641056074296123	0.9957847196143067	-0.2835762046277522
Si	0.5683482578365724	3.0716853927253664	5.3195390746304065	14	2.120517827239468	0.6170693906040512	1.3263787272316068
Si	1.4920573053502788	9.26376707861501	3.1399872709057814	14	0.3651504344516863	-0.22944826698586676	-0.3905802087311429
Si	11.04284775627336	6.5365119538586205	0.6572650866313754	14	0.022372730053800527	0.8492584558611957	-0.9763708175629326
Si	2.828930522275364	3.9646297194671103	5.173273101356249	14	-1.725454639272115	1.7360853884393312	0.972888255406792
Si	3.0386228412874647	7.907802653788765	4.444919642034627	14	0.07761601318356619	1.9915172457906143	0.3366091085137865
Si	0.5726451678638899	1.1099388384211002	1.233087680080211	14	-1.1368196166246454	-0.5361975867535814	-0.32656997068073634
Si	8.221102813702505	3.438449819559517	4.701890187943317	14	0.9741943769094275	-1.0813040534414762	0.39338039953531617
Si	8.234896461296012	0.5913243432966768	10.60293923680568	14	0.267234002102359	0.7130564655211394	0.4364466707583285
Si	4.382348458023496	0.8920502940273503	9.954704435889507	14	2.610047281327042	0.3527574496980405	1.046749683491346
Si	9.06586932783504	7.7472321570843015	0.008052958027417711	14	0.037901949076962906	0.3076654045932835	0.8200897802251798
Si	6.297522016205881	10.375877139342494	10.490468810735262	14	-0.8154435358011403	1.0257848907108587	-0.37601875375048427
Si	7.131271381857931	4.156696822109728	0.6000292233158329	14	-1.0865565645000066	-0.6465386284519925	-0.10733696224234991
Si	0.36181781601438506	5.709037476202005	3.4398602811089334	14	1.1698230958456621	1.5308242805316936	1.2083241124622197
Si	6.132320318980892	4.201687213737185	4.34656493745483	14	-0.42639159207229343	1.107414656409708	-0.5757291023824542
Si	5.546001448285177	5.555730301177217	6.131098659371162	14	1.150063894349792	-0.09166941775296357	0.6349002631098101
Si	0.8325243742433848	10.350066803587815	10.723172754396114	14	0.8786107084170702	0.32855537820895464	0.2115461748627397
Si	8.012254550420765	10.795706017224779	3.331865571608713	14	-0.3173541007711975	2.1493365754414118	-0.03031615994039801
Si	2.7594958324568353	6.665630268610736	8.079567994916943	14	-2.0052155807152996	3.342564700126914	1.6810873887571078
Si	4.488488466116215	4.159462215226301	9.118622810982513	14	0.6653010124152411	-0.38696189221409855	2.3202790837567773
H	0.5084091949845887	2.915679460562717	3.9246370262430985	1	-0.47935199078829954	-0.12670612706115345	-2.1800677117804814
H	9.401281526684912	4.820413382080129	10.133677568715099	1	-0.03154154873598059	-0.09002442456913282	0.15890947830654015
H	2.4982161599247306	1.7619552311292133	7.7759633699058845	1	1.450006469892947	1.4203438849249306	-0.5638588233403946
H	5.423435671439802	6.408115528875892	9.83758059730566	1	0.0471805539563133	0.7988241681222351	-0.15181348473346348
H	3.132301921360928	2.316488739979018	7.5787986148917525	1	-1.4229317024296597	-1.114480825161071	0.3386798767386338
H	6.640986062483526	4.940802383620892	7.1771169352122	1	-0.347504681528978	0.260671512883213	-0.10419455732006494
H	10.08719897356306	4.419453592169962	10.3150829147637	1	-0.2999734288069965	0.07502562457351698	-0.01827155995763232
H	3.668799291972523	9.651399672782656	9.365109296240421	1	-1.0469368599586528	0.4318636755251645	-0.18517383337291682
