72
config_type=amorph dft_energy=-6956.065070255355 dft_virial="1.5709141873984966 3.7367382311937014 -9.337443496594426 3.7367382311937014 14.66899292844569 -14.238846689782529 -9.337443496594426 -14.238846689782529 11.746010885600128" pbc="T T T" Lattice="11.105996452100001 0.0 0.0 0.0 11.105996452100001 0.0 0.0 0.0 11.105996452100001" Properties=species:S:1:pos:R:3:Z:I:1:dft_force:R:3
Si	10.927145485235382	7.891165871103518	6.588632395208326	14	0.9076264032865374	-0.2909686466442419	-1.8554924046071166
Si	0.2346763686307443	4.92476532474406	1.442113639305185	14	0.13696072352003205	0.4678396096068045	-2.033109759444118
Si	10.3737892120095	5.898394715710311	7.539383433483251	14	0.2092859161757975	0.37275190733070407	1.2306798732209072
Si	4.765261003698999	4.318911006289101	0.9145032870545609	14	1.0355592046959337	0.41818642366410486	1.0607763485654138
Si	1.1871865967436819	2.931394445542439	0.5917230485693072	14	0.5278468937842725	-0.5280502682150963	-0.011613682731108872
Si	3.8189412580084623	8.160797252967601	0.06170158448893198	14	-0.3865816257372486	-0.9114635208663263	1.746723593811976
Si	1.7447742546178142	0.5365540111935004	3.8314799280028837	14	0.046633679854717794	-1.19357111013521	-1.6651779032570955
Si	4.981516966614291	2.560976145875548	4.400939896084311	14	-1.3118789787786318	0.2183351784605907	0.9967776804889479
Si	6.340602176443577	2.794768477188705	8.325332590405463	14	0.6571158986285497	0.3356655128612922	1.0050802937887702
Si	2.584554176343356	10.802669477000245	7.1107252884215475	14	0.47846084568433633	-0.3274819417377929	0.6878784024525253
Si	3.2106103023446853	6.0017804366829095	1.4213676379326625	14	0.361707467317476	0.7448787789580802	-0.4391512164445923
Si	2.0184260071975584	8.558303077981165	6.778245072635029	14	-0.11731465065824856	0.30893604484250076	0.6359017086320078
Si	10.12670300294318	9.913556719034476	9.914667318679687	14	0.03758338912779656	1.0121217799290598	0.8296537777950667
Si	5.050574052553449	10.588046095563413	6.6644197149974564	14	-1.8932609133179636	-0.9532018161914823	-0.9311733571400496
Si	5.983666556469534	9.407445354715827	8.369967590146453	14	0.5106423425345017	0.19264006611209483	1.0648458940661443
Si	9.923496585859105	9.58822876496311	7.565282617209548	14	-1.2723924574928616	2.105493830411715	0.47053335665072366
Si	1.0945836877264268	5.953269444180137	9.189956626194354	14	0.9693658411181894	-0.5198517846807401	-1.8308241917234875
Si	9.950784019141915	2.526214376980475	7.9509938739909805	14	0.05381837656133959	-1.9361806315377277	1.5640923264901536
Si	6.316868662025438	5.617424111468632	9.218521249069154	14	0.4894587486912696	-0.05970929307086287	-0.5824625701053902
Si	9.887313249418163	0.6682955623076011	6.444332183306191	14	1.3686343289471765	-0.5856440558285413	1.6115235632151812
Si	10.767618952197418	7.966209089130357	4.107352879873048	14	0.2294498096490588	-0.7439786349854963	0.9367182028734808
Si	10.488414201391624	3.740799466971487	4.021914449167042	14	-1.1480705163950815	2.0140164742261666	1.8088358419150494
Si	8.664720735985187	8.010355425027456	3.3292889804318255	14	-0.8586399049533521	1.040205192009441	-1.6896296290727677
Si	5.99776006596725	1.4834945820857097	6.30016524336148	14	-0.1906340897413153	0.9634939507880349	-0.0016421649679785781
Si	5.5181365031868586	10.61843210185636	2.713283781219647	14	2.1808156463181128	-2.033963623520939	1.4567851890695174
Si	2.7011116091081457	6.0855529679211	3.752371915274575	14	1.4944271993986133	-0.10551404857036494	0.37493246175272166
Si	7.876006185946402	8.449653114690271	7.4102095887488755	14	-0.045775959119916394	0.5209699583844725	0.29285223840178237
Si	3.9146527354326603	1.0170371780992837	2.8278532406195107	14	-1.0715243401352288	1.1766542655707635	1.6162636529834065
Si	2.3984954177813247	0.5443237663113896	9.339387808457358	14	-2.375522623997075	-1.6530111757716226	-0.6374011772547182
Si	8.393567832607166	6.613620887225551	8.61873080467704	14	0.44212598530000363	-0.22267237602514847	1.1045980105314857
Si	7.371682887056541	8.24555821789003	5.1741615810724175	14	-1.3923998267529012	-0.9726925942919288	0.6364203005750817
Si	4.539453883834903	5.332533090479363	6.876166643353195	14	1.288405558537276	0.9916946052710152	2.0496118847204245
Si	2.1873037892481912	3.8207737474230594	8.575517372481919	14	0.6509617009342432	1.267714845583916	0.903400020361278
Si	8.672817007398768	2.514597504691578	9.901939846745579	14	-0.5923088750394291	0.15072102208293256	0.25473765891484323
Si	1.10023330812161	1.110899507114207	5.988186697025539	14	0.2607789850855952	-0.015469055158670919	-0.3603571228033342
Si	9.175196756909513	4.340601017360052	0.4520307145951482	14	-1.0669362026914246	-1.0359109319037296	0.3511474235465638
Si	4.887804568551472	7.51039678274327	9.270930446326613	14	-0.6002453629416623	0.11339525770821485	-0.7317730838096894
Si	7.62622121974222	7.6397038994350694	1.1761805542596506	14	-1.11908104679988	-0.14607580610102103	0.06810549460433844
Si	1.6399447541064422	8.61280020257162	0.8872214067699772	14	0.8086079951969947	0.2982320191736602	0.6931892776018231
Si	3.6256636017525663	2.280805173378421	0.9154950525377334	14	-0.5411536493686989	-0.05223688967891651	-1.3685201718709619
Si	5.218741050831147	9.019746124569467	4.6527017296569655	14	-0.20572082153888016	1.8423563704159478	-0.0377559102947785
Si	9.383556356347361	1.0266716300214804	2.2280850082203023	14	0.09531395954427346	0.38094833398080413	-1.4078984496227538
Si	7.972028631271258	0.8879099785500073	5.322482163690213	14	0.21644515893974983	0.04100373053518955	-1.6708790721939917
Si	6.324509587584483	3.458074115290377	2.8164695942561084	14	-0.33868116229129386	1.2558090852884383	-0.34412933446468763
Si	5.63956946839412	9.307769036558229	0.8672783689409411	14	1.0754295920060017	-0.4713926200487172	-0.08823184993992558
Si	1.831700888848401	3.355765675973632	6.401985018834333	14	-0.46247242725099547	-0.20684927966389316	-0.5530159579842662
Si	1.4107169873350984	9.180616483178136	3.325546259627468	14	1.3944253435241138	0.9773290685157519	-0.5572531395518702
Si	0.3858756255289241	6.865216130851424	0.05928491966095502	14	-0.8117051486656449	-0.2001631202788481	0.2831185478807658
Si	3.5330729093314086	4.3716200654507675	5.228991885556435	14	-0.36359774394884886	-1.7025926278758903	-2.4666078866213006
Si	3.014578358968668	8.218337420585932	4.830153340968621	14	0.3517773443500001	-0.8622062851429296	-2.0493156933875434
Si	0.5168752960800245	1.079836035037683	1.8649078182401801	14	0.7468713855811949	-0.1074115242966342	-0.291092316810141
Si	8.595974617946688	3.1015160991957065	2.8344946264978668	14	0.7720301653599079	0.7948368979917495	-1.4103739098249923
Si	8.664720735985187	0.3472234260766805	0.07240776506875637	14	-0.212419579339994	0.5957541561684276	-1.9942099643924056
Si	4.38395882750905	0.9428158038098993	10.011500501745546	14	2.43957862772218	1.6607450605746281	1.8392602453894253
Si	9.293675527060515	7.888100616082738	10.661756594016001	14	0.42665847280452474	-1.351814929274364	-0.6515795375426748
Si	6.4605136201369	10.851746875322075	10.326466561127102	14	-0.54922897695822	-0.7784468729074014	-0.09795345626593749
Si	6.962138161888901	5.316795893506738	0.40571315639166516	14	0.2637856356469763	0.42241306369989634	0.07328832870869294
Si	0.4831341682588995	5.7985629136023835	3.5115272762143346	14	-1.3416377230856218	-0.1136621384404462	0.9437848858459079
Si	10.66894217372051	3.948470494629305	6.437924023353329	14	0.20183999516864864	0.8600380720264487	-1.88451529857148
Si	4.424595668527284	3.5864261162872975	9.4178849913808	14	-0.6883725688950578	-0.1952546231121534	-0.7551408316223872
Si	1.0509260156732216	10.654526590325684	0.0722000829351021	14	-0.5503250391561992	0.1564777268947441	-1.0226080329772835
Si	8.243514714542842	10.59401001565819	3.2952713132990437	14	-2.15837118242588	-1.1948481781477274	0.7676813978214095
Si	3.0738732740264303	6.887639137688214	7.903537951151158	14	-0.028143318834340875	-0.49992134757054824	0.9793242462441867
Si	0.8283607361734923	2.247154004128558	9.378281008032612	14	-0.6857986353590576	-0.104560425607122	0.9484275307224992
H	8.16840486053729	9.507432640774084	5.054139077414573	1	-0.012261858382318204	0.7614387541040899	0.46314425707115014
H	6.12426847155312	2.1309186452608793	2.1983542557180304	1	0.4375208785610863	-0.7702039092510067	-0.7498181293886167
H	4.322431607164416	4.970311016194122	10.166784544138808	1	0.14073484901947741	-0.014704922657522908	0.04754847912762648
H	0.5071442219886945	2.8986872859910044	3.825460477925845	1	1.1916484375768033	-1.1752285876707416	-0.40354732130277776
H	7.458120857443235	5.373914033259888	4.592584970861749	1	2.759794368714702	1.3785634234725241	-3.32849381204134
H	7.215543682936467	5.498989765303438	5.391794687547769	1	0.9377965244447509	3.9858570510016875	4.338939231301662
H	8.238716924075534	2.19470038288529	4.377484031577476	1	-0.21450088909665385	-0.4518990137324185	0.740900507696215
H	6.949444007944151	4.964480368056769	4.983293926046627	1	-3.990965065941225	-5.338708907051667	-0.9747343090266584
