72
config_type=amorph dft_energy=-6954.932953594417 dft_virial="0.6100027068761176 -0.16350588019359852 -8.314902876614461 -0.16350588019359855 6.593060184421874 -7.48353836270701 -8.31490287661446 -7.48353836270701 11.112111165464947" pbc="T T T" Lattice="11.105996452100001 0.0 0.0 0.0 11.105996452100001 0.0 0.0 0.0 11.105996452100001" Properties=species:S:1:pos:R:3:Z:I:1:dft_force:R:3
Si	10.955943334035677	7.9898537555768785	6.324231937673181	14	-0.7914129570369082	0.20607717673625273	1.4766703747260745
Si	10.713954777340872	5.27529278476524	1.3031554116965098	14	0.4060976006698326	-2.1137807599690843	0.3041540460575573
Si	10.7217845048396	6.066139686122829	7.605997200202946	14	-1.3170618128829863	1.2179917255765085	1.0170505888277834
Si	4.886227517055273	4.525204890386858	1.150692292402081	14	0.8966392989219486	0.5957055622778769	1.5973140925528508
Si	1.0370524049052583	3.3152065769305628	0.7226993965278582	14	-0.5464928066765185	-0.3568303376356871	1.7809709737868802
Si	4.1689023122105855	8.040919127263635	0.42946888280270706	14	-1.038280205456246	-0.8853218075237208	-1.1053554581588014
Si	1.5557613009995246	0.20070090428447998	3.357853603306627	14	-1.6700321501015352	-0.8979533908510763	-0.586939378688832
Si	4.833573987875867	2.383313520631304	4.714151208026435	14	-0.5135201807193435	-0.338840056600079	-1.783223519157862
Si	6.907574401319733	3.698119122606067	7.692157520678339	14	0.3202897888257426	0.09099424549589268	0.1026346677223311
Si	2.5860312738714852	10.902901094980448	7.338187201757007	14	0.3912371261404407	1.0002075349860255	0.4929937613959412
Si	3.2529463608200904	6.335360146118185	1.7209963162138682	14	1.3848320353535775	-1.3483506219659964	0.029662842078548385
Si	1.8034139158849023	8.823281047331818	6.88947162710281	14	1.293858358700246	-0.298158742672036	-0.4668425349636511
Si	9.91066915995693	9.9245183375327	9.881837993167279	14	0.9001280317308575	0.1627177995067435	-0.7802142507044714
Si	4.8111620870355285	10.393024797864538	6.765895204580294	14	-0.6498394134619985	0.1856235196934107	-0.3492777157577521
Si	5.807525452739228	9.131583508842114	8.413736322164178	14	0.06477025678304234	0.5875433313285346	0.9158588254111195
Si	10.051959646820547	9.835059536111034	7.424714020115318	14	-1.4898557741393899	-0.10690887320654524	1.0216490106928684
Si	1.1866090849281725	5.767721561454902	9.317375723489295	14	0.5764947775467943	0.7191713253040476	-0.6692052358438859
Si	10.400088211608074	2.8578838550259893	8.165806057367499	14	0.7453297508312342	-0.9437072384652394	-1.3697463319981404
Si	6.492843175808963	5.673520499548189	9.222830375692569	14	1.249219599463431	-1.0244857111925876	0.949654719291806
Si	10.146771538532125	0.9389498064449234	6.624216007840855	14	0.42335485957866653	-0.5140084336196394	-0.271332086872143
Si	10.67767148693186	7.589915717340306	4.182984715711848	14	0.9924656797565277	-0.3215082356369608	-2.1055020579487396
Si	9.669913368868308	3.470024167472837	4.0409168090965855	14	1.1023387802866715	0.14059163845314518	1.5816964275066756
Si	8.568875986603564	8.258085781887997	3.6729973586314166	14	-1.108374964246783	0.8754953001006469	-1.1651362279575643
Si	5.954357831832443	1.2429275929367716	6.30296395446741	14	2.082527946360556	0.543638108439558	0.3575067954454181
Si	5.1319254765650815	10.320280521103282	2.785694878087339	14	1.8507379166490985	-0.43432550886920634	1.3175981454527692
Si	2.7587961546803528	5.825772604910029	3.9482705866931673	14	0.0845963070172362	0.7301563727843803	0.22745874568913618
Si	7.900828088016845	8.667919262963393	7.661938104332173	14	0.6844120382599017	0.33925734699353904	-0.8926000924639959
Si	3.6478533826638624	0.971187182346434	3.0677316579884186	14	0.030312560392949807	-0.3126705753200158	1.810775483768569
Si	2.4703512148264117	0.7530887346197394	9.614994216412672	14	-0.7178618613644963	0.1992724893959488	-0.7197595942012974
Si	8.53706841276475	6.8103414023815985	8.787441996780892	14	1.1216570372201362	-0.7847764199845421	0.4767811425786834
Si	7.044333641630893	8.375831556273162	5.488783354563958	14	0.4335958291793483	-0.24795791129614478	-0.23248242837417352
Si	4.609488297461845	3.6942875538300926	7.381589435891814	14	-0.843304290160797	0.9136368761934475	-0.8976705692658601
Si	3.1510599493685247	4.446718813459867	9.045689732281573	14	-1.075991378518454	0.2044974896275537	-0.0078776095904017
Si	8.567931976905136	2.856817679366588	9.369973722686442	14	-1.662604226831627	0.3882124778418185	0.5130514682194806
Si	1.2827648022104543	0.7490839122991121	5.625009507045418	14	-1.1757173547921016	1.3622821561432186	0.09061320768744673
Si	8.758533088016076	4.162738484179671	0.2510865889883672	14	1.2694547125540603	-0.030295076876772797	0.34435584884339265
Si	4.818769694605217	7.169109511770237	9.29142100978074	14	-1.4408636193745004	1.1960452847847884	0.10865516793998983
Si	7.861068620718327	7.826651137713269	1.3500893527030846	14	-0.550565694614165	-0.697577640162252	1.2123808024363492
Si	1.8786126178620715	8.709544537665863	0.8273922932828692	14	0.5461976437857654	-0.188198224561007	-0.5974917091437837
Si	4.590008379684861	1.9683268572021353	1.3920811252884748	14	0.11102521282410234	0.8650139321525312	-1.630249180372352
Si	4.92164453974102	9.010261603599375	4.844735514310227	14	-0.3662292702440204	0.2841541891037214	-0.6552701021192153
Si	8.988438320571	0.6865682582702413	1.4373047428414258	14	-0.29634122832122334	0.43913296159681925	-0.03644104703405477
Si	8.257552694058298	0.9971463384535726	5.114755606050134	14	-0.12649735330915743	0.9974065728502562	0.66413707303681
Si	6.13642953766817	3.1954395111911165	2.8484326520452523	14	0.5490999074711486	0.4807961806466268	0.4178015291976787
Si	5.994828082903895	9.239633748324596	0.9150907942668769	14	0.4812630933727657	0.1782578171722505	1.0245250491039861
Si	1.1978705653306019	3.208788918926541	5.293140121063765	14	-0.47854363527564503	-0.6991449859654143	-0.3587848919000637
Si	1.4421469572945413	8.831266258780879	3.0743730438667742	14	-0.3958046947416838	0.8701157764393009	1.287088638392296
Si	0.5463950346497063	6.911072790202145	0.12402621537882677	14	-0.07378943713558979	0.861850958387685	-0.592410433699575
Si	3.34131677458945	4.021847813188329	5.271383474014101	14	0.5406463702890337	0.17685373655691763	0.5696618080479688
Si	2.810994338005223	8.038764563951927	4.842469891033999	14	0.21620656036604008	-0.25975542805764423	-0.19873872793148606
Si	0.22166458318746393	0.9881504813273715	1.3485345131997906	14	0.8397319964289831	0.4354105153143088	0.9252377033979557
Si	8.409760375434328	2.8949667771795506	2.1596165400931056	14	-0.2464422447099175	-0.49218874832020293	0.08429728746850298
Si	8.437803016475879	0.6765595342676087	10.121538714592953	14	0.4577642191887403	-0.9346929432128004	1.4261579253853816
Si	4.725234992485631	1.1783906475536186	10.294325807394724	14	0.16537297997086042	-0.05800722134892484	0.13058849609457704
Si	9.49065148013496	7.765868019130926	10.849470146049397	14	0.03922889653269133	0.5928917446155066	-1.4965298493294303
Si	6.495486402964564	10.552784556827996	10.231132687582276	14	-1.4533383652773268	0.8357709515727629	-1.0273910602043552
Si	7.136902122059146	5.604352353644511	0.6814872648934055	14	-1.940789337824093	1.0131219398985973	-0.8061703302429623
Si	0.461808433871577	5.380821963053094	3.5339391770546724	14	-1.529369806252086	-0.1558804591288737	0.4415012067072076
Si	10.516279146489943	4.275097850285566	6.324265255662537	14	-0.5284181933864095	-1.1037996823295797	-1.1184513831069753
Si	4.933028186104422	3.589169297410966	10.209931340355217	14	0.7377164508677436	-0.48967574998029023	-0.8695809865327101
Si	0.936266597702096	10.510937162196484	10.832167003577023	14	-0.21981690645659202	0.7990607098116886	-0.1312461848354709
Si	7.950838390040651	10.689965825004334	3.2813221817552063	14	-0.4263887638564412	-0.8525777528295069	-0.31343187960531166
Si	2.8310295556048115	7.158614345123002	8.021972297316353	14	0.050858005895721085	-1.279571497767779	0.9459376723304678
Si	1.1065237445120795	3.0637001812763063	9.613905828760366	14	1.8629308694088367	-0.7731197997945868	-1.516333530947339
H	6.913893713300978	9.95170581684744	5.484485333936996	1	0.48751293618498154	-0.0022214349966079403	-0.0837352438455186
H	5.899882919234892	1.5916447755362595	2.394974816906009	1	0.23479848004656287	-0.11858554801799777	-0.562806469932858
H	2.2704543846850638	5.575465656872598	0.8478739719398322	1	0.02264578143880025	0.12928803102364617	-0.03435870883526684
H	2.5560561894472675	3.368848539794206	1.213518914331611	1	-0.7209039931792953	-0.20209299193215122	-0.24038934856522484
H	6.8039332424287355	6.136740505568828	4.342666732700142	1	0.5678396657075798	2.789631788844489	-3.2220752486193467
H	6.809452922665431	5.265341811944158	4.540664437448181	1	0.21162047980649196	-3.9189049542439673	-1.8639443991260394
H	3.7334806153095537	2.576357950961706	7.749875384239902	1	-0.4250597595164567	-1.3112500864173235	-0.02864339881910967
H	6.73483173250377	5.867053593722485	5.035003445527605	1	-0.6072991903874886	1.0892479975491376	5.1412174223109846
