72
config_type=amorph dft_energy=-6960.920118685972 dft_virial="-10.880687458114007 6.8861130312303995 7.200547416218089 6.8861130312304 -8.738760427577867 -12.300673140718413 7.200547416218089 -12.300673140718413 11.457988988951405" pbc="T T T" Lattice="11.105996452100001 0.0 0.0 0.0 11.105996452100001 0.0 0.0 0.0 11.105996452100001" Properties=species:S:1:pos:R:3:Z:I:1:dft_force:R:3
Si	10.84854834834387	8.34958808665685	6.130654419513077	14	-1.2022210797637842	-0.09918681548801252	2.1522702066117008
Si	10.912652159865392	4.69688138354342	1.4431242849823263	14	-0.7715460262281241	-1.1836463864889062	-0.9042446284589466
Si	10.284685802474302	6.073258629848626	6.796725450731323	14	0.053512157917709954	0.9293717836422218	1.3309226416639046
Si	4.78266410013944	4.153953640986059	11.043525222056939	14	0.5636917014945849	-0.7986531896184452	-0.4347068037881843
Si	1.1374428386347257	2.573936843735148	0.647305229013132	14	-0.38696986264059097	1.3573114382277762	1.172927191298677
Si	3.9533238150788725	7.650954273841047	0.5976958534612467	14	-1.186294882079191	-0.09922718184153884	0.5548316725613548
Si	1.4190575906706255	0.4538176694242911	3.322558746581853	14	0.7785098649877451	-0.33478542351020546	0.7426300902450786
Si	5.001641032185496	2.9809160837223527	4.498461650930201	14	-2.685445201950916	0.3757426170391004	-0.8662326360742815
Si	9.82757409450232	2.335602159873082	8.35662928840748	14	1.1201485697288052	-0.6243983263191333	-0.11328495728998048
Si	2.7349960042835026	10.797738414575514	6.815716704664415	14	-1.8257174623366097	-1.3398438629037543	1.3371357176700425
Si	4.203008827314985	5.563226848782384	1.6086036321186163	14	-1.1603082063873902	0.9163907871018582	-1.0209398998455717
Si	1.897870415710013	8.370667267922936	6.613165541371014	14	2.0967608140813	0.8328344921866218	-0.4633972538346527
Si	9.561341147552577	9.6426481475784	9.81456897265691	14	-0.03817577179355868	0.3253607798486707	2.322114852955363
Si	4.9580166781216475	10.412504715641521	6.478594182360919	14	0.2562754370068238	0.5323401574417633	1.039538761510459
Si	5.82234085200633	9.047222359791965	8.388392438260487	14	-0.3104113450752017	1.51836650392398	0.009183731093036922
Si	9.603077482219568	9.96350038507957	7.6211568853600635	14	1.6553796779925432	-0.5052684753048602	-1.6759269232690386
Si	0.7958634799550025	5.6906126280879725	8.922435383656168	14	1.009867177673822	0.11283835629587076	0.07690047457296897
Si	0.752753333526886	1.9620297572137946	9.651299718814586	14	-0.33729533652373406	0.7330756057648764	-1.8802071544970398
Si	7.097264820721601	6.079055959996622	10.042586185814974	14	0.3830211590899075	1.165527807297823	0.37094339184851194
Si	9.918099071583384	0.7891421309021915	6.472341506358387	14	0.27236849942669467	1.0816542379860803	0.47229533512662114
Si	10.687722413721012	8.060610058973207	3.949114642423527	14	2.1320865156274746	-0.2635575786050792	-1.8791733130478083
Si	10.764831347087942	4.450483746257129	5.200693806596485	14	-1.3774509062004963	-0.11249948461467524	-0.2803152717502083
Si	8.676304290284728	8.778101853764676	3.388328457571189	14	-1.4516612332769943	2.0680886188826046	0.6372029450345348
Si	5.941374921979937	1.4507985285307274	5.891542315899366	14	0.969293593058693	-0.3419927459436446	1.117539154939387
Si	5.52226793386704	10.828268798822336	2.969921147234774	14	0.6631649381152619	-1.1904459316185698	-0.19321162282476376
Si	2.710262950184676	5.731105091152328	3.3221922486989337	14	-0.06102492766318263	0.31451020117658174	1.9290764104276266
Si	7.8391564897183335	8.72528173463849	7.357211773679454	14	-1.779470733832574	-1.7356045917444638	-0.8408170028740856
Si	3.691544372706424	1.206422182598719	3.0405997086559386	14	0.6890336000728678	1.9943889133226878	-0.7585724858931888
Si	1.9302555013643365	0.011719047456255922	9.269397818816223	14	0.40822647587491523	-0.4464883796966988	0.02504539403409445
Si	8.222479957262566	6.5048376519772315	8.117428336822151	14	1.1037418324598764	0.11666158990693096	-1.245178336121222
Si	7.088591037492511	8.109976213202792	5.14292041305266	14	0.6060113237326262	0.4445194272425294	-0.45288451840163124
Si	4.273232042881613	3.9002926820200954	8.760010185544205	14	-0.17676786163922467	-0.24034743954850646	-0.5330680373578973
Si	6.199189523618987	2.7876051094771004	7.826528971752296	14	0.38512920834189696	-0.2269612368096875	0.6908899381140148
Si	7.852816865354417	2.1288529299207886	9.537640951123795	14	-1.0420368474395147	1.7586620071450194	-1.3538473880299409
Si	1.0681247617789436	0.7326337103542616	5.595067740610555	14	-0.16893293239713744	1.2541046995717122	0.1371630695087277
Si	8.527428407844328	3.7809032201600203	1.8458943523141849	14	0.9979467620780192	0.2708232651292857	-0.5810386919790921
Si	5.132014324536698	6.862128663837741	8.794527622517332	14	-1.3437192899528136	0.07931834201603623	-0.6516175899014129
Si	7.6353947728116545	7.878393975183602	1.6383788086066962	14	-0.14392636205337722	-0.18626218225493552	-1.025533436610548
Si	1.6679429711621867	8.295979441782563	0.803260073592101	14	-0.9327399316116158	0.5186608486964475	0.6233629422067096
Si	3.5009654735883875	2.4525594085101474	0.7537073386221215	14	-0.15305738548735112	-2.434735436630617	1.0918782382916492
Si	5.002640571866185	9.148298033502526	4.609454979472489	14	-0.1852481383166691	-0.7359300468913048	-0.7442072062484575
Si	8.879588449343967	1.5108264393543278	1.3361180091663427	14	0.028235364404802177	-0.9415071436427888	0.5058264051593323
Si	8.162363198467348	1.4996427009270632	5.0825482163390445	14	-0.27419064176708363	0.009982830626538947	-1.2408336823512358
Si	6.928731324560984	5.775995528811716	4.75664275045217	14	-0.025569899519404665	-0.8297039143488095	0.46927711459129934
Si	5.499123037260864	9.118578386996706	1.2484805911628216	14	1.3395371300390606	-0.21551776125077246	1.645309172674587
Si	1.4070742204988096	3.142297318167818	5.986220935653518	14	0.35101963961215243	-0.42683819306640314	0.7434297039996447
Si	1.644675908595037	9.286745385274404	3.0905211627081277	14	-1.4395117321971664	-1.480877217250901	-0.6359477314172384
Si	0.020965900102274383	6.594152075445019	0.009514507160514071	14	1.1519474861073327	-1.1484890923412014	-0.034751830838717475
Si	3.164853596962033	4.56762979683388	5.427511572137723	14	1.0429249072170936	-0.738884246904155	-1.5692612766257792
Si	2.839136933014844	7.887078864409146	4.406292986374224	14	1.5514376032149169	0.1791227370019483	0.8240703654818331
Si	11.086505428326566	0.7483908981205011	1.6045277314206954	14	-0.08920424197200559	0.8409527572349894	-0.5785575753451492
Si	8.350321082422688	3.8920631386490894	4.255451342561801	14	0.9452360176885994	-0.2397077485448536	0.5207745543801413
Si	7.92788229537416	0.21602384758944232	10.678126832786397	14	1.031628241771959	-0.7975653549574906	-0.017739084045829658
Si	3.9672951586156144	0.48837397738500027	10.454463170237554	14	0.4561680770059923	1.404825464544113	-1.166639296127723
Si	9.070467210366209	7.49061700306208	10.825736631631258	14	-1.6313658114128922	0.9678036375256671	-0.018552324658592495
Si	5.924671503315979	10.226879090941122	10.49373397369218	14	-0.6872276556959959	0.27150152271274075	-1.0256280532863296
Si	7.204604276431148	4.021670117245097	10.934941894744757	14	-0.16496057467750866	-1.1703308891463913	0.7668092788968153
Si	0.3989762589438213	5.687647327035261	3.4040101245615544	14	-0.2723433025945572	0.9548357536224362	0.33103906594821775
Si	7.123286170408872	4.827354629862691	6.954530554319212	14	-0.5011572778979434	-0.13086129036904476	-0.8627966109244355
Si	4.763917178128295	5.373802973295367	6.9408479666902245	14	0.10368984934571986	0.4716412459331755	0.43887122307522813
Si	0.39377421020565767	10.216972542105848	0.027912700883062934	14	0.9754814722326933	-0.8809118476786028	-1.445717609108408
Si	8.11038713507152	0.06597406132405485	3.0069152214167194	14	-1.0319807403113515	0.2169372684980262	1.6655975076453435
Si	2.451848624737213	7.5166161407564465	8.71930670854726	14	-0.2071971502137092	-0.8554558481248808	-1.1292333132670165
Si	2.0031108380901124	3.440482216910251	8.301610181983778	14	-0.7976154915112335	0.6084690433081559	0.46446529098464223
H	8.07976790285308	6.699858949676107	2.5240153896829587	1	-0.6347984473391323	-0.7309405599070254	-0.4428286683840001
H	4.04765814894301	7.6598168590098235	10.180367177799727	1	0.3603314117501327	-0.11646927122898387	0.04171489826674251
H	5.5255886268062175	4.139815707502536	3.580717634110918	1	0.35026913396920123	-0.7602910126891759	0.2881689700611327
H	10.705936247902455	4.826321772192645	8.30240981372833	1	-0.07859663275267065	0.4690020063220434	-0.09808201153194487
H	10.216994754098753	3.648586378429701	7.653353169074701	1	-0.4658318334623009	-0.17655471700818443	0.22857331984542034
H	5.447246927833104	5.775418016996207	2.2439665831468054	1	1.6526062266836996	0.27173137952836196	0.966673122516398
H	1.7921302234895689	8.692596787079959	9.52697919452978	1	0.36750993780398616	-0.3463278866239462	-0.1916833578224677
H	4.832952052074549	1.308508501986422	9.276083628680388	1	-0.8302186496339032	-0.48028890156696147	0.622204916370515
