72
config_type=amorph dft_energy=-6958.346384442616 dft_virial="-7.264692030755578 0.14463981709433718 -0.7496115738106518 0.14463981709433715 3.7040370551549824 -10.385138867373408 -0.7496115738106516 -10.385138867373408 11.645391882404068" pbc="T T T" Lattice="11.105996452100001 0.0 0.0 0.0 11.105996452100001 0.0 0.0 0.0 11.105996452100001" Properties=species:S:1:pos:R:3:Z:I:1:dft_force:R:3
Si	10.129657197999439	7.728229797154758	6.133386494640296	14	0.6562062415662813	1.3493962904997006	-0.0814641865162318
Si	0.2929961772000118	4.764361417986379	1.1249596986225654	14	-0.596734261516468	0.8716167877252036	0.5271994894646593
Si	10.94594793722879	4.790727053563665	7.596968025087389	14	-0.5967602296802015	-0.3868240809689386	-1.0931491356513983
Si	5.218174645012089	4.373996748691517	1.5112040432336993	14	0.7986660451450459	-0.6645484498880337	-0.011067579961109422
Si	1.6180770470922574	2.888325391301195	0.6092116611824291	14	-0.3284167956321986	-0.10353532591597897	0.3606754256419686
Si	3.3546772883213265	7.997983344979815	0.517570531457926	14	0.1533350648619271	0.5910423485587242	-0.6602621602088148
Si	1.338583540378709	0.5746198140330732	3.3454815232589876	14	-0.6581232576929836	-0.22288114977714452	-1.213384047732271
Si	4.317134046856764	2.8213562326950323	4.717205357050763	14	0.7794660590563082	-1.1216943182472785	0.02061306557269118
Si	10.222414480367377	2.6354862760726863	8.131710648259553	14	-0.5040253458825686	-0.679085993589215	1.6543234679270262
Si	2.3245072694174342	10.519499885461052	6.721182462864139	14	-1.292766410270779	1.398211553218564	0.8826257464850136
Si	4.1183256043677225	6.455182741839892	1.9999789470906202	14	-0.5156516270297461	-1.4525410655175488	-0.06868964973307608
Si	1.456318208767421	8.421965865535185	6.268191079575884	14	-0.48405762774523453	-0.5368362493151063	0.8943278752391356
Si	9.30862419828504	9.452824456219107	9.762770605204315	14	1.6989743113588458	0.5612548078721487	-1.8554777493067915
Si	4.566641363149643	10.427042464997319	6.376607816941284	14	0.7081806213920107	1.269206858001198	2.2108986070059737
Si	5.300036944860519	9.206537878897338	8.357651040081073	14	-0.6546669208111086	1.364009424697294	0.8951498576099869
Si	9.235446787662154	9.660662073823707	7.281102379993213	14	-0.15527187849959465	0.22038177829542857	0.37124678227628943
Si	1.6664547676376051	5.380977447003424	9.054730013393584	14	-0.5444302659886957	1.4997082497261973	-1.0616548952533085
Si	1.0106945435254893	1.976278750661839	9.674466827413667	14	0.1369581524147119	0.9023738922280068	-1.4482434629749215
Si	7.439607161357585	6.518220377702012	10.894071827801028	14	-2.535845953119164	-3.3357749251974673	0.4607945239190668
Si	9.915866766296514	0.9676310422824715	6.478438698410589	14	-0.44770091296568065	-1.256024801024799	-0.624062797074854
Si	10.416447344382016	7.996062007593602	3.7407550429856786	14	-0.49441583974851516	-0.6989665512561959	0.6091467866705469
Si	0.03285375870460222	3.962541792134116	5.00811582811707	14	1.5014468311436815	1.3864019522620596	1.705244980124155
Si	8.136053092872322	8.511569044910729	3.3416055304972048	14	-0.3549477743202747	0.29556372607241055	0.11659139873169092
Si	5.89474084287757	1.349023177043683	6.125223587248001	14	-0.6130993468792105	-0.1800740459704031	-1.4745260728890712
Si	5.1760607064657265	10.756279729819825	2.9284513564826327	14	1.7051683611856145	-0.6600862966049167	-1.1655229221977146
Si	2.385734627857862	6.132631286881551	3.657082465715557	14	1.6366728299042095	0.3823629561279496	-0.6995949293964402
Si	7.019900449436273	8.50639365056405	7.225272535828506	14	3.3476665444136837	0.5386542778869831	1.1265182260489401
Si	3.5895802192796937	1.1699611962464747	2.9766402750882945	14	-0.6410184653296346	1.489074929453661	1.3367716491567092
Si	2.14763316992129	0.016905547799386623	9.146876465956657	14	-0.47200042934640013	0.37575213012878483	-1.750417757935965
Si	8.936850967050994	6.113240217076185	7.464884409282564	14	0.9489453513339772	1.0431403658429221	1.0657570937916048
Si	6.6212173887987875	7.947784241016324	5.189465644183411	14	0.08741860932716275	0.2282496176856137	-2.623980101056924
Si	4.7971130015236225	3.3639841133481863	8.831899300578648	14	-1.381094933770742	0.45217797865965453	1.1503852825148106
Si	6.63207905332894	2.6384626831218494	7.829905194673734	14	0.7318232203634323	0.6811169096816	-0.2155365303196095
Si	8.140306689513476	2.317466067666803	9.549413307363022	14	0.8115825069418738	0.6355960042094422	-0.37050553261249075
Si	1.0561080736177715	1.1166079892905862	5.478843487739329	14	0.24600567102655632	-0.37023042434323483	2.2809311450477625
Si	9.233170058389474	3.9960930074159102	1.7657201639264748	14	1.0160969658645407	-0.7928769444062006	1.3897302480989915
Si	5.51851410706623	5.652463530275008	9.533498414447163	14	1.2129914399498845	-0.24433908055803635	-0.18325038948291403
Si	6.841726948355233	7.7663011529925585	1.5319833625955785	14	0.827229225478167	2.3858332705519327	-0.45271045457145725
Si	1.075562447602915	8.58048175289601	0.8118050272623468	14	1.0224671364057394	-0.525146204755989	1.6545360983370025
Si	3.9684279702537286	2.3007404370099405	1.0776581491334263	14	-0.9495624166108125	1.2228719405846815	-1.033207671770126
Si	4.81677061524384	9.276139158662648	4.545062412043213	14	0.6091583566444876	-1.5146363443255093	-0.5038538531577147
Si	9.086804131147248	0.3555940156026282	1.2048673430954249	14	1.4714050081409433	0.12000479815471951	0.5442178926892514
Si	7.958012863748708	1.1047845454676806	4.84702334957936	14	0.44364422299155104	0.7956118291352421	0.09771665746595184
Si	5.69176765171899	5.985210289976376	5.749052381418922	14	-0.9394060363751637	-1.7752996296716976	-0.8995631598920208
Si	5.156625212674552	9.491750973783718	0.980743892293466	14	-0.10090097140495523	-1.2962260895895703	0.6739262994327417
Si	2.281937985016535	3.1906750387131657	5.938609528863365	14	-0.8843627852393057	-0.3305289586527003	-0.9530640049463223
Si	1.188652588275359	9.311744983288081	3.165930878617887	14	-0.6617294900150232	0.14693018439890623	-1.1074678782898348
Si	0.17610667514130451	6.69992558565482	10.825792161613519	14	0.20027110670229434	-1.0276471422942417	-0.28871121617315193
Si	5.986387525600299	4.434857609249025	3.8577456096121003	14	-0.4008805708647201	-0.8468912391929354	-0.20585374768393186
Si	2.8060632755804904	8.241426787209848	4.409058379490796	14	-0.561504205088203	-0.16268000425853732	-0.254959031082908
Si	10.917216724407206	2.057696810652184	2.0057651712421647	14	-0.21185804993807364	-0.7629467073743568	-0.3881937087729814
Si	8.19452616419263	3.432408157489574	3.8848109229658676	14	-1.1969256312464072	-0.8025993220638085	-0.8142119763527893
Si	7.984023107439526	0.11252706665232241	10.296291568766746	14	-0.28938638843022274	0.6170143689502	0.25209122020881486
Si	4.140037827431578	1.3334747820107429	9.99438616121286	14	1.3822221063430953	0.644640638504659	0.7451888542596901
Si	9.1338824501077	7.161235360285698	9.82996188373952	14	2.5991038857528954	0.2471076467667718	-2.295098192472311
Si	5.736535923417406	10.618887447710895	10.263051321385612	14	0.2871024755743352	0.9148702354155226	-1.2968380126557655
Si	7.531975733849699	3.8779807351478266	0.3539392221312654	14	-1.501143954936968	0.7416731248449195	-1.0641185283710743
Si	0.21334063884661497	5.730416519372298	3.4221128987784777	14	-1.121614613982354	-0.44517197377278306	-1.0010914809950924
Si	6.91622597255592	5.017744727041041	7.539161313554208	14	-1.1750514385141833	-0.029781112923275194	-0.10420175641496134
Si	4.154586682783829	7.538339469816753	9.405068671475078	14	-0.7294002107097247	-0.3673610708059496	-0.23684996498150898
Si	0.6864971798929478	9.71197177743241	10.073760717856018	14	-1.7926116531238507	-1.7491556023343042	-1.480812682507365
Si	7.608751487323067	10.85827720123591	2.868912109502925	14	0.00564871838836533	-0.12750471237359146	1.6676345943904969
Si	2.808428852824788	7.05394032856196	7.5663043688831415	14	-0.6328672901331691	-0.9994670566538228	1.1773433217965634
Si	2.5136534949931497	3.3556768280020153	8.245180614010657	14	-0.0348562177147155	-0.05280021885456095	0.5693555894043393
H	3.55434089253718	10.804990630258734	9.692869463534796	1	0.05404360538738456	-0.7473853495346925	0.3518357084407675
H	8.72369357714584	4.359192455420867	4.8539423853690185	1	0.6975547573249027	0.7357266724604811	1.1665158830723559
H	5.878204014160393	6.898800664122574	2.1400033503586973	1	-1.5306689857703568	-1.355793200536229	1.2870117623432236
H	4.143813866225291	5.622188583946583	5.38275440643576	1	1.0563882431155172	0.6619408348723395	0.846052287526971
H	10.184098792607632	10.343103343812349	1.2897504739788253	1	-0.6253362655399233	0.11974588784898059	0.003120550527063723
H	10.650717233542615	2.6229587120747175	4.546828265479097	1	-0.4053481234690095	-0.1012233880121018	-0.12812460586627916
H	0.8133154427798325	8.203488703329475	9.150108310924217	1	0.09376975368899254	1.280560859094972	0.7082500412356547
H	3.015100340801917	5.174905682834708	4.589875107727437	1	0.08883040325845606	-0.44325984274618885	0.30599264347199523
