72
config_type=amorph dft_energy=-6959.550845729132 dft_virial="2.6324446711169367 -4.1115440180990275 0.46033193962197744 -4.1115440180990275 -3.9430071877456268 -1.7067498417131783 0.4603319396219774 -1.7067498417131783 -15.031221339951509" pbc="T T T" Lattice="11.105996452100001 0.0 0.0 0.0 11.105996452100001 0.0 0.0 0.0 11.105996452100001" Properties=species:S:1:pos:R:3:Z:I:1:dft_force:R:3
Si	10.514080159192426	8.101757775828238	6.445887022809485	14	1.362676049478265	-0.9873733485594424	-0.8421372654559817
Si	10.92713437923893	4.627224573795849	1.6556708450826159	14	0.1414359894402818	0.805679506237346	-0.28273879562497994
Si	10.109155528548861	5.770420318592762	7.464828879300303	14	0.7626510302625398	0.6649120041803026	-1.6596338288552603
Si	5.177793241912254	4.19758910104636	0.8868193696984112	14	-0.9667631112026034	0.1701611494085722	0.2791850138514712
Si	1.176880232036133	2.899453599746199	0.7486141286491883	14	-0.6264351559537545	-0.13741915159861445	-0.6122066591120552
Si	3.999680244269938	8.018429484448133	0.6455715829669593	14	-0.3825635023429212	-1.607262984589164	-0.05322830789036561
Si	1.1218722316088816	0.3145873449025394	3.2963708069478015	14	0.7610425467742551	-0.36274490831415573	-0.5384236497397658
Si	4.792404059027932	2.5316785272349076	4.5924183809149675	14	-0.5570698197425437	0.21320633756795931	-0.5847763077829913
Si	9.963833564973132	2.1647030864681676	8.382839440034438	14	-0.6934142493173362	0.9543662697909773	0.11809009602280522
Si	2.641838906043288	0.0837281072523819	6.887372593773363	14	-2.372093540831593	-1.0683230569011124	0.10570328192192782
Si	4.225020912283047	6.04133999604529	2.0458911364236014	14	0.7513813614232667	0.5824396872680407	0.7204689621591264
Si	1.8191733248504323	8.482926680060762	6.678868616381638	14	0.36396052690952174	0.6080972614788624	-0.38320705000455424
Si	9.626255696815102	9.742302253743095	9.708584448514518	14	-0.21933868086704447	0.6580625796074281	0.7436217655670598
Si	4.725046190545945	10.387338527681061	6.748170034242742	14	1.3696751123807724	1.4118677220159985	1.3947122788778423
Si	5.577053814365249	9.149886190995176	8.68847646239623	14	-0.5381585687812585	-0.5403355236558278	-0.4873566129815165
Si	9.242099279536962	9.718557633328505	7.436852874237464	14	0.03650995265663473	-1.889799434225448	1.03393298058094
Si	0.7104006160568026	5.505953225078905	8.966104161705825	14	0.7140471124009925	-0.743954466595487	0.5822581672324383
Si	0.8954143003526913	2.9935324956919387	9.407134386815168	14	-0.7639630653074113	1.1161253041238375	0.798145396317716
Si	6.533802090724308	5.668611649116362	10.186164507947723	14	-0.12223626046207602	1.6589463152926525	-1.4799169094138256
Si	9.745434144742585	0.5436662913214253	6.664930590834253	14	0.7385769998183973	1.639259876077343	0.5727239944842651
Si	10.404275172270514	8.111608794681251	3.9247480862076194	14	2.9807482179438636	-0.4048290173048715	1.2984225848645727
Si	10.404841578089572	4.47671610987699	5.497879165658229	14	1.1708962752062921	-0.15794582803254867	-0.2997116902854054
Si	8.442145461088652	8.667785991005967	3.1292255603436963	14	-0.9534756389080782	0.8100552703817059	0.8741500977971454
Si	5.986265359639327	1.4810068388804394	6.344989045042157	14	-1.2092520243722609	-1.0955253511882792	0.5186071125952564
Si	5.357710384436274	10.631137361797562	2.724678533579502	14	-0.6899370864823678	0.014822422170653675	0.7151619436678087
Si	2.745446746944929	5.862644513131001	3.8525480032725175	14	-0.982753072299136	0.7492548002129722	0.489325822546218
Si	7.4159958129004195	8.368357220660899	7.4150629091984435	14	-0.9014580645129702	0.23877083776619165	-1.0150068172087978
Si	3.460139830630468	1.0468556679735268	2.7081972348445853	14	0.7992314312049466	0.5515517135044419	0.8442735968664928
Si	2.388433384995722	10.991304826739166	9.202084374320046	14	0.016028013455271113	2.0915993201511025	-0.6213903902050921
Si	8.236318028841882	6.462645971455704	8.422088031496159	14	-1.4064087512002599	0.05683402599134127	0.9779692737404686
Si	6.8845627766709825	8.239361071869757	4.875887834358368	14	0.7464438107664543	-0.44307575160526635	0.9716268711367275
Si	4.362068908501961	5.6743423432856455	6.7974140225113535	14	-0.3088815374097136	-0.13254639279586983	-0.12618547823382348
Si	5.672843033764612	2.436722257569453	8.616920527255349	14	0.86832397314169	0.4967910268432679	-2.157549457165561
Si	7.80460573475585	2.354704473770694	9.437798043019416	14	0.7927697293143504	-0.35754433358309223	0.7622481380588726
Si	0.6433237292850542	0.7360054908771192	5.6510086447397825	14	1.9877742306655426	-0.498979037470714	-1.1936287028943813
Si	8.782833008253272	3.597198932845834	1.9097871499031163	14	0.556536572499145	-0.8555800325118439	0.29609208821570093
Si	4.560210991203877	6.85673114956202	9.717391503701034	14	-0.6398810083360009	1.4453453130580505	-0.452464656902851
Si	7.756494558125353	7.616503472846633	1.2686490807198352	14	-0.7685193210452457	-0.8880646626792547	-1.2728603986611284
Si	1.623352395407005	8.118649996431882	0.6946989582728237	14	0.24645561445758224	2.6939136515438884	0.482693913483428
Si	3.507295891566085	2.6226033201882504	0.9125286408853774	14	-0.040576669941512954	-1.1530283787839228	0.031756750251276986
Si	4.9917122713573185	9.503212362122285	4.780820504728392	14	0.8426322032301101	0.10428891688531437	-1.9221164283259855
Si	8.862129822921265	1.1427292929459254	1.521488195948344	14	-0.4171839496997791	0.5684384761366423	-0.07573602097347391
Si	8.090407447454192	1.0722484182616083	5.3179064931519475	14	-0.4925060227167092	1.485198988183538	-0.4868403350332309
Si	5.989852596493354	6.362758639365516	3.903091393126024	14	-0.6701470317226561	-1.1898129254887497	-0.9190153714126653
Si	5.993206607421889	9.143666832982	1.0278932896312114	14	-0.9283024609395722	1.0629625594191356	-0.3335024419554516
Si	1.1661407334669522	2.85270846067931	6.278697352219571	14	-0.02631963383075984	2.3180378512492035	-0.25617130724135784
Si	1.4775417679873841	9.090047082111262	2.972842024301676	14	-0.75685627309199	-0.6616785821296844	0.6888135134574632
Si	0.16160668617344273	6.499040321829235	0.03732059047763684	14	-0.6790160595245069	-1.486664518216022	-0.585222908777101
Si	3.1880095995646616	4.128931830979478	5.480153995320677	14	0.1554081470815625	-0.9058235442360496	-0.5465773960415513
Si	3.1552246980380625	8.285328791184998	4.596361009655463	14	-2.9383442634513215	-1.9176938700647987	-0.46327435500034964
Si	0.011576890701669042	0.8604748355143848	1.2136632922854882	14	1.44328688613874	-0.34762758036328106	-0.0505700420998645
Si	8.743018010972492	3.215707954716199	4.343144290547583	14	-0.1016746169957878	0.13684399533849734	-0.11687653431169534
Si	7.957290973979321	0.3285442506438935	10.583492637018052	14	1.0800917772830263	-0.253675278196558	0.025322559187606414
Si	4.1670031868172765	1.3778543438333344	9.98406869050886	14	-1.2568192725687246	-1.2523350077798543	0.9976713966982312
Si	9.237179323108682	7.497424978887216	10.382651797178275	14	-0.23168152906694736	0.1920651669625097	0.722200344481714
Si	5.785468943785357	10.819661651571959	10.409017432755562	14	0.12840871300415552	-1.3363651574055941	0.24776327862340958
Si	7.291331002725598	3.873516124574082	0.0939667253815729	14	1.0671300640325638	-1.263959489153308	0.6940374852469401
Si	0.20980560017591154	5.904503013758966	3.667266664462133	14	0.397596755149827	-0.8926258035171974	0.4234348209541231
Si	6.645061963181445	4.140326583339332	4.472762375140042	14	-1.0369810259379753	-0.046030755657143076	0.46089531124761657
Si	6.336692865692437	4.877709217776512	7.7083500635055	14	-0.018604775207123513	-0.7440719661086177	1.4449473059544915
Si	0.6920024223342538	10.30154470508859	10.524753021782894	14	-0.8528420624564181	-0.6831794503694227	1.9239288004661577
Si	8.199390590638648	10.96531679504125	3.3852298845610536	14	0.1281881121676868	0.2860357239770058	-0.8847345670685989
Si	2.6054889796555645	6.617041534132798	7.967564020697514	14	0.3740917103130333	0.6078946583796347	0.8996912009369643
Si	4.237737278220702	3.9339660632628624	9.726431784813043	14	-0.49723377117939743	1.2978795674209573	-0.1285948610293342
H	5.159557195737905	6.69622728883627	5.902337344450806	1	-0.46932159471333784	-0.1538248604254153	-0.1400869304788001
H	9.55665441704979	3.497356024741455	7.737792060100016	1	0.3042892861973971	0.01447018074179339	-0.41718163570499095
H	1.7458515362736682	2.5705161968279016	8.171014769703534	1	0.0328422709174435	-0.35569750863162986	-1.0354913275154816
H	3.284343012790177	9.8922665238358	9.168166661155333	1	1.044288364368368	-1.6636612082287403	0.29869507524181893
H	6.794904067313179	6.413313135215475	1.9786887518919445	1	0.7677173932958915	0.5762818900262862	-0.024758201569833913
H	6.569752201239756	0.4285526380954088	3.4509107475787726	1	-0.1475246239489245	-0.27026482105374944	-0.5388897911343086
H	6.502705300658428	3.998336418699234	6.281540487311308	1	0.387492054131113	0.17181231324517127	-0.7704440504879086
H	2.4425751176997093	3.6577155075133274	9.30830212438793	1	1.3439092946359725	0.29505181900316907	0.3199360047336902
