72
config_type=amorph dft_energy=-6954.513297948677 dft_virial="17.105230543330308 -0.11822732875537123 5.446003547986781 -0.11822732875537124 31.72391397017796 -6.313842450552804 5.446003547986782 -6.313842450552804 -4.0662654666608" pbc="T T T" Lattice="11.105996452100001 0.0 0.0 0.0 11.105996452100001 0.0 0.0 0.0 11.105996452100001" Properties=species:S:1:pos:R:3:Z:I:1:dft_force:R:3
Si	10.828191056847173	7.994385002129335	6.256940705169907	14	-1.0501139748027597	-1.6132184358422228	-0.6086806452760041
Si	0.06909040392851411	5.049430134918882	0.9114824560195895	14	-0.2278762931931282	1.3019228876474223	0.9248024152672546
Si	10.354198234267995	6.020738372626645	7.477334231305369	14	0.8075281309625324	1.4878192016153007	0.5420687057521397
Si	5.280468179111919	4.356371532322034	1.4415472334861281	14	0.37760178329609945	1.127866770789358	-0.6644378923592673
Si	1.3092192857593565	3.1482390262696915	0.7977281767593102	14	1.6042126252373403	-0.7341701252996634	-1.3001393118868356
Si	3.9104546687737667	8.14238351085002	0.6611510747899652	14	-0.02416016247236747	-0.4427340517082186	-0.739805473940364
Si	1.7133442846583713	0.2120023662741369	3.317971970047136	14	0.37976896797045223	2.3486484027487586	-0.17557949676025225
Si	4.570661733865303	2.496905652343383	4.747957861226627	14	-0.3579407980234591	-0.22989923885902072	-0.67820101913802
Si	8.507171070315696	3.0417991562727655	7.3449951775821445	14	-0.38627669264627906	-0.27881940267494615	-0.8770557039194447
Si	2.6212594946175467	10.404819366096667	7.257957483387036	14	-1.1544995652481118	0.08624824218543135	-0.7326310616550228
Si	3.8246608461812945	6.0704488127462435	1.716664977597549	14	-1.7744197974311429	-1.3874887584808864	-0.27451125860050607
Si	1.8362543473937623	8.270058046063362	6.57733759681654	14	3.3086801031126822	-0.1371892947829932	0.1736221142800235
Si	10.036611159723744	10.26833777569681	9.703020344292016	14	-1.3076065730681417	0.14913850675838142	-0.2680025054825512
Si	4.805320332901724	10.448021692295336	6.658378052927514	14	-0.22160048221717876	-1.7012222287402512	0.35619373195841847
Si	5.847573675945501	9.257236752701175	8.456116804625394	14	-0.21984313173085754	-0.3727951019000826	0.604547336363334
Si	9.585452265850085	9.431012279187183	7.379401554590751	14	0.32014092182770604	2.2963634334003555	0.8117758540619491
Si	1.10753216898993	5.992995593489299	8.897991085465096	14	0.15233259089760137	0.08861083086411542	-0.48933636407803055
Si	9.909813998230119	1.8999583430430078	8.699660200823494	14	1.2855092083941289	-1.1756785311017677	-0.3857809835405545
Si	6.277464586613387	5.591536033738787	10.479162906347025	14	-1.112085069223757	0.015417118831203926	-2.8296194185571557
Si	10.01056759804357	0.13633832304562482	5.623654575478261	14	0.356133825204459	-0.5184921841874458	1.127297528071477
Si	10.597930432405782	8.082710991912887	3.9317781819617985	14	0.4633144642433439	-0.12351615669044573	-0.22089959890690639
Si	9.443595373167414	4.724824070616903	4.219467914056997	14	-0.13495680403350863	0.1422137487996266	0.27075770194362186
Si	8.563956030175284	9.095411278397625	3.5053967661727756	14	-0.34589928336707754	-0.755832973174571	-0.8696663472293391
Si	5.784491616097573	1.2835977519443618	6.360182048188628	14	0.2971943210664485	2.080769567432107	0.1725869872781319
Si	5.533540520265921	10.778813796621135	2.8980986681790433	14	0.39350869769079155	-1.291446661909947	1.6616819713532902
Si	2.515352712450321	5.8684751612683534	3.707936823469723	14	-0.3230341866444687	-0.9774080014490805	0.341687555742143
Si	7.622100895058492	8.399487328716136	7.126429167404816	14	-1.4584330104692003	-0.09229908144586783	0.2715660574562765
Si	3.804203600716526	1.0484293876707895	2.853896802299685	14	-0.18118399213711103	1.173205127783785	0.6864907769112415
Si	2.2408902221295737	0.38568238119065756	9.259035924126415	14	1.0983430255086295	1.7399957825207444	-0.5619664898247657
Si	8.575917188354195	6.91871371576119	8.635611919284234	14	-0.7112129830065933	-0.609201294103334	0.19508313038729952
Si	6.9378604536446105	8.150568630235218	4.865392667711133	14	1.0779299919298457	-1.6490992390270172	0.7721443224361225
Si	2.7671811820016883	3.887576316082441	7.84765257700419	14	-0.32552584481022423	0.9333788512836726	-0.7556733075341898
Si	4.713484848239309	2.8067407413640684	8.187062934576819	14	1.9420440372203251	-1.7493996002291863	0.19888116716622228
Si	8.887917946683041	2.7222130023671354	10.49124623048691	14	-0.10554361628154663	3.7127879253752525	1.1010871662168236
Si	1.3266557001891537	0.5429688347442334	5.550255044926332	14	-0.7197706499541742	-0.09943081338289457	0.8638420223476078
Si	8.993025097105717	4.358181809743726	1.1627200865597054	14	-0.14039854844360206	-0.7167627138401329	-0.2907902119350236
Si	4.607178250199809	7.3340446650803734	9.619958596826761	14	0.6692062642860139	-0.13776753636949451	-0.6258458586143767
Si	7.87742775349227	8.112619440358392	1.2807546168526243	14	0.2587113021871321	0.8000770677447433	0.8493738984900704
Si	1.656092872947796	8.732878236211725	0.6635544124221996	14	1.1841747486321967	-0.727946250651181	2.7361813374544623
Si	4.088261671971888	2.402293668567943	1.0135709966065831	14	-1.9002864586052683	0.3279650524274486	-0.7936274500491517
Si	4.968878342651801	9.149652965069683	4.714517705909355	14	-0.5918933844196933	1.137036103692602	-0.68202168164376
Si	9.06586932783504	0.9928149998372536	1.8816334488970425	14	1.6762385412338405	0.11552207602904133	-1.5407916845263117
Si	8.179433115014225	1.6036392517045275	5.391772475554865	14	-0.6540742810348145	-0.16071619401500822	0.5071739214576219
Si	6.228320552312846	3.2195062055028174	3.1730942463294918	14	0.10776119462017433	0.1949802861744936	0.6420659336370629
Si	5.823062741775717	9.357090766802006	1.2018131940710974	14	0.17881754680044673	-1.0389101262596825	-0.34068842421473344
Si	0.9393007559328097	2.6395954947599636	6.51282286342629	14	0.5837429805548238	1.0038528481089315	-0.3309007404819937
Si	1.4519424461652934	9.207359722634793	3.243828337732916	14	-0.730515813308137	-2.8112941224983325	-1.7412386548325043
Si	0.44853787871096273	7.108515195127579	10.821827320880118	14	-0.7790130302988981	-1.2495880388558083	0.08719080939579764
Si	2.7526656446387934	3.974869448195947	5.348625679338457	14	0.19908068493906575	-0.13582789451597482	-0.08642744822624567
Si	2.9594148745910873	7.972173009225135	4.43165908227082	14	0.004295545658371396	0.6294536335996084	1.2652072465651756
Si	0.5434897059778369	1.1006997599725983	1.5260860784795134	14	-1.6226615914620628	-0.552404549139135	-0.33411822167962707
Si	8.503683787429738	2.787460731523223	3.2875415397683816	14	0.4754889050447771	1.304260279493969	-0.23681731194394318
Si	8.192638144795772	0.7465450815101621	10.668742265784372	14	-0.7796930876560773	-4.039412403488775	0.670542467720895
Si	4.329361748950527	1.2577540982003252	10.084478004432295	14	0.3855765806676027	-0.20857526266530857	-0.4731643687248312
Si	9.421116836348363	8.05612323640656	10.509493382657709	14	-0.4298484431752325	0.3277539646806645	0.1502829057363793
Si	6.038863358836472	10.620942057054533	10.47818557865924	14	0.24189190251431938	1.5149939850755416	-1.9743273498411686
Si	7.255380892210149	5.891786647821311	1.286596370986429	14	1.0295744428422249	-0.032383585728329084	1.1656653614324508
Si	0.11738038710189012	5.813133980947539	3.2202503072651076	14	0.33076781433694213	0.44561060434040023	-0.38291985754029373
Si	10.196792946552383	4.149899952281043	6.350186651381738	14	0.37813760164481824	-0.9139032427046149	-1.2865811022020988
Si	6.79348249976731	3.9377309960601243	8.553893997389682	14	-1.3748905995226928	1.6350360642574036	0.3704129728209654
Si	0.997889329616218	10.537924733575085	10.771372778998229	14	-1.5512542834055902	1.6352512657726999	0.8127256203672117
Si	7.7279077232576485	0.19661945058833322	3.509306076923915	14	-0.486147679259983	-1.1451710809255504	0.4985416924557568
Si	3.250658525550958	6.473263304063911	7.659650269063041	14	-0.683965437265792	-0.2455899232962884	1.2249679056416662
Si	1.0270192477104312	2.5671510799029154	9.225351436887195	14	1.0353815413183112	-0.390286588503582	0.3534786447403421
H	10.019674515134293	0.5670532986502576	7.23280240142303	1	0.19836077544942426	0.2270586817013211	-0.0008950017619435463
H	6.018228417428469	2.135094499926869	2.1468002201873824	1	0.06773962631728137	-0.8200486425400575	-0.2725011684612143
H	2.892745577889131	4.940302613780548	0.8398199033127691	1	0.3661747628112333	1.3727473261278174	0.42835488809475847
H	7.3458170213196	3.256244841766364	9.777275036570757	1	0.3164297884086043	-0.8009854392543516	1.031642125740688
H	6.026613444749805	4.903763885453139	5.21579796177134	1	-2.283206316145562	-3.6345268218668614	-0.828878846651574
H	6.593441291672084	5.385730813484923	5.390906207831601	1	4.812042407719875	0.39882034417168544	0.608002387692549
H	0.7961633418592092	4.471629563501928	9.271530170135026	1	0.028872998524198897	0.4705336137612557	0.2627957600987193
H	5.942518839614504	5.793198717316019	5.365417945974031	1	-2.2428787863095714	3.476102254023701	-0.08619939118434852
