72
config_type=amorph dft_energy=-6961.85781087489 dft_virial="-1.5696564498585461 0.6615699460140986 8.948802596749642 0.6615699460140986 6.053490779782998 0.7433228861108979 8.948802596749642 0.7433228861108979 -6.7754321277147325" pbc="T T T" Lattice="11.105996452100001 0.0 0.0 0.0 11.105996452100001 0.0 0.0 0.0 11.105996452100001" Properties=species:S:1:pos:R:3:Z:I:1:dft_force:R:3
Si	10.823137828461467	7.962499686315357	6.585189536308175	14	0.36566748373156804	0.3273873250620114	-1.4431804423784858
Si	11.068669198024494	4.4585689116742575	1.5336381560669412	14	0.41632185808593347	2.9403911203966917	0.571921038292783
Si	10.263006897399803	5.815710572124426	7.153394526790515	14	-0.1690401474889876	-1.1144993371193759	0.09157685796143823
Si	4.771158287815065	3.8450070316815417	0.7627676105277446	14	2.364677444646158	3.3098460993753696	-0.48343927691573907
Si	1.4176027051354005	2.8878478334537547	0.7746776811229765	14	-0.5317925120085718	0.24835026196799936	-1.2251949342414354
Si	3.8204738855188527	7.565393677174069	0.8119816126059353	14	-0.2923382744482848	0.6073557547045317	-1.2423146390156414
Si	1.5439667327673943	11.020813459312395	3.0172993280994325	14	0.27952902774330707	1.8016601440770477	1.9507989079459611
Si	4.675702248309266	2.7588627906590655	4.781353592558093	14	0.10235261746871084	-0.21818656857308613	-0.12372415911084571
Si	9.948340699922452	2.1381930729370047	8.209597001378128	14	0.7096708340355684	-0.9630149538668916	0.5243211370587535
Si	2.4783475322719237	10.623574178213682	6.908307397085572	14	-1.0028848269558956	0.8557805787268155	-0.5729787910214919
Si	4.35656033426172	5.795142266695137	2.198276513742866	14	0.39644387152427263	-0.5996779199975055	0.8136525038351251
Si	2.061139669552335	8.43150591648754	6.451095735145519	14	-1.1913838708393598	-0.6595954725993004	1.3129274755281881
Si	9.605765133360977	9.898907909714156	9.87602955702283	14	0.07073290713099777	0.0008250676972355185	0.7077725869777031
Si	4.681877182336633	10.408151165032297	6.326719680878452	14	0.9930259236057879	0.7710042943371689	1.233611961728004
Si	5.575854366748422	9.281358976995135	8.339725961807384	14	0.21734401735967362	1.1416265551311944	0.07022794204612068
Si	9.38049110132658	9.478057280158279	7.616470154857277	14	0.48160685015406945	0.30378097867560383	-0.5811618479239272
Si	0.7414851895265854	5.805226511473644	9.003553581742306	14	-1.1248871168338381	-1.1723738894337812	0.968669071576429
Si	1.3980339393868002	3.4288875566142587	9.491106825989498	14	-0.6124840813760991	0.17938164730768721	0.432375325483874
Si	7.485974696545101	6.138439723026001	10.167684129851429	14	-0.3976440634877177	-0.2761685930898735	-1.1055824867585706
Si	9.740369810360429	0.23188209992339595	6.261782919623022	14	0.3676526341492544	1.2461180751157364	0.30379769086018477
Si	10.526641041179753	7.92137418145323	4.152398801482765	14	-0.10346899139871914	-0.6186040833696477	0.8186941842574035
Si	10.349022839921318	4.202720071407231	5.186811311031359	14	0.6292610578111294	1.7329645808017355	0.12146004376592331
Si	8.522719465348636	8.92773294396382	3.573532054406409	14	-0.9529148808377537	1.009437803085357	-0.21834083489229505
Si	5.8907204721619095	1.3937026007704811	6.310171746164823	14	-0.27870036049862335	-0.47180888200004917	-0.49488120981146194
Si	5.524788995061667	10.674695079882698	2.81293788738434	14	-1.629837289300064	-0.1047378318742122	-0.9619350896324294
Si	2.817580193901318	5.688458064776264	4.1644043836474856	14	0.7690425409778958	0.10404337632724023	-0.9093176763661307
Si	7.430411396295245	8.314881847744038	7.31657493266122	14	-0.35413453370751186	-1.057843231616189	-0.03223934671986878
Si	3.7116129082953684	1.1102320367274356	3.210832422273727	14	0.30619370390803075	0.038256761611143345	-1.0592681381846152
Si	2.2044625537666858	11.076232381608373	9.165856613893295	14	-0.12266872037692492	-0.012243603534545152	1.6803358546720282
Si	7.986033292797356	6.042106309800484	7.827495193443628	14	0.06519526049246284	0.32021445543986227	0.6573233868278856
Si	6.911006154223432	7.979203104979314	5.025785468472361	14	0.5853198394476706	0.4507723553811296	-0.08219669442194201
Si	3.8249496020890486	5.035492109371497	7.581552902011874	14	1.6900050104495092	0.7022300552390599	0.42387319441120835
Si	5.894918538820804	2.784351052516635	8.20446603101726	14	-0.16020608671949083	-0.02467952574703738	-0.22932562526209566
Si	7.85531571455614	2.5716490084660157	9.340220758191265	14	0.24139567918753083	-0.06514152439127173	1.2518986912070253
Si	0.8212806634352786	0.6221779120402559	5.365429051970484	14	0.49656888334360716	-1.9847133297819064	-0.37195563601305426
Si	8.86829365095218	3.8431523302740405	1.7411981237602383	14	0.35072010584235525	-1.5599361347401344	2.0147014166834536
Si	3.957932803606494	8.146148443647283	9.518038867385838	14	-0.6925814683041402	-1.6841786286835216	0.11406683041783752
Si	7.597789868824844	8.188040262264604	1.5060952848657334	14	1.0034442994735597	-1.0788751302455322	0.4561680770059923
Si	1.640577795904212	8.389591885877314	1.0149736839584835	14	-0.7310750287152692	-1.287467362205954	-0.0027040314651997346
Si	3.5206564052979608	2.1583393505011146	1.0185475936167692	14	-0.5081758812008836	-2.498405003226104	2.2027363760566314
Si	5.035980773215389	9.16154748726988	4.419386956191249	14	-0.25724525793358366	-0.3542844291476765	0.7990067165999656
Si	9.131683462810184	1.4902692399214907	1.4635704244506424	14	-1.3162136052378692	-0.5374936809454681	0.7207669532657315
Si	8.01942902412882	1.261974376852123	5.097408039591954	14	-0.6921736910003647	0.31679051448502105	0.9835989659494649
Si	6.6424076300293935	6.480537731740036	3.152181655010187	14	-1.2936652686907026	-1.1453587716139213	-1.229007626320683
Si	5.542947299260851	9.048488443387503	1.0514557717039867	14	-0.17896667090901533	1.8290262177731083	0.03359791877103502
Si	0.9742890871555056	2.7885713311684333	5.764445292501533	14	-0.5056675108505471	0.9919861686143201	1.4566365791820126
Si	1.2794774272606328	8.79424997260603	3.2786345306137976	14	0.42163941810906375	0.20062797612073086	-0.9813199381936856
Si	0.05923494267692057	6.654379894204758	0.1527307738089244	14	0.46746165712474275	-0.9174179436772574	-0.15310700782002995
Si	2.941178828416739	4.009286931201005	5.802050196488343	14	0.31249522593718165	-0.8241166453775958	-1.0539886305202228
Si	3.017965687886558	7.9704848977644165	4.484512519386364	14	0.7518264197541843	-0.26582246528159764	-0.36784238172188133
Si	0.2806451985456314	0.9901106897011671	1.3778654498297866	14	0.05427551908726192	-0.6391904094470091	0.065858091443997
Si	8.310728205070951	3.418869947814464	4.244456406074222	14	1.0264289525935555	0.5492040372366146	-0.6716794104934644
Si	8.112663864344201	0.5667767593386002	10.648695942188331	14	-0.15271105760072717	-0.2994527799796666	-0.6924017480422617
Si	4.095491675662204	1.1394863419819121	10.17679104694215	14	-0.4348957800292152	-0.31736104275556193	-1.0562913124449476
Si	9.109815755796	7.707572643753853	10.742141796336302	14	-0.6746845183916534	0.36857848917503977	1.0706805033691564
Si	5.901115684841074	10.69205375233733	10.432406661283684	14	0.2846362713512492	-0.4002169685815899	-0.7748211001849288
Si	7.237555767904529	4.134762479116831	0.25889410449419353	14	-0.933802569440433	-0.1919160428539411	-1.1835409711707803
Si	0.6220690732750253	5.780393503406748	3.6022521612315392	14	-2.7509014296333745	-1.3277974631472647	-0.11045956965366975
Si	6.3883801731805105	4.6075225360898235	4.708553785814577	14	-0.44875558036800534	-0.6953438638601073	-2.1616359719614042
Si	6.334827058288485	4.719881902195719	6.891415176481928	14	-1.2140857023741396	0.5497349704852251	1.7091749146060016
Si	0.5683615850323149	10.179689712016149	0.07638149059931776	14	0.07096044995183086	1.0568782957895375	-2.4054358917338057
Si	7.605986094206494	0.2714716454761968	3.1162537564876436	14	2.4534967921517374	-0.5251171512658713	-0.3908925980275409
Si	2.4944068031416604	6.848246168272615	8.10383459716478	14	1.6545373838896629	1.107974643148436	0.19937764760354287
Si	4.002478955375867	3.810978258552307	9.585285675903304	14	0.05544434356580123	-1.2744621972755807	-0.37145761291254153
H	2.9710872768622445	9.314021712560761	9.716902839857141	1	-0.35808118037393916	0.8088396517863399	-0.07467826824476498
H	6.64619477481956	5.3545895994332335	1.8313566029583859	1	0.5140099762828316	0.17903660497372334	0.37727653847310066
H	9.821599068411087	10.008413034731863	1.1589218357730873	1	-0.6953901437558699	-0.729664006115572	1.566233285890241
H	9.332724210586099	9.68585047377707	1.883343772350666	1	1.1370340468083457	0.7400520429405663	-1.521005743535112
H	0.632829673237465	2.47816983632869	7.5360960585334285	1	0.13864659727845316	0.4455581537918693	-0.5935877428256707
H	10.730047366199964	3.1766814831835193	9.647979025875408	1	0.42345847512306845	-0.22060726423200552	-0.9170808717697858
H	10.623918464103697	0.9471693544191225	9.053330657840618	1	-0.3294454948707899	0.549471689300442	-0.191097402920006
H	6.001136288888688	6.5043712001262435	9.879316931972651	1	0.42437970215927756	0.33258712846147886	0.33595450509927677
