72
config_type=amorph dft_energy=-6962.464957256835 dft_virial="-6.77165891509488 8.54758432150535 0.9910971814811972 8.54758432150535 12.649066439284772 -5.305136943512297 0.9910971814811972 -5.305136943512297 6.184295483937877" pbc="T T T" Lattice="11.105996452100001 0.0 0.0 0.0 11.105996452100001 0.0 0.0 0.0 11.105996452100001" Properties=species:S:1:pos:R:3:Z:I:1:dft_force:R:3
Si	10.732657275366208	7.961844432524682	6.491210594330505	14	0.008538383657679754	2.0610815855536053	-0.8669240062948691
Si	10.53974611699323	4.815970983499288	1.5154354278819493	14	1.887413191377819	-0.5061187398342332	-0.39521436896017775
Si	10.081146205496665	5.991063150106633	7.1480303305041515	14	-0.45856871804341454	-2.349966608446399	0.978686097903726
Si	5.361719649155482	3.972026313104209	0.7835891326761416	14	-1.736410119041266	-0.3775531894055486	-0.29258535766955096
Si	1.1139425501420823	2.8639144110994796	0.9483154932529793	14	1.2188350481215169	3.256957177387264	-1.2484284703564215
Si	3.6480643965964523	7.666502668873987	0.6249521899539904	14	1.004731137686294	0.44339585421762473	-1.1829398467469296
Si	1.3810084468257309	0.46392523679534725	3.3573538334662825	14	0.8006792206107219	-0.166251269548223	1.4195139321275867
Si	5.087623656717654	2.4967501683930533	4.700657422337134	14	-1.2573736028757485	1.4683626192156123	-0.7544764580076609
Si	10.048439045945232	2.358258392635366	8.429784487037464	14	-0.22856432097679982	2.1666897365786872	0.5352228807267134
Si	2.124077351446386	10.51874467770231	7.074453104008987	14	2.5831488916887166	-0.026955211065900445	1.0996674018590378
Si	4.552192461765461	5.80816960053345	2.0205472525199095	14	-0.7240417701120041	0.9561267056036826	-0.5777402209638741
Si	1.8700721065904067	8.348277579075502	6.479160588179977	14	0.4318909292415581	-1.4807599748483022	0.2817208950287333
Si	9.681685725107533	9.813291783064917	9.94668590645109	14	-1.280109630111286	-0.7544150085905095	0.08840539954903558
Si	4.7478134832727505	10.397178440537623	6.6288583143578315	14	-1.9323715390059284	1.1532446087413473	0.6526370331608516
Si	5.680017507472669	9.189290266407227	8.29252547688596	14	-0.11925043585378804	-0.5530743220750335	0.022592559558673186
Si	9.329114761739165	9.471282622322498	7.690824801104086	14	2.0548759657528954	1.122974214475648	-0.5338648228966112
Si	0.6393977595392369	5.569635008735246	8.962927846720524	14	-0.4479603374924836	-0.5571145569751141	0.028071584995908738
Si	0.8031501242272254	3.181046139789195	9.721745054310258	14	0.4840550566399144	-0.6370795319791677	-0.6922066011484627
Si	7.6378047740417605	6.223389489888113	10.455840313797616	14	-0.9130887165391919	-0.6940153737411867	-0.7825231032819642
Si	9.816945655897658	0.6184018732465418	7.022876856485436	14	0.17820510951318747	-0.7326174347968261	-2.0321517656018306
Si	10.745051567406751	8.151768077852045	4.125122474196408	14	-0.7679976437757877	-0.45098884244908605	-0.6989809494459888
Si	10.525397169577117	4.352151253670236	5.337086549024725	14	-0.4972671955485593	0.9429762732227213	-1.247400799559958
Si	8.44521071610943	8.971579417956711	3.6861246464377984	14	0.9411289340501949	-0.035979533629088185	-1.4140577895277004
Si	6.012375557298213	1.223547629127857	6.300309621315358	14	-0.21399155313273252	0.17779733220941196	1.2602403853077135
Si	5.313586260532081	10.752759128944508	2.9539951483224627	14	0.5725525017594113	-0.29560332109434084	-0.7584850683123039
Si	2.811949453700103	5.916541913913043	3.5664797466593257	14	-0.9628917979220563	-0.648493439826901	0.2004533980694928
Si	7.469493397810186	8.467022893141355	7.072565084612131	14	-1.0951851939544235	-1.0455402355487484	0.43136153865613963
Si	3.7432427861909487	1.3606622613254837	3.073040324292522	14	-0.15427171853005703	-0.44369898753487014	-0.3499996821316497
Si	2.41904151121771	10.7090792448984	9.449359385326051	14	0.28542740045825876	0.5212700063753337	-0.18019128837300186
Si	7.879027016981373	6.472474778315811	8.182653853985336	14	0.549523882738441	-0.5893040242517721	-0.6755849194747693
Si	6.86191764990515	7.9879102061977605	4.886072033104943	14	-0.7930960025794771	-0.06635585743397766	0.23657871337023337
Si	3.7944858538209383	4.881640740520555	6.997399700624317	14	1.472911161637486	-0.4004589095922158	0.19410816724989938
Si	6.1945027931162	2.769224685348875	8.138940651949868	14	-0.002588331725793071	-0.19321367970901987	-0.17649506736475695
Si	8.016063907203835	2.2967311722907326	9.525157811111635	14	-0.2635280108938975	0.33694746597391795	-0.047113190996925416
Si	0.8980164353214184	0.8979864491309977	5.914742742487802	14	-1.0468790100889493	0.08573427823193373	-1.3809681782784589
Si	8.775658534545215	3.3151621529447546	1.9113975193886708	14	-0.2448748989067552	0.05970003709171034	-0.34689532956810293
Si	4.330672256531875	7.471125979288644	9.085526941555257	14	-1.186180725002976	-1.0379698730441045	1.9389216869195371
Si	7.510963188562326	8.377230911826127	1.477863841884495	14	-0.1810150705175773	0.5357075340795613	1.210636821697693
Si	1.4100506275479723	8.469121926470802	0.8316147931339576	14	0.21798165147907034	-0.315956705029697	-0.5767225774781595
Si	3.5836607231707243	2.231961000982085	0.910580649107679	14	0.23835046204634744	0.5900524730104671	-0.5227805307509208
Si	4.9598047435504355	9.320907430361064	4.693782810533284	14	-0.14567677055533404	-1.012560924717741	-0.6314526679860236
Si	8.894092880710408	0.9386610505371686	1.6662104357156589	14	-0.7760493171963634	0.32343296507962366	0.12906254508706916
Si	8.155588540631568	1.3781875237268975	5.382188000616702	14	0.4289722104821261	-1.4369110591658367	1.1714755452349213
Si	6.2289535941106156	6.174489787509517	3.565324723028307	14	2.062235497621287	-0.9485180336297684	-0.214711976843438
Si	5.331233688894468	9.331558080958628	0.9803174220297055	14	-0.07001891118359264	-0.307742280642356	0.18339308582818223
Si	1.3202031162504835	3.189486697092791	5.960699355806592	14	-0.7109278474265888	0.061111573912471635	0.9396081252533274
Si	1.4399701819899298	9.240122412168489	2.9827485731369494	14	-0.3298753836803187	-0.24072462069897216	1.491936826785518
Si	0.25237932697539167	6.546973802516499	11.09292469427588	14	-1.6211623799498844	0.17530773092791258	0.6746757766335649
Si	3.203846750505356	4.024857538226849	4.960060181468833	14	0.6044758596354339	-0.2580518136725141	0.06478002698325891
Si	2.952040492946893	8.115273773510443	4.412989902234839	14	0.0403483557890838	-0.02856883676482538	-0.11407120129688178
Si	0.09807705466849512	1.0767741118158392	1.5055288790466763	14	-0.7491025907780194	-2.741678874850003	0.2465016372428129
Si	8.568709396656782	3.242162438265101	4.256606366192819	14	0.2718851316265068	2.574549572834949	0.7455552367678111
Si	8.025215248280364	0.27671811820016884	10.619464959526406	14	0.6091596421971477	-0.14593799485586106	0.4336904458551297
Si	4.210161089030137	1.2577874161896816	9.690748218212446	14	-0.4234546184650882	-1.2062255762999148	1.505463154764285
Si	9.0973881457661	7.70396319490692	11.078553534866861	14	2.352785568319409	0.9378723720516954	-0.08164390677811015
Si	5.939542432565341	10.547420360541631	10.098393817986777	14	-0.8953570886987907	0.991918291433868	1.005460046044556
Si	7.534952140898863	3.9859421266586903	11.089059807510548	14	0.26353829531517814	-0.17682725417212009	0.9846037539085788
Si	0.3309520306747088	5.730727487272957	3.414260959286843	14	-0.11746146077202904	0.6623108169279088	1.6510854178868317
Si	6.583834604741018	4.350174386301762	5.1889880863359705	14	0.3859373067440195	-0.1916825864908717	-2.7739382761913687
Si	6.312715019352353	4.992278677176376	7.340463931029688	14	-1.0690187980007446	-0.3608870276098167	-0.05218366779878945
Si	0.517052992023258	10.499753423769217	10.900468881757439	14	1.4982051815560389	-0.20927306064919676	0.24690607210967216
Si	7.641114360984487	0.06911483712070873	3.5622372560146234	14	0.46399632137424723	-0.35565971338342367	-1.1933623363832142
Si	2.488298505093005	6.444365501295547	7.89837366280093	14	0.3466737002895061	2.2567133898162237	0.4902835592779731
Si	3.8600778688670414	3.2803004300816125	8.747804695443348	14	0.5303413801658803	0.3135162118598125	0.19921772485262965
H	3.5650803911063607	9.717080535800376	9.919165247242788	1	-0.8089859476790565	0.05404514805057665	-0.2980355867272009
H	4.9797955371642155	6.195557862779151	9.624911871244397	1	0.5648265873828983	0.16120727513115649	-0.3604283424207024
H	7.557386253732105	6.041228936080769	2.486677029610999	1	-1.1261924670048775	0.05190367442942531	1.0876883650619358
H	7.512295908136578	9.814369064720772	0.8670273734211237	1	0.46042737007934964	0.1608216093331343	0.0799603470144772
H	1.9854745157241775	2.1438127071417674	9.09290132319945	1	-0.9492924505521971	1.0782441809999679	0.2871369283856252
H	9.738315201016789	3.729793424487456	7.62447757829924	1	0.2613513131298602	-1.1283681363267868	0.22546588195548936
H	1.031925876942969	3.80200461341901	7.413730189624191	1	0.6041801825236168	-0.521361537724731	-0.5948283011426422
H	4.8404708116726205	4.444331024222666	10.495522039120969	1	-0.37950542967513706	-0.051508752652250564	-0.37338208524467237
