72
config_type=amorph dft_energy=-6962.372381774674 dft_virial="2.4286911896449137 -2.7028779733541786 1.1596340118345987 -2.7028779733541786 2.8349404150490085 -0.052824976677931824 1.1596340118345987 -0.052824976677931824 9.189030466880237" pbc="T T T" Lattice="11.105996452100001 0.0 0.0 0.0 11.105996452100001 0.0 0.0 0.0 11.105996452100001" Properties=species:S:1:pos:R:3:Z:I:1:dft_force:R:3
Si	10.87509167986439	8.243903424418665	6.264948128611871	14	-0.687075189150511	-0.3657284189276556	0.4781633687987951
Si	10.93791830179392	4.64690439950897	1.6986177333628867	14	-0.25566891326180086	-0.2892136101527088	0.6824361438213679
Si	10.189185338982693	6.0926163816646355	7.359099793076311	14	1.3020704690927987	0.43002045012115037	-0.7001952824886947
Si	4.604423963079687	4.187227206356551	0.47647279158692984	14	1.31108502145577	-0.5343505046915872	0.26675269118642725
Si	1.25719879837772	2.9623357516579896	0.8664687417995832	14	-1.694239363801261	-0.6774281448787836	0.6589758362171447
Si	3.6744411381701894	8.14814752300866	0.751759346844423	14	0.9544212914448285	-2.0714665370522147	-1.8253343676439076
Si	1.4986653732392785	0.428601504479798	3.245571979175896	14	-0.5352257089425656	-0.44374423898850474	0.38288206229208754
Si	4.972398943527117	2.606066491471074	4.443908996357486	14	-0.8217705117729607	0.6498463554463629	0.3336847333226501
Si	9.918554417437921	2.4842337103915364	8.463269066340546	14	-0.28891870437248784	0.9603106652911596	1.1741641500682003
Si	2.367876185562885	10.608669930974962	6.798935544025292	14	0.32750482457514213	1.6658337922242654	-0.5368776441107607
Si	4.176187845883163	6.0497583413559815	1.7298700073790962	14	-1.9057433725367505	0.7370880727274995	0.9128899700979446
Si	2.152575338342474	8.375098560507324	6.601870742979229	14	-1.7900631735305201	-0.862858317452119	0.09329332787316909
Si	9.714004174783144	9.888845876928555	9.779685037800864	14	-0.19699526141389365	-0.5961624476932671	0.8373804635031757
Si	4.841603623310736	10.48511572044535	6.714974210847415	14	-1.2065371942647167	0.2663719104885133	0.7082880935943928
Si	5.569168556884258	9.29158759972752	8.666564331396236	14	-0.4924276040044446	0.18960101962367978	-1.0558421403455178
Si	9.288500132713837	9.711927353446601	7.522491212879607	14	0.40415950147950497	-0.6742358605132877	-1.0637711720423224
Si	0.7572512620899864	5.6194898268087226	9.132505306547639	14	-0.09895670156185926	-0.49501850683555776	0.068705847696593
Si	0.8374365564741485	3.1365777299949866	9.7582060406625	14	-0.04531675970973795	0.5050890121535138	-1.7258043095956552
Si	7.778961988947952	6.046604238363584	10.118951017419613	14	-1.459139807321709	-0.7866155316200439	2.3958878350169037
Si	9.862446923361912	0.8727924961794089	6.667851467901155	14	-0.08284307029942722	-1.034266452940963	0.6041063918009286
Si	10.713232887571484	8.190850079366983	3.801971295429654	14	-0.09654603321368843	-0.2468178831971911	1.34070852562292
Si	10.41614748247781	4.510844836974293	5.553931129751977	14	-0.137133501797546	0.760762039183827	-0.854975308540545
Si	8.43479329143736	8.443422650680642	3.526542583417574	14	-0.8560821693808689	0.6904153120719154	0.1614661854368954
Si	5.868397419293188	1.3704799621891401	6.298421601918501	14	0.9735333457316171	0.3586630215078887	-0.41808177967757476
Si	5.464316844379982	10.548397688229416	2.998108166230204	14	-2.3801099901092826	1.6053449400203337	1.5382432049329808
Si	2.517796031669783	5.9096673021091926	3.685502710636481	14	1.223454038829163	-0.3899757418703761	-0.3628032724049231
Si	7.185224312622234	8.113474602085203	7.576521885619072	14	1.7676590759918136	-0.1657095376572678	-1.035797803269643
Si	3.7591909970961646	1.2337207218779809	2.880051423944381	14	1.0222475640113988	-1.392148886873655	2.437779111108608
Si	2.4297254798046297	10.975023435940384	9.020712346260801	14	-1.5002078154899023	2.837618898539733	1.2572998121530603
Si	8.029257830988929	5.7785721199886035	7.98161310620942	14	-1.335010442012408	1.0484625538556287	-1.5630116909240954
Si	6.606091021631027	7.671955713131968	5.116732473418608	14	0.9490348257991184	0.5751560030065932	-0.2370039741901859
Si	3.91306457794001	4.800633602398938	7.1818369837043425	14	0.09564048991993226	-0.3381425157267228	1.1604051370579598
Si	6.448341448025398	2.8336061467816984	8.06015471311867	14	-0.6287830893321138	0.2674108941483851	-0.4097267158292216
Si	7.8342254272936005	2.490142100504054	9.83006183770759	14	1.0689344657462436	-0.02548813837022395	-0.0819655520536607
Si	0.8391046771412539	1.0240772692502698	5.55204311035512	14	0.6231387418227927	-1.744728673194073	-0.8570730733712539
Si	8.773459547247699	3.4207024372290604	2.11500375234502	14	0.9443880671540146	-0.23206462375964942	-0.4412245557747597
Si	4.123467680725044	7.706684164037685	9.451713856573898	14	0.4740493431760262	-2.142044406532408	0.3621460978850933
Si	7.714891495415787	7.1857574004519345	1.6742844951363356	14	0.03460682049866113	0.683149625547709	-0.20476976968095742
Si	1.5056177270182929	8.539433990009048	0.8854144611472206	14	-0.8425206172592158	-0.38800113298450234	-0.09996251796310118
Si	3.4102628005640865	2.251918476606509	1.0215106734701895	14	0.5065733112548353	1.0141832921747544	-1.898985222202741
Si	4.940446991734425	9.24287669928861	4.830197764954429	14	0.6125792122729447	-0.12300424962120425	-0.6751935972450428
Si	8.857320926457506	1.0600951263440752	1.5748858268900405	14	0.4017868854900723	-0.17444949597204715	0.8593058212312704
Si	8.087009012539848	0.9773654481727372	5.2349113816654045	14	-1.149868490345461	1.1250943479226423	-1.0280333223133282
Si	5.880525167418882	6.379195514114624	3.186654667997505	14	1.18204278810073	0.17608163362927715	-0.04470380820141465
Si	5.3320333206390185	9.57389092354345	1.098948344332102	14	0.6099836814522551	-0.9504854434207458	-0.6113635936775785
Si	1.2050561450351107	3.220039293332518	5.892464113604889	14	-0.2698033076487829	-0.044670898053316754	-0.247944284437948
Si	1.591122793703011	9.178384177891266	3.0815808355641874	14	-0.4123469292609845	0.48806186717083316	0.7579412795370926
Si	0.5197628551575705	6.412635669431897	0.36095488009005694	14	-1.1984621237857278	1.126549079312782	-1.4866048685725948
Si	3.1494940038687784	4.092182088719479	5.130270683093718	14	0.8974075451916089	-0.17961433233916063	-0.6473210158009135
Si	3.042243396130849	8.022694187085738	4.565430809536364	14	-0.5781917070580921	-0.27132231667192636	-1.086234405003392
Si	0.11960380759160055	0.7743456118290588	1.2645731800219147	14	0.7930697773052118	0.7536387918943567	0.4140957950997492
Si	8.547741275355218	3.366538492532169	4.42340732690691	14	0.5325329903407744	-0.6441806677628845	0.6547209140228316
Si	8.06738471680899	0.3567346014382589	10.671652036854823	14	-0.7978350639055741	-0.7499307438016392	-0.8279262521304592
Si	4.0052443484924405	1.3980894693690606	9.997273720290407	14	0.04933231199874522	-1.1418240160197817	0.09611511596203162
Si	9.430468085361031	7.5828745155896735	10.812331693913574	14	0.30628883480487623	0.4303660066761783	0.7509453019609696
Si	5.714968078307427	10.76619738465155	10.404141900313089	14	0.8389874043282683	2.4341875340868935	-0.8358246876739542
Si	7.13305944728672	3.9962707033591434	0.5859212760227301	14	-0.46856723241240644	0.6671671206566046	-1.7988530112885102
Si	0.18154528160389788	5.892863929477165	3.6888900395543716	14	-0.4530974059221395	-0.6822068012268107	0.3910795173843157
Si	6.539510572900688	4.457424994039692	4.309770771209022	14	-0.7106352556411559	-0.5104677644832636	1.1273060127190335
Si	6.164794252606833	4.885650005239763	6.858574744973068	14	1.4181841564560063	-0.10325764654140297	-1.2173684896469044
Si	0.8152001303777539	10.32364563802827	10.666310052561363	14	-0.8672024570010413	0.6633587994564012	-0.16238869802576453
Si	7.635661316726505	10.706924681586692	3.0983731021997625	14	3.140141835382188	0.9866336415588356	1.3281134519911109
Si	2.602745798531896	6.482969944963046	7.87794973532552	14	0.15505462010004215	1.527255586347328	1.8124328182579366
Si	4.570461825929165	3.5718550489421417	9.353314728008291	14	-0.4810419783152329	0.17854398119438297	-2.0276009091851686
H	3.0905211627081277	9.779107525985353	9.018024695119394	1	1.6522712116604843	-2.879417100618848	0.5456435705892735
H	8.317713876839322	5.884012450304841	1.9333762863673765	1	0.9053509750782063	-0.9725815225420983	0.283452534461853
H	6.860085160490554	9.354769613543516	0.9210436083652025	1	-0.19556289864003915	-0.9900398418869678	0.000969049595163811
H	9.217543921381369	5.628852181817844	10.273224414135735	1	0.9019887406510487	-0.41929919804666493	0.3868449069220317
H	1.418435654869308	2.9679220678733955	7.316863688568975	1	0.05597424837228375	0.2333085245135371	0.9501090336018763
H	9.513152228946915	3.9750138261498242	8.13349871368834	1	0.31959687594196273	-0.6562751471888612	-0.3833816280557923
H	2.149410129353626	2.353471708164511	9.297018431992596	1	-0.9154268797173348	0.57471660110738	-0.10227908385655461
H	5.362441538924869	6.531092227589995	9.421061306366102	1	-0.9197183116071939	0.7789461815605743	0.3414929230694078
