72
config_type=amorph dft_energy=-6958.648005351983 dft_virial="-19.528890782815417 5.960418201826641 14.4413424337146 5.960418201826641 16.309082680541476 -10.502108458588827 14.441342433714603 -10.502108458588827 -0.4225998134234546" pbc="T T T" Lattice="11.105996452100001 0.0 0.0 0.0 11.105996452100001 0.0 0.0 0.0 11.105996452100001" Properties=species:S:1:pos:R:3:Z:I:1:dft_force:R:3
Si	10.74996041783858	8.048393462875898	6.4921434980324815	14	0.5590973933980123	0.8259097342278671	0.6199117475354748
Si	10.994470035728012	4.804731715089763	1.5647571581257254	14	0.2914173045226078	-1.0439556633399412	-0.48423220579647264
Si	10.444778741331325	5.948660455652516	7.387675521947565	14	-0.9326504571464747	-0.6298894359513736	-1.867117143091102
Si	4.747024957524651	4.052822437293237	0.320666767360419	14	0.3456082342448368	-0.6929151977746955	-0.04418444492674474
Si	1.272314059549028	2.661041173908969	0.8097615239151604	14	-1.5712474554855937	0.3391408759225363	-0.8259285032967042
Si	3.7117572862492456	7.852583639428922	0.7874773420340219	14	2.247313428765763	0.36687410345831356	-0.2580965509050847
Si	1.197193099547024	0.3594633447665399	3.5958217892857736	14	0.8084177334033036	0.6557555268036592	-2.3144259624954597
Si	4.688785112129839	2.7858281500447646	4.173788950649509	14	-1.225433275704613	1.420213015664135	-0.7716907794576484
Si	9.870831950683248	2.5348548422202084	8.2975009632965	14	-1.0934054748518172	0.12081032545152189	-1.274846063299879
Si	2.4014718248304874	10.61446726112296	6.940714694732799	14	0.1084739050149194	2.3530038551610897	0.492972164111252
Si	4.436045950869399	5.870329862675853	1.7888761665291035	14	-1.3467133420981259	0.01665382049019515	0.8754878438952185
Si	2.099444251315628	8.472220499480937	6.776468113202693	14	-1.723575418393619	-1.4368059009582428	-1.617323719706903
Si	9.64105999008575	9.651388566786204	10.094118009352718	14	-0.8082989483375129	1.0375014176547734	-0.9297975586832383
Si	4.774767736661997	10.728137134810202	6.554325972167789	14	-0.004278833473790433	0.6882476131764986	0.18853581068954245
Si	5.537072227137689	9.335789465606878	8.29902248481044	14	-0.6069194381317027	-0.7925776677469354	-1.760741260017423
Si	9.556532251088818	9.827085430658425	7.678263919116762	14	-0.8716682098316064	-1.5200338657240964	0.6585081521594098
Si	0.9891078182215427	5.980634619438112	8.910518649463064	14	0.03223651850401661	0.7066173893573606	1.1511108484361565
Si	0.7589160509581563	2.377616144451377	9.473714835545508	14	0.5125470173556673	-0.2620992476674912	1.5625830876672266
Si	7.794154992094424	5.645233526584692	10.18837460124169	14	-1.4434162127363435	2.1512260807411883	-0.8733851939644013
Si	9.90966962027624	0.7173451956383008	6.668728841620871	14	0.7997579935745128	0.9245545607143923	0.8747900459113302
Si	10.662345211827963	7.8963634774431	4.190381309348947	14	0.030975134233951963	0.7528152668603133	-0.8764728343433672
Si	11.02860986882177	4.321854095348907	5.302335886126103	14	-1.8926826717314622	-0.15910925318991567	2.3657220847377345
Si	8.390880181465757	8.70725670239673	3.7827579215675207	14	1.2808459946749764	0.06438536231661618	-0.8451035496638365
Si	5.812256607227823	1.6481298734916403	5.766077873979992	14	1.8108495316017892	-1.30407156036347	0.899702513800373
Si	5.730805229248121	10.883310117238944	3.1758041094638036	14	-1.1759626382396438	0.44762506535873636	0.06725471585390144
Si	2.789437598891697	5.785624427735687	3.6043956185467945	14	-0.05198826379445819	1.7573679698373887	-0.9970949548854544
Si	6.610022544375071	7.472836302742268	7.254203656586226	14	1.7357406032158993	-0.14928660242482195	-0.1799022961350172
Si	3.495179249436844	1.1339333437558623	2.989856410866293	14	0.7823598380941348	-0.22584743398499935	0.3514706114853064
Si	1.8573779526456564	0.29929549838764297	9.18470348987251	14	0.8322919889640706	-0.40817531087904424	0.07333049483594337
Si	8.115640271393362	5.394371278724656	7.712759144096983	14	0.970109661887308	1.5638516710321877	1.5972852961732653
Si	6.646594590691836	7.541271452880108	4.801100054249926	14	-0.2643263390958035	0.30467906576393156	0.6380943472490301
Si	4.222188883187762	4.000424346032229	9.059394531903465	14	1.831126553709137	0.6675026499008838	-0.26070905102088715
Si	5.921783944238433	3.1295476342408075	7.520847525404696	14	0.4206801387141164	0.23042811522337517	1.0865933313060847
Si	7.629686290635276	2.88972474685416	9.343985690988529	14	0.6755080434256969	-1.4539052940004196	-0.45473288601628564
Si	1.0277200360865588	1.027896621430147	5.690357190169574	14	-0.009327198769901186	0.4612717210664863	2.311563293832007
Si	8.870992408090041	3.484028828998935	1.8594880919715553	14	0.8575600407188899	1.86378370504353	1.4539865409285362
Si	5.047175617639106	6.308794602604762	8.359483529495671	14	-1.111566220170151	-1.758656093602783	1.6128330271547329
Si	7.392528842397132	8.049259730599163	1.7323466445879145	14	-0.0399907150390512	-0.6869913711170743	-0.07170581338414178
Si	1.5344155758185882	8.323566736969578	0.7911234406692463	14	-1.1196366626595637	0.030378380689145598	1.1226425418893489
Si	3.54630015110586	2.074677879227445	0.8462824826482462	14	0.1347094637017104	0.2474652875168044	0.19300516306755586
Si	5.049230226982744	9.298473317527822	4.799578532735989	14	0.4940016346814392	-0.17226868443949758	-1.2283897897122513
Si	8.913750494430625	1.3127509926311243	1.6354801435326982	14	0.8752734137115181	-2.649066375665609	-0.724820815024009
Si	8.346678315586399	1.3044659192778578	5.1536599116218405	14	-1.5811603520474244	1.1828498580607243	-0.038832432092324495
Si	6.364446750826235	6.035364969954061	3.026483987165319	14	-0.08953977121628491	2.0120706617198785	-0.8560628860909678
Si	5.511206361400748	9.618703619227674	1.3055432009337116	14	-0.09686844982083499	-1.6065042514091883	-1.8859821141566244
Si	1.7222401878165035	3.3481247504145877	6.350730845207892	14	0.2784489063983128	-0.3897209453331494	-0.7964500094696104
Si	1.3677256750690194	9.28360238827846	3.217707034077577	14	-0.27929197183278937	-2.7945775670383255	-0.06361788737855197
Si	0.06078089738305289	6.601870742979229	11.020135993528816	14	-0.16163922082494137	-0.01484787611332314	1.1077082766372686
Si	3.4850616866689808	4.550326654361508	5.294006388787029	14	0.2903955472683809	-2.246733644516069	0.5510372353298802
Si	3.08095889976287	8.162252138502826	4.586998654646343	14	-0.9748384387921245	-1.013342026514002	-0.43525624899509996
Si	0.10827902300939418	0.6390245980584464	1.4271316500913023	14	0.21049022190775485	1.306324619955516	0.6799863946723309
Si	8.783588216012014	3.576874959338491	4.42193022937878	14	0.42004327592631574	-0.5331050612745074	0.29016029113158737
Si	8.028280503301145	0.6258606604637722	10.573608300175684	14	-0.24442675524945343	-0.2742919433166975	-0.11493972067402779
Si	4.000524300000298	0.42016094717620206	10.370946076917763	14	-1.3613264762957198	0.675111321874798	-0.2592820875682049
Si	8.930042991225855	7.599444662296207	10.92792290498703	14	0.25815157255893584	-0.6008282325177399	0.666829791638601
Si	6.005112235618539	10.542800266017558	10.052503840646699	14	0.7317851680046941	0.6930370681668704	2.516929559947239
Si	7.163978541409366	3.8576678676369354	0.3817863976352609	14	-0.6578296374654227	0.24657362819177703	-0.824311535160863
Si	0.441505561757493	5.681372439039825	3.7160886248655647	14	0.2764449869117894	1.697172480750486	-2.210661293984924
Si	7.10709362758171	4.5634206241785344	5.900804716940417	14	-1.0279345918690344	-0.07963715907573458	-0.5944176956230146
Si	4.708831435725879	6.351608218927607	6.024592153395523	14	-0.23572484929341223	-0.33231459129754315	-0.3766792707072303
Si	0.6617741211909279	10.183787824706974	10.861175866309908	14	0.23370730294869205	0.33557038196444666	-0.23502653708845997
Si	8.136030880879419	11.024289636201901	3.350545857641145	14	-0.6093254784902972	-0.04513061168455923	0.1845274574954316
Si	2.9483755141177	7.183580625147322	8.397588203322826	14	-0.19187850471626697	0.14428246014021773	0.14907680023069786
Si	2.008586094340998	4.029921872609006	8.568909304592921	14	-0.028584006286214252	-1.023378593241732	-0.4096053596581106
H	7.297605890721033	4.9936113967506275	2.598558837869454	1	0.42578686810099453	-0.5127262233964818	0.20798545110486663
H	6.383326944794805	6.7733473281996535	10.274557133709987	1	0.8533218307091579	-1.2153236895857908	-0.42441929718120786
H	5.010592465325888	3.740788360975035	2.919266697416746	1	0.5891057920315887	-0.7851697990985248	0.7063168271454353
H	4.200698780052948	7.188345097625273	10.57147594885688	1	-0.22927137493984057	0.6498689811731803	0.023982241984213223
H	9.956925635179926	3.4132169956203455	6.834930078526547	1	0.04741426742991476	-0.4011636495604684	1.448776453107788
H	6.599816133635591	0.29027520806924734	0.763261827369863	1	0.5371419537376719	0.03754456543746232	-0.42358317373109566
H	3.99059553917212	8.867982683051522	8.367713072866676	1	0.441178018768465	0.13513806695857908	0.5241882109137017
H	7.930603264504925	9.609263522243388	7.866477240990499	1	1.0324114004524763	0.100844664198444	-0.6450599857823753
