72
config_type=amorph dft_energy=-6958.014558747633 dft_virial="-8.644430112081558 2.8789612289472846 -9.840538512574728 2.878961228947285 11.925867353813087 -3.390860407707243 -9.84053851257473 -3.390860407707243 9.766331997717634" pbc="T T T" Lattice="11.105996452100001 0.0 0.0 0.0 11.105996452100001 0.0 0.0 0.0 11.105996452100001" Properties=species:S:1:pos:R:3:Z:I:1:dft_force:R:3
Si	10.449598743791535	7.9738611206858545	6.307295293083729	14	1.7341655440967767	-0.01008413217615278	-0.23951620119850256
Si	10.79681661686999	5.070542634174324	1.4580729562068526	14	-0.12375424104309143	-2.1545466632621597	1.131985424401703
Si	10.104779765946734	5.796541622248101	7.152150655187879	14	-0.3680359859524885	-0.007925689259888468	0.01455785543321044
Si	4.587231880571837	4.554347025077169	0.6735076064425716	14	-0.0007003690892083367	-0.6565631109847178	0.30285666631301056
Si	1.0830401150141138	2.970720778979325	0.7548223806659122	14	-0.2502137991040427	0.8959684975439219	0.16373647143458617
Si	4.0036117670139815	7.836968608417269	0.6287726527335129	14	-0.5361050269620561	-0.3529022029275649	-0.4887918039712233
Si	1.8930948372356098	0.24477283000534839	3.7713076392254057	14	-0.7174530556185926	1.0645921259710458	-0.7031142583586588
Si	4.9108939351753875	2.3805481275147313	4.922677397411065	14	-0.22680079983771026	1.2871328614038027	-0.03237021598066431
Si	9.811570353614842	2.283503930516281	8.446710025630464	14	-0.11212461745899764	1.3709961462942644	-0.21175032062515944
Si	2.2025967463627327	10.442279892129601	7.0905345868716285	14	0.6926686287744932	1.258525200948643	0.6952592744950744
Si	4.629690105008215	6.409192810531746	2.3351023900327377	14	-1.150045639502019	-1.5889713700100343	0.13201057444715095
Si	1.809022444093213	8.220169910000529	6.768516219742989	14	-0.7855315536170696	-0.30595484822378904	-0.1482216506012166
Si	9.47451446729006	9.860314572043109	9.940077838562091	14	-0.030197889095671202	-0.3434783305976261	-0.11424835045343996
Si	4.537688030399019	10.36697013018791	6.475284595418193	14	0.4611318529370702	0.5163982760147172	-0.29195337998185866
Si	5.436451899281663	9.025032578880667	8.188329018172357	14	-0.9677781835829979	0.8287667464596156	1.456776447311429
Si	9.276861048432036	9.540039846357448	7.593813922094992	14	0.8297296254020111	0.1489130208218044	0.5659712434714284
Si	0.36875128959943115	5.427045120286735	9.057617572471129	14	0.8999886778225055	2.986611880736994	-1.5875068684196783
Si	0.5074674064854505	3.351245535417627	9.560274971893174	14	0.90312336942883	-2.8533640904097877	1.0539801458726663
Si	7.290364781034264	6.336759501671151	10.311106968033847	14	-0.1977257124353477	1.8025913984240056	-1.7175829432239498
Si	9.531066201224153	0.5892241993675847	6.885218030461656	14	0.856990026669413	-0.48528353076188124	-0.150502992351784
Si	10.509360110700284	8.101146946023372	3.8019379774402977	14	2.212162562381358	-0.3598177049071672	1.4463650134280213
Si	10.530939061806714	4.293767030321546	5.266874439454549	14	-0.6162078132112695	1.8681496989876731	-0.2787846927531242
Si	8.590499361695803	9.083516756197426	3.747007718988211	14	-0.47042691289046956	2.285014574517222	-2.5005634461423685
Si	6.276298456985918	1.1128319504968722	6.334927012256553	14	-1.0960398293628408	-1.4477207572633353	-0.8565508818807317
Si	5.465727305929399	10.800070673830454	2.7734449640006726	14	0.91791596677777	-0.5814935205102263	-0.7913293961140034
Si	2.8698228012119964	5.836556527465018	4.028766848977988	14	-0.4577577914254399	0.10732539226840924	-0.4981477991207101
Si	7.37474814207732	8.422398999396817	7.269396659732699	14	-0.0015344356550643736	-1.69237994043373	-0.2957545020871655
Si	4.017660852525888	1.4923904852438419	2.9925440620077017	14	-0.6214675233646965	-1.261511796888527	0.6332498706048071
Si	2.3507174210443904	0.07450679839820327	9.369007500995108	14	-1.4649119387654415	-0.6322905912098598	-1.5653660520657549
Si	7.881359276236314	6.133453130619007	8.028724743159229	14	0.12439650315206444	0.7503812014537291	-0.303801290407633
Si	7.059193464883802	8.230709500633571	4.956806124508368	14	-2.557921720508488	-1.2121807704424419	1.3495590414664658
Si	4.104365366827432	5.142742717109427	7.218808845893384	14	0.10334686389601212	0.05831446843468254	0.6176237209110751
Si	6.116349896082774	2.4860328818167767	8.08484334323169	14	0.9093966092994593	1.115694643982713	0.1266930144240207
Si	7.834181003307792	2.3264286068036477	9.658751842433945	14	-0.7551444311698354	2.0923392842622413	-0.21482356281433243
Si	0.5330378527167656	0.4776500272108525	5.91362103684614	14	1.4668574941611976	0.03974671714416916	-1.084616922646487
Si	8.537379380665408	3.6213655811256036	1.626773042314252	14	1.6325636893815492	0.3041969835164038	1.381857009387634
Si	4.479248277068068	7.217442808329776	9.49128452193273	14	0.8354426214233801	0.3812944047568961	0.3264447578516451
Si	7.927426949519624	8.007723303868307	1.7534480378469044	14	-0.7540051744024778	1.7005313727407274	-0.9078765718341879
Si	1.7609779034414283	8.384272113576758	0.6531214393550968	14	-1.3306465049525207	0.09400835226270228	0.8807807213072751
Si	3.4288764506178064	2.4616885375937736	1.035330975455183	14	0.1576822897372335	0.948805483204561	-1.4401197986053815
Si	4.93121790868273	9.216988621558764	4.400329066279446	14	0.7542311745601188	0.5770503934064783	1.0482710065092777
Si	9.393718343101032	1.3547094472271581	1.6882336266801734	14	-0.5246710644928257	0.23631106130640597	-1.1346737721244498
Si	8.291226075301065	1.0067707949789624	5.080893422867682	14	-0.8717869948973973	1.9219148536688855	0.5441813829937053
Si	6.512745121451126	6.225321933270778	3.782646861603	14	0.13624158536198663	-0.45568419498474044	-0.15302884621829746
Si	5.5770982383510574	9.391108433934788	0.8056423098310767	14	1.2138684439745868	-0.052762166495822764	2.444731379894289
Si	1.04705668650931	2.7550645398724476	5.589981194235494	14	0.8382803503652275	-0.44504496116996767	1.50339650030795
Si	1.482939282263105	9.096721785978973	3.2181623799321133	14	-0.7047173425257711	-0.15721280590577447	-1.8467915270932032
Si	0.13097523735890573	6.64587270092245	10.996180359181636	14	0.60683999097731	0.7409318751811208	0.37725982628851973
Si	3.104270386315828	3.798384058575625	5.696987470051477	14	0.637275964425627	-0.17646627098517131	-1.9269483065541397
Si	2.9151241607401124	8.132687975947336	4.696448249681788	14	0.19908865536555823	-1.3674475067313963	0.14248114375292198
Si	0.6087529835289573	0.7882858585757347	1.438681886401486	14	-0.558812772039072	-0.2251306098217421	-0.05761384223494218
Si	8.61888628862737	3.345203873347685	4.261881714507567	14	1.0335712260623948	-0.7683306019147469	-0.8651815682194048
Si	8.031967694123242	0.5407509672527491	10.913962667446741	14	-0.0025957879312215005	-2.347870386278882	0.26469297871445663
Si	4.079043694916645	1.2954589561552046	9.955126463754686	14	0.7720767023662026	1.8466938250910374	1.4425443509222813
Si	9.163113432769627	7.621578913225243	10.871637714967788	14	-0.2764987230129805	0.8982709223581147	0.06378192389797742
Si	5.712191579194402	10.635924046268418	10.135932085994874	14	1.2732059552161565	0.9716672374902537	-1.6029180737086457
Si	6.907096843472293	4.374685320471547	0.055244558151681035	14	0.059966917823941715	-2.752753396795477	0.5373419857315794
Si	0.30689199996087935	5.951814558644911	3.627029639316175	14	0.4160138396685797	-1.5019235140700369	-0.22622461513546505
Si	6.625715317361888	4.060785436749392	4.843780398615347	14	-1.4869432260327262	0.8398050158200753	-1.1262983965440674
Si	6.415567652495252	4.731532092473972	6.951820691184899	14	-0.4384202512020741	-0.393481958195462	1.438583048955529
Si	0.6855031932104848	10.083300768808373	10.438337263389105	14	-0.15863411292675228	0.17306958374672368	1.7067984419585887
Si	7.943097510513537	0.2536676225638353	3.0283053705834635	14	-0.9590222844152335	-2.09933089095932	-0.10541248991021908
Si	2.6240470997270235	6.5408210804820355	8.218215254624958	14	-0.9885429443695777	-0.09788480775388952	0.6428218386011864
Si	3.845284681592844	2.9283514025145636	8.135753230968115	14	-0.3197711968826687	-0.18681548411983134	0.6749087187755703
H	3.483862239052154	10.224802269604579	9.525557626983911	1	0.288678820246118	-1.164421203568031	0.18844787888759337
H	7.6335733893935105	6.317945943681292	2.659664030348908	1	-0.056419049592669364	-0.3350764726324462	0.18147966924892805
H	8.451596664069388	9.403236182060482	0.8895869840142744	1	-0.36294622586072334	-0.38156797036295986	0.4008247778792729
H	1.0189562942862065	1.6499623629062368	3.09476365335283	1	0.09742535123317908	-0.9659609263427171	-0.13039977696407817
H	2.0171599236020192	3.3470363627622812	9.09802118756387	1	0.020548273718623448	-0.5243661314018561	-0.2885404947798941
H	9.525213341093895	3.5438235138970415	7.565604691106659	1	0.15233439067132545	-0.5438792781185879	0.047929774046604444
H	1.4856935693832256	2.6876844593975564	7.155471348127057	1	-0.5470422518834341	0.29280107340591144	-0.3366422757724164
H	3.6349260027936174	4.6871747426442845	10.543744275715987	1	0.6121452096949036	0.4850662723623287	0.293783749859272
