72
config_type=amorph dft_energy=-6960.375289258063 dft_virial="2.4387530899645196 4.150533881837501 -15.31672776152033 4.150533881837501 10.80270773063706 -10.134849096923208 -15.31672776152033 -10.134849096923208 -0.4326617137430607" pbc="T T T" Lattice="11.105996452100001 0.0 0.0 0.0 11.105996452100001 0.0 0.0 0.0 11.105996452100001" Properties=species:S:1:pos:R:3:Z:I:1:dft_force:R:3
Si	10.970825369281492	7.870430975727447	6.397120592388314	14	1.3866798887471676	0.7512978005003619	-0.50707159146588
Si	10.801247909454377	4.64590485982828	1.4197794804400121	14	0.5111930732940775	-0.09407417255889806	0.2718301099726556
Si	10.193050225748024	6.062385859322019	7.422537244810707	14	0.008039075004506999	-1.578147273722743	0.46356488990152633
Si	5.115266481886931	4.130364504521799	0.7134791982733247	14	-0.02373078788390274	-0.30788600542975225	-0.4592474898479336
Si	1.1691171405161151	2.7330635609008374	0.38560686041478326	14	-0.7074144320066065	0.09259141612076867	1.9459742288127033
Si	3.838421175785446	8.104112247076083	0.6856764467551376	14	-0.8538347662205273	0.37022142547461434	-0.2055529283614745
Si	1.3496451128450004	0.3045397499123246	3.4584406131732965	14	1.298426698633085	3.0331110917834674	0.4835814590399432
Si	4.685297829243879	2.7323527771279026	4.709331205566224	14	0.3101773744910682	0.05041114779107935	0.6409886405079208
Si	9.717980121512996	2.275629779031742	8.29020432362747	14	0.3853125281512235	1.6107054375023102	-1.1318404140616467
Si	2.452759316446285	10.412382549680547	6.850589533524008	14	0.2416085667080391	-0.08065968766155748	2.146489076299348
Si	4.396930631365103	6.178077024363545	1.5633022725905004	14	-0.31153594654223443	-2.1004873741323222	2.0400008359231787
Si	2.280571947452927	8.070427759836864	6.4754845033543305	14	-1.098753373917725	0.34863185410133096	-0.09377823833654901
Si	9.684484436213461	9.736771467509948	9.778019138333047	14	-0.1328690665135484	0.9189765477223311	-0.5622544536206223
Si	4.751956019949384	10.438048507481351	6.518764571528164	14	0.8738248529741466	0.7860154356383213	0.2538190029839543
Si	5.877104520511635	9.156894074756451	8.286039574957933	14	-0.5933715128682464	1.918876321401535	-0.2033335502491227
Si	9.687416419276815	9.402425444319478	7.3932063081807105	14	-1.3604911241772035	0.8878101232525601	1.0400450121479958
Si	0.8416446185298492	5.7456539465045795	9.129839867399136	14	-0.7813663629984297	-1.2444244880413546	-1.5040978978392863
Si	0.696662498445555	3.2621976558646897	9.282947134487786	14	0.13707333793305454	-1.7629426403925341	-0.7401641431325247
Si	7.346438957120917	6.451828730911358	10.443112841863508	14	-1.0144470875806015	-1.4805730554915273	0.2810922597779571
Si	9.786148727735986	0.48938795486107695	6.6171748060902225	14	0.49720857434726	-0.2574964549233621	0.9619482022695619
Si	10.614267353186822	8.075836380109036	4.135684276822355	14	-0.34969140660376397	-0.313491015027675	-0.7936693590658702
Si	10.446766714696249	4.668005792767961	5.507696866521885	14	-0.567790043374901	-0.7358734825742617	-0.4371465256264728
Si	8.5531943196132	8.900034588812282	3.383986012958418	14	-0.4310159821011117	-0.6440695960130542	1.0485844242478037
Si	6.118693261334166	1.4426245151419819	6.228698156192217	14	-1.4950535206546014	-0.5378315241845356	0.5466990093231943
Si	5.614903050274005	10.70183813521163	2.9727198583407035	14	-1.264140237857314	0.9630136683142313	0.21029198968757146
Si	2.4311581533469506	5.8403325662587315	3.197283106602165	14	1.209962163661686	-0.13133823040593223	1.2592733925968058
Si	7.601654755590175	8.158631583659442	7.292208376445313	14	0.7270507346681735	0.8399713663342889	-2.005455207731137
Si	3.7802590723657987	1.35736378037921	3.0532161206255237	14	0.16277179271846662	-1.2326130873111265	0.11165564784860263
Si	2.3902769804067705	10.725360635697179	9.537974131017359	14	-2.0330228560842967	0.1286930772525639	-1.8239624258450766
Si	7.918830908265699	6.138417511033095	8.116284419187584	14	0.21350947088520475	-0.5444683183474339	0.7614166425983367
Si	6.892203702230027	7.916220999099456	4.819480478378152	14	0.46585985851029055	0.6500188766133449	0.6275463876731225
Si	3.7990282063698473	4.993367064828681	7.2502388158528275	14	-0.6701889407393745	-0.4738061166127402	0.47308595001256665
Si	6.1483573778577245	2.847077720478096	8.168282694576318	14	0.30774279486342004	0.155104242432721	-0.42967797889250664
Si	7.985555734949916	2.581977585166469	9.69827808380697	14	-1.161120675668557	-1.652862051663054	-0.25365753756984905
Si	0.869699476167499	0.6307472989026962	5.800373191024076	14	-0.34395732751876973	1.1434062742338007	-0.6342065788944342
Si	8.736965242906097	3.580184546281217	2.2136916368183805	14	0.8990062584796769	0.03777750757946774	-0.004703065851614866
Si	4.392143946894248	8.171747765469373	9.601033978872382	14	-1.7551174813506631	-2.0465905788587184	-0.5212949460969392
Si	7.632462789748301	8.024993128351323	1.435194603515527	14	-0.8333669680984245	0.34584811837120666	0.3476152390577444
Si	1.5806942630344891	8.36006104131118	1.0489247151125531	14	-1.1617148581080432	-0.5485466056062528	-0.12446823699049654
Si	3.4865276782006576	2.4082020586804602	1.026759367393452	14	0.140363067190184	-0.0030801841735373986	-1.371559989690973
Si	4.9398472679260115	9.164423940350975	4.567429888897743	14	0.7310593449728162	0.45295136713995504	0.3846008461986065
Si	8.961228629263353	1.3146723300173375	1.76315467874604	14	0.7257646677870353	-1.3760329416164345	-1.392344033767454
Si	8.189828327693391	1.224536062812094	5.194452236590404	14	-0.5701055808262264	-0.7406169147794027	0.18036406665051583
Si	5.9231721937949455	6.277109194726921	3.452365633113998	14	-0.6117849978395509	-0.2670532533983525	0.5763986182078208
Si	5.581307411006404	9.389820138346344	1.145916713927678	14	0.6627869856332003	0.42062408861813727	-0.6882491558396907
Si	0.8996934407856855	3.0500731236295797	6.069682498991049	14	-0.18622207301194119	-0.824830384214469	0.6535842283607942
Si	1.2360640871293738	9.30920171010055	3.227569158927042	14	0.850632968765347	-3.6490191141144077	-0.18619893306405985
Si	0.14402922558870407	6.613976279112017	11.024989313978384	14	-0.6879017995109388	0.13957013830945034	2.5408722069095218
Si	2.743070063704179	3.9705492155760798	5.268196053032348	14	2.2820153801612695	1.7048883678162505	-0.8261969266921276
Si	2.993454753716774	8.022827459043164	4.220245333808644	14	-0.9259131327655585	-0.9159899517824471	0.14767271961536502
Si	0.214430137098566	0.604964728139146	1.4626930507309264	14	-0.8158852516951417	2.3780662184902974	-0.3550588460701051
Si	8.604148631335434	3.3437156698231036	4.6177289468293035	14	-0.7618660718082986	2.626720127996606	-0.5165677118553149
Si	8.15571070659254	0.2874542849704139	10.68883301336622	14	1.0259810660467859	1.294952621124501	0.34612785463003876
Si	4.007421123797052	1.0393002585871634	10.100726077241717	14	1.458065599518951	0.5277383931397623	1.5613759537194172
Si	9.168844126938911	7.751263633796414	10.733667921043349	14	1.858596242949599	-0.19704925462561676	0.6353638333990328
Si	6.1166053340011715	10.544088561606003	10.240839328481412	14	-1.8272197591751722	0.6345611343180826	-0.2141249934988482
Si	7.518204298249096	3.9849314809815493	0.3132923857162246	14	-1.2944065183545015	1.99884283906878	0.1917355512604667
Si	0.09337366517103075	5.7965083042587455	3.563470021620806	14	0.05303316099656637	0.14584646350646382	-0.6978494059945916
Si	6.337592451405057	4.47809325343705	4.931917586459212	14	0.43551181686392265	-0.7172548233984093	-0.881036032065566
Si	6.10358910615931	5.060969265232615	7.151828581290769	14	0.49538257534889085	-1.1569837672084389	0.03899492594855785
Si	0.5419748480617705	10.076159613089672	10.991049388820766	14	0.9473255549822839	0.3251378650174139	-0.9708840788097367
Si	7.861390694615438	11.095778935364068	3.2887298813887567	14	0.39391801765775913	0.1652184565411195	0.04888699655729557
Si	2.7289876602029164	6.7311889656674815	8.347033707472868	14	1.4907996269024164	0.8507507253890098	-0.04479071156123566
Si	3.839154171551285	2.863847775120767	8.663221426464153	14	-0.7610536025271318	-0.6024020060842025	-1.9368012963620111
H	3.215252608861663	9.430245965431988	9.818345011450623	1	0.43802378676170733	-0.6322965047520962	-0.22205016853767268
H	9.433244584474055	8.183808877616354	1.2869073388870877	1	-0.17900832281520174	-0.424527283604654	-0.9969836260250917
H	7.004685234296897	5.79764111589686	2.643904621383378	1	1.5877405818932795	-0.45199671573458405	-1.0389273526653275
H	7.624555320274405	9.486120233582504	0.8332906879985796	1	0.5432424153307872	0.13739549742966908	-0.09138093973604294
H	1.3782097357198018	1.615267229989876	8.742695937075382	1	-0.27710164721055525	0.9454314216929308	0.6669179805510821
H	8.988949196407795	3.3768115392503617	7.235323462617657	1	0.9191529255472933	-0.7779766177443463	0.6791124759740125
H	1.1704942840761754	3.4640491413816075	7.621900987122353	1	0.1438929376842153	-0.11049119424910757	-0.9184756964059663
H	3.0499953816544148	1.9511125627013803	7.338220519746363	1	1.023726206681016	0.8346057266416719	1.217551552345699
