72
config_type=amorph dft_energy=-6959.604683204004 dft_virial="4.135441031358091 1.0275715701397692 6.063552680102604 1.027571570139769 3.9065327990870538 18.408246634719294 6.063552680102603 18.408246634719294 0.6125181819560191" pbc="T T T" Lattice="11.105996452100001 0.0 0.0 0.0 11.105996452100001 0.0 0.0 0.0 11.105996452100001" Properties=species:S:1:pos:R:3:Z:I:1:dft_force:R:3
Si	10.870127299450301	8.07257121715212	6.535645686135356	14	0.8861990686589554	-1.0028642581133345	-0.20502765154456828
Si	0.24219512822881598	4.746447445709142	1.5690773907455922	14	-0.1825762456679712	2.6984213133911714	1.2858653064809695
Si	10.264517312917288	5.8977838859054454	7.662782160062534	14	1.8083041373348425	0.49656039869605073	-0.002789392161828651
Si	4.871756403678186	4.243434654400629	0.4235516078930282	14	0.11015180834684804	-1.0477254179603424	-0.8379183387361506
Si	1.2133856423741858	2.7668368961116734	0.8150013330412613	14	0.5768313352332017	-0.6998546110337751	1.4465388201476634
Si	3.77577224979915	7.93941031969144	0.24954729788010618	14	0.5385900002539792	-1.196783192011671	0.14145038763007464
Si	1.831367708954838	0.497606392235631	3.332998383246827	14	-0.9008050037616525	-1.2533505943813128	-0.9392227165658372
Si	4.416099581241427	2.308370256572533	4.435757194961645	14	0.9595179935209581	1.5716997129114076	2.1657715948688625
Si	9.804606893839376	2.5026363465126664	8.409804799420137	14	1.4137024627724561	-0.2640144640204695	1.489994613826678
Si	2.43263525087508	10.41419282710224	6.9883261015229525	14	-0.045867747579845686	0.6807474418470947	-0.0621197043085017
Si	3.6696544536993345	5.783791938321091	1.5178787471014112	14	-0.16552956028485744	1.6456984380200577	0.13049233675560354
Si	2.118935275089063	8.104589804923524	6.996688916851384	14	-0.7324585404880408	0.1597589715043171	-1.6180073766115306
Si	9.95900245651647	10.147293520365372	9.61402799472134	14	-0.38040994452676513	0.1906482308205761	1.6967263939774404
Si	4.6895070018992255	10.617588046125999	6.473085608120677	14	0.6651775993598739	0.7414360689344018	0.33599821388971934
Si	5.78426949616853	9.441951685692501	8.149757892494215	14	-0.6181646814704344	-0.9359152466819987	1.2553735400472052
Si	9.720001412867276	9.813158511107492	7.418572404077307	14	-1.394879400723652	0.6354782475857794	-0.8777545303454609
Si	0.8967436881280076	5.680073037454928	9.483521430412711	14	-1.38171996947407	-0.2713050902662814	-0.46151366207711214
Si	0.480334346553325	3.3961248670805637	9.99417514728027	14	-0.47935301923042767	0.8320508192850407	-3.8252514145154453
Si	6.275187857340707	5.6637805406596975	9.14065710794348	14	2.0632598259808343	0.8410741134061004	1.7649632720636386
Si	10.065453432509848	1.0721318052988613	6.561833625769408	14	0.10887268345007436	-1.9778865309358495	0.23144370182483365
Si	10.6379453376227	8.171347949597097	4.1497666803236175	14	0.3715931101629134	0.6968371618300493	-0.07954871305272149
Si	10.461093450119458	4.6727369472565545	5.689157742552747	14	0.8769304910903536	0.9986579298095722	-0.29234753042743733
Si	8.317502862906734	8.777613189920784	3.536915584103835	14	1.7631020489223832	-0.22683011043835996	-0.05715824237221194
Si	5.969117701117283	1.5309838229148893	6.151022817006229	14	-0.715912963531824	-1.1812274906037112	-0.9015061441824569
Si	5.570701184394648	10.503007480729684	2.8483771220629914	14	0.9500396137582322	0.593799087682987	-0.11885294297129316
Si	2.692970913708756	5.828338090090464	3.6633573537109934	14	1.2982485210343986	0.8078631459857476	1.7304546677882071
Si	7.624155504402131	8.327564895692335	7.417761666336303	14	0.7306145437524307	1.4195846375238907	-1.673012061167587
Si	3.9950046197636038	1.05644458531027	2.724800699540475	14	-0.7847111139094103	-0.3431096340947169	-1.8972466407852573
Si	2.501947774732636	0.46144637838723856	8.991192607691119	14	-0.8613773607877137	-1.1517554245399175	0.40137448019672056
Si	8.528750021422127	6.7702820731788735	8.751403038293828	14	-2.268452542486956	-1.0750228431443543	0.3736433095451994
Si	6.924188972012075	7.785847706748254	5.142342901237151	14	0.13332723748159878	0.09987690015594025	0.8106206564416066
Si	3.73870043364204	4.023635878617118	7.519348215883662	14	0.2506202908551581	1.9541045780560757	0.2426174684356652
Si	6.055766685436568	2.189391716581186	8.283607361734923	14	-0.45761278108538356	-0.9503807994342158	1.7971331989398631
Si	7.87013111382324	2.3766388167635917	9.73266224882267	14	-0.49571939014583016	0.3335996297365532	-0.5989832073400015
Si	1.1173076670670685	0.7379623674519792	5.449068311251249	14	-0.2764251894008243	-0.7593700427634987	1.0785732824809469
Si	9.14525499047465	4.114649519542078	1.361917238924571	14	-0.5124829968331958	-1.391424092283905	0.04511955593168259
Si	4.636176006936241	7.33752084196988	9.142944943212614	14	-0.17807681135771208	1.127992240728981	0.46670266683423506
Si	7.809148087304759	7.900617074084255	1.4387374163837467	14	-0.8890805063912453	0.015802527518694123	-0.7347951610029915
Si	1.6809369870111435	8.631780350508258	0.9023844237260293	14	-0.526431500305531	0.30316339917770424	0.1982756718633274
Si	3.484262054924429	2.2460767224727043	0.6575205245497737	14	1.3288634434129978	0.44365862118134386	0.4461253396254939
Si	5.068954476681674	9.308768576238919	4.694149308416203	14	0.3213969067765984	-1.7855015184715133	0.3845370827866669
Si	9.032629080453905	1.5062285568231584	1.7197080206254247	14	-0.21779447501176355	-0.37532635508776835	0.0036216589539605844
Si	8.183164729822131	1.3940802046498526	5.356333240876213	14	-1.057203540612536	-0.9829446196454874	-1.027738930754171
Si	5.070153924298501	4.420930689698091	3.713323231748992	14	-0.1286190294193436	0.20620110401268385	-0.10358880490663804
Si	5.576720634471687	9.11500225613913	1.0595020661335333	14	1.4352812355033948	-0.470607661594476	-1.0262384336893327
Si	0.8153356235344694	2.916201442395966	5.937521141211058	14	2.106400402147599	0.6447977330397201	1.0970718710383482
Si	1.6991619271890397	9.236024299477663	3.4216908709132974	14	-0.8511597882454452	-0.8115439403620717	-0.5716320460547983
Si	0.04936282243064888	7.085014906634935	0.015011975404303572	14	1.526248741503958	-1.2888323620204203	1.301236402526943
Si	3.043009709886044	4.008009741609014	5.35165761636988	14	-0.6535644308498291	-0.37950003035396473	-1.1879409037051498
Si	3.2022585930127057	7.948117420909886	4.839138092098369	14	-0.9623865757266473	-0.40685247719182804	-0.7638059707723502
Si	0.18378758228757688	0.9199552207128966	1.6834136242199618	14	0.7068400470780853	-0.9075086466628746	-0.9253593166795987
Si	8.754090689435236	3.518446312003993	4.9119378988418845	14	-1.0006217400531014	0.31168275665601486	-0.8024378566497032
Si	8.351065184184979	0.42882362440884003	10.793606983895332	14	-0.25863339769593163	-0.7905884035607368	-0.29259178543285136
Si	4.457158450124841	1.068819997156845	9.953216232364927	14	1.2017757643223346	0.0038779981543793475	-0.20525673702859343
Si	9.234813745864384	8.042918206625012	10.473432212177741	14	-0.8363885310706626	0.5482779251002973	1.5116037256003947
Si	6.190571270372158	10.472621474436737	10.266372014324789	14	-0.3421231009833761	0.38002299317608285	0.8009257896109242
Si	7.206792157732211	4.176687615723508	0.06367400945882494	14	-0.4769071267393708	0.5043881288432415	-1.274082187909263
Si	0.3962686170087993	5.997082600183671	3.8564017840413958	14	-0.950005675168006	-1.2935871070889704	-0.6593658728942112
Si	6.67078345096451	5.296338648041969	5.240531015870167	14	-0.40639739155016186	-0.10737218638523595	0.6277217370559567
Si	6.116949619891186	4.235804834838037	7.4505021438770935	14	-0.5508927392108879	1.40098911829592	-1.3953008048856244
Si	0.9701576564753244	10.404930426061188	10.544843769364745	14	0.12279187632176002	1.1465808179725876	1.2151334277920998
Si	7.9497166843989895	11.105052442401572	3.314617959118602	14	-0.4990248031454126	0.9551723113088437	0.37304552755826503
Si	2.687162477564308	6.331817333249965	8.298522714970094	14	1.7221834219732906	-1.0386854116547017	-0.28834406233343474
Si	2.1329510426116136	2.535143598127963	8.11921640225094	14	-2.0027720022190305	0.9004185666320342	0.1952065434426666
H	10.399555123778372	1.1907071976189973	9.280714829200914	1	-0.22552116071987258	0.6865157166328468	-0.5367506315079453
H	7.659139393226245	4.251497607824854	4.104376472823885	1	0.09191778652688987	0.30206425165334094	-0.7365512259366527
H	2.3689756792116428	5.1744725489730765	1.0884287444926728	1	-0.6156907639313878	-0.25095067788879716	-0.5690668542768865
H	4.603957511228699	4.876443134180972	9.919465109146994	1	-0.012299910741056396	-0.7048379273652862	1.137870684479522
H	5.030405562996435	7.247884344604982	2.5963931685612947	1	0.8084555286515098	-0.5394150679512147	1.3831613311165452
H	7.637504912137554	6.435369644169346	1.9512569406552576	1	-0.0004196043882481665	0.4549964243116008	-0.5044400651707085
H	9.89190002595288	3.9765464536602138	10.94950185609346	1	-0.0986656524396185	-0.41397829558661847	-0.010594496582202174
H	5.354578493436782	6.9675578881575255	3.340006267008102	1	-0.4820981883807497	0.542352812890016	-1.502252615551016
