220
config_type=amorph dft_energy=-23172.717872639223 dft_virial="-30.972877059403938 0.1492182879163992 1.1776145965294207 0.1492182879163992 -22.12866880533196 -1.4236231252564575 1.177614596529421 -1.4236231252564575 -13.836971509220694" pbc="T T T" Lattice="16.472860167371245 0.039040795719057005 -0.0009719016655799001 0.0391066873574014 16.406869691569327 0.18813710038284814 -0.000988374575166 0.187955898377401 16.254314075892456" Properties=species:S:1:pos:R:3:Z:I:1:dft_force:R:3
Si	32.35094287206293	-1.1438722524949498	26.062501885862932	14	-0.025857349094197218	-0.09439736049764068	-0.11861691550290356
Si	30.845732405923997	10.010882020554563	25.256510423761355	14	-0.20058760976720455	-0.0023978128215700984	0.08046582632041831
Si	35.8494412897583	-2.3869789596275246	22.57048555808969	14	-0.1793325391960724	-0.035860491452765327	-0.139060802345529
Si	36.488326615145596	-1.2365867295183965	13.811483716313258	14	0.04092119805441279	-0.07394344634426667	-0.07882160446818362
Si	25.198993612650526	8.051719348496682	21.077845569255913	14	0.014348824570682399	0.009077287332782792	0.000873918698318332
Si	25.190269559733732	9.243195015113544	26.706843038905152	14	-0.07460422041154471	-0.033198369004284016	0.010385979940738164
Si	31.28093349886109	10.864460423868465	15.358535372800882	14	-0.13333546501862326	-0.16147209897913176	-0.013269474557284236
Si	25.886455901116282	0.7781901325931158	16.708622096658466	14	0.019376363913699953	0.01266500769651742	-0.012185496554309807
Si	39.43203226359976	11.051658568404905	24.070734383861286	14	0.06803761742388652	-0.035498736934220496	-0.09028616309072389
Si	29.51202963794075	7.453830153196307	14.186412080365772	14	-0.03706299741099858	-0.0072844555930435375	-0.01391739309796155
Si	40.88025964089845	0.052741314621816374	18.478478091752883	14	0.016138828094569492	-0.020622321551843716	0.010267451985479337
Si	40.959117106378066	4.370108067842221	26.713461853976845	14	0.39571419183441453	-0.8665918194875061	0.053532726760271133
Si	33.62539423155594	-1.9034463499648138	21.734651772981934	14	0.1353776939744169	0.01909971298125202	0.007297311119644278
Si	38.34713961658688	8.311989672666103	15.856284103436396	14	0.08122687349518214	-0.0030189918669178742	0.09990106854594966
Si	38.20399826873846	2.1147493030985944	14.030748026650002	14	-0.08804544480421485	0.08858332003718983	-0.05086031989050923
Si	30.231782123777176	7.909192440175828	26.257829411280113	14	0.12166547508100314	0.21035472465738306	0.059605677526460905
Si	25.002251064299905	6.106617952061497	15.244386345824001	14	0.09308918211074933	-0.017448549144652926	-0.0350716763405439
Si	39.826955445307874	3.2726416489422734	15.161156970140231	14	0.06971423520315508	-0.10794759975588508	-0.01964504441965543
Si	28.74735223308111	-3.1509167308467463	14.610380296256102	14	-0.154861015869435	0.07035572598053202	0.22737235655037918
Si	35.49086887763382	1.5630484989866849	16.65836819138415	14	0.021674932069912334	0.01211839070545394	-0.015449000537173763
Si	37.00507025782485	4.792509710030915	16.311295517441735	14	0.020723623101457544	-0.026062009077681005	0.026403194753664653
Si	34.85962039313064	1.822335390453816	24.3956707619019	14	0.03041566171628774	-0.026240700897431295	-0.013684965177020166
Si	32.828490873673005	-3.199360263357549	25.002035269184322	14	0.09917164596662364	0.08389105282791957	0.17787909335859267
Si	32.70114869340862	-0.8646778497930165	18.144562330696886	14	-0.003709590755909648	0.03419441520530938	-0.03454459974991354
Si	38.76065247676291	9.587615550612599	12.272077137164544	14	0.07291860376365564	0.022178097381065316	0.08775799522942229
Si	35.71918340449717	-4.739760158954305	22.723252027009263	14	0.425915937588066	0.12066043001135726	0.1132438196048581
Si	33.530368605317555	10.653063575150043	22.41268826258252	14	2.3581249827377606	1.2015849883075795	0.893849649649588
Si	37.40293385389408	-1.7645665438263218	20.95293973231931	14	0.08784438436817928	0.021524265298151657	-0.06226111510110984
Si	38.98149653912896	3.3892583177751514	19.38440904902237	14	0.03288700815001408	0.029911467963006706	-0.0021432733948754386
Si	32.78500074507475	9.334888171742652	24.214012456859265	14	-0.035057792371815104	-0.26660202441466657	0.3177680487277414
Si	36.26347304658629	3.0120369247082546	14.963888935973808	14	0.0016645335842638662	-0.026375426816207057	-0.06435039528426217
Si	33.963971826024796	-1.8259973182548062	27.635177153211732	14	0.05027359365645143	0.017936030713353	-0.1374183802670184
Si	33.735779198692384	1.660283142400557	12.547186258289125	14	-0.0027649666612872444	0.009088857306723458	-0.10125706949179575
Si	41.53103675971596	2.200136629938144	21.58804781953852	14	0.014223611741591188	0.0023548753627236256	-0.010461056216086489
Si	32.85815858383757	6.520361432971737	19.6033834361504	14	-0.07849610253465288	0.02309341087503803	-0.13903791950817967
Si	27.614154425997953	1.3428024032386106	24.514247706975524	14	0.03620142001821697	0.0233255816854474	-0.020295276955120876
Si	36.11346743731335	-2.6756041030674997	19.233347526244955	14	-0.02280133331066921	-0.11488932700975289	0.03964824381040748
Si	36.9095619753356	11.13603445859587	12.435074930228044	14	0.012510998487840552	0.00958199530712786	-0.03257127641669989
Si	25.986077469129178	-3.6325631923618484	24.711960509700774	14	0.05185302365461839	-0.04981002336722874	-0.1369532673146036
Si	30.954216399294218	7.656969132339217	12.23939817912764	14	-0.027070653694775095	0.04415744832088318	0.03251085544167641
Si	32.46264731925723	-4.126648347905415	16.521064842693047	14	-0.1521320446826298	0.13779607563854818	0.03717509760295704
Si	37.30518031382825	3.8485773976372535	21.12743561627391	14	-0.08773254128675283	-0.047774993506331534	0.08948860622041395
Si	33.49876038640375	5.755005344237151	22.906646576722274	14	2.5453942669465983e-05	-0.06959262192151208	0.0022589731342821024
Si	25.358738006070773	-5.2593503204100305	16.63591067374542	14	-0.025754761991923305	0.04628555219436974	-0.011141113573265657
Si	30.087851723559584	-3.6454005308022963	22.24156932509307	14	-0.019199728978205783	-0.11577275879775577	-0.03261575653873846
Si	37.665474145004474	-3.0496198679289415	12.74627619625577	14	0.022274256720038854	0.02875627034266418	0.00012598416068725587
Si	26.689251618758156	6.67764477369982	24.46428701949184	14	0.25620293183679566	-0.21320402357317117	-0.115255966628406
Si	28.227493563199133	10.178689903217204	20.34337124412239	14	0.055622521164487494	-0.1448272773575571	-0.03292943138779652
Si	27.64569016410958	4.996943459867291	23.12327357423428	14	0.07342511151172482	0.0846155903071373	0.012048970861809942
Si	31.630398039275406	0.7307152071659755	19.500241607358948	14	-0.023606346386407573	-0.010497565911632593	0.02162119596872124
Si	35.03643566275496	-3.0540477860256856	25.934013191091353	14	-0.021701928675773894	-0.07419027245500089	-0.0026556946851809507
Si	24.882359581041307	0.7916188484877045	11.062048032480858	14	0.10935245170281399	0.011747123097224558	0.050703996687044214
Si	25.709113498385204	-1.3494969936944017	15.714017467087002	14	0.0012762966809215064	0.04821336696341678	0.13079855539923313
Si	38.98871661540055	-1.967922965375768	25.21235808419773	14	0.00546796968435892	0.02258638890590483	0.02938387715131232
Si	34.87641781903559	2.7519049729793563	18.567591590740808	14	0.0038124349687155717	-0.014252151010644832	0.017282712851503373
Si	30.3039252313095	3.8578203472060144	13.132437437355044	14	-0.019386391224448532	0.0038664281804386817	-0.007536166803886035
Si	31.15539510219638	-2.2675240084729613	17.167099410840716	14	-0.05364585539435765	-0.012098078973424771	0.0452725366982314
Si	26.744689548679215	4.47980282006702	15.171803411605728	14	0.02833255218590377	0.005670572783586588	-0.01480982375458495
Si	32.66648969163946	5.580232715401507	15.919062361869024	14	0.05901638018708297	0.015142781893544127	0.004270605936765959
Si	40.54142506904004	-1.0030931198811806	12.192267537510848	14	-0.047448720241204737	0.0038304327059566086	-0.05408705706729506
Si	39.60243957139508	1.1390061550032158	22.573799907498415	14	0.029031121501388008	0.03598724694504863	-0.08407822929522636
Si	25.672607883451448	0.10329337955964006	20.488112111491613	14	-0.04238184298678892	-0.0220251166145165	-0.03168347374965276
Si	32.59735947927044	0.24180748710532055	21.676632538128732	14	-0.08636934124601031	0.03622533129769435	0.022341876789958748
Si	37.1090554995871	10.676305203285072	24.612312585032537	14	-0.12809478104456543	-0.10070505317955995	-0.0663928813505878
Si	27.34279289180421	5.865390311373608	11.793944347264159	14	0.05614985486564987	-0.028046645274303308	0.01882049094348394
Si	26.85920427424891	-1.9824701918312528	26.14199850023449	14	-0.18942669868297374	-0.09138248239923503	0.015403234862475126
Si	32.676315782207574	9.350731816182563	12.065482141590472	14	0.20362974158200375	-0.3767525472088545	-0.1495779086575947
Si	38.583481392291525	-3.0756750690212757	16.752448272612284	14	0.027731941983117184	-0.0057258515479697725	0.07513103989164306
Si	38.14293978206662	11.158073564331112	17.587840583743134	14	0.07152120802215516	-0.019755344837889783	-0.004160305518531607
Si	35.78823784148211	3.9345033886202687	25.12110804883649	14	0.013765697884072815	-0.08012515486549868	0.06951008944073533
Si	27.995956935220747	7.479718977901822	26.320414936670584	14	-0.196080719251517	-0.2415517452804638	-0.03047376869652309
Si	34.86528872131922	10.068779355876828	19.125634465043365	14	-0.022342391011022776	-0.06439744651162088	-0.007422781059267505
Si	23.060917022287057	-4.849066150512872	21.596065184634075	14	0.1474346352627193	-0.011696215211885626	0.009730090973568391
Si	25.68743185478798	-3.02941584432159	17.394797850885546	14	0.04346119300018708	-0.044657271195119974	-0.021339917046697042
Si	37.64984135380726	4.041621777785801	23.548852840682134	14	0.09540240556728655	0.041167767054614994	-0.14410633942578757
Si	39.54138767388708	5.363271317824901	14.125480435097744	14	-0.2485194406980651	0.05580481253168599	0.3105594407416422
Si	27.549778295335475	4.041382920596803	17.334225315046496	14	-0.04371907486379793	0.017164699117308575	0.0438782262831151
Si	40.25471901956684	-3.939389253603506	25.448376990874497	14	0.00022394327338489767	0.07232750665055358	0.07445715318723226
Si	28.02267764186036	8.642190792610437	18.48479051070628	14	0.005999931375097557	-0.040260938208198774	0.08097567650540367
Si	36.662422207397256	9.871710643916396	16.169518126507047	14	-0.06196029577865251	0.037824815917358465	0.00517923455690629
Si	29.610730370307785	5.023893139950151	17.814301908278043	14	0.09751354014566015	-0.03987758640496469	-0.026383397242699513
Si	33.7613336233333	5.411535295621215	13.811175672904	14	-0.0006273496981161313	0.02573830691787436	-0.017295825488636125
Si	36.75063628552178	0.5879263795827021	24.917659378993363	14	-0.06246500375299758	-0.015516877717625673	-0.04438267714692815
Si	30.005226903657626	7.428605186747112	17.967098028434872	14	-0.0006270925875841164	0.04764001047702376	-0.08360900257429935
Si	36.67043957249281	-4.952644511408351	19.154516417420677	14	0.008608831943451812	0.20851895545879734	-0.04969869450686632
Si	34.01673455542908	6.554518010998515	17.571440154959213	14	-0.034220126258510855	-0.02898895537413758	0.005281307438116169
Si	37.14812924112534	8.677190783608024	21.708835429078597	14	0.191115143546715	-0.006704157122286117	0.211672673244491
Si	40.45242688041922	10.88623596305033	11.286858771475242	14	0.015749562749099073	0.02703671510454914	-0.015908457057884223
Si	29.27477855762694	-4.267768469747616	12.607516642357258	14	-0.8708912218038577	0.34937516064938573	-0.2769368393595338
Si	34.59886576541938	6.67783421216006	21.105406394284415	14	-0.1168721634326511	-0.022573276268772074	0.17705248299816506
Si	30.131663073894774	2.4151393985649623	27.65118058487463	14	-0.06143990406185453	0.05275805272731052	0.023149460971017256
Si	29.29822444984084	10.996831783429489	23.790530191801725	14	0.07314871768980889	0.045504193287576745	-0.01553024746529044
Si	25.82997853060034	-2.5494677397848147	11.98032214090321	14	0.11160396863166767	-0.031417364349017436	-0.01167718903251653
Si	27.64104645089726	10.486991937157777	12.785394414649883	14	-0.0854350015726685	-0.3505527268860136	0.053307497934226164
Si	29.214474530214147	-0.3472901163489533	24.105946875392533	14	0.06158722839669903	0.06094753739304618	-0.036007815787609816
Si	37.03702276054901	0.5582487856723843	27.217934826305406	14	0.08855220966281604	-0.03977217108683862	0.016647906947958813
Si	29.530551777479356	-3.632370459319691	18.215275589677137	14	0.1141395926983977	0.07818577012251099	-0.10652809250863132
Si	24.583773269174618	10.34375669372472	20.433957421227312	14	0.004379363691808223	-0.05294728607887342	-0.03504493684521436
Si	39.58968953937544	-2.639821648864573	20.698509054598162	14	0.0012264172377106338	0.0059053146993161085	-0.019739146874372848
Si	39.89539050089237	9.310483556190844	14.358132279055111	14	-0.015616636604047416	0.018592948122650832	-0.037516283278940694
Si	29.46483804655849	4.344362557450106	24.420813363803163	14	-0.019255007742588964	-0.017474774418918433	-0.14037772249050884
Si	26.203061928779206	8.48782809875197	23.114264539981644	14	-0.09972160539460333	-0.01988055766698099	0.004815423154105337
Si	40.673035380178185	6.059488957735665	17.43067090609119	14	-0.04289940648773473	-0.025451114453613817	0.01834612201191662
Si	34.86635781315136	8.964325128730456	21.213837674343964	14	-0.2617032974481884	0.13553324584628582	-0.2568945591679154
Si	38.26731519131455	7.288251055200664	20.085181448433694	14	-0.09400912359429832	-0.04145187419249136	-0.02460084992424085
Si	34.174683401704435	1.9334204562476813	22.152174139351224	14	0.048621915598788305	-0.029614762409061617	-0.025836523141104017
Si	25.39407239713296	7.1946075060765615	11.965325204016025	14	0.1975835303111435	0.16628520813844896	0.048202568321072156
Si	25.46344640856386	8.050660140410297	14.116828862983125	14	-0.08473643225718426	0.04152797890996774	0.022829872579722854
Si	37.41950724822866	10.935232985323227	21.437452480102394	14	-0.11002710973882086	-0.02073724995965433	0.030929368559253333
Si	31.388167198393727	-1.015260010901474	13.530502002921233	14	-0.07157751522866641	0.06439179007991655	-0.06380866339330696
Si	35.17002601762536	-0.17863552613358563	12.176750056680742	14	-0.099733175368544	0.04497171737577408	0.09293825822845664
Si	39.386550560232536	7.954018521741523	17.994709919483093	14	0.025186290605638567	0.04496477539140968	-0.050127297763735014
Si	39.707441191678804	2.259346856154422	10.203412445924023	14	-0.1511195434075555	-0.009656043140348127	-0.044232267485699486
Si	34.95619612016107	3.5449355498185895	13.09220729756387	14	0.02716475614949251	0.010597839019118366	0.06875315603448373
Si	31.958688301707756	-6.023545069018795	20.236233087465354	14	-0.5644828306015947	-0.4833400322503813	-0.45869418798303785
Si	27.429596888868165	9.700059631447317	26.90270593388388	14	0.14449071967114974	0.14204277029583673	0.027468146577269988
Si	29.806034833651545	-0.03819079358441425	11.990296487657593	14	0.07719049525308166	-0.04962464667364606	-0.040065019982803485
Si	40.850547453878	9.200627369452103	24.503260276281598	14	0.026114202515680005	0.2013311734257914	-0.10334532123282
Si	37.47016473978784	6.457308076949022	14.79105352130549	14	-0.021878049390204036	-0.022550393431422757	-0.0894929770994582
Si	39.12868198628076	7.444289043964038	8.711128271937307	14	-1.0977046200576366	0.28470054898425295	-0.9289033282528908
Si	32.65767503771994	3.7316378597764883	22.190313866915922	14	-0.013587006064322522	-0.0499900007396391	0.022089394247520204
Si	40.75941272888386	-4.975681875464512	14.570446668837478	14	0.03138291153772745	-0.03781196039075772	0.08515295131904826
Si	38.212686081254176	0.00787240349119719	14.891291176136907	14	0.03913685096223003	0.04243917863542822	0.0735618943147567
Si	25.93085203974178	5.109336474682293	18.76110215423064	14	-0.007233290597172591	-0.048813205834607326	-0.04274976815810211
Si	35.606670137442194	4.966517995861764	18.13474282929261	14	-0.023983013315809265	0.002848013363128027	0.022041828799097465
Si	31.5438987910388	11.42049195591056	12.89844305126641	14	1.6459432072465359	-2.5712171632295053	-0.8576245754624257
Si	34.296026148297564	5.668540689110672	25.064490658589065	14	-0.026117544952596203	0.04341259910963628	0.060067448041959494
Si	29.97041305653836	-1.1238659038026313	26.243628115925937	14	-0.12279727564293232	0.21693109784525783	0.005870604777494109
Si	29.13219234683158	-4.907199048442219	16.22195798688344	14	0.02396090181005599	-0.015049450770422752	0.002821273867798487
Si	32.348504881444185	2.3491340971444186	10.664378816744737	14	0.03770268841465143	-0.06640239444027235	0.025007084564824245
Si	29.61417979757511	4.453136474029041	20.060063555896807	14	-0.03783895699661928	0.084488577704322	0.08042366019316786
Si	38.53101846984172	-1.4847824109612064	11.16740382032068	14	-0.00962853231342254	-0.04629095151554206	-0.007271085845378767
Si	25.529657621354232	2.424382348133723	14.861488388113735	14	0.021972923176517497	-0.018623544275960593	0.07631631944423133
Si	31.254361048407752	8.177522959005728	19.875733344919308	14	0.043301527359805886	-0.20968392327935645	0.1736583668650376
Si	27.61322205931538	8.92039023157337	14.512264352179374	14	0.07235656014067128	-0.031186479091268135	0.0022006090435147405
Si	28.946957773117802	2.513874724042129	21.146672680088557	14	-0.042331449322514016	-0.04172672535121519	0.0054916238533042816
Si	24.646902400581432	5.65386991583329	24.85782482950377	14	0.8938635336183168	-0.5374065204751152	-0.25913322057016835
Si	25.84940009100235	0.04519178015850674	25.387685850086427	14	0.06553978860536266	0.12888925258849118	-0.039118339003924966
Si	30.570005550689938	2.889788168087889	22.885338868172653	14	0.012654466164704817	0.13702474404250373	-0.006871021857563726
Si	27.013412122757266	-1.777445064540735	13.846272854068143	14	0.04491695283245493	0.01690450325890959	-0.07104349665367164
Si	37.47285311863229	0.4037856070654418	17.0976743333901	14	-0.04753973736953798	-0.02654614820946488	0.0091017128333242
Si	32.80653577977665	0.9896116906759163	25.23007964033046	14	-0.09368259321863952	0.11091028441629172	-0.0026788346330622833
Si	40.06458046066928	5.7938435231683	11.914341548847046	14	-0.12914559178890997	-0.150677056181958	1.1329483033440986
Si	27.074931850897514	2.72356497932743	22.64757383307976	14	0.01161085451525671	0.022318993952609428	0.012867353685213075
Si	41.30497243230207	-1.5841519434574376	21.898840557408512	14	-0.03699229201469452	0.06995746176644109	-0.04047562550243113
Si	31.213831101662112	0.7727688980483303	23.506056221577445	14	0.01675846447672518	-0.12121835986582938	-0.03610757467403156
Si	30.9669170125851	5.9782692770214	25.169110107370386	14	-0.044878386252652704	-0.15191427206201324	0.03909622749817169
Si	35.92918005590078	2.049155824417703	20.633431177987315	14	-0.00597010655338384	0.05198517846807401	0.0020476282769659303
Si	27.9509298841581	0.33436382419674066	13.385589817292312	14	-0.027583589206144638	0.11015900744174444	0.11232362101077711
Si	32.52717994256078	0.8536574732799156	14.371447331873556	14	-0.013638942391789515	0.02575656176564741	0.13130403470517427
Si	32.39360276601805	-3.6028855984515307	22.744439483318907	14	-0.024016694795503207	0.033849887092409534	-0.09467324009849257
Si	27.42352497439473	9.951933713600704	16.61152088381224	14	-0.002302424814192605	0.009190158856337295	-0.05705976903845028
Si	37.026872153662055	8.377617744457126	24.097777959528784	14	-0.1474405488049556	0.25321659300744365	0.1519299558044662
Si	29.201334090237317	0.8503612440717371	19.45270902674826	14	0.006021785770318816	-0.006390739383760066	-0.009015580805099238
Si	29.077513818042437	0.8978180492983326	15.433371801050534	14	-0.026907902728009723	0.024332169418285376	-0.02928694648074274
Si	33.15739392834196	-4.719498480163402	18.713368604123	14	0.44764254887491334	0.3808141222830924	0.05846127854846299
Si	40.0689177777633	6.306025817183155	21.267825988221446	14	0.08493363603523962	-0.11655925991518905	0.12522928416526038
Si	40.960980192452254	4.171271812683202	20.355154316349328	14	-0.013539440615899784	0.058428368400365104	-0.10584854937251618
Si	22.132910718881238	7.376733641751442	11.079351176710098	14	-0.3795067152277971	0.3380201311134838	-0.014457068104660634
Si	36.74357599647318	-1.7994924067307712	17.239316646466182	14	0.09124415693301108	0.08358431996322592	-0.04545071429691766
Si	28.38055983907317	9.312139083604249	22.488605313701022	14	-0.11766637786604482	-0.030533675450482543	0.08799762224526009
Si	32.586704801350145	4.690033386786745	10.220733710353807	14	-0.02184205391572196	0.01668518797510096	0.0775869596934485
Si	34.100566839603694	-3.7304221590490343	14.901891493455564	14	0.1238923093987834	-0.17702060129219524	-0.02660039853172001
Si	39.10657039974335	4.294566599062284	17.195648610444387	14	0.018220137851229362	0.06594962279339427	-0.011092776793246871
Si	40.22242058574138	10.162149454701801	18.216950884582044	14	0.0014711864641887308	-0.03372210315799817	0.023836974533624853
Si	26.483055267596065	-3.207766389119336	22.43111650653649	14	0.05489181303250141	-0.043534983722875335	0.056888019203064376
Si	28.518337607560355	5.322033035967057	13.75141030963467	14	-0.02484381937699484	0.014524945285112542	-0.01042531785213643
Si	39.33816633019624	5.7087840072295135	23.456284972554002	14	-0.5247168301675242	0.309826418614868	-0.11476205729640555
Si	29.140530933664063	-3.270979532365036	26.650914216278423	14	-0.013846430591125464	-0.08470377921961839	0.12879026503366547
Si	39.26363629806489	-3.20195474661736	14.517942564113701	14	-0.024699323258002517	-0.041876363680847815	-0.08246820314374963
Si	36.3849838168572	4.072048889082287	11.213266047899339	14	-0.04829255700727734	0.0030483024675675625	-0.056190478329708214
Si	40.17833578510705	-2.2591837743495193	18.364884201829057	14	-0.05245080564155283	0.02666878993323595	0.007966826945010838
Si	30.011384477260908	-4.8060850348208195	20.18949779567863	14	-0.1685709207680606	0.1618793620618432	0.07663333673020559
Si	35.1592823859933	-1.822225021959589	15.578335052699174	14	-0.1026418668172275	0.15159031279167462	0.012636725537995795
Si	26.28724508592801	1.8746599404631041	12.643070123116937	14	0.010041708938370336	0.0005196203852019268	-0.011519837386923469
Si	38.569131840751076	2.0603392827357063	24.394570371541548	14	-0.013204168482152475	-0.036322776189327964	0.0813148052971312
Si	36.48412767049211	6.477882741022061	11.340599991708935	14	-0.011227502712022632	-0.06644558900965084	0.10372250238328576
Si	27.898946323377242	11.552756241559273	25.546198069869636	14	-0.10231327955731259	-0.034909953815906586	0.0510768069584657
Si	30.024587514294165	-1.3255519723200466	15.384814605463585	14	0.03472869089083615	0.054133336963057735	0.039605306351561
Si	35.40471885508044	7.575945479249025	25.731640202244197	14	-0.017449320476248968	0.09510312890802133	-0.11812069217611498
Si	31.323153566130266	11.748709737540727	10.2988877825941	14	0.06288692213603388	-0.027718572235452408	0.15919564232867264
Si	35.51047328733224	6.991643139775265	13.451181648682244	14	-0.0025708482096160642	-0.053600603940723045	-0.012297853856800276
Si	26.724302675775462	3.6992652978578846	11.147952608681411	14	-0.02039709272579874	0.031101375505171242	0.06825307604971494
Si	37.96656269183729	2.588814931622173	27.981197208231603	14	-0.02546371286968254	-0.05229551088021588	0.06402977845083971
Si	32.745360335446755	-2.9848599184731066	13.107705010902473	14	0.29381357468098573	0.44757518591552536	0.22538926301694898
Si	40.211046041672176	-1.0849091199224632	14.48247474248387	14	0.04807864104464101	-0.03864936939352995	0.06126738289487261
Si	27.395446900005222	-2.8800938607964692	18.977439228533935	14	-0.021325518856904212	0.025524905176302074	0.0444772938227096
Si	34.078292171261374	9.293335257311716	10.004951773103567	14	0.17107389179722474	0.03946440978001689	0.12008115998272789
Si	36.658355046020446	-1.7711046416410452	24.6371487908155	14	0.0554420295710131	-0.0052471117373582	0.0887964646682301
Si	27.843966340342675	-0.8920722984347008	20.27701506972766	14	0.014952005878789138	0.023206539509124546	-0.006050839260436489
Si	30.06163838253522	7.736498692529949	21.90891374162041	14	0.013375146985942322	-0.0007782735804088234	-0.020631577530996245
Si	31.160351800690837	7.402940393611968	15.89526889126286	14	-0.05923209592344339	0.009478636873257909	0.03797959645763138
Si	34.68130608873398	8.830046206239363	17.1655081277747	14	-0.021238101276019175	-0.06997417395102207	-0.03494132130081239
Si	25.52469433369594	-4.761109049777891	12.621261638115898	14	0.00038232336110601933	0.11252699544160082	0.003544525794356142
Si	34.20804928007109	8.992520160778026	13.821123663003045	14	-0.0023847001844373435	0.008042931662487221	0.008447366529346512
Si	28.456099660562153	2.9557176941243375	26.041034390090328	14	0.019120796044877236	-0.05921024152822212	-0.007451577438853162
Si	26.874387355014417	7.022121317091467	19.768631428663358	14	-0.01598738999121277	0.018102381227566577	-0.014292774474703172
Si	37.81503992759147	0.5296962914867972	20.912121509655915	14	-0.009968689547278132	0.010373124414137425	0.01814351891268895
Si	31.429281933429674	3.76733136026765	16.81006227388967	14	-0.03019403243769098	0.03805081607499947	0.030099672872441547
Si	28.523529868661893	6.111325909621205	21.245264691252324	14	-0.04295391392052187	-0.07451063217789133	-0.011252185323096051
Si	32.73467930087112	-7.332825101249692	15.527983957258298	14	0.07691230165744166	-0.008423455249869136	-0.0973268778994174
Si	35.794197740170354	-5.42663930642071	10.114494974560172	14	-0.0242110703577064	0.025820839398651114	-0.017981539277519623
Si	38.85327470549267	1.1065462866638058	18.893237951184588	14	-0.017990281035608124	-0.04127678192018928	-0.03957033931920699
Si	26.517172310639836	-4.627492338252157	20.445980997934207	14	-0.03197529420348957	0.11586686125247318	0.07097201992577153
Si	30.849346562287185	2.4161936647784725	14.963536415708665	14	0.022640382117627943	-0.02243726479733624	-0.03203005874680872
Si	36.497996213072646	5.758201088696856	20.119519228465915	14	0.14709550647099173	0.0022836557453555237	-0.08284307029942722
Si	32.50853425620027	2.7601743735915787	18.66442923703366	14	0.09959176457593584	-0.023532555663719323	-0.011827341583213179
Si	40.521370948909926	-0.6164228658756965	23.894345762595243	14	-0.05471749209179537	-0.1043573082868303	0.049073658803538325
Si	31.838004471498067	7.2568174491284685	23.40929929254157	14	-0.0498215933411694	0.09681908459868815	-0.06726371472252196
Si	27.984210103394897	1.6395404546497403	17.442678009888503	14	0.008957216714331879	-0.01128201014480977	-0.004480151020358028
Si	33.803660764514795	-2.5265423915138396	19.469481743288824	14	-0.019849190182075184	0.02846444988882737	-0.03424737997490442
Si	31.92953948819515	4.4474714404223805	20.129635242242742	14	0.05257396158638791	0.02828318696375693	-0.03148729841372547
Si	33.810791887074615	-0.00944886093858696	16.186997530868858	14	0.01972217757925987	-0.028818233980879744	-0.013949017693399375
Si	28.499067597926537	-1.8935856662865744	22.380223452370235	14	-0.06306561395578417	0.06372613091253021	-0.02948620714305421
Si	35.53745756052523	10.851321631182591	14.332635509597747	14	-0.014279147616506387	-0.007352332773495447	0.007736970129389599
Si	31.951311732795098	5.498023012821116	12.348246223799713	14	0.06256064887090708	-0.018304212995198205	0.0032802161674449193
H	24.111999022374466	6.903967725794206	25.637803920077936	1	0.49218180633583847	0.3950606168620329	0.570965101334752
H	30.880071833247182	12.633790933147086	13.386726448053754	1	-1.0551042331186353	2.156264418726551	0.4167206365210885
H	32.19299402578756	10.044356620124477	22.113335960420077	1	-2.137657072414107	-0.9716422977686483	-0.8123085870842837
H	40.43396898522799	6.097837891252106	10.353220380281934	1	0.2502456808100125	-0.1256512025482967	-0.7262657762139322
