231
config_type=amorph dft_energy=-23318.010460578807 dft_virial="-33.236102379335605 16.802628592116204 6.368934546021834 16.802628592116207 -65.59596917781725 1.5171856816638003 6.368934546021834 1.5171856816638003 -52.67960765263666" pbc="T T T" Lattice="16.49852859653447 0.0505187976753746 0.0232135690167381 0.050271318261550096 16.421941967269582 0.027833184741462097 0.0236920292167988 0.0273712231689897 16.307375497296427" Properties=species:S:1:pos:R:3:Z:I:1:dft_force:R:3
Si	8.013360321558686	3.8550429244780364	14.794649330980375	14	0.10588120241008209	0.05033992817371126	0.248430994675052
Si	7.356936025154029	14.763074257501888	14.307976114106221	14	-0.07510455750684553	-0.015425603478760415	-0.11012429751992245
Si	12.239572870890708	2.933889899105312	13.07967308851039	14	-0.29256633149018196	0.11154380476717621	0.32876980839265496
Si	10.664854761274379	3.47489309662774	3.229330823329	14	-0.058283615170840755	-0.028415084666680523	0.054017380113119046
Si	1.7332814697792036	12.854364530439048	10.434811097085193	14	0.011761778397549402	0.009996714595267745	-0.10347001984084721
Si	1.0423156466556818	13.203026727537075	16.001154369806542	14	-0.04969200963303393	0.21742372162459817	0.46455065168127113
Si	6.971127168040946	14.691683046064554	5.6423211026282285	14	-0.031719469224134836	-0.01123650158064315	0.1669945760962778
Si	1.645523619774277	5.300878704962843	6.392602791657207	14	0.0069442983591879465	-0.002284941298015598	-0.005543560180771273
Si	15.512773544976998	15.57381516732819	10.99704142886273	14	-0.18806709818967943	-0.24459901930590333	-0.024696752152682373
Si	5.2186016990427495	12.409023675399103	3.133391303903036	14	-0.05040369158565092	1.2381211662384797	0.19671912470250974
Si	16.949470735640645	5.393011991004186	8.46442785023453	14	-0.021516551982191216	0.04570139706563211	-0.027521882678461083
Si	16.788133956180175	9.013127657526901	13.500775809760366	14	0.21843493734701244	-0.15203151446461202	0.04251811156875677
Si	10.127275028976523	2.8039203104157204	12.011005833870676	14	0.3509448204473361	0.23168050062481932	-0.042298282063884106
Si	14.48944781867545	12.434372166825767	5.265381907706614	14	-0.06889688082188002	0.04436287963596301	0.12875838332769565
Si	13.416370480881383	5.8688868561218	3.07509010359426	14	-0.02566528752678215	-0.0018666224624275056	0.018230165161977938
Si	4.406761980619065	11.708335211037795	15.972555648744985	14	-0.6506313139006041	-0.6032867234248654	0.9932429248948084
Si	1.22579193447689	10.195533151034837	4.405757214198937	14	-0.046510009688818674	-0.08936725004930297	-0.07829529920914931
Si	16.51904628980328	6.762264441949621	5.321195114975075	14	-0.004926237793403719	2.7253716393569637e-05	-0.015594010877230113
Si	5.06464145597701	1.5275039870468907	3.664389733655918	14	-0.05455191290917784	0.0504725972082309	0.03399669720618999
Si	11.372492447575878	6.033599254786834	6.124640331681832	14	-0.03588106029532652	-0.06411436781587257	0.07766692106890512
Si	13.48125298373513	8.842696834539764	5.984274957748853	14	-0.13331618172872214	-0.022742197888305806	0.007700717544375513
Si	10.810187871974195	6.3113041543531	13.133847982059333	14	0.056179165466299565	-0.054485578391918026	0.04037200995802916
Si	8.879010313861611	0.1276102849444652	13.904908042673016	14	0.12745277604612446	-0.2166788724133513	0.07677423330174969
Si	7.908013284681873	4.1284152844396145	5.472556824195657	14	-0.027662265028941167	0.09286061084778816	-0.07183359731855314
Si	14.311985280610179	14.084741433522728	1.4899300125772963	14	-0.009939893167692474	-0.054560654667266346	-0.03682208484250071
Si	12.501147062263893	-0.514174779201093	12.735704750961236	14	0.03967781152158918	0.13296625429465	-0.05149821112043796
Si	10.306248841328884	15.512380877640396	12.350385903087526	14	0.07598438974740021	-0.03224551737263714	0.07012998293342303
Si	13.763798580635802	2.788819116584149	11.284940830415806	14	-1.332792349452716	0.5187030148236978	0.49443872258586447
Si	16.158724512588602	7.542654476464487	8.939260002088565	14	-0.07996188967766928	-0.01359600493294304	0.019125681144985515
Si	10.24442023444173	13.287437006004335	12.908651614655591	14	0.011612911399512827	-0.01173966689179613	-0.054382734179112095
Si	12.298845840364434	7.432606980587768	4.494280600523962	14	0.1284552500104502	0.0353668392312969	0.0005101072955173789
Si	9.583788788002057	2.9121397583556563	16.251268614456894	14	0.024983687506410897	-0.04563711943262841	0.01636714224699864
Si	9.65257321628044	6.322632112055226	0.3864984997462746	14	-0.0318595944640829	-0.016641736295190453	0.020054621497155017
Si	16.595355742124685	8.541738769250546	15.764384215149608	14	-0.05472906206573604	0.006479185406773159	0.00978356996422747
Si	9.359466847860496	11.172901950189178	9.627620691915894	14	-0.016909131248485858	-0.051512352199698776	0.03132763277334427
Si	2.8163701747938514	5.485377907694525	13.826407572607884	14	0.009209442146238403	-0.039819736535261364	-0.03873473009015887
Si	10.603474917057627	1.5630816275783006	10.04601598837863	14	-0.017571962200020032	0.18374764125183068	-0.016129829225948977
Si	12.646123802607802	15.476367673340656	2.384810623378412	14	-0.014673298062085088	-0.019684125220521678	-0.04456471140359464
Si	1.9513504300648001	0.3669459761913803	14.228287742854732	14	0.0647345184190923	-0.039452068474480184	0.059142621458302236
Si	6.191034108822669	12.167236288092564	0.9685420333945984	14	0.1799629742205727	-0.03678274693110245	0.08571988004214091
Si	10.024955490262164	-0.09991568867474479	4.678372287154213	14	-0.0302932771030487	0.011492326559997884	-0.10173838040772745
Si	12.266645468900348	10.11980445040454	11.855893986599273	14	-0.03833980831298412	-0.07466052761805597	-0.08039743491890237
Si	9.542398680971289	10.903806034498487	15.65369987224798	14	-0.037521425489581	0.019786712322795587	-0.01751154122499655
Si	1.2426452825583383	-0.7722446620745227	6.069292385711361	14	0.0798562172490112	0.15594910764092168	0.32419169825959937
Si	5.658912122531023	1.3465519892466926	13.710828086900808	14	0.7749162310817742	-1.7061134995013012	-1.6366484044036682
Si	13.33623499682225	1.0965466355384241	3.1038637101082553	14	0.054105054804536104	0.015984304664828593	-0.05716544146710836
Si	1.4633886703759982	6.084646008545033	11.977140750882931	14	0.04930017318224337	0.04534349920506749	0.06966949797058453
Si	4.410076554901555	15.366924027233667	9.073159563869691	14	0.6349231459471595	-1.1207833756323498	-0.1497494013824486
Si	1.0914947557708865	9.097755717878329	9.869673707126601	14	0.03532287333032237	-0.1407086237452119	0.022562734736959467
Si	6.9350364201915395	4.065661104544757	9.238154089066484	14	0.014170904082528153	0.18886054129147714	-0.09088240241446624
Si	10.480799371624821	0.8638136950523466	15.538636793584416	14	0.06462833176937018	0.0927950476621244	0.014052376127269325
Si	0.512087702811173	5.176094634924253	0.855259156647813	14	0.003599033227143281	-0.0361343141693611	0.0518599656389828
Si	1.6041549609593737	3.1891896624066667	5.31044295937578	14	0.05909839844679568	0.08469503746152988	-0.02427509088017809
Si	14.698200003961933	1.7758396796432234	15.283429422597559	14	-0.042013660704943716	0.0008327810131959628	-0.006799802240195624
Si	10.881211164016309	6.970262639955319	8.218885375288897	14	0.0094750373258097	0.2072403447830877	0.030367582046800973
Si	3.344982902997466	9.374096180943042	4.8957268568652355	14	0.026609911621404556	-0.1502826486258473	-0.23453005665113938
Si	7.4189444670818965	0.9581083013077576	7.834218223204925	14	0.2889151048250396	0.14677129009012108	0.027104078063937023
Si	6.730131714858648	8.57161448408744	0.9056723631066225	14	0.0430413315014069	0.02450314792207522	0.061885476613836206
Si	8.86773185204225	9.762907788277195	6.382936245753221	14	-0.023608403270663693	-0.0002249717155129569	0.012109391836833423
Si	16.27603965391797	3.2895541137518127	1.9680437414586418	14	0.0038651426277786075	0.0004167761723960036	-0.020861434346617483
Si	15.815171940454672	7.037410404376941	12.532083638854715	14	-0.08135517165065755	-0.13046534014974198	-0.057233832868624296
Si	1.3386903932008678	4.370667933044142	10.434286440727888	14	-0.08126055497487607	-0.03486033148322773	-0.15470315000277787
Si	7.95008148530652	5.63443640850378	10.584692879411106	14	0.0002936202275609106	0.029085114713111114	0.013674937866271589
Si	13.5706161502044	13.840126181447557	13.597050251326372	14	-0.07393007659660189	-0.09653394901868374	0.038624943892988546
Si	3.115046479887605	10.206468441400364	0.9722327763861012	14	-0.7268445320214976	-0.3485254103410768	0.07890747938587657
Si	2.632502869498801	2.0223027780082843	15.825278999715266	14	-0.07897021435568817	0.18018948859927775	0.00384714489053757
Si	7.14652902752044	13.569334206840788	3.6312852373999944	14	0.18268603186514154	0.0893523376384461	-0.092007003881499
Si	14.190618076345125	1.0517594610872247	6.845569312368465	14	0.0019144450213822595	-0.11287692287567298	0.029245037464024324
Si	14.128362155003433	15.228069927587777	7.395562612063758	14	0.03987630085230462	0.040609065868546824	0.009273719779242106
Si	10.950665436574777	8.681485444648965	13.238520225067784	14	0.002672921090825943	0.02989629844161783	0.029430157047074988
Si	3.9262031551291336	11.056514031730273	12.657367617309228	14	-0.07901932246730299	-0.04058284059428131	0.06347724791753988
Si	9.652682107222521	14.441806381651475	8.321422695887424	14	-0.03121810368670596	0.0063154059978797255	-0.025753476439263234
Si	2.487559126410068	0.07171458453806362	9.971994895703721	14	0.16111574378175925	-0.7260171503294739	0.36462747162956816
Si	1.3229672011092177	1.531488405609465	6.996601049037281	14	-0.04614594117548571	-0.20865650959342527	-0.23362374202578723
Si	15.357259131192441	6.603153327350814	16.183460904931742	14	-0.018405771655344055	-0.021170738316631296	-0.03336754773434975
Si	14.821698830911393	9.093411629234328	2.5854471337542106	14	0.12909905478261527	-0.16775947992902185	0.18382168908505095
Si	3.7330223745604876	8.409708501975176	6.989377949879123	14	0.07136951280826642	0.05343553897916954	0.04669410082974127
Si	16.167574376426966	-0.06107296974361011	14.809701028929183	14	0.018846459107217432	0.13083017999467098	0.122097163664256
Si	4.197466990484926	13.506367194650041	7.604931846022043	14	0.06298745235405168	0.013269988778348266	-0.018613259854680004
Si	12.755923819070698	13.811557157915654	5.995878442531703	14	0.008516529262458498	0.021073036314465672	0.02054673105543136
Si	5.814124611430715	9.194525118271983	7.621925432437992	14	-0.0480141063011053	-0.06131417701169931	-0.11262983965440675
Si	7.703154775506229	6.573949106656764	1.8100842310654988	14	0.09940253122437294	-0.018399343892043684	0.016697272170105654
Si	12.419850074822545	4.989544652783345	14.229312307627964	14	-0.013715047109265898	-0.008294128652265689	-0.011649163984526915
Si	6.415100320236612	12.931703497121964	7.092377232050121	14	-0.022866382275268955	0.07006647663201537	-0.04662365254396922
Si	12.667779901180205	0.7131185303863321	10.64443440990834	14	0.35928085811632027	-0.20930082858665439	0.13152309287845088
Si	10.575229266626458	10.70562122018231	7.7203034490215074	14	0.0087926659738424	0.04750091367920375	-0.0017879466396309742
Si	15.676702258831588	14.737277003404822	13.209507388453758	14	-0.4920198267006692	0.4068787024660936	-0.026617110716300973
Si	16.25320555333576	15.051762293453683	0.4887784417544228	14	-0.10807486946923242	-0.05888216848937123	-0.026756464624652997
Si	5.107471893196236	0.2519670405285176	1.6869582730995338	14	-0.03757310470651597	-0.3074509744095832	0.3413011186125247
Si	11.042052984649128	11.973438458852117	11.129091494491206	14	0.04294800037828553	0.04021157298605192	0.01063126338828029
Si	5.7296813357082765	8.38286853461453	15.077302168960374	14	0.039487035506834196	-0.18452822882702763	0.07089540098723111
Si	5.425448292842783	15.559298024913245	13.177447255324173	14	0.06431028604126784	-0.27271714130810676	0.06922881051871113
Si	1.6344860379177044	1.8483874448744961	1.674775686488333	14	0.03428311833885449	0.03708562313781589	0.0999208660569148
Si	3.333839729924328	15.084229942684699	1.7158671683597528	14	0.04356635120778114	0.043799036239254546	0.07062389226542348
Si	4.888985517632657	4.490312680588975	13.291838839844894	14	-0.09089602927266302	0.5512835472195503	-0.4173104480815304
Si	11.23233495635051	4.611952112209234	16.316855608708664	14	-0.008247077424906978	-0.005508336037885245	-0.00772102927640468
Si	5.074027525211994	0.6792930441047994	7.5637545712871646	14	1.6777894319629538	-0.714976052753162	-1.1299982170997604
Si	0.8173733581167998	14.878084540557168	9.667308140579548	14	-0.03842876855706125	-0.4432904388994987	-0.1234287391095607
Si	15.636095836611265	1.505257237606827	10.645579414662969	14	6.835043095266235	-11.350719077832748	3.632377377819217
Si	15.618636988897325	13.61727591888687	3.582170472932384	14	-0.34859380174259275	-0.1653416124859546	-0.18867362193470238
Si	5.558618615284506	10.594262083412321	14.286423956887623	14	0.19894544479922596	-0.3437462397719856	-0.1994509241051671
Si	2.589990855792028	13.028286463023871	12.654178432596412	14	0.6928326652939187	-0.26956856573305343	-0.17420472674556908
Si	16.995823629849973	10.308519052485035	6.643952783513921	14	0.018592948122650832	0.005127041118907284	0.039275176428453996
Si	12.738045906216016	12.92828168176015	9.74658734586685	14	0.0005003370953008162	-0.0147429750162611	-0.003502873888169743
Si	14.60179357337522	11.417385213243643	9.334643012791139	14	-0.08564454665626056	0.00820491129765655	0.012676834780990104
Si	10.072250456106785	5.025254282335461	11.315360999963112	14	-0.028744700368723508	0.05517360617558965	0.3367479482010745
Si	0.9938707264681567	11.376473566412933	1.1335118106500102	14	0.06936919286919122	-0.33266503295267935	0.06155071870115292
Si	1.115558004108422	12.27908213437641	3.2573570420132456	14	0.12575224698737852	-0.05863045727852873	0.027121561580114025
Si	13.577070413316942	15.161158093540665	9.691412635486056	14	-0.042814560012169836	-0.03473743264892465	-0.09495297635732468
Si	4.941985708897311	5.749379047185949	0.5284807391829079	14	2.4155758168954056	-0.41638767838212926	-6.635995577585798
Si	12.4730465997555	4.08405872416847	1.8673212698948294	14	0.06246088998448534	-0.024112339913412714	-0.06296714062202251
Si	15.691189703716875	12.130351956256163	7.265564975707265	14	0.039575481529847294	-0.08552499025887368	0.011002530996509675
Si	13.676382252221956	7.373008988150551	1.376818721557429	14	-0.052039171679797123	0.017817759868626187	-0.04753510937996171
Si	11.294986844754321	9.068373312006324	3.0205456407873403	14	-0.40715895294598975	-0.5549370878794808	-0.3691117364184384
Si	9.55342471378855	-0.48347083325926665	10.144473198374568	14	0.20497031589592896	-0.2010900037467615	-0.048775667696933166
Si	3.3010932538870703	13.787726540227114	16.024290395273617	14	-0.027524453783781235	0.1315544603633567	0.224278802629177
Si	3.5064005257331163	4.829197790978174	2.10973725491248	14	-1.5450473780522207	-1.6261917190666262	0.7402700726717147
Si	17.057302465832255	12.89225032897006	13.7705993149277	14	-0.36162339217350714	-0.7792300315879186	1.157265303240995
Si	13.698381522248193	10.492793873881515	4.248195320730672	14	0.7743158779895196	-0.04027790750331175	0.14517437657577711
Si	13.137588220933601	13.053832937981596	-0.45420556764314013	14	-0.04125826996188421	0.262860037731723	-0.018549753553272347
Si	8.670659045225522	9.133310260331113	12.705009054333203	14	-0.034760829707338	-0.000772360038172483	0.0006070379660869615
Si	16.519273970863996	-0.6762226495106167	4.089278889937408	14	-0.5744337795221637	0.6470315093418649	0.11297128244092242
Si	14.873577115500044	5.148984090071159	4.714063768215982	14	-0.008390545101771242	0.026654648853975133	0.029484150258798095
Si	2.281984576797091	9.89964181427799	8.074362347203667	14	-0.044220954622290844	0.03674932256194052	-0.028582977844086192
Si	12.155761492604903	8.968200244741201	7.999645012444533	14	0.005465655689570787	0.12523519770749675	-0.06928897438320258
Si	7.1353809048590255	15.409516884215623	2.05943788898403	14	-0.03715144343401168	-0.019094313660079708	0.005057107054199256
Si	11.405593644106284	9.450735605816213	15.490652185106605	14	-0.08444049803483522	0.009679954419825502	-0.0067021002380299975
Si	5.760459525474251	3.9336192882300742	15.527066306056742	14	1.401560932119121	2.7966228813205034	-3.032879692304654
Si	5.040173991263561	-0.21148765774062356	5.38956542770099	14	-0.1413583420596133	-0.07271908599081214	-0.16242700749503472
Si	9.274858585862175	9.44288060922142	4.128824450403805	14	-0.011622424489197376	-0.062216634979071275	-0.06333146624588748
Si	5.986969183634021	9.27157865869762	9.926664916404865	14	0.09515943611453256	0.02247146049809421	0.008674395129115591
Si	14.179443555879569	2.4673186100847415	1.287387910715049	14	0.012670407017689733	0.01605963805070893	0.05564309000704868
Si	4.916863248668607	9.156916496684454	2.266739844905502	14	-0.041305835410306954	-1.6338111896828849	-0.820300867971964
Si	7.94532988056109	12.902766554194844	8.91454670782405	14	-0.0037530424358201506	0.022534195467905825	-0.034649243736443576
Si	3.190394062220612	13.507711832798487	3.4903176635600413	14	-0.11093908079587739	-0.03026139539707886	0.02161039732637662
Si	2.6607980158127353	7.864310070063225	11.10633823718418	14	0.045994245961596965	-0.04977428500327868	0.0071687558536368745
Si	2.6563417365011355	9.078203194323432	13.0651938929389	14	-0.005237084426609622	0.015604552409042722	-0.05505816354671499
Si	1.549976767684914	4.086904737427452	15.279129880248046	14	-0.03468395365826557	0.06961087676928514	-0.03103041299833515
Si	7.287313466594162	7.473998737481295	13.618316982287691	14	0.03697480849851751	-0.0191619337299996	-0.012532338661997782
Si	5.968828942600686	5.041203505625071	2.7105908738742244	14	0.8906655928211166	-0.24655640178613208	0.932135207640317
Si	13.345375236506168	4.633017559913976	6.401398210024529	14	-0.0133990582654197	-0.03405994639706563	-0.04928294677659838
Si	8.893072094155118	6.038626386612989	14.50230684901777	14	-0.08859309023740639	0.14325016135417828	0.028877626513775165
Si	15.501735963120424	10.201703637752862	0.649026311794063	14	-0.029785740912851466	0.10000802652726781	-0.01955222751759808
Si	4.838587159938676	7.214282291574552	10.399495784732437	14	-0.030494080428552263	-0.00027742226404397775	0.02845442257807879
Si	17.106316588671575	2.736841840229969	11.943019939167568	14	-0.17845502095030585	0.2389973521448967	0.31211933033937606
Si	6.15464968540219	6.165667468905657	12.072842690071624	14	-0.0005558729702160147	0.04356532276565308	0.002262829792262325
Si	7.8772103469745165	10.949710166037415	13.942569459868828	14	0.006047496823520296	0.05622081737248596	0.04680928634808391
Si	11.422499787796015	5.017524675310343	9.400710117105728	14	0.0595691678309148	-0.019641187761675203	0.062022259416868085
Si	3.0392633337862667	2.8086471672197684	3.413137083701974	14	-0.010704539889904512	-0.3549254057039894	0.00516586480924152
Si	8.631971413393718	7.156947910842452	3.855902502975387	14	0.013726102862142537	-0.06559661003293793	-0.04493057969065171
Si	7.9750736063772765	2.238797769221957	13.050701498465337	14	-0.03674983678300455	0.6555696358890125	1.3226999897395388
Si	3.3570269011369245	14.605436470346717	5.615599925386218	14	0.03533007242521878	-0.014016380652787253	0.019076573033370688
Si	13.651065108187709	11.383721413512475	13.318901538677983	14	-0.02448643573749426	0.2108800014742893	0.17369976166069198
Si	4.870251326006142	5.325801531797728	8.843224790622587	14	-0.023738501199863184	0.012513826703692716	-0.07192872821539863
Si	7.190803094653643	6.402883086507476	5.502727864466381	14	-0.05009207362084898	-0.007360303199987905	-0.020297333839376992
Si	8.320079707601737	3.121720174747072	7.578466397507651	14	-0.046635736738973914	0.009089628638319504	0.036061037667736884
Si	16.566491393158955	11.207257042416295	10.650773182627766	14	0.029943092558444524	-0.09704097098781693	-0.30598055927699047
Si	14.776340803945638	5.549654910915783	14.139322193310342	14	-0.00737547272137678	0.06488287119606484	0.03506936234575577
Si	0.35410344447664754	8.150977024135456	3.439178517487347	14	0.023911793698441167	0.007258487429310043	-0.07559615284405785
Si	12.336444562775412	2.493863252011557	6.563030314918827	14	0.09288966433790585	-0.022605415085273924	-0.056800087401115314
Si	5.854379612883407	15.136048832214033	10.885995766016917	14	0.0026968323703033203	0.02266352206550927	0.020551359045007624
Si	7.960078003762272	10.63352056775868	1.115228031556656	14	-0.005693455620935906	-0.0012778393441135955	-0.021152226358326233
Si	8.985571649728923	0.2536597997190772	2.59459892247744	14	0.0206030382619426	-0.01278199298858416	0.004882014781897172
Si	15.645509953513148	8.365210053506773	6.801603769571164	14	0.07171198403691013	0.04876666882831264	-0.04200157650993902
Si	16.392581009613444	14.429125536487108	7.558224231319565	14	-0.1041019975285396	-0.020367782125149052	-0.08094842278901011
Si	2.5117857111607274	1.2926361241508872	12.103693473798987	14	0.3957640712776254	-0.07638111129829905	0.23693943944665016
Si	7.670466044665529	7.8610367423497065	7.235969737539373	14	-0.014394590245381035	0.0482763590437604	-0.0039947263359140705
Si	15.905675162090292	11.06991586692025	12.884870492849815	14	-0.4942772571717592	-0.6250904678713173	-0.09146141533256359
Si	4.976586630675494	1.7230028247916926	15.967224942171205	14	-1.4535556236768794	-3.5387397789436807	1.3294820513530254
Si	15.067525082251546	1.1060844921472204	4.636061556704017	14	-0.37052533012345584	0.48230053436944537	0.19458459306572282
Si	11.333166318856406	7.911220617885038	0.9537823611541053	14	0.01589380175755938	-0.04830335564962196	-0.022591274006013108
Si	15.762079356875523	2.065220657953729	8.266538361352186	14	0.25579875408046837	-0.02600055966052946	-0.654242688433284
Si	6.724489184223449	2.3882076907988425	10.973560582079061	14	-0.3640286612005057	0.13158659917985854	-0.37759175598535083
Si	11.510100900838852	1.7431080523707951	4.52072295095973	14	0.05904569078773265	-0.0029657699867908093	0.007967341166074867
Si	1.8327302472931994	6.847321466618342	2.0423931568225573	14	0.05201937416883198	0.1732225645132725	0.18282898532094174
Si	13.471322459789732	10.798826917016893	15.687061747094281	14	0.11942989900513439	-0.1636727080226465	-0.3406719691406845
Si	12.401869870476816	11.074494236076005	2.365678814827019	14	0.3008090380360446	0.11175617806662043	-1.033450127001816
Si	3.367119111632688	14.85489736934457	13.973473039204473	14	-0.04224814551014122	0.10421358349943403	-0.01216389926962056
Si	6.928851084708685	3.0780252094422185	3.5311088704093545	14	0.08464618646044707	-0.04884097377206492	-0.07536243937045639
Si	10.837418856808684	12.85890165302583	15.203226294165313	14	0.030481996233547567	-0.026198277659648852	-0.09594953677941408
Si	7.488011021892038	14.017606868003176	0.25578647281520905	14	-0.0003291014809789541	0.02512689807274315	0.07477468469427054
Si	10.626599393485387	12.644180264277901	2.753744684194182	14	-0.295952734307349	0.21373958481135802	-0.051004816009501554
Si	2.2647336117907644	8.186439174273747	0.17784860595083868	14	-0.11116148140607018	-0.01871996072546615	0.12952071605511956
Si	14.510826740304369	7.155852401970588	10.536041726378727	14	-0.017373729979836616	0.16208813581383924	-0.03861645924543206
Si	8.80641800233585	2.52622201030049	2.1704802521043245	14	0.0020113756919518423	-0.02347367735188793	0.02320936772497671
Si	16.053987924932557	3.2024743573407655	4.259330244490017	14	0.0798320488590018	-0.08509998654945321	-0.023787352200945997
Si	3.1439504255595483	1.7917460065011033	8.449051129322237	14	-8.8959830129167	12.40005375061297	-0.5000303624361225
Si	9.813669115778117	13.788305642055464	0.741321284385772	14	-0.020992303607413023	-0.01697340888148956	-0.060401948844110764
Si	12.57591554276855	1.1014038315004198	14.426997213528216	14	0.01919921475714175	-0.013320125332091154	-0.04440298887895733
Si	3.486626920568539	3.671140972065051	9.838273519100548	14	0.34720720464343685	0.1108596336414848	0.15841839719039189
Si	6.6815069596304095	12.978589297002394	10.87370923805191	14	0.009669927109076925	-0.05122156018799003	0.03607595007859374
Si	6.721105315705088	10.78792957349482	6.182156197317405	14	0.31527150546187754	0.12139987990143185	0.2645464257112082
Si	11.455058179478765	12.928425219820168	7.734149097293609	14	0.04252016845301289	-0.03274559735740593	0.0046405879923352685
Si	1.136988071482865	-0.3809302129352234	2.0159607055633417	14	0.0701693208448213	0.165991073689824	-0.3406496005243992
Si	8.599967375597934	11.55474948681831	3.203726603174718	14	-0.00019257578847909113	-0.0692699482038335	0.02147027208642855
Si	3.5527088736479566	7.57643706631429	14.685199085422353	14	0.022069339626023053	-0.11202434435151189	-0.0049714892470383255
Si	3.294018642377207	11.850370246082711	8.97394011727917	14	-0.01781827408969022	-0.02134994435744562	0.0143279986175892
Si	13.651777848899524	4.8466186918486605	10.06107263591571	14	0.6673923494826495	-0.012374729905872704	0.22006630367264637
Si	3.747239241953326	7.559791600940454	3.4364446948959655	14	-0.4337706643411184	0.2815458027564312	0.31073401879288026
Si	4.97316481531368	11.280205724297963	10.573706443300058	14	0.015267737612103323	0.02033949996662742	0.02819628360393592
Si	8.702846217787538	-0.5952176877775814	6.580390170867237	14	0.014494863352866809	-0.06479982449422406	-0.019106912076148435
Si	10.632430008475094	-0.5267813805413131	1.1163367393305899	14	0.005096187855065507	0.022738855451389612	0.05566571573386598
Si	14.906082711574513	4.306590563216702	8.172195909076768	14	0.026000816771061478	0.02872567418935441	-0.02053336130776659
Si	7.375544827210873	0.28305540449315125	10.098051009929367	14	-0.12314720307700448	-0.13298296647923097	-0.13926880476592898
Si	5.046849335985787	6.120881944317217	4.678679161627355	14	-0.003544011573292112	0.14192141412472575	0.029214441310714562
Si	13.448321723068883	9.30523915870327	9.952851538113016	14	0.08067665695667045	-0.0007129675052770623	0.03278879192678442
Si	8.748115152164315	7.336972685772186	9.181435107143425	14	0.07458416579004756	0.016411879479569215	0.03233113517979806
Si	16.028667481172793	3.4919774254954246	14.078143632350166	14	-0.05282258747084624	0.030446257869597506	0.0050607066016474635
Si	7.958276353629629	12.974627976518445	12.873786714835996	14	-0.012515883587948834	0.023109094617490934	0.034438927321255454
Si	3.8401017673340725	6.034424186166248	6.757618428420756	14	-0.06632217595428373	0.043737586822103	-0.04772357139992857
Si	10.669923139669503	3.0544816678737146	8.223158519834268	14	0.10445269629420778	-0.36799047738832186	-0.20326335907388265
Si	8.287521315918985	9.263817704280086	10.415001194939924	14	-0.02936459386141121	0.06121776056219374	0.003596205011291118
Si	9.837842904920496	5.1775795114072	4.60138309137617	14	0.0006654020568543228	-0.032279713073395104	-0.017080109752275703
Si	4.52094733229493	2.6625699684157187	11.825355026933332	14	-0.29557889559379946	-0.03734710454887495	0.15120387566205634
Si	11.430730953099818	14.460177603471047	4.137928393107028	14	0.12781247368041318	0.011972351923269531	0.03741369617666679
Si	5.363736826211507	10.391366910919682	4.262285148691081	14	0.26070519436290696	-0.25074010436307703	1.5443310681100273
H	11.721905332229172	11.048931262490692	3.726516965702421	1	-0.4488705087758161	0.2415993107288866	1.4981781849501772
H	4.952747763673159	4.184263138826011	1.0366153708239243	1	-0.8086774150406385	0.04528204978791595	1.0840533363603104
H	4.458049614340054	5.977518769751443	1.7196107069595383	1	-1.5910107707499759	2.8078789233015797	4.991603518178908
H	3.807172156530584	0.8590554908558808	8.479463049555749	1	7.020080917167715	-10.196353724282348	1.0919965091363761
H	5.419873406580697	2.470763523525178	14.682869479206886	1	0.08991078171398227	2.626460446359271	-0.260342668512766
H	5.486006505405639	3.011035831845444	16.664851261252124	1	0.3923851246658869	-0.6396866327737977	1.9899594130771368
H	7.9504494047017396	1.1992951385700799	11.929065399953384	1	-0.03773328456796119	-1.2411841240063721	-0.9363181388856657
H	5.060180227077134	10.691739274929514	2.6968854639366238	1	0.04121507539250572	0.6269946284714187	-0.530459136789543
H	15.10185707640004	2.473513844744148	10.30983729282934	1	-6.080446823750655	10.85214678922368	-3.924161321960478
H	17.80571486035548	14.076538315885823	14.346210033679347	1	0.7137997720691943	1.6015075653300124	0.7935978823379701
H	16.74340947651381	12.65771903807686	12.307571964495887	1	-0.6328649761383809	-0.2260232975888975	-1.7285060270660668
H	17.454328739842623	-1.8241872579279776	3.737102485163074	1	1.0029169657723973	-0.9620556744719442	-0.17174160784886722
H	9.917034667481577	5.132940824604296	8.954757162982254	1	-0.723573314722673	-0.018292385910725524	-0.28596296169644564
H	5.195312236339105	12.625281086375503	15.159737561705313	1	1.008672642142081	1.238092884079958	-1.5906736988425045
H	1.2822271400054288	0.7970981946735379	10.568568770669062	1	-0.9688310512115984	0.9239133270475474	-0.12893990336329808
