220
config_type=amorph dft_energy=-23173.911513042003 dft_virial="-20.50066015531803 0.3955630429653804 -0.7103989343051731 0.39556304296538036 -11.527837252133944 -3.9475577144912455 -0.710398934305173 -3.9475577144912455 -9.675149122326703" pbc="T T T" Lattice="16.407665756555062 0.0313879587561661 -0.029878448978033698 0.0313715510411864 16.527638968486627 0.20319314230860477 -0.029993302982891597 0.20311110373370628 16.213808604069904" Properties=species:S:1:pos:R:3:Z:I:1:dft_force:R:3
Si	33.777192784507584	-0.24619612249890052	25.45613990887208	14	-0.03639065336977986	-0.04288269430315376	-0.05737344388750834
Si	32.188596179401536	11.069235203044888	24.722687156164028	14	-0.06463270264841443	-0.044840591004446526	0.0921790108274169
Si	37.28069114483547	-1.5466863787334042	21.971316809734084	14	-0.07191844379411803	-0.06943886982336724	-0.05005813503062303
Si	37.929156856263184	-0.38933374643880736	13.24444535641967	14	0.0930904676634094	-0.05021522956568407	-0.0991762739561999
Si	26.648690371341132	8.97326446839307	20.55012976133741	14	-0.020298105170973038	-0.0002044028729517723	-0.01992735178380769
Si	26.90754340517537	10.109930253641263	26.088878825491744	14	0.014049805021949177	-0.02736016015382377	0.07991972355041886
Si	32.7273287338165	11.793086160946824	14.781101698985983	14	-0.0834557646972185	-0.06203948582251308	-0.06067500022911049
Si	27.35069609751909	1.6312763533112475	16.1705726343269	14	0.06417581723302411	-0.00020208887816363898	-0.039890699042097445
Si	40.87441060752224	11.932443447355409	23.502601266416043	14	-0.001076007576481971	-0.03327858749027263	-0.06408120055724266
Si	30.95774190631237	8.362539782961674	13.680439362717749	14	-0.015521762817733951	-0.03583452328903184	-0.07675957800142486
Si	42.39384705321736	0.9294035296246207	18.018630999492938	14	-0.164393131733352	0.22094947835011725	-0.17283587027312222
Si	42.39900071649249	5.191688154589225	25.923475932324383	14	0.05747680232137829	-0.04979999605648016	0.08196503783259666
Si	35.09035143747791	-1.0922320523116653	21.105619515061147	14	0.024718863658435647	0.030639090768608608	0.05610511763307929
Si	39.804619386988314	9.197196962436017	15.255286302670811	14	0.061961838441844594	-0.008856686496314086	0.09455548347482978
Si	39.61498393956744	2.9911674600867593	13.479080602943872	14	-0.11095347898567019	0.12124047137158267	-0.08692778532154648
Si	30.929596112036197	9.540457845211828	26.0265180231684	14	0.07645155958407111	0.01273982686133373	-0.00687873517352417
Si	26.479525189128925	6.999772403750222	14.686393086580159	14	0.0007829015699850901	-0.0719611241424325	0.09486375900271554
Si	41.25256577774538	4.176234363753567	14.565227033769569	14	0.040336014483547095	0.00032318793874261354	0.036667561412759814
Si	30.25285334461248	-2.26699655174272	14.104214543670443	14	-0.214450752542911	0.055405519875467005	0.2807040228746147
Si	36.9695713349334	2.424627110324196	16.09822281512391	14	0.041868136143823335	0.03773071346264104	-0.022824730369082558
Si	38.45755911332693	5.6914966867578505	15.759049094149544	14	0.0037378729144312765	-0.03211593366450167	0.054562197330458424
Si	36.26142912335303	2.706774177115117	23.824532119718242	14	0.016459444927991958	-0.014215127094034698	-0.022533681246841793
Si	34.26062969866946	-2.306078088052867	24.409304722366247	14	0.09136139933560983	0.11549636497583983	0.14395618687509093
Si	34.19599150550693	-0.026347508714402258	17.55033676548582	14	-0.002394727495185921	0.012491972308471455	-0.03370436253128916
Si	40.25690625426124	10.48707470862165	11.668400653273087	14	0.010649518236053344	-0.008951817393159566	0.024839448497950594
Si	37.15758570011428	-3.9001072875886984	22.122904406888534	14	0.25674183551189866	0.08480688054295632	0.11264012407568735
Si	34.89711449661899	11.547118105686142	21.889207681661173	14	1.0984484408267556	0.5700952964049458	0.44773793688229085
Si	38.86285264412649	-0.8902235470245952	20.386114960857334	14	0.11099770199717675	0.07376732562983651	0.0055803269868493904
Si	40.44056108957201	4.283363616399025	18.87473962553174	14	-0.024563311786566688	0.05973448990300032	0.03121656102351387
Si	34.10487126036717	10.236330367530378	23.734790122636774	14	-0.08694346906399937	-0.21158062767402966	0.1612952069331056
Si	37.681397078526714	3.9151351137386055	14.412344867903217	14	0.008134720122416507	-0.02906351742842187	-0.0723277637610856
Si	35.37760130362752	-0.944039211386513	27.0425805402298	14	0.031677817317948435	0.06309312478270976	-0.18083046515559065
Si	35.19000041286412	2.544191770152768	11.979661569523989	14	-0.013893996039548202	0.030851464068052847	-0.11699377671429409
Si	42.70452549558648	3.9555259857041327	21.890513735773553	14	-0.2945725649714935	0.5890158033453835	0.32960181807425487
Si	34.28854086262143	7.416674392897921	19.029769561288933	14	-0.46928817034417597	-0.030624692578815782	0.497468255984595
Si	29.068057168242834	2.170520828433582	23.796404373928546	14	0.004113768512236927	-0.1039022226451641	0.05174015213106389
Si	37.59109065604994	-1.8288170378093458	18.660956943975236	14	-0.013135777080636535	-0.1267310667827589	0.024762058227814136
Si	38.39238274711307	12.056316773137649	11.860805722982539	14	0.039489863722686355	0.00019129023581901706	-0.031633337195909876
Si	27.397433473638767	-2.7863040123932206	24.08551487495685	14	-0.07685213779295018	-0.01811343698044322	-0.08841671241244423
Si	32.280266082993116	8.647400685810238	11.681551436829317	14	-0.046078063995033794	0.025771217065972258	0.01594753785875047
Si	33.914021642037795	-3.3001132477540245	15.905228708446687	14	-0.10242229442288686	0.17015343609261174	0.12774845315794148
Si	38.71391817448425	4.749183566987202	20.593001479807867	14	-0.01804838801584347	-0.04289452138762644	0.03187759220132394
Si	34.747139777847046	6.663107422396251	22.402765878982787	14	-0.08831823907868255	-0.029672098057700918	-0.11397401351578017
Si	26.81751263231026	-4.43773724355703	16.096321160957764	14	-0.027405411607458376	0.053324724339871156	-0.003911422523541272
Si	31.52706664530699	-2.848577853827174	21.639086833739125	14	0.04924849396530839	-0.02416813289885993	-0.019958719268713492
Si	39.08431577706499	-2.2195946631663666	12.17210601774939	14	0.02628492390893784	-0.0026472100376244622	0.010437402047141126
Si	28.175922122423106	7.204248629370238	23.74337792065715	14	0.08039820625049841	0.09368079344491541	0.014339311480997851
Si	29.643516751868365	11.077207711753527	19.832282386346545	14	0.0985666648847928	-0.11949546219079817	-0.04275799569512658
Si	29.187372430803713	5.701564460669394	22.294983599281135	14	-0.052373929592480405	0.010038366501454146	0.01996540414254588
Si	33.1057546313368	1.5702626243877351	18.874783926362184	14	0.006797745355939506	0.0018388545249699063	0.05964810076424334
Si	36.45257079900905	-2.2058614057283576	25.36506396456276	14	-0.030220771933020522	-0.10013246802476299	-0.014257807442349156
Si	26.375099927912125	1.6154182967833675	10.510122625853636	14	-0.0034779341665643064	0.010282107285804183	-0.006533949950092313
Si	27.18747050812954	-0.5010784893080542	15.17661130934315	14	0.016014900818138354	0.0346775258949652	0.10341654085018812
Si	40.3998371409924	-1.1318435578156572	24.60805629622985	14	-0.02017520633666996	-0.0273676163592522	-0.006071150992465659
Si	36.34168417963324	3.6303414825214584	17.992509917245254	14	0.012732627766437318	-0.0017162128011988427	0.03251291232593253
Si	31.751008983978924	4.751877713786868	12.572265574531805	14	-0.039410159457761766	0.026514780724559078	-0.022973083146055104
Si	32.634341290712044	-1.4373535699661733	16.609992571512738	14	-0.03762606947611102	-0.007077995835835646	0.012025573803396594
Si	28.196968298427567	5.343759779335579	14.634165689028276	14	0.03148035642936106	0.02916250498324757	-0.02457205354465519
Si	34.1189917398787	6.509093124196301	15.347007070178833	14	-0.5075886407457618	-0.30328732645413536	-0.3385783180784879
Si	41.97230332150191	-0.18609302175676148	11.605618172674763	14	-0.02251748328332486	-0.029386448256632468	0.0015781444455068908
Si	41.09160281225152	2.0972160802187765	22.014219702863002	14	-0.16088023053443368	-0.07923915197217567	0.07388456803243527
Si	27.25885719446322	1.0700931224895562	20.071529841551545	14	-0.20470420649529364	-1.9380601095267556	-1.0606999867374056
Si	34.080774890147985	1.0572360370314635	21.052486411642384	14	-0.027121561580114025	0.05715489993529575	-0.010516334980469673
Si	38.498493080658285	11.637752682462505	24.035899585629732	14	0.03784924141789987	0.010590897034753969	-0.057308652033440606
Si	28.960058306703456	6.620946157984414	11.168022773394666	14	0.010521220080577954	0.05367388044234727	0.0021473871633876755
Si	28.244921486227238	-1.1608540386712647	25.547519395908523	14	-0.005248911511082303	-0.0250183974282329	0.04435182388308638
Si	34.091978077936126	10.266746989559746	11.543485437589636	14	0.18038463549307698	-0.33351401192939223	-0.1538762825318183
Si	40.02939195603822	-2.2452940671390706	16.198298391099595	14	-0.005251482616402452	0.050664915886177976	0.060071304699939716
Si	39.57509186213729	12.090201986113724	17.01429999864202	14	0.11610751671043903	-0.036323804631456014	0.04520491662831151
Si	37.159485713508936	4.8373520642021175	24.54325894823202	14	0.029594193566500435	-0.059860216953155555	0.004968918141718177
Si	29.980646071556258	7.5054253639946165	25.395792333176747	14	-0.05835997699884916	-0.07521357237241981	0.0388185481235957
Si	36.29607073198967	11.038431358942	18.530932365847107	14	0.05049907959302841	-0.16854675237805122	0.10323399237245762
Si	24.558910267551155	-4.010929916876086	21.054059911508936	14	0.15004379294160555	-0.03998505860734688	0.037262772294374094
Si	27.15849448347539	-2.200233559490321	16.84000576472716	14	0.05244257810452835	-0.04873015913276654	-0.022165241854464578
Si	39.06882853489565	4.9629925008876725	23.010046585039944	14	0.014874358498120667	0.06829447084536931	-0.10091536959474806
Si	41.015789324416325	6.237880158667852	13.430567912063394	14	-0.09456705344877045	0.0568309406649571	-0.04975320193965346
Si	28.99510518590009	4.915449505962494	16.808358564074315	14	-0.04049130924488403	-0.04228156987930314	0.03557638431488897
Si	41.648177115935425	-3.1409863055664	24.86519636462021	14	0.041208904739737366	0.04685068114373829	0.02730899515795282
Si	29.45919576332941	9.574623630114056	17.941096342356364	14	-0.00010490109706204162	-0.0142359530471279	0.0927132865129437
Si	38.12978875426345	10.771919203755235	15.590748598516768	14	-0.03312097873414755	0.007110905983933543	-0.04855249575514431
Si	31.07190514636963	5.928740759963826	17.181773545439817	14	0.0575169115643726	0.06448049321346166	-0.05546645507155451
Si	35.16022533249047	6.356644122005414	13.206308904492353	14	0.016960810465420834	0.012050256414470018	-0.05881069176147111
Si	38.127944527099736	1.4385349254447117	24.339798360169247	14	-0.07081801071709465	-0.04637348399631881	-0.07993463596127572
Si	31.443180561701777	8.348542361312493	17.436247360145977	14	0.052586045781392615	-0.04049696567658836	-0.06331989627194681
Si	38.11448527850189	-4.114794034240583	18.56136047327696	14	0.012443378417920658	0.18710859012632824	0.03941735855265818
Si	35.471220443758696	7.467008340141146	17.01138106614713	14	-0.31086874471165604	-0.1841160806442079	1.084928540611289
Si	38.520894533920064	9.648066203134693	21.162391849662402	14	0.09217566839050072	-0.021843853689446066	0.1066232234054768
Si	42.033474564489225	11.700379289768522	10.69268142580377	14	-0.007622298832110995	-0.005979362532536373	-0.03592271220151292
Si	30.773263403709613	-3.353423554494568	12.10065862287029	14	-0.690475733046939	0.323005904485947	-0.3382654145610259
Si	35.929340253706904	7.60715811918325	20.62782193253779	14	0.19436167823446596	0.028264932115983875	-0.006179394526443893
Si	31.526513705312176	3.32223905140415	27.043548595413604	14	-0.07088897322393074	0.020118127798562674	0.0029161476541119512
Si	30.67166026946932	11.977546615063106	23.21596012649218	14	0.03666370475477959	0.037813503053949815	-0.02241798150743513
Si	27.31800536619354	-1.726482119480957	11.462300063870082	14	0.045283849561640055	-0.002061255135162715	-0.05955296986739786
Si	29.116709324700643	11.559571561355733	12.383680220869627	14	-0.08637911144622687	-0.333527124566525	0.10429251643276258
Si	30.6652924352857	0.4741993706283097	23.47907588467815	14	0.0636929636539003	0.015699940416420213	-0.016363799810082447
Si	38.45142755023902	1.4153737949793672	26.631204669487264	14	0.14304987224973875	-0.010929511605417467	0.016830969646753353
Si	31.01355110804432	-2.832127478788527	17.64278603553894	14	0.09821493767699653	0.09099501682748871	-0.03418798744200901
Si	26.053815538580125	11.274334921834134	19.90818447584264	14	0.01327718787324468	-0.04256413435398741	-0.010287506606976493
Si	41.03533747604314	-1.799212597671473	20.131326118023562	14	0.0007350790110303357	0.0718017156125833	-0.06007233314206778
Si	41.3604481445084	10.193261756480164	13.755721240587606	14	0.0054366021994531125	0.015040709012334248	-0.04094588066548622
Si	30.942371158919393	4.948888429091122	23.598939164919354	14	-0.05451617454522778	-0.10153269198211563	0.041421020928649584
Si	27.6645379473363	9.201057697770741	22.61878657286252	14	0.004297602542627514	-0.046202248381996956	-0.009119196349501207
Si	42.0794079625749	6.950879053882213	16.857898377912523	14	0.01923675289481591	0.008587748879826598	0.016048582297832296
Si	36.25810820184114	9.913684137855064	20.60556814871082	14	-0.313090436818796	0.14896829958618762	0.011900875195369412
Si	39.59159146032088	8.252727868917036	19.526785500368014	14	-0.04749602857909546	-0.002075910435487559	-0.03058664022007759
Si	35.62178255872692	2.7926390311468827	21.5655589406006	14	0.03894324673162288	-0.0691257091953732	-0.027919118450423958
Si	27.072076689448807	8.052601328538136	11.348355046422055	14	0.011211047637973683	-0.00919581528804162	-0.06545262813500964
Si	26.994010422346893	8.92318648150353	13.518884078713127	14	-0.07659811258731955	0.03287800928139356	-0.057185496088605514
Si	38.843612957541296	11.88975713606422	20.86089188305293	14	-0.0807329641631817	0.022064197415382753	0.044674497600764966
Si	32.8509132838151	-0.1649566033199119	12.989753319104281	14	-0.06724623120634494	0.15186284995561034	-0.0643195420204204
Si	36.61079859841578	0.688131362391128	11.624299996950649	14	-0.15686544957702245	0.012831872431795035	0.08806832764156416
Si	40.78067497261472	8.850807128413578	17.428747393628754	14	0.007850098763476114	0.016679788653928645	-0.03994983446446085
Si	41.124075320967854	3.086732555214524	9.668393721223042	14	-0.02078095875009685	-0.020051279060238826	-0.11525313841255383
Si	36.36921960691217	4.461425061673222	12.53066873551527	14	0.016442218522346962	-1.2855526600740395e-05	0.10291286131797112
Si	33.406099494811706	-5.212527593384942	19.613797253676864	14	-0.4693984707624103	-0.6727122235005679	0.19104032438189866
Si	29.08749046586479	10.888620717319851	26.45352880551509	14	-0.03324876266855892	-0.012622327348202964	-0.025622092957403666
Si	31.27850453030802	0.8587387827500488	11.452675298262987	14	0.08866122452839031	-0.08969198065123768	-0.07376963962462464
Si	42.283798868077014	10.030210088869396	23.943993410942443	14	-0.029335797481825552	-0.0036327147068372207	0.010986847254056773
Si	38.944200454224344	7.325588603959614	14.189624903997272	14	0.01846722107249559	-0.056495154310145755	-0.061180479535051596
Si	40.45759393849244	8.38814894450199	8.156119243116562	14	0.06477411344102256	0.006301264918618913	0.04292023244082792
Si	34.08360522098199	4.58312764676365	21.581676239025157	14	0.05386825600455047	-0.0017419238544003233	-0.0004016066510071299
Si	42.138008116624896	-4.1811763675054525	14.011263197538945	14	0.011027727828647126	-0.09429708739015491	0.10281644486846557
Si	39.65799676438672	0.8694661468037765	14.310969800901141	14	0.08157268716074205	-0.008886254207495791	0.10409891220215542
Si	27.376964849201595	6.008789079035289	18.259063091719472	14	0.001682531321504903	0.01118842191115638	-0.02358166377533415
Si	37.04915531567094	5.870939661633339	17.595887863812465	14	0.12806469911231969	-0.2640797700956013	0.25146824138974294
Si	33.027548898657564	12.388840447230743	12.303823872063427	14	0.7181441687286484	-1.1509617243275878	-0.30034521063629
Si	35.62441927852415	6.5608069602693195	24.520110943938658	14	0.04359746158215493	0.06611185953909561	0.04402375084423549
Si	31.404126918507096	-0.1816842687417161	25.658991770709108	14	-0.03808398333362939	0.08924486543606393	0.027914747571379708
Si	30.606339515363636	-4.088553175673549	15.650280710777615	14	-0.001413336594485399	0.0004381163465532326	0.05253590922764973
Si	33.77173721927684	3.2354209091320634	10.1208102094443	14	0.051249842346511656	-0.09564048991993226	0.024533486964852972
Si	31.105424467301656	5.328964942738383	19.40395078294399	14	-0.11577635834520397	-0.004964547262673926	0.03323719269461825
Si	39.95874361687863	-0.6620299694014214	10.59799414342742	14	-0.02071976644347732	-0.006046211270860222	-0.006850453015002541
Si	26.99791709928356	3.2780645603643035	14.313109366934494	14	0.00690496044778968	-0.017090908394620324	0.07144921707319102
Si	32.69023745333339	9.069472745948042	19.374042800078993	14	-0.008512672604478275	-0.03505239305064279	-0.11515595063145224
Si	29.091941878938783	9.860590412952252	13.990281011622905	14	0.06179317393284289	-0.012090879878528357	0.050403434475118906
Si	30.43023551048652	3.304735301063806	20.35002783253098	14	0.04067617171740268	-0.0433920302670751	-0.11753499438418524
Si	26.32141060295555	5.685181357262163	23.718277398281206	14	-0.026678303022920496	-0.0723761005411044	-0.058655911221198204
Si	27.328758982591236	0.9154077487469366	24.777036071262785	14	-0.030702082848952237	0.03797291158379899	-0.05400683858130645
Si	32.02683087664517	3.560211627155225	22.09465196246499	14	-0.032835586043611115	0.12417076010495542	-0.018253047999327254
Si	28.509499171817893	-0.930703020651013	13.314225727456837	14	0.01782753006884275	0.026096976110035017	-0.06288846479922597
Si	38.961487622726956	1.2689644726725082	16.536942142880118	14	-0.04271685801000421	-0.010786043928553207	0.0070972791257367576
Si	34.197891518901585	1.8992652028461856	24.630139439821026	14	-0.057106048934212936	0.05747577387925023	0.00860600372759965
Si	41.624459763932265	6.688659156934138	11.187800633031197	14	-0.008868770691318783	0.011724240259875241	-0.004200157650993902
Si	28.545369718306517	3.397922918291012	21.794015041663446	14	0.7002119946732758	0.8285006370589802	0.7525802678340516
Si	42.76405268553283	-0.7087903163220683	21.275393423499096	14	-0.20039966196830172	0.17665781833152233	0.26421218201958885
Si	32.68437005445665	1.5221568448387528	22.86418528041341	14	0.023873998450234985	-0.12937544860453118	0.027084794774035907
Si	32.05876357153867	6.674203960037022	24.602914118355212	14	0.03259647324883734	0.1068625933107826	0.03965132913679166
Si	37.38484403798361	2.92660310164164	20.062449812081777	14	-0.02180091623059959	0.048692106774028354	0.027711887361620023
Si	29.419151094149953	1.1817820791278724	12.835425633548219	14	-0.02829707093248573	0.13459839195188	0.09016043604056866
Si	33.99906775109207	1.714273138764562	13.803037809046065	14	-0.0031421478117529674	0.006314891776815696	0.13415333362096235
Si	33.832934714608115	-2.760191134003028	22.15801855771659	14	-0.021704242670562025	-0.14576290258355898	-0.1124794299931781
Si	28.87833804147556	10.902114422119155	16.079252215064383	14	0.0029053490117673295	0.0048365062177305514	-0.06358986233056237
Si	38.37725483390178	9.354164649332313	23.55264971941862	14	-0.0332970994485777	0.010408348557023453	-0.026338660010128932
Si	30.682044712279975	1.5992780275578367	18.758351499323236	14	0.005308304043977723	0.028119407554863494	-0.05533944246873919
Si	30.55449605834228	1.7879191674509456	14.85287724816468	14	-0.04025348200277034	0.0016359943152102227	-0.015631549014904274
Si	34.601058609839775	-3.8829694292924013	18.10677652590688	14	0.2870860205002863	0.3841316194776795	-0.1321553276766753
Si	41.35190464731848	7.331590546099188	20.77282839521388	14	0.014921666836011392	0.0006178366084315834	0.057923917536552044
Si	42.29902030526369	5.2677313504341425	19.93171806143802	14	-0.038556295380940596	0.06560380912783435	-0.06619876289891662
Si	23.66548557533402	8.280963905625603	10.536315902047228	14	-0.015592725324570038	0.02731259470540103	0.002479831081282822
Si	38.214196603205025	-0.9339517482169936	16.673748029609357	14	0.09698929177088195	0.14011212731093756	-0.032611642770226226
Si	29.76322908113175	10.200087365911719	21.98677451801646	14	-0.07405734630994923	0.02317928579273098	0.0839417036027265
Si	33.880138069833215	5.585007334996601	9.660234164563638	14	-0.025774816613420463	-0.012190895875482118	-0.002366445336664292
Si	35.59271136932588	-2.909437350229877	14.326517751615905	14	0.12087228908973746	-0.119961346474809	-0.00966324223524454
Si	40.5514624758913	5.1582639984040775	16.64468996638031	14	-0.0030094787772333266	0.040545302456607146	-0.0032257087346577802
Si	41.62737049256966	11.06402083122434	17.665829030456432	14	0.020580669645657315	-0.047177725740461134	0.014792597348939958
Si	27.945762900545365	-2.3683699779732983	21.831496825763075	14	0.1886098585227627	-0.04397669961687677	0.025177548847550066
Si	29.984423127544588	6.197189025518196	13.232702354808698	14	0.02026390947021507	-0.04797399705811099	-0.00805578718908796
Si	40.73683683973195	6.709288576978115	23.03168672032667	14	-0.024384105745752366	-0.013040646183791057	-0.09371807447205756
Si	30.58196749553279	-2.3138372964667675	26.113670882826067	14	0.029986801348887048	-0.0056435761777250334	0.01486330274524403
Si	40.66616717054289	-2.383671812963367	13.955934741855899	14	0.01040654878329935	-0.01480930953352092	-0.1240262639859631
Si	37.82106611151991	4.955817407127049	10.660210557858944	14	-0.056419049592669364	0.006471729201344729	-0.038481990437188314
Si	41.61844305484921	-1.3887949374837512	17.812710894954705	14	0.07526088071031053	-0.012633125990547585	0.11422495339502663
Si	31.436561689478967	-4.028548521221287	19.61558569460965	14	-0.1146918661211655	0.12037735131560895	-0.03662719505923349
Si	36.62502244653169	-0.9861939127123583	15.021079297507576	14	-0.11866139562494211	0.0979066621491108	-0.006670989863656205
Si	27.753984605548133	2.700337430528581	12.09723761429702	14	0.06123395852571069	0.0010603238340290678	0.007663950738297394
Si	39.927378628923435	2.911540819290275	23.82565276665136	14	0.05355406693442836	0.0025299676350257097	0.17504033597461718
Si	37.94968290770279	7.371889534860829	10.783824641744506	14	0.0014786426696171604	0.0117460946550965	0.057487086742658886
Si	29.338380835619386	12.667187487232367	24.99267774692649	14	-0.037414724618794845	0.03266383620822523	0.019129280692433723
Si	31.50061248644522	-0.4318412136367162	14.866193749642205	14	0.04557181335749664	0.05256753382308755	0.030355240741264264
Si	36.76708372436892	8.483681224199795	25.164194154695284	14	-0.02647621414475686	0.012955028376630127	-0.05737370099804036
Si	32.761240199136545	12.789574274037445	9.755014970915372	14	-0.008972643346252767	-0.00935882336533901	0.15217446792041228
Si	36.96056185863805	7.8907753172363515	12.886962266299456	14	-0.03385477219251782	-0.056547347748144766	0.0058865456304790275
Si	28.194914052512107	4.480669670572913	10.573871520864264	14	-0.03855500982828052	-0.009715435673243546	-0.03985161824123119
Si	39.356826592848336	3.462589004569006	27.391592327105993	14	-0.027748397057166127	-0.03939833237328909	0.07971352090374298
Si	34.21615986875998	-2.1376430491572593	12.556494478893319	14	0.24887553878490562	0.3665912818730973	0.24294348459026
Si	41.637233170043956	-0.2723270493755708	13.896149950784366	14	-0.010753648001519341	0.0022589731342821024	0.0685564664774924
Si	28.88083529569547	-2.082888863498502	18.400404070869097	14	-0.1344667513594884	-0.0004525145363460619	-0.0245913368345563
Si	35.49446525357044	10.197595034006302	9.5100084077525	14	0.15612754235013995	0.06352429914489859	0.13366405227853817
Si	38.06067781799746	-0.9290245114085895	24.054750409369912	14	0.05113851348614925	0.023919764124933626	0.0486669099418909
Si	29.30273343405449	-0.09567666758962663	19.67054661747715	14	0.21380360533382967	0.1977928182842036	0.09002725278498498
Si	31.45853654215128	8.64671156178109	21.39334028263067	14	0.051565316969293826	-0.031038640535359627	0.03193261385517511
Si	32.61577596121252	8.335096238886628	15.375024884278167	14	-0.02789083629190233	-0.008175857807538876	0.08021668621489596
Si	36.14752676596395	9.742218594002704	16.60172144239147	14	-0.014919095730691242	0.6789731220656604	0.13520337303371083
Si	26.995633145358386	-3.9170810687351976	12.130056325799417	14	-0.006489726938585767	0.12829995524911325	0.01411896775506116
Si	35.66104129835884	9.903253753442469	13.26654162618283	14	-0.005316274470470183	-0.024558426686458405	-0.015985333106956653
Si	29.876240499597433	3.7718809950223426	25.360996492019293	14	-0.029687524689621807	-0.01100278810704169	0.0520232308268122
Si	28.309784465084988	7.944056090089932	19.200595204257084	14	-0.017724171634972797	-0.0005088217428573049	-0.03427771901768217
Si	39.286224195290686	1.4258730917948772	20.349473251764667	14	-0.008390287991239226	0.045177148690853916	-0.026065608625129213
Si	32.89576377271211	4.665924258094212	16.20458254593682	14	-0.044088285587771205	0.002654666243052892	0.07580466948552185
Si	30.023834458925826	6.994697497507	20.571399082265593	14	-0.08534784110231548	0.06195026846790393	-0.05851655731284617
Si	34.19881363248344	-6.521733627816662	14.962037775924625	14	0.059165247185119535	-0.09219726567518996	-0.1864429309589419
Si	37.21603818472947	-4.611202887865414	9.562959385534988	14	-0.023996383063474035	0.01207185369915926	-0.015828752792959633
Si	40.34838582835905	1.9886396671121096	18.34244053616031	14	-0.04415744832088318	-0.017873809964605417	-0.04701806010007994
Si	27.975024419440157	-3.8081682974714473	19.87086676889281	14	-0.017004519255863347	0.13381934703987514	0.05793574462102472
Si	32.334058776554066	3.2936289187940466	14.37344053491485	14	0.05103052706270302	-0.0010482396390243717	-0.09046639757366627
Si	37.861028742124475	6.672400752160753	19.62763716126224	14	0.06032147324759012	0.0024116967902988984	-0.05689547540849281
Si	33.973447104151276	3.6226265749380038	18.048643991733805	14	0.058473362743467684	-0.07263192552045912	0.009887442619161453
Si	41.943319092990265	0.23426935448015662	23.27271277183547	14	-0.009517974784656174	0.009634188745126867	0.11947335068504487
Si	33.07128038139295	8.146962097386393	23.035302980708195	14	-0.0069514974540843604	-0.03523545574943733	0.015375209814485511
Si	29.453180695017853	2.4972837537973036	16.845100360228358	14	0.01086266286709362	0.019420844035738516	-0.018536640916139588
Si	35.28223474185101	-1.7043054519143943	18.851069855902022	14	-0.04435773742532272	0.04352264241733862	-0.02350401639466568
Si	33.408429390338824	5.311480881656014	19.512300769583934	14	0.0583381226036279	0.01625067117599593	-0.08885045787995322
Si	35.296250211986674	0.8443492167128518	15.606060278135827	14	-0.009800539259340447	-0.008328067242491643	-0.006892876252784986
Si	29.975702427032875	-1.0795456070893616	21.762154540715862	14	-0.05211219107088932	-0.005100558734109759	0.030115613725426465
Si	37.00575198723514	11.766471206478252	13.759304685539174	14	-0.047912033419895424	0.00024631188967018597	0.006059066797460964
Si	33.31013241066694	6.463223716199051	11.754808602670682	14	0.0054641130263786974	-0.009111740144072776	0.07009912966958126
H	27.335766717659062	2.4250159731692147	20.74433147583714	1	-0.014627275276854437	-0.08410882544853612	-0.28573747575986863
H	33.460868447413944	10.870043902419834	21.615420345652407	1	-0.8857128726429153	-0.26299373520837077	-0.7026884833176423
H	32.325918909152634	13.78764409085211	12.805010652290347	1	-0.2118282251163599	0.6431748513616427	-0.050183347859714234
H	36.21146927201134	7.498514434445167	15.748055925113144	1	0.8187962571386134	0.18737984173760386	-1.5670061601494776
