234
config_type=amorph dft_energy=-23361.929164870075 dft_virial="-39.3810976780811 21.87026192108847 2.1979958572002345 21.870261921088474 -56.77004826739163 13.346425861188115 2.1979958572002345 13.346425861188115 -55.53900807380259" pbc="T T T" Lattice="16.379450615770907 0.0608019191298816 0.0915304752418584 0.060572601546956394 16.453749512638673 0.0454048814191896 0.0914649559324512 0.045585059520059396 16.419843270020447" Properties=species:S:1:pos:R:3:Z:I:1:dft_force:R:3
Si	7.762655707324708	4.625193143103323	14.887608700223668	14	0.387300763895294	0.4958168350374638	0.3453549803708022
Si	7.150182840968938	15.633482156497967	14.2658845073796	14	-0.251451786315694	0.05308612576616142	0.10094082353741753
Si	11.940686115654833	3.8769757335349806	13.026893072713891	14	-0.13381626171349095	-0.47967646427970234	0.38019165768508456
Si	10.321692514323773	4.295377129461155	3.20066249007557	14	0.12493874926408367	-0.18072890649544482	0.2427506516912489
Si	1.5334483150035474	13.711384763970058	10.482622680072474	14	0.10360397442802691	0.3454879065158539	0.12165647621238262
Si	0.9113686799059464	14.043012386517333	16.06093504501875	14	0.1989531581151864	0.03712290416495804	0.07275585279689026
Si	6.631561471390775	15.618972905429745	5.779522164135783	14	0.3445234849102663	0.1311500254964974	-0.023897652619180348
Si	1.3379206779223758	6.2147849543379	6.2492399211724114	14	0.04741658142470289	0.20768334622974924	0.46408476739726023
Si	15.403111350674045	16.554988311551945	11.00455932670664	14	-0.40963312759556825	-0.16445123871358733	0.24422440926075775
Si	5.252537254711792	13.398456352327592	3.1284274514541317	14	0.10239169826957709	-0.24446017961861533	0.24350501399218027
Si	16.64962112609423	6.2888479816917995	8.43575359067496	14	-0.3170445396906517	0.3936135987878536	0.18285109682669504
Si	16.401065435944346	9.858028741476371	13.56027102875329	14	-0.0791303942171334	0.16523876827314868	0.3129050601252133
Si	9.835375440248832	3.6688651130821563	11.985029584261625	14	0.33746271548007567	0.29086503109983997	-0.04963133154747844
Si	14.14362056207756	13.26224662201823	5.307499765390758	14	0.15226085705916925	0.25925894762032364	0.04225508749450562
Si	12.907218778116171	6.894575635144098	3.0713290112884923	14	0.3020740218535575	-0.08523754068408113	-0.1728680090896241
Si	4.38032619007306	12.599076552025902	16.19550024066199	14	0.0826186128049783	-0.18497971492124565	-0.1783485771900517
Si	1.072041682365223	11.09453535633281	4.366198588982132	14	0.10244826258662035	0.11274913894126164	0.031262583808744526
Si	16.13402347264521	7.711553921952562	5.263054741854384	14	-0.2033230087173101	-0.04605158161023627	0.19513738070955466
Si	4.794598231523844	2.167454102395994	3.5499393765944123	14	-0.07652457897516332	0.2970662800215051	-0.10333375125887935
Si	11.059131997494632	6.643176406965937	6.210308347522653	14	-0.25940781461836027	0.427097103372142	0.11892673369398142
Si	13.079039891071082	9.666990815072328	6.005128078183065	14	-0.11348216106803584	-0.043248562590210836	-0.08107363561810133
Si	10.561992771488356	7.099783750190184	13.22103825236657	14	-0.09762178367963838	0.09207333839875882	-0.19519805879511012
Si	8.677442857198976	0.9602542746373935	13.919800049211624	14	-0.03636442809551436	-0.3399554020879592	0.034881414546852944
Si	7.476254426078485	4.91691459227341	5.528481654176626	14	0.1142645484169569	-0.007915661949139893	-0.2781809972239534
Si	14.221352670758261	14.792189653968492	1.7303698753923575	14	-0.12492975039546314	0.16048608008885495	-0.10912490888198087
Si	12.272433310941777	0.412535779751494	12.691476796100142	14	-0.28276244979392523	0.20394007399414563	-0.27140973425281145
Si	10.09716766888171	16.380698758615114	12.361187405447506	14	0.02545497111159404	-0.1184315388093209	0.0730898393779775
Si	13.330435843283773	3.6463117288014626	11.131517730527706	14	-0.8183303728546025	0.6369108674701659	0.6558144051154907
Si	15.814569337785793	8.424382714527342	8.922149287921192	14	-0.029879072035972846	0.03637291274307084	0.05148741247809334
Si	9.90035421535342	14.107688134815916	12.688962492601641	14	-0.1266773306815678	-0.0010063306223059582	-0.0033141547576708737
Si	11.765394117284073	8.250422396120285	4.687592095400006	14	-0.11089742888969098	-0.240808438732409	0.07144201797829461
Si	9.36803767212642	3.6658037233501046	16.32504993317011	14	0.030860205826141344	-0.012478859671338702	-0.14619381983521582
Si	9.563588240965885	7.134318978178719	0.23676712840479863	14	-0.266227414369521	0.1159573641597424	0.1314331041922457
Si	16.113075311444994	9.60373028385694	15.871567861004586	14	0.4985000405495704	-0.7444782007492011	-0.028430511298601413
Si	9.048744059575048	11.906457190437775	9.492427719018725	14	-0.1663104049705864	0.18191855692707734	-0.287584300711331
Si	2.5612169620195906	6.377009126447393	13.8601135963244	14	-0.08541546117223538	-0.06954711335734545	0.03649606868790593
Si	10.370555177296929	2.456784096772719	9.986541590913124	14	-0.2113178607103105	0.007375729831908794	0.06446095281302854
Si	12.354963071053822	16.0751756669184	2.454210825895751	14	-0.033338237133700065	0.004597136312424766	0.09297862458198297
Si	1.6640053668938046	1.1797357712378376	14.154875141450981	14	-0.12424892170668794	-0.004413559392566192	0.1805481577914384
Si	6.215409025760004	12.983920595656445	1.0037148705499244	14	-0.06317642859508256	0.07584477872851618	0.08832800927889911
Si	9.733715679772619	0.756802077083421	4.709062773092745	14	-0.09246928861806163	0.26464747015028994	-0.14611848644933548
Si	11.988515211522088	10.919341636926164	11.766653726007428	14	-0.13033344244681835	0.26844962069772493	0.015204745531759696
Si	9.047792391605908	11.654384751355455	15.407936847811888	14	-0.02336080582833343	0.2300115961615112	-0.06432519845212471
Si	1.0587101408835928	0.14454214848322391	6.162012426575871	14	0.0710391257746274	-0.5851406334068563	-0.27431122660659857
Si	5.396175236725198	2.2707796913138836	13.591332095360508	14	-0.11658882762637075	-0.19011035558760112	0.30977191118208086
Si	13.072848316332102	1.728910432775312	3.128967985756741	14	-0.37634991211571933	-0.024801653249744413	0.33756401702968947
Si	1.255312294639043	6.931471196254028	11.97546540307091	14	0.041947840408747925	0.12392933331539353	-0.33210041822437486
Si	4.152497533454138	16.279269953704564	9.059341807871663	14	0.029352509666406512	-0.4363538538562711	0.3250769298213263
Si	0.8670088314718016	9.942407784096433	9.832140424346852	14	0.09615368254183382	0.21365191011994097	0.03181125768406413
Si	6.640981510100795	4.85807989040848	9.318519816059194	14	0.4194364950707608	-0.05584543599574434	-0.028406600019124036
Si	10.284205641446444	1.6192589545341574	15.572554112697476	14	0.09327995812550433	0.07794357200135303	0.11981119392411234
Si	0.3159570417198109	6.006617004489344	0.8317872887172261	14	-0.18515532141461177	0.10624732780767115	0.0165435200719608
Si	1.4161310775617504	4.076136416322782	5.188243156390508	14	0.3084182242310229	0.1720138879022709	-0.7574900505534065
Si	14.361775292662507	2.7201962903306907	15.389396521232385	14	0.05465912800102801	-0.3525527897145568	0.07151426603779075
Si	10.535491848815878	7.847694856987048	8.165345572855035	14	-0.1053813795358453	-0.22966552538541926	-0.22701805823726276
Si	3.176374482078321	10.184993027176592	4.714337077500025	14	0.191913985969685	-0.27236027188967016	-0.14848801711238394
Si	7.158726558915637	1.8293040325972294	7.812460210370591	14	0.6970824452775914	0.0891178528332486	0.009805681469980745
Si	6.603026174161205	9.335356640594108	0.8107408485528983	14	-0.29296408148320885	-0.21782224294922117	0.1072953103361635
Si	8.97262863985397	11.61615914826456	5.500568790386424	14	-0.12284124154390684	0.3842396059011257	0.1753894920770933
Si	15.930631880452442	4.076701520366419	1.9477121665406567	14	0.20387528214007786	-0.021743323471428273	9.101712833324201e-05
Si	15.475533119327295	7.887184982749503	12.573080128035862	14	-0.024911953667978767	0.020873261431090164	-0.10420715573613366
Si	1.1932556807340133	5.284561455167297	10.313186469979984	14	-0.20491298024728968	-0.1049890288639907	0.3292884003357289
Si	7.697750641443201	6.485605743807091	10.595630384938012	14	0.023146632755165094	-0.13422943833843876	0.11191892903338581
Si	13.384104347601946	14.75271918399886	12.651773732582114	14	0.3284939287918031	-0.20285661021223522	0.0286647389932669
Si	2.983387356219413	11.003429118619364	0.9707390021252807	14	-0.01463498859281488	-0.008929191666342264	-0.09746186092872518
Si	2.366703236251495	2.8213679319518183	15.759140002027301	14	0.08330406948332979	0.28017334673653616	0.09452385887939196
Si	7.088635639694549	14.721949678318502	3.7099227883221784	14	-0.45595621792761215	0.08793642993864056	-0.06364051310536928
Si	13.988431525815665	1.972041124106285	6.891342257224854	14	-0.31513883642735796	-0.4674868539568802	0.19140027912671942
Si	13.898676623858742	16.177189231665412	7.489186299772731	14	0.16270005888003447	0.1676260395629062	-0.23371578759624853
Si	10.635913294344293	9.461772872129831	13.051906707062825	14	-0.1223974687656493	-0.07170838448946194	-0.1988176608648146
Si	3.693461061833619	11.921534821515108	12.755652959664495	14	-0.40706227938595213	-0.07432165593686044	0.10589637193147095
Si	9.422059980715392	15.328990993924418	8.440231835472941	14	0.9276532568462348	-0.9197352809023068	-1.6583444195372061
Si	2.188153290220464	1.0215623304324457	9.860719947110272	14	-0.8796458354189619	-2.594089973268075	1.0773538072276005
Si	1.1815686739185038	2.462171421988726	6.9174828236955905	14	-0.052030944142772644	-0.31229647949593425	0.43090850989872953
Si	15.096320460340303	7.489061813084858	16.311977192960637	14	0.20055110007165847	0.24603446740614202	0.037756167405310515
Si	14.511984861409456	10.04761705315978	2.6650863612055598	14	-0.5302629614536156	-0.5872083163053194	-0.0054643701369107124
Si	3.500441176320008	9.379333201068222	6.9003528002510786	14	0.015746991643778924	0.5139351571180154	-0.33548913503633
Si	15.760628928333581	0.8007000143862448	14.954402360198838	14	0.1051628355836327	-0.1214633862028395	-0.07750031344415952
Si	4.036877246125988	14.369020090300209	7.6406898748804695	14	-0.41690241366722286	-0.47695777751417767	0.054724948297223804
Si	12.547724155295276	14.765115437338702	6.139781724894008	14	-0.21558769531548047	-0.18176069106042025	-0.17336731774279684
Si	5.673094235917463	9.983643999454591	7.5179263448441995	14	-0.08590140007774337	-0.1342286670068427	0.131716182887994
Si	7.733622463343642	7.411893170465057	1.6967076922016733	14	0.3733206358275209	0.03915150626255487	0.22204039833745606
Si	12.17843603370074	5.816427553142124	14.32821957834961	14	0.06263958180423562	0.12098644616595204	-0.2508216084017257
Si	6.225933064833535	13.646594356880012	7.042950663227644	14	0.26567256984143306	-0.42076421385808527	-0.3490224049994614
Si	12.411840383550212	1.5226409049168297	10.585491271807248	14	0.06271851473756417	-0.18940921516679676	0.02084240816724839
Si	10.246830151395107	11.698477608603765	7.499748012449172	14	0.19413002164512064	0.23194043937268624	0.31207844976478566
Si	15.427781008648592	15.690605166404636	13.233108547142113	14	-0.05590842807608796	-0.17259521481515636	0.373132430918086
Si	15.965922218481895	15.909881915163183	0.5527045143317875	14	0.08594330909446178	-0.17408697012190627	-0.17312820494802306
Si	4.912799979642639	1.118394955788082	1.4132433139996279	14	0.07838065990577821	-0.11192201435976998	0.45769017135552
Si	10.736591903162132	12.734965237719171	10.976243519163583	14	-0.07385834275816977	0.21556558380972718	0.06949312014562237
Si	5.482953924052298	9.205309001334493	15.150441047893386	14	0.15501065419906762	-0.05699112052640232	-0.15857292062013278
Si	5.199813866431819	16.470037612957302	13.197864072629246	14	-0.06375338462892378	0.09228545458767104	-0.11393030472533765
Si	1.4478571651594518	2.647546842077252	1.5791758790215678	14	-0.3165953675912218	-0.023672166682603364	-0.15811500676261442
Si	3.200198940961514	15.970262872730121	1.6093688147791405	14	-0.2097392020437396	0.04232142201176544	0.20003276523911662
Si	4.6255059978057425	5.4110792416326	13.276610092623024	14	-0.04965292883216768	0.1451103560533054	0.019958205047649464
Si	11.063647915895523	5.339142315868965	16.38877565148229	14	0.04303927461715078	0.03965235757891972	0.24946766434013573
Si	4.880125500041268	1.526418093104155	7.527198965108053	14	1.1529461034136783	-0.25097304650508245	-0.7496245251580096
Si	0.7223290924388226	15.703276600843989	9.573715888217503	14	-0.5831022611090428	-0.1054477140531051	-0.25151374995390957
Si	15.310324542674305	2.4594048691490067	10.675943954409359	14	9.739970959982124	-15.51589761227763	8.04109923572555
Si	15.465975490067521	14.490260296392762	3.770875401863696	14	-0.0007265943634738472	-0.12924689333852377	0.15783398495112222
Si	5.300110825272361	11.437643599870967	14.393421119106186	14	0.0731260919629916	-0.05865128323162193	-0.1670290289075678
Si	2.344737887772731	13.878365637942512	12.705758367568176	14	0.09481593644376078	-0.05192115794560232	0.1642234387822222
Si	16.68499172527771	11.209480794774068	6.6666143019236275	14	0.16290163353713408	-0.12155286066798067	-0.06749537131186731
Si	12.512977627533903	13.796612281646942	9.7843162424278	14	-0.4589505271834566	-0.44919883892519896	-0.701397274225864
Si	14.26515069111424	12.207826357918073	9.340047823147664	14	0.31088931355421723	0.2356310039492268	-0.08706045435606612
Si	9.817981701583955	5.911851513345505	11.360529010681429	14	-0.07648112729525282	-0.18177226103436092	-0.008048330983659532
Si	0.9868895118941555	12.297122624709145	1.2350160505674275	14	0.32740763679404056	0.12512412595766634	0.4254364264458584
Si	1.1356363620585865	13.24349827163136	3.349604260185487	14	-0.184031491279175	-0.2285064711070965	-0.15259098698227627
Si	13.427240622932912	15.989795816847144	9.773436761100735	14	-0.2796766091886836	0.9356455377339151	-1.026087252696508
Si	4.619692797078589	6.301593125354235	0.7838795696786816	14	-0.402006457884413	0.4995343962198659	0.05368287931096778
Si	12.194147564096586	4.934901280688423	1.9112097212871701	14	-0.2389094203429476	-0.023850087170757612	-0.09344579441865387
Si	15.336299672888789	12.957940551493754	7.307234263600731	14	-0.0556538886493933	-0.05090659978627189	-0.11854518166447145
Si	13.384264869909995	8.38064366154983	1.349280088190849	14	-0.08730059559296795	-0.3089856671751796	0.26662362169935583
Si	10.236748367660075	10.336431082974924	2.116157397078362	14	0.28624861149751407	-0.4992664870455065	0.4548709543719776
Si	9.249608244407437	0.42559214013361385	10.182018450529505	14	0.34275199334468426	0.6764647517153239	0.45758938402697025
Si	3.18168973605398	14.64042236364039	16.09715575724178	14	0.04009947279409347	0.1036870211298677	-0.3045469109504759
Si	3.5318314774569974	8.289552165680998	3.2080137565910576	14	-0.2486654794802495	0.2542056972241046	0.4483791705491357
Si	16.683225979889183	13.761975498728827	13.891630022131999	14	0.26258595790459527	0.1118806195641156	0.00861243149090002
Si	13.273034376312125	11.305337182419537	4.275154594612622	14	1.8416071503256568	-1.1975768922240007	1.5978661088650867
Si	13.458160823024903	12.734070899145763	0.7438439956654119	14	-0.017221777655415865	-0.028518700211082496	0.31305084179686565
Si	8.338596644737759	9.85779123397977	12.55756679355097	14	0.022241346571940955	0.1791384207444012	0.027818845342938183
Si	16.293087976058544	0.1863598477123693	4.202220137363263	14	0.2589686698296789	0.00651132422327501	-0.1019335273015267
Si	14.510030748006384	6.093646303174928	4.637211022431339	14	-0.29608488912080455	-0.0756334338712	-0.10755370642083839
Si	2.0757303451913844	10.835001905891747	8.077919882347537	14	-0.10804787286337086	-0.6182829523151611	-0.46707933376363675
Si	11.716102302834301	9.89869657682542	7.932262267621656	14	0.05664633530297046	-0.12375372682202741	0.11451625962779939
Si	6.9434497639964	16.290549102819014	1.897394974898662	14	0.1297729414870261	0.12212210338586144	0.027453491276945144
Si	11.01021364310848	10.34849646380226	15.182612666795055	14	0.013700134698409038	-0.055518648509553514	0.048253733316943104
Si	5.4908424489049255	4.854536933752286	15.516849595839476	14	0.1501762048655932	-0.4883277194609365	-0.1689666138768314
Si	4.702166865777637	0.6263744258292431	5.398389789383161	14	0.14083049413738694	-0.1942701468850687	-0.30459910438847493
Si	9.846836405446886	9.647305538560934	4.337620704201447	14	0.05360780303561946	-0.4248412155642441	-0.3139509857694495
Si	5.64449505736122	10.19403632985752	9.86194024424798	14	0.32872532827061646	0.07477622735746263	-0.46866956240414837
Si	13.809137935622863	3.193619164314296	1.368326551435522	14	0.17265589290071184	0.3689279023880479	-0.23872481498096101
Si	4.8221966026288925	9.97897411067659	2.206198946013942	14	-0.12919315723733268	-0.2683341780688503	0.2726040126740202
Si	7.700263306958966	13.747458057746925	8.887989157979012	14	-0.28333632050138235	-0.5907921800110738	-0.14697106497349657
Si	3.169709530328873	14.499578780173202	3.4844970523757657	14	0.3639978079366639	-0.20959830547219552	-0.08416076177600312
Si	2.420121129211185	8.763463158519688	11.1364480585606	14	-0.270498534527351	-0.10081998158737059	0.19314425986537587
Si	2.388116584548503	9.954902316400387	13.119756865902186	14	0.1545974775741198	-0.0030696426417247914	-0.12986344439429529
Si	1.3221469041825924	4.960514416718432	15.311634928862448	14	0.34405940039997956	-0.14465964129068348	0.06314994621028502
Si	7.023019689305973	8.242502749595689	13.662605638116396	14	-0.049660127927064104	0.1801540073458597	0.028175971871906756
Si	6.646318057852013	5.3187920183670885	1.5798425379947858	14	0.7917402587441631	0.5827577329961431	0.059188901354064904
Si	13.093604833552304	5.4274328612606375	6.388281723630901	14	0.05068574183927117	-0.077300281450252	-0.1965183213770062
Si	8.64186423420813	6.7988945116512935	14.565073519839373	14	-0.011965152828373116	0.21844753576308118	-0.14732870572352919
Si	15.322904250080487	11.298249631124415	0.8819619758612599	14	0.27253176461452405	-0.08346399223424299	-0.19805995612696697
Si	4.556641927653305	8.154534886802846	10.382826943948897	14	-0.06310855141463063	0.06956716797884262	0.33363228277411905
Si	16.67672810237873	3.7889783870529055	12.027803865408114	14	0.3090412030500948	-0.23853146786088586	-0.28542740045825876
Si	5.864497432471452	7.04774667667625	12.031079830878475	14	0.2726230388533893	-0.0035931196849069407	0.0486825936843438
Si	7.49659489568395	11.751639976256767	13.673678401406212	14	-0.1383105538131098	-0.10904597594865233	0.24944221039746625
Si	11.148605166421103	5.95948405128454	9.438200662587855	14	-0.07129752185930228	-0.11905631740211686	-0.029789854681363706
Si	2.8536411057830704	3.527309007125165	3.32874782601844	14	-0.27435622094970114	-0.4546377551194402	-0.06494072106576818
Si	8.367765841285845	7.872813322231033	3.9129294545721813	14	0.1607753294373716	-0.23523839616684022	0.09160308323570375
Si	7.738823058527839	3.052800150588136	13.11378478084972	14	-0.0015439487447489215	0.45503910465991526	1.0501908508518323
Si	3.10374632760044	15.427700747494569	5.6876673683123595	14	-0.2750905286291354	0.4429330552599981	-0.5175992393097584
Si	13.336249044010927	12.401247549201804	13.074199652088625	14	-0.03150786725628665	-0.14352604095503016	0.1870954774891955
Si	4.737701263234632	6.373772472562677	8.73920463421167	14	0.8051830258000254	-0.5140737396947713	0.1662985778861137
Si	6.703108557263438	7.148477700941616	5.402589577116163	14	-0.18856589262178816	-0.2123383324118773	-0.18042885850458354
Si	8.041789259174937	3.984039199054551	7.617835101776503	14	-0.06957565262639911	0.10489184108288908	0.1699739729412654
Si	16.242077917719566	12.082641889399207	10.674071740143047	14	-0.2349236928756541	-0.23488846873276806	0.16609828878167418
Si	14.485457731013215	6.470026890012795	14.23807319851898	14	-0.043534983722875335	-0.026952897071112314	0.2334306520162441
Si	0.14019821826952655	9.111572163348347	3.3656220933528123	14	0.13735487396561075	-0.05985867428996347	0.15724494472227626
Si	12.055986996349622	3.317409709525524	6.596485709099631	14	0.21193158355022987	-0.06759178776137284	-0.3299090651600126
Si	5.5709791162408715	16.044748499629698	10.884431310891275	14	-0.0027608528927750074	-0.009303801711487838	0.18995197549988
Si	7.98771453513844	11.336139447754597	1.0966671148059193	14	-0.051452702556271344	0.2643911309498712	-0.22267674690419273
Si	8.798144166971655	0.9944406123033354	2.5257153242172987	14	-0.08681054291894771	0.19099430159666805	-0.1005132487226769
Si	15.28300462863424	9.292859178529865	6.786901202064306	14	0.23727111203294926	-0.08877589582566892	0.14191472925089338
Si	16.07673175051682	15.239105053348679	7.591321075242145	14	0.0972001224071341	0.31487375546885066	0.00031984550182642105
Si	2.1242162721354476	2.1703942814056427	12.00273617762892	14	-0.4732520434162482	0.16509632903841248	0.7626235194356141
Si	6.524611026679933	7.8252413896532005	7.601044140758173	14	-0.2292932293350618	0.27245488856545164	-0.2778238706949849
Si	15.595513716696496	11.931035121379152	12.930515806558635	14	0.051019471309826384	0.19850887111586482	-0.14801621928613679
Si	4.7186122124388445	2.621643783103116	15.853428840195203	14	0.05694586907276772	0.09237287216855608	-0.1851977446523942
Si	14.808531807717383	1.9311030216059313	4.686024545922438	14	-0.13742583647244686	0.3563989061629662	-0.24197572054775626
Si	11.164261005403954	8.814602617494744	0.5361723545856156	14	0.3973923522768752	-0.27845584838267723	0.13733430512304956
Si	15.58331565926761	2.9661819855690825	8.313750084627813	14	0.1807754435017395	-0.154583336494859	-0.6719637747418727
Si	6.436289359616292	3.195050761224843	11.037956156694225	14	-0.2205388728304896	0.4774588859410745	-0.15413673550074927
Si	11.241477149523075	2.556555263155268	4.512630969541753	14	0.01899481188418998	0.08930965729013166	-0.18914027755030927
Si	1.5368602330409276	7.730107352393945	2.0343516253352676	14	0.10629695014035001	0.31585771747487135	-0.3814137040437509
Si	12.40745058981993	12.251013410713828	15.186438994464437	14	-0.08113688480897696	0.17089365731428238	-0.07922783910876702
Si	11.931203833600874	11.982566058227915	2.3878332135353166	14	-1.6292078827176917	-1.157267617235783	-4.343856470226446
Si	3.13214567226299	15.709581196391694	14.002433002235986	14	0.22444438181179452	0.11801064886841266	0.1172318610669398
Si	6.5209616011459515	3.852998942257416	3.595825824937745	14	0.3777753329052094	-0.22880960442434195	0.056321347590503744
Si	10.469522094156504	13.516266622572678	14.897603670873737	14	-0.21370898865804827	-0.11493200735806734	0.24085009063859542
Si	7.339107769644599	14.869638391636009	0.0969521980953042	14	-0.16265609297905992	-0.16813923218480772	0.08743943528025594
Si	9.751605727206258	12.884986438451572	2.081731913933084	14	-0.24212458754579277	0.47241103486602787	0.04965215750057164
Si	1.854180076396408	9.097426544447332	0.16090068205946656	14	-0.011596456325463881	0.17386765483809766	-0.3529443690548153
Si	14.182511186158939	7.995889706969723	10.544861110061108	14	0.1824050100536493	0.2330781534768518	-0.02059661049864223
Si	8.457075211938797	3.309110051006367	2.113366274497616	14	0.23637508182887765	0.0091433647395106	0.2781789403396973
Si	15.691496229012573	4.086562176432202	4.2407766129666635	14	-0.006550405024141261	0.12214241511789059	-0.18652469210812261
Si	3.032341746225738	2.700697743851108	8.358178728336837	14	-5.673678678813327	13.490100333474546	-5.076386230331855
Si	9.654340674408532	14.554321801165653	0.40540236493978515	14	-0.12324721907395825	-0.11983459098252569	-0.44086408680887496
Si	12.306634390452336	2.029986401346013	14.394502187711405	14	0.13899549627039723	0.036695329350217416	-0.04759270213913303
Si	3.3743034018492666	4.6071065377414655	9.744981725025188	14	0.031287266419817945	0.6539992047594662	0.1591190233901322
Si	6.347543455024239	13.875581067292705	10.768018239919297	14	0.19153989014560346	0.14289046371988956	0.25118233447814253
Si	6.618878571072276	11.508057201690884	5.970049039926451	14	-0.03862417256139251	-0.18976479903257323	0.01268634787067465
Si	11.210560225396552	13.850076038123216	7.814412685790925	14	0.562754790715923	-0.4766376749018193	-0.9280610341500102
Si	0.9775235266143963	0.39859490869237707	2.006666441145255	14	-0.004187816345457191	0.34168961262639913	-0.16071979356245641
Si	9.190801388249003	13.688240067921964	4.189047480206944	14	0.3702288816800428	-0.2518204828186032	-0.30352463947518504
Si	3.241331963407354	8.46463941620986	14.75869290703406	14	-0.06666464718292744	0.055546930668075145	0.26461430289166005
Si	3.0625395959315163	12.751928186924696	9.001221266479272	14	-0.26818479684974966	-0.17671772508548178	0.2159821028715912
Si	13.41301965682608	5.737864987214686	9.98591751949102	14	-0.22961564594220837	-0.12562394883190312	0.014163962098163752
Si	4.533091011886887	6.764432992885841	4.645363262504329	14	0.41572021944101883	0.3622867373461054	0.03054087454537896
Si	4.675104115026993	12.169102808075683	10.6307733045213	14	0.19405520248030433	-0.3132922685864276	0.31794648343695964
Si	8.443591338062797	0.23139454503340823	6.630423073389825	14	-0.11766997741349303	0.42739046648917095	-0.5752264512923653
Si	10.444551047358685	0.15446504789294435	1.0410592389292932	14	0.02380020772754674	0.07365445410628202	0.15611520104460322
Si	14.665976532291932	5.1326172627037945	8.117010340322608	14	-0.006320805319052038	0.4070491667488194	0.14939921683784443
Si	7.06016422379165	1.1708972163988063	10.067651219993767	14	-0.1439417886852981	-0.23324527532266143	0.1314277048710734
Si	4.486085821335426	5.187230883060167	2.9372388306384516	14	0.1719568093641636	-0.07194466906838354	-0.2945501963552082
Si	13.090818624919761	10.121609647256067	9.8562515302087	14	0.1498417040634419	-0.030517477486965608	-0.018935419351294558
Si	8.346508101348679	8.09651098639183	9.002968994057706	14	-0.1371980365410817	-0.059266034513669345	0.05292363190992806
Si	15.71507171452002	4.4210595447315155	14.204019537454586	14	-0.24083183579082235	0.1373577021814629	0.05646687215162413
Si	7.593303034351712	13.859727032398897	12.76553982345404	14	0.3437752932621032	-0.17448934810450945	-0.03936439378306313
Si	3.4778583083500814	6.9984483102955375	6.765043960446064	14	-0.2795591096755528	0.29863645404051953	-0.6054361674725093
Si	10.402033929501616	4.008651527633366	8.218168878081855	14	0.0010253568016750539	-0.1312279299876979	-0.0940263499999433
Si	7.927566171119895	10.014470834530677	10.276322030542023	14	0.07976134346269774	0.030702339959484255	-0.09853786850520714
Si	9.441299725922816	5.883502946147746	4.6658298567804035	14	0.26539591890898506	-0.1733027829992611	0.05220063709390242
Si	4.178688877389666	3.5467584141226927	11.838847815060486	14	-0.13804033064396223	-0.23773416810110798	-0.1796588124611992
Si	11.072727254196625	15.290603230542738	4.374562128827961	14	-0.10806407082688779	0.06503482352048559	-0.037070967837491045
Si	5.179832115045358	11.30716844711747	4.1241456902909075	14	-0.20696163696638364	-0.053845116056669126	-0.09305832884690755
H	4.851468992089294	4.696183314846024	0.9971416458336471	1	-0.8211483042854847	-0.5676602025562335	-0.0681515173895691
H	13.621397268464738	14.681484952828615	11.003093332158652	1	0.213912877309936	-0.34754890454048454	1.8192668161988899
H	3.8768610747435184	2.287400302127755	10.867635435924738	1	0.47552284363500297	-0.6004741913151554	-0.14308252528730464
H	12.409511172100787	12.40859553975182	3.6058715730526036	1	0.019443983983619847	2.4861197477853723	2.792960341791952
H	10.503410318964644	10.807726217385529	0.5968989265096789	1	-0.1592555490826321	0.5277332509291219	-0.2851954867583814
H	14.81825159726794	3.308427012205797	10.237899869522906	1	-9.2186665007955	15.149266478272072	-7.970594128525919
H	3.550627329343188	1.6836169341821148	8.550251859829514	1	5.4222351200346575	-10.958894968347717	1.8350978829866376
H	3.471104905532934	7.382437326938316	8.353682465728765	1	-0.5233556870110379	0.40056303935768184	0.39942866769043256
H	2.7145436119115844	2.4209352066305696	9.735048997719057	1	-0.55926425813329	1.3266006136207356	2.440147356218997
H	7.723525937763993	2.043594761909888	11.975296690849186	1	0.057765280338298905	-1.0596905707887154	-1.1371484609950924
H	1.469162406595938	2.626041766747074	4.468842777082187	1	0.35181848203512245	-0.7718792414776152	-0.6116268748623618
H	0.4515066649868966	4.444420454500653	6.436037110275074	1	-0.48969631882285136	0.449407612677195	0.7003708889820609
H	8.39315621166387	12.921225168484694	6.271434587234101	1	-0.09629637888710205	0.6929162262168235	0.5490150609955837
H	8.289000165499244	16.26592039441285	8.836705556523262	1	-1.255729895244578	0.6518757288755558	1.0273733195776462
H	10.00270848050935	14.471110640235773	9.556359823155535	1	0.032161956449732326	-0.2775014540878383	1.4771892237796804
H	15.86873251288999	12.140046632336325	-0.3182551314972685	1	-0.09363811309660094	0.3459090535672941	-0.5289588968352367
H	4.7310346735024496	15.521098523054533	6.671392297562148	1	0.1699508329933841	0.6431859071145194	-0.5406574260419104
H	4.678932080679109	13.640578046293694	8.984495824770349	1	0.06640625109825257	-0.30745200285171126	0.4395121996315411
