221
config_type=amorph dft_energy=-23187.431925764944 dft_virial="-18.79386080432021 0.8922541864134835 -4.7358106817331045 0.8922541864134835 -17.388863261913453 -4.707549236914579 -4.7358106817331045 -4.707549236914579 -21.054776389802335" pbc="T T T" Lattice="16.427216027620428 0.0619146725254816 -0.0263494653040256 0.061898245178035195 16.47896217207659 0.19528830644280318 -0.026382319998918397 0.1948776227566432 16.24631807754067" Properties=species:S:1:pos:R:3:Z:I:1:dft_force:R:3
Si	32.10786168131381	-0.25374009412658366	25.162778365518832	14	-0.11190067418561277	-0.045059392067191124	-0.18112922759379188
Si	30.778652719096815	10.98569332616481	24.338498424496585	14	-0.11365082557703755	-0.0031056381162068644	0.15102801205815825
Si	35.810823992270336	-1.5572451857941898	21.641361242131445	14	-0.08821488064481262	-0.04365479723079423	-0.10998545783263446
Si	36.44676439481961	-0.35990511246843293	12.872393893200787	14	0.052508912621788174	-0.0499848585289988	-0.1322833687216187
Si	25.226449121486333	8.884767006549822	20.214723324944604	14	-0.027354503722119446	0.0023813577475211506	0.010427631846924565
Si	25.458053364928894	10.062591391109255	25.7424813868201	14	0.23300487697522757	-0.3080994071713245	-0.1469908624844617
Si	31.30816855121458	11.763866631109247	14.509707613183473	14	-0.17315622999601266	-0.03138933930102783	0.15913033625354087
Si	25.873195433185845	1.6534141632149046	15.811031153110198	14	-0.02098870405996481	-0.03880954925497518	0.0008746900299143765
Si	39.48723806701874	11.952189742234776	23.171675434522005	14	-0.24913187798532438	-0.1312420710669587	-0.2027781914999707
Si	29.51110873372412	8.343996798696525	13.329437196589272	14	-0.03866479602545084	0.028723103084034262	-0.059631902800726416
Si	40.843762422569604	0.9607796991586182	17.581757932644077	14	-0.0011048039560676295	-0.022661465181253154	-0.004052576205617402
Si	40.944961453778404	5.233192723875118	25.716056355717818	14	0.028625401081868635	-0.11494846243211627	0.10001548273269624
Si	33.60482671565343	-1.0960572626449776	20.79985065637267	14	0.015439230336957198	-0.045525790572265995	0.010069476875827937
Si	38.36615538327392	9.204503969042317	14.895429944898668	14	0.0020247454396166123	-0.0021003359360289658	0.0967694622660093
Si	38.13298725635446	3.015318475054462	13.109159609211003	14	-0.11049479379655577	0.08934128188556949	-0.08408465705852673
Si	29.511662335333067	9.536628794244145	25.71335241432814	14	0.10350395843107317	-0.0034226554021811227	0.01138356880495562
Si	25.004775209575122	6.998265210417947	14.309435249525432	14	0.01622598856492251	-0.06471883467663939	0.06034358475334341
Si	39.77543780788364	4.199833718228814	14.182770544305221	14	0.06857549265686151	-0.020614865346415285	0.05513889625376765
Si	28.78510704153471	-2.2589508311103783	13.736007474948693	14	0.07783327158311869	-0.09900375278921797	-0.010231199400465251
Si	35.469539278132395	2.4426595003382143	15.73145872481458	14	0.011877478136956065	0.012142816205995347	-0.018357949096389298
Si	36.968736788989986	5.712736565060937	15.378361105127937	14	-0.024302601707103674	0.0025646775568477086	0.04747803084185443
Si	34.76696462613629	2.683615832682009	23.49647859096697	14	0.022452434318725116	-0.03299550879452432	-0.042538937521849965
Si	32.79146931794829	-2.265227720569648	24.095685801891346	14	0.09560886532449445	0.1028902355911538	-0.03768623334060248
Si	32.72242024842684	-0.00811182416903232	17.2296196700483	14	0.032330620958734034	0.008131634796032329	-0.046562203126817685
Si	38.83746912338909	10.508874781920348	11.277515297141639	14	-0.24880946137817783	-0.22009715693648815	-0.05251919704306876
Si	35.7049316678961	-3.9171174259415262	21.796249772999317	14	0.3697807380227409	0.12035164026240747	0.14630489158504623
Si	33.466275181821004	11.482035772849319	21.537156006339952	14	3.7684703532937	1.9327967998258804	1.0133168296818644
Si	37.37027372809184	-0.9127017813872393	20.02361249295742	14	0.06904317671459645	0.018320668069247155	-0.015152552093760692
Si	38.91317948230006	4.3015321407999885	18.442419520055868	14	-0.044781198471551105	0.018529956042307207	0.035340613957031385
Si	32.68287469491912	10.147180731315002	23.368387991988413	14	-0.012305824283292736	-0.320712992761439	0.25378275039894027
Si	36.195922084782566	3.929265449378139	14.046187006696872	14	0.012708973597491955	-0.024126995213737557	-0.08842416861787267
Si	33.83440710989059	-0.9101325442466224	26.673737857148048	14	0.0264682437182644	-0.04351235799605803	0.058772125181668904
Si	33.70514031283487	2.5486553170013653	11.611217147698317	14	0.012152329295679897	0.02555293022429168	-0.1207321638497894
Si	41.394847361884494	3.104589609282434	20.653473134216778	14	-0.059252407655472544	-0.00011287152355450068	0.003732473593258966
Si	32.836843294329995	7.41222122418927	18.678529784902974	14	-0.07032333005349817	-0.036025813524850854	-0.1273530171597027
Si	27.434877645525308	2.263233440589654	23.593424581921898	14	0.12505676299827845	0.0067021002380299975	0.03463895931516298
Si	36.104635315022925	-1.8480190920039374	18.30720602322455	14	-0.030658888279573752	-0.07927746144144586	0.01647127201246464
Si	36.953434714843674	12.055266419256702	11.486461300251378	14	0.0013269474557284235	0.023593490859806828	-0.09073764918494191
Si	26.033138658862978	-2.6147885323510827	23.803338155796233	14	0.11872901569486202	-0.2250375358091527	-0.3903315828466846
Si	30.841405186342065	8.648444828920656	11.334667681642408	14	-0.04007299040929595	-0.00625781323870841	0.014466838304877197
Si	32.48004130779419	-3.255558575049595	15.589988051340928	14	-0.11613322776364053	-0.022922432371248185	0.11015566500482826
Si	37.24791955884155	4.7441505903957895	20.248716435015435	14	-0.0045233455897365155	-0.040413147643151535	0.03202723053095656
Si	33.30422761293599	6.616845200998965	22.041792620750147	14	-0.017920089860368082	0.045126755026579014	-0.016263526702596672
Si	25.345506322104118	-4.420871891793849	15.7329240442068	14	0.037871352923653144	0.04253919463238199	-0.000982162232296566
Si	30.039446725029986	-2.8088004338973005	21.322071103489492	14	0.06030810349992535	-0.01965352906721192	-0.008594690864190999
Si	37.61745602511782	-2.18385649772865	11.820544265268815	14	0.0435761214079977	-0.005786529633525266	0.009850418702551319
Si	26.80594350666193	7.314632923949186	23.494323322982	14	-0.010791700360257533	0.04484316210976668	0.01764883824909246
Si	28.207064825060275	11.07402153064936	19.480116988162763	14	0.08158759957159892	-0.17518508920414153	-0.06142422031940164
Si	27.755205992525877	5.824711936194578	21.98422133888949	14	0.004696123867250466	0.03288495126575797	0.0015076961597348336
Si	31.625553117552755	1.5830377640197821	18.56082455498003	14	0.14851964170782175	-0.16045445549341714	-0.12900623788055793
Si	34.98133986757707	-2.149194794616746	25.028974335098415	14	-0.04091348473845235	-0.09312054959565515	-0.06051353481500519
Si	24.824641131151623	1.6646981081758365	10.221805242559764	14	0.05048750961908775	0.018551810437528463	0.020283964091712226
Si	25.70081177728756	-0.4812062887473952	14.820090844039989	14	0.02929980200734348	0.031428420101894075	0.13539672015378598
Si	38.93123313714365	-1.1386681591861945	24.291220518545845	14	-0.25868224869701445	0.40874121116000883	-0.0579336877367686
Si	34.87129306703364	3.6339378824562494	17.64493586818819	14	0.02820194003564025	0.004721063588855903	0.04818611324702321
Si	30.285595741901588	4.732475674565633	12.22043189868704	14	0.012931888428748794	0.04326064678521554	-0.016724011665435193
Si	31.16659438545202	-1.4101678586370812	16.27105437732546	14	-0.05842554018451293	-0.008494931977769252	0.021272296976777145
Si	26.728117305399863	5.35446925913291	14.255816387460383	14	0.04990643981673429	0.013491360946413017	-0.028407371350720082
Si	32.66937141531818	6.484358643843748	14.994769400376539	14	0.08212830302042605	0.011913216500906125	-0.030756333171207365
Si	40.51182158365918	-0.15651319553032064	11.267147998168216	14	-0.031124001231988538	-0.04018817592763858	0.1268457380800375
Si	39.469437393325826	2.0272085979492687	21.617617154132418	14	-0.043277358969796495	-0.04236898746018818	-0.0850945872282809
Si	25.69945652112323	1.0080806033957823	19.610891815714066	14	-0.034802481613524394	-0.048377146372310206	-0.03833543743393988
Si	32.56510539834113	1.0420605715886608	20.7430662444547	14	-0.019040577558888615	0.030438030332573033	0.015094959334589373
Si	37.109374595948104	11.602878626134526	23.70992404454228	14	-0.013908908450405063	-0.027057283947110326	-0.05302621901220196
Si	27.507570300710373	6.636411814542371	10.810776573290287	14	0.08070956710476836	0.08531467384368557	-0.027480230772274683
Si	26.84943819449576	-0.9269196506020985	25.232550238327928	14	-0.3158913989545653	0.00039492177717474487	0.06332735247737525
Si	32.650657381107244	10.266413704550462	11.172917447746174	14	0.3528978320485206	-1.0743111611917373	0.6876673147057412
Si	38.55487110800342	-2.2177921120834228	15.849860474269253	14	0.057926745752404196	-0.019468409484161252	0.0977158861343558
Si	38.153191250978786	12.06915409878789	16.66513822889087	14	0.07669298637363302	-0.007174155174809185	-0.01615168362117023
Si	35.70602737197077	4.8267686489079695	24.191445738360645	14	0.06192738563055461	-0.05444238382253953	0.04865971084699448
Si	28.585457274344886	7.511081001121705	25.100311734119153	14	-0.040338071367803215	-0.08932482681152053	0.027529338883889514
Si	34.87432555537224	10.985090442513528	18.188845342138492	14	-0.04572633678723754	-0.1356785132968742	0.0016023128355162827
Si	23.089995377549016	-4.021621639456544	20.70729898085965	14	0.12951531673394726	0.004213527398658673	0.016570002456758322
Si	25.67933959144037	-2.182683585120977	16.48318235763557	14	0.03529510539286477	-0.050894515591267196	-0.0258570919836652
Si	37.64062351322147	4.981652251571607	22.664152535165478	14	0.020405320262823216	0.050588811168701585	-0.13003750822446933
Si	39.53936368320092	6.274377717844885	13.090549067288977	14	-0.1047378318742122	0.043211024452536675	0.007302710440816589
Si	27.556329953400777	4.923609504839241	16.41052091441065	14	-0.041046153772971994	-0.01360346113837147	0.0482588755275834
Si	40.285479019603706	-3.0722573040384296	24.52664576300444	14	-0.3541512458920928	0.40230239210676205	-0.2725569614466615
Si	28.0094076951157	9.55137726678152	17.596135147129168	14	-0.031254613382252064	-0.03264918090790039	0.11708299406890323
Si	36.69246987331016	10.772624058846024	15.231265707888635	14	-0.0657747876316242	0.0005815840234174955	0.016175852011179624
Si	29.630752390645743	5.913368687628053	16.850389426043925	14	0.04596570669254333	-0.008219309487449379	-0.12415070548345829
Si	33.690480547973706	6.358712434165214	12.843900659055004	14	0.012478345450274674	0.026157654195590515	-0.029960833185153555
Si	36.67737149827217	1.4559673033176446	23.984025835828675	14	-0.0068735929628838755	-0.031221446123622154	-0.051625223723253275
Si	29.999610407472467	8.334521504689441	17.08790751456719	14	0.04183959687476969	-0.007052541893166181	-0.03788240867652978
Si	36.66103614397147	-4.120065804498585	18.223403552961486	14	0.004167504613428021	0.1832725009886673	-0.006660191221311584
Si	34.01970594635124	7.448075552725783	16.65778370543912	14	-0.03100058817662143	0.00447655147290982	-0.00875204250978406
Si	37.13033424855497	9.594186934226839	20.81972774678281	14	0.08120321932623678	-0.04834320778208426	0.13113228486978837
Si	40.63263979592321	11.720141960411162	10.315922444284425	14	-0.0772342040435242	0.11134377277326866	0.3409141672618425
Si	29.33360631636154	-3.3859933565087554	11.755408189909094	14	-0.04645036004539124	0.00889910973409653	-0.16101752755852958
Si	34.48489557133839	7.580558824411509	20.27645893938292	14	0.014749659890093485	-0.042960341683822234	0.1075729897107395
Si	30.062638854154812	3.2877611042487724	26.730932952752177	14	-0.08913790745474577	0.04304955903843138	0.03223420450922848
Si	29.22688276820651	11.95205668072046	22.893141544894572	14	-0.019608277613577307	0.041914930260650025	-0.06475483015112146
Si	25.893131662046795	-1.6671293555979039	11.078486483685289	14	-0.0065496336925452165	0.10088194522558613	0.15651140837443805
Si	27.671469231652594	11.514152879841774	12.010196348802758	14	0.08013826750263144	-0.0759422236201498	0.021590085594347448
Si	29.073313353338587	0.5824890994281743	23.089486129778177	14	-0.04561886458485535	-0.01191141672718202	0.0382716740220002
Si	36.97919279563962	1.4166106643055594	26.280752995126797	14	0.0780903821151335	0.008136777006672626	0.0611421700657814
Si	29.53235257944181	-2.7853356108048626	17.307401517472265	14	0.045109271510402	-0.0053841516509220925	-0.06521994310353625
Si	24.618569913845004	11.208707709627648	19.557834768931684	14	0.03323050782078586	-0.052663436051529074	-0.0021792688693575116
Si	39.56602855357591	-1.7738003362411023	19.788231602336932	14	0.012138445326951094	0.00981622300179335	-0.025979990817968278
Si	39.92119109083657	10.214281517429313	13.383642514958158	14	0.1078488693115914	0.02404806228040901	-0.0689035656957124
Si	29.439953678260043	4.898219396626086	23.292748270671463	14	-0.1514512159938546	0.1354026336960223	0.08617573701540317
Si	26.231577730546	9.21943478513635	22.282113214747763	14	0.038964329795248095	0.001468101137804553	-0.04257287611207592
Si	40.63360243848357	6.959439174728381	16.47588697263462	14	-0.007244603460581242	-0.0062177039957140995	0.019295888317179318
Si	34.85909411881994	9.87103373527153	20.266290411313594	14	-0.27972983106881066	0.07461347639069725	0.009328227212029245
Si	38.22840550399688	8.169099758638938	19.21182554966816	14	-0.07169270074700904	-0.024630674745954567	-0.011132371815177152
Si	34.109305627528144	2.7765749064116974	21.241015285719463	14	0.019286118116962757	-0.06447895055026957	-0.013843602375273302
Si	25.611391154197825	8.047486462758494	10.993626092246677	14	-0.03924200916982408	-0.1015427192928642	0.10244620570236423
Si	25.533806434943223	8.921442702458656	13.157074896242662	14	-0.007780421809300102	-0.007014489534427989	0.015537703670718871
Si	37.4291591977482	11.844171719100972	20.515496557544974	14	-0.11491812338933853	-0.03963358851008264	0.05789075027792213
Si	31.360425586176326	-0.17278119770649056	12.608278286427057	14	-0.06120284815133689	-0.11743060750818723	-0.09398058432524467
Si	35.11940679465983	0.6966887334060579	11.2358456876091	14	-0.10043611556307247	0.01444035592007967	0.029870844498948366
Si	39.34961796378653	8.843000475667349	17.07998789036328	14	0.05695975304149651	0.013893738929016191	-0.037844613428323605
Si	39.635493234987756	3.158279108941503	9.318858020086196	14	-0.006489984049117782	0.003469963740071847	-0.10520500171088314
Si	34.883712141703114	4.464507854815722	12.162811334784047	14	0.023287272216177195	0.049552141503617884	0.07316285876906971
Si	31.931313692837854	-5.181193598268282	19.285439779044967	14	-0.4023759257189183	-0.4501372923670529	-0.3296113311639395
Si	27.631654269646756	10.83853057680098	26.106586972030573	14	-0.038422597904292886	0.0666880442413408	0.00817765758126298
Si	29.759748136468602	0.823174380539104	11.07537514407894	14	0.14475400085593287	-0.08188507645714005	-0.047281084174331085
Si	40.85577574175716	10.033243934896262	23.59717658807866	14	-0.03316880129310231	-0.1330266752696735	-0.05813706216759231
Si	37.46804601462331	7.352052778697341	13.824334036698497	14	0.0227108304034	-0.07186676457718306	-0.06358497723045409
Si	39.094568610068464	8.308776565771442	7.755304732872589	14	-0.005547931059815525	-0.002849813136852131	-0.011099718777611274
Si	32.56881305065979	4.559057095778222	21.25239286656084	14	-0.03565788835353766	-0.033855800634645876	-0.03467906855815729
Si	40.69814548660048	-4.116755693988136	13.638770719943961	14	-0.11545574151178149	-0.06672146861050272	0.07144716018893489
Si	38.175476590524575	0.8957027622497046	13.94738801094999	14	0.07598130442101603	0.0017362674226959977	0.08645367350051117
Si	25.922211352496415	5.970611422539779	17.8346125927433	14	-0.012041257545849499	-0.01850527343123378	-0.005905057588784093
Si	35.60038638601247	5.862567115650061	17.244568556224525	14	0.0025088845714004953	-0.010578812839749272	0.032654066008008666
Si	31.602500620881223	12.315201266105323	12.099503623195114	14	-1.0740807901550522	0.06839500106338711	3.319695746746325
Si	34.174124655082146	6.5497329157414415	24.168072908413908	14	-0.05622724513578632	0.029474380058581533	0.04074970532955892
Si	29.57617252875508	-0.24483975728012414	25.303197688755912	14	0.7453922286905138	0.2606769122043853	0.01450386222148733
Si	29.130661223273968	-4.053903019923465	15.315677632741963	14	0.06223900359535657	-0.0038078069791393047	0.1084098844924477
Si	32.29316380324394	3.231824343459036	9.751186379241574	14	0.055037594704153814	-0.055271565288287285	0.03661948174327304
Si	29.643749707945336	5.235014516706923	19.05351684506195	14	-0.10805430062667122	0.5098591838539847	-0.07050896385761286
Si	38.502725779004315	-0.6350451121134418	10.243674970215157	14	-0.0066501639105630075	-0.0390998270456199	0.02643250535431434
Si	25.51367800611715	3.292648240114077	13.967895911502074	14	0.02696858081356521	0.0027001748072195127	0.08568568434138295
Si	31.244162677359178	9.066747518826295	19.020714717680974	14	-0.022827044363870688	-0.1059477940378739	0.08872807326671416
Si	27.63871145810973	9.8366250133103	13.639023701094636	14	0.016337317425284926	-0.020644690168128997	-0.0063514014723618
Si	28.73405905934502	3.3544972032497724	20.073729044546894	14	-1.3990214513944106	0.09815245981771693	0.392630922334493
Si	25.096379027140483	5.661259829102898	23.571165526132027	14	0.13758704477602013	0.03568308518567512	-0.15178545968547386
Si	25.701362093427015	0.9873443627141917	24.494209965471523	14	-0.23108811795905718	0.034178217241792444	-0.08917981647146418
Si	30.457016755239515	3.5707845879333084	21.693560781377123	14	0.1880781539425561	0.008887025539091835	0.4599632855690629
Si	27.03545654877456	-0.9131502479725261	12.973806479926392	14	0.07545551338304575	-0.04325601879563926	0.006890305147464837
Si	37.448996862524474	1.27549153606726	16.164053206998588	14	-0.04517252070127765	-0.027090965426804264	0.04246951767820597
Si	32.67922618105128	1.8664440048998197	24.308553012836544	14	-0.04572993633468574	0.08733042041468166	0.01569736931110007
Si	40.1654608191603	6.73867862333519	10.882757924330923	14	0.007569591173047959	0.04487864336318472	-0.04629917905256653
Si	26.368200693788218	3.950885481352346	22.290206968834607	14	-0.23732124858669218	-0.02794045862458119	0.2118732194594625
Si	41.260897128071804	-0.6664459867572355	20.97281255490107	14	-0.0722979389393719	0.059670726491060644	-0.07594993693611024
Si	31.151093540401597	1.5618974105910102	22.538184349476992	14	-0.034888099420685326	-0.0854990220951402	-0.04779427679623264
Si	30.606845663093896	6.624607122667388	24.252585040086657	14	0.1006137789406947	0.03422552557968317	0.034771628349682615
Si	35.876727224755804	2.9364589936380194	19.732818873930736	14	-0.0022150072333075696	0.03259544480670929	-0.02153660660368837
Si	27.94680964493645	1.1960275282647894	12.507931834550721	14	-0.08410214057470375	0.11606740746744472	0.11570128206985565
Si	32.51524675610656	1.703474861823064	13.433331955514028	14	-0.054843990473546655	0.008645341638997916	0.12680717150023527
Si	32.355715856850345	-2.7787416735398778	21.848958560015834	14	0.008998354399454248	0.03813489121896832	-0.06823559253353793
Si	27.442917189365577	10.876732373287583	15.727414311873277	14	0.00242249543264352	0.014119739086657205	-0.06387834034748298
Si	37.0063866266024	9.302139908589995	23.213136416741975	14	-0.0032912719203215556	0.045175091806597796	-0.03530821802999753
Si	29.216518754702577	1.7191843341860562	18.44016075978199	14	-0.037366644949308074	-0.4079961048382299	-0.1898517023923942
Si	29.09015959814487	1.7847770898047868	14.51652496237373	14	0.030372467146909256	0.009026636557975875	-0.01097990526969237
Si	33.15462540247637	-3.8749073566780012	17.783546540471423	14	0.2862959198354048	0.38859994341356485	-0.035662516343113924
Si	40.01905372777901	7.180053522729299	20.429850938898426	14	0.03816831558813025	-0.017017374782464092	0.018541268905715856
Si	40.88804562308086	5.095117583118636	19.418404372010873	14	-0.016011558381222164	0.06453474353571678	-0.04391627864185329
Si	22.210508049963654	8.266295445275054	10.139857419823398	14	-0.00597653431668421	-0.009279376210946431	-0.021352001241701737
Si	36.725155366524255	-0.9287989391499667	16.326889288561027	14	0.08603381200173099	0.15709813460849584	-0.05546696929261854
Si	28.328329861174854	10.193870538227161	21.631649394321133	14	-0.08784387014711524	0.055251767777322144	0.08486138797574347
Si	32.427146891751526	5.577483642595747	9.287383222378894	14	-0.025964821296579406	0.04503085279813749	0.026694500986437428
Si	34.13323534455331	-2.877875787174668	13.972056958610247	14	0.10442724235153833	-0.009411531024402042	-0.05697183723650121
Si	39.06772139613681	5.197568378202854	16.23959929243509	14	0.05263952477205169	0.01580946950305852	0.015309646628821737
Si	40.21376050612221	11.04998996407002	17.307863125935505	14	-0.014854818097687541	-0.025064677323995564	0.007114248420849735
Si	26.481375261285446	-2.3180859964479286	21.496453967572005	14	0.013952874351379596	-0.04339794380931144	-0.01667078978530813
Si	28.52637467651917	6.188738670137313	12.864806101415294	14	0.0007553907430595056	-0.04497223159683811	0.030237484117601486
Si	39.474214465963236	6.571029328970955	22.697600257301094	14	-0.006598741804160045	-0.05106009477388473	-0.023679108666967763
Si	29.343794557247794	-2.5116362895309026	25.756158796303968	14	0.08377740997276904	-0.11893650389419796	0.07414759210668642
Si	39.199048182562315	-2.345179620591276	13.606921378714881	14	-0.03050899283940912	-0.02250899863576837	-0.08530464653293698
Si	36.331331067048495	4.96568979805794	10.287787326312975	14	-0.057315336907272994	0.001576344671782787	-0.04876486905458854
Si	40.14922074347479	-1.368028426967576	17.45756554321455	14	-0.06175923534261693	0.01745960489752956	0.0002812789220241998
Si	29.96987198039025	-3.9818247475328956	19.282978962397497	14	-0.12262269759169427	0.14712790239802562	0.053892167284027834
Si	35.15583279488747	-0.9556231547951932	14.657054348838702	14	-0.14048030959278276	0.04500231352908384	0.0785297840143468
Si	26.278628939101974	2.7052375073909607	11.774596974461234	14	0.03132017656791584	-0.034943121074536496	0.026026013603198925
Si	38.48234765449705	2.9515458695327927	23.47887997364764	14	0.06934888113716205	-0.06654997588564884	0.1545398848149485
Si	36.51039736788798	7.375944712823386	10.40895544107762	14	-0.013549210816116347	0.02729074031017977	0.09293800111792463
Si	27.917008793933935	12.640203193454388	24.69003544617582	14	0.1895423984223804	-0.03022514281206477	0.09090194281489937
Si	30.03900482938368	-0.43058706032605826	14.508186440809936	14	0.03438673388325646	0.10852712689504646	0.033588919902414506
Si	35.34783891731048	8.461587037187346	24.80676160619096	14	-0.03454665663416966	-0.009326684548837156	-0.05712661777677412
Si	31.474109401444395	12.633688107457147	9.374863775735209	14	-0.3816597588228891	0.7460656011738606	-1.2504496162485899
Si	35.49755447646749	7.891653359412454	12.505094831646728	14	-0.0009567082896271001	0.0009199414835489826	0.005167664582965624
Si	26.71841202852853	4.494428625454596	10.29065389844237	14	-0.03427797612821419	-0.01488078626142104	-0.03260418656479779
Si	37.855098961481666	3.470265648908787	27.054959095662927	14	0.009815965891261337	-0.04318068540975893	0.05244180677293231
Si	32.75070978346429	-2.1304134082812767	12.200374107454987	14	-0.03685319521687451	0.14323704871704554	0.17290940388527845
Si	40.16264845727748	-0.23478293517343807	13.5514429409189	14	-0.020658574136857802	0.030910342379884236	0.050662859001921856
Si	27.385961933034164	-2.0354649827758293	18.058834386243447	14	0.025841408241212296	0.027635782644143642	0.021016471997422414
Si	34.06525733808536	10.184313107482845	9.120210321090605	14	0.11428074638047384	0.16582857983359064	0.08930914306906762
Si	36.60207510851685	-0.9154336492675755	23.713703977189695	14	0.007282398708787418	-0.02682151358925275	0.0491651901529356
Si	27.850446824815865	-0.00924202567334464	19.2884032725243	14	-0.09238418503196474	-0.07584555006011222	0.09498125851584631
Si	30.006095924244306	8.62699892682938	21.02784416884651	14	0.04671826921975067	-0.008853344059397895	-0.061227273651878286
Si	31.168008780067154	8.305658655226116	15.025304553809907	14	-0.101521636229239	0.0017763766656903079	0.042639981960931786
Si	34.71820004524166	9.714620746560632	16.24267942008129	14	-0.017878695064713696	-0.03129292285152227	-0.016450188948839425
Si	25.54554541742842	-3.8644168525987306	11.75138184704998	14	0.2004184310371388	0.11974177408046835	-0.1581047223413338
Si	34.21848834959589	9.904305684789469	12.905784119620337	14	0.00033784323906745756	-0.15639905107194757	-0.09503139506958919
Si	28.38631511219116	3.7726881871927773	25.115229408335228	14	-0.0038782552649113625	-0.026534321124992207	0.06453782886210097
Si	26.862787057030705	7.890022123811026	18.8291110652704	14	-0.01071199609533294	0.03522491421762473	-0.07151863691683501
Si	37.73488199013417	1.3948690699602488	19.971899203196152	14	-0.03193878450794347	0.021140656384385566	0.006631651952257941
Si	31.445578384399486	4.648942612800688	15.86324219149909	14	-0.03102629922982291	0.05953420079856078	0.004195529661417635
Si	28.60473969477747	6.965193674538854	20.16623472348706	14	-0.1360466955787194	0.11492660803689503	0.03665933387573534
Si	32.73151278523842	-6.514392763180002	14.619324017223812	14	0.13332338082361855	0.07135537172900562	-0.05466195621688017
Si	35.74709902605626	-4.558511707843001	9.186382962074193	14	-0.0005841551287376435	0.039181073973736574	-0.02050713603350108
Si	38.80333638086496	2.0050316788966285	17.9687583119906	14	-0.05067365764426647	-0.010173606641293933	-0.04137834058033513
Si	26.496269937215096	-3.7751177918801	19.541474773609814	14	-0.03329067168527733	0.06986155953799958	0.02667418925440826
Si	30.868510309628626	3.289218209967268	14.030535030049942	14	-0.0026991463650914535	-0.011582315246203068	-0.040746105782110714
Si	36.4184765025169	6.6660631766831235	19.271561955922248	14	0.09719472308596179	-0.024884442841053185	-0.0910276698650546
Si	32.51007378439569	3.618665377535331	17.716319263781774	14	0.08212778879936203	-0.028670138314439216	-0.024376649540323935
Si	40.396417825113474	0.27057648252439903	22.951678754785075	14	0.051908045308469576	0.020946537932714383	0.047224262746755806
Si	31.617490575426064	8.082123524849228	22.662194395349868	14	0.0024831735181990145	-0.026338145789064904	0.012559078157327321
Si	27.983667684401937	2.514803482118569	16.497398584115682	14	-0.060275193351827454	0.12260727095977338	-0.093378688569798
Si	33.8014275671572	-1.6948932155170646	18.538235309506486	14	-0.029794482670939967	0.04808044081836512	-0.025686884811471397
Si	31.947721327467317	5.312773365844457	19.17251983543316	14	0.10705259799394154	0.1656349756029835	-0.0715201795800271
Si	33.8002316562631	0.8531920725279106	15.257023788684592	14	0.012496343187515708	-0.03420289985286587	-0.01678468975099069
Si	28.480236828481207	-1.0134490605412658	21.38741580616178	14	-0.008487732882872839	0.029265349196053492	0.026755436182524937
Si	35.57486485901973	11.757318690417112	13.394369572840658	14	-0.016270468686961075	-0.023777067779665408	0.050716595103112945
Si	31.845308315282224	6.449788933877544	11.387268048165781	14	0.02409717039202384	-0.02789777827626673	0.024585680402851976
H	32.173824052250076	12.204416877661545	10.763993130497685	1	1.0151207171744803	0.30241880707698937	-3.158378685417998
H	30.145633098923515	3.2683078394027456	19.58456042049223	1	1.6030026630736784	-0.17170458393225707	-0.4904553091133591
H	25.221673691583668	-1.0710646962400245	25.202404413029036	1	-0.059777170251314786	0.16365676716966157	0.06260512899294564
H	32.229539043849286	10.901550809809605	21.29288627801622	1	-3.749160323897259	-1.69789907511396	-1.0851787091589393
H	41.242777763838426	-4.439084891907673	24.693064649044935	1	0.33171166709996847	-0.3126402362772381	0.45658562450998436
