72
config_type=amorph dft_energy=-6945.121259040566 dft_virial="3.934220601677412 6.024589732108313 3.836116635267297 6.024589732108312 -28.472789635797078 -8.031947814038347 3.8361166352672975 -8.031947814038347 -33.22580103405121" pbc="T T T" Lattice="11.105996452100001 0.0 0.0 0.0 11.105996452100001 0.0 0.0 0.0 11.105996452100001" Properties=species:S:1:pos:R:3:Z:I:1:dft_force:R:3
Si	-0.6752290358926472	-3.396063784100077	-4.649512087475923	14	1.6791888845887106	0.062088593934127904	0.30149835137237635
Si	-0.03553252504884874	4.760279964290233	1.6099941028744191	14	0.5505566957455444	0.09624444255963506	0.011420078500501724
Si	-0.8946046732113332	5.430117038905386	-3.691335579973124	14	-0.630746128244047	1.966481879067269	0.13759398676038453
Si	5.112494425172486	4.0850964629830395	0.2638851392997673	14	-0.7967490290183437	-1.2137262618503828	0.5687575503068728
Si	1.4040578318624193	3.083467744361399	0.7340275129090001	14	-0.34343385047558755	-0.7003683178767407	-1.0646085810450947
Si	3.912839126212033	-3.565556838354156	0.7752229855487747	14	-1.2186774393653919	0.7386276505932042	-0.5492652295432342
Si	1.4804892994457715	0.3119430071472944	3.6562239721898098	14	0.023318125480018975	-0.8265784787216376	-2.3456744052249436
Si	4.452261816289111	2.9938590119876305	4.862300758298868	14	1.2218648386307795	-1.0046018110886905	-0.012223548913047997
Si	-1.2732391890534882	2.187805780287826	-3.178936000463296	14	2.020328794897662	0.7494712872809287	-0.5828580061036289
Si	2.3817098147436204	-0.7668945988093449	-4.031731039431054	14	0.562128726570467	0.8239999171960611	-2.136699592792884
Si	4.0437066354053535	5.5272989502598415	1.9634257809678235	14	0.3166082231178226	0.2848985240939043	0.2705849236661079
Si	1.8610240512808809	-2.9084949914578537	-4.288740456327326	14	-1.1659345561594703	-0.795505128264456	-1.9841502577167944
Si	-1.6043722474703663	-0.8745527966170666	-1.303308674447549	14	0.1940130363530539	-0.738606567529579	2.099751780900228
Si	4.79202423394927	-0.6278142052396966	-4.738005777805901	14	-1.0324350546214216	0.7715519397703603	2.22237293582873
Si	-5.223307836572251	-1.5746115087776738	-2.8187085631408513	14	0.16438233309100736	-1.6550567471643325	-0.7957779225389237
Si	-1.6981390649158015	-1.5927809189733093	-3.4649776026850025	14	1.258681009931044	0.04053707491958267	-0.590639970576121
Si	0.7456321686017995	-5.470767207119361	-2.0471516670209153	14	-0.8262727742990719	4.36031360115965	1.0295746999527569
Si	1.2066065421398238	2.843506032019101	-2.2125910325699776	14	1.5159825750711389	-4.729104977855198	4.402673589751218
Si	-3.4955890607059263	-4.4986126924819505	-0.7661827044367653	14	-1.3334317833458371	-2.067293890228147	-1.2314638032330203
Si	-1.5873656351032654	0.38161203349096295	-4.596234401295908	14	0.9409589839885331	0.03650275356173832	-0.6759546444198066
Si	-0.35262427215133674	-3.5322288536010493	4.100122876182731	14	3.577282447466424	-2.5909717367357996	2.5160723534335014
Si	-0.6165560566362028	4.168372556179821	-5.5160208108627335	14	-0.3059111394333465	-1.0442947921316685	-1.3827126732381794
Si	-2.595935601507468	-2.1647197454628455	3.3144769129636598	14	-4.640360706624967	2.1424933215213056	0.6795961008847323
Si	-5.33936438889705	1.4789655567325433	-4.965659824879983	14	-1.4890649021429125	0.2683010108102204	0.8195565329817811
Si	-5.406878851929011	-0.39359651426242404	2.7528233497884136	14	-0.48125460872520914	-0.810696246938019	0.35268623008067246
Si	2.875493523000439	-5.218407870937583	4.177407284293604	14	-0.6453903728160143	-0.6128779747111458	-1.1324937319234962
Si	-3.3780942818405792	-2.92560711079125	-3.8845466002503075	14	-2.7800577639638533	-0.3875627595274171	-0.5928832599679502
Si	3.7800758234243386	1.0009201560479961	3.138335809233354	14	-0.8579809306597982	-3.9023120689498603	-0.7135460039740956
Si	1.806807908400664	0.34124617878616026	-2.270348877718769	14	-1.1873487781499197	1.0896663163847258	2.24025111667238
Si	-3.0798627379130474	-5.09338877947594	-3.0956821192594184	14	-0.6755417249053908	0.45331080766371173	0.7058434866559959
Si	-4.218939268625877	-3.317986407842523	4.751916038362157	14	1.0795775562189966	0.7336587324514859	0.9096418927470015
Si	4.216192755703273	5.194863158459132	-3.2208766854650066	14	-2.855037879973204	0.6551790849908822	-0.2312799224159402
Si	-5.210752507583151	3.034790161911845	-3.1579067961812446	14	1.0882162129841624	-0.7030764631104526	0.1970759941209463
Si	-3.168527460588388	2.546085225832572	-1.6555342413262553	14	-1.5788383868327989	2.7773527040565256	0.6706365701756124
Si	0.6944246401604568	0.6585611564173355	-5.3255141007216364	14	0.5293697594653963	-1.1825102150479327	0.4114264735563715
Si	-2.1107912478907385	3.7226189507793994	2.0061527705183426	14	-0.5714222438606742	-0.9519250052894968	-1.1540208254375
Si	4.764328099997023	-3.580485518785069	-1.4967240450594512	14	-0.7770314794286599	0.4735628900494542	-0.1697695700683136
Si	-3.740264157942496	-3.3484257229184395	1.5729178443187286	14	1.5997743832337008	-0.927969502800613	0.095479538726891
Si	1.5065739533128188	-2.53303901180029	0.7378868466761049	14	1.5411701512294373	-0.4750824132936617	-0.4144323527861566
Si	3.5144148352918805	2.063671836743414	1.0372123312541686	14	0.8160323189194543	0.595534583774087	-1.6241942273434034
Si	5.111915802757332	-1.8826096659851823	4.591648735360836	14	-0.2660384381284901	-0.2465934257027422	-1.4512362295675736
Si	-1.9821471591871287	1.2454608707274957	1.5980129539018937	14	-0.020783786965949014	0.4392977694478407	-0.7804610768152055
Si	-3.30006688256706	1.2913952720533812	5.270231782182018	14	1.2540591910075456	0.05049522293504819	-1.479056617573704
Si	-5.090022551951308	-4.7322606458412295	3.0335762764996304	14	0.4080205303387713	-0.8971247236063925	0.42532612602762404
Si	-5.448549661216936	-2.0685007240007867	0.9780617941502838	14	-1.1489819732310738	1.6500024683259855	0.5242470892255332
Si	1.2099960922570048	2.7900117789082706	-4.705005419948131	14	-0.34762835169487716	-1.1071068951028862	-23.08040108211808
Si	1.4800828199756246	-2.164809704034108	3.0015587993278716	14	-0.8920542468045286	1.0191511818743446	0.9899297985792656
Si	0.2881306401543468	-4.418141973988969	0.16304491271398971	14	-1.5543277827052953	-0.6477020536093595	-0.3601236664402648
Si	2.9020468499177645	4.246462149033472	-5.268273795007513	14	0.5400478169705033	0.6733539713884767	0.9344836552397402
Si	2.9536319822384787	-2.927008687543505	4.553336379400028	14	0.6038803916432877	-0.4826954561466201	0.9123621221757182
Si	0.4933005974111518	0.9663105393043169	1.3472584342074443	14	-0.7222610225672695	1.301240259184923	1.8466195201472855
Si	-2.664585097376834	3.355563546838204	4.225740580853143	14	-0.48732164594916255	1.0109161886444422	1.7855269724141827
Si	-3.416911960639959	0.6548795185934643	-0.5324336865097714	14	1.251843669553174	-1.4645874652740387	1.5286036168666817
Si	3.76678305627082	0.8181532148343673	-1.290711142671932	14	0.7938593637490291	1.442033986516232	1.9075027799073279
Si	-1.9083744671544092	-3.2046641518442307	-0.04013262877930856	14	1.6074239357822053	1.3310637953459807	-0.012104506736725142
Si	-5.461801336183582	-0.5354334161514837	-0.7604653374632243	14	0.41025353530931996	0.4009772444247577	-0.35510075508682354
Si	-3.5339647208465124	4.329180721208357	0.11142979420285494	14	-0.31589165606509734	0.1842376939258509	0.13126135435685982
Si	0.5088167850543807	5.393772665515888	3.784197258707713	14	0.3701445494255419	0.023587577317570493	0.4630023320574779
Si	-4.950957706776692	4.589011061203463	4.794811839058747	14	1.6159692614242493	-0.34991894942459706	-3.225866600524437
Si	-4.942642647233005	5.153658801022195	-4.212493348285078	14	1.7976307078193117	0.2646796089667919	1.064285907327416
Si	0.6913249565506757	-0.5403444877826022	-0.28489213158891447	14	-0.3824316046399976	-0.864938855877183	-1.900348165132952
Si	-3.128764661490934	0.03361896186015191	3.270007392569806	14	-0.3545078581999974	1.3356642740953217	-0.11052873238678174
Si	2.541480679703531	-4.159634358171309	-2.564199106045947	14	1.7213979492979856	-0.6970559628927939	0.05928686046676254
Si	3.965881365267262	3.3626325135799657	-1.8456433567943675	14	-0.3776845728874082	-0.7294722016586889	1.048067374967922
H	-2.6445276677843412	1.6803661387935058	-2.762920921762663	1	-0.6241437868924387	-1.0790381383228296	-0.8256284553058427
H	-1.3163215704904745	3.3063984111444027	-2.1503963418385723	1	-0.8290475111605758	0.4622849936731566	0.6412732618668612
H	1.1922920233127121	2.8801802535032253	-3.6674599088003994	1	-0.13265437921931603	2.2154995999763782	19.77725656875968
H	0.8679880421142304	4.256118812948572	-2.1228379222423315	1	0.005453057273502061	-0.8828260355894532	0.09704482764579715
H	-1.1307237107812054	-2.54216258788569	3.5387147555290754	1	0.9144004944735314	5.472032287875286	-0.7664351830727337
H	3.778057863868992	-2.2884594261332083	-1.321554716018704	1	0.19067188498952148	-0.04862937180421674	-0.09238907013207301
H	4.006337178543327	2.357341037328423	3.2623298172224695	1	0.744337561288189	3.940354657487835	0.4170253125015259
H	-1.79205803451263	-3.319506818756816	3.27795928602951	1	-0.2601480358400308	-5.518839003118049	-1.3712704832319245
