224
config_type=amorph dft_energy=-23230.117528095125 dft_virial="-26.12447305410138 -0.5466884652035371 9.05653758899683 -0.5466884652035371 -28.761440945083145 -11.227212377304992 9.05653758899683 -11.227212377304992 -26.9244069112742" pbc="T T T" Lattice="16.340121223214705 0.0998081552515872 -0.0660648938575912 0.09967743075224002 16.40826136849943 0.0226807006367392 -0.0660648938575912 0.022713381761576 16.3301698207019" Properties=species:S:1:pos:R:3:Z:I:1:dft_force:R:3
Si	33.98943360088544	1.4316653038381815	23.916146833000994	14	-0.023601204175767276	0.03620116290768495	-0.023496045968173222
Si	32.48214907634363	12.673522882230875	23.165972855103394	14	-0.09852449875754238	-0.08480713765348834	0.06786201093052042
Si	37.453745583466926	0.18583794827197955	20.41951321795591	14	0.016129315004884945	0.03542263221674411	-0.03062392124721974
Si	38.12495706159009	1.4893670978500355	11.686436894166345	14	0.011076835940261954	-0.031159225374874568	-0.0709609641728949
Si	27.043851400044648	10.771935684364347	18.948857698131185	14	-0.2397547997722123	0.014293031585235186	-0.3353107003271117
Si	27.3241345309825	11.684998924673527	24.422013062181097	14	-0.0978184732366297	0.05859060514606644	0.44802410090442324
Si	32.993394618671864	13.520432989645405	13.007697188024606	14	-0.08251911102908856	-0.08089571512994707	0.17475314351035667
Si	27.552820702028008	3.427573496096198	14.631369002447714	14	0.014490492473822558	0.006884905826292526	-0.005394950293266714
Si	41.04240270982747	13.03526371682445	21.89306101732869	14	-1.339678283721137	-0.05242843702526754	-0.14924135097118735
Si	31.243044228156357	10.072311236308067	12.041692159536053	14	-0.0025798470782365823	0.014036949495348438	-0.0035208716254107797
Si	42.521746506690064	2.8522239274005763	16.54118694160439	14	-0.01833995135914826	0.028195512272339875	-0.029476436942837653
Si	42.54457100427608	6.842755943710524	24.184011136500857	14	0.0078051044203735235	-0.06203280094868069	0.0508860309437107
Si	35.24513882643357	0.6237307059040209	19.612371137299043	14	0.12228742545794696	0.010218343873864512	0.07442475726019838
Si	40.03017186431351	10.978593143213612	13.511213644328944	14	-0.6784478452487541	-0.015848550303924774	-0.5931326571840045
Si	39.89143722126881	4.73791012397776	11.715660355995412	14	-0.09590737065216363	0.0809743909527436	-0.053867484672954415
Si	31.243127565024693	11.154603877247165	24.507417011660863	14	0.047215263878135294	0.019857417719099657	-0.03567614320131072
Si	26.839911376725567	8.73927920128359	12.831139045150039	14	-0.015801241966034052	-0.06329392810821333	-0.05573282158272185
Si	41.54716431698809	6.0373868140760525	12.59112232812361	14	0.06150006792634602	-0.010775245286208584	-0.0711417128769013
Si	30.48574249693185	-0.430727421011573	12.581739577182965	14	0.05565748819684151	-0.003973643272288855	0.025538017813434826
Si	37.18610677972844	4.273779325270493	14.435388467082634	14	0.03971252144341118	0.0019398989640517256	-0.016462016033312106
Si	38.789129025423414	7.406420376220749	13.932071365639802	14	5.142210640296158e-07	-0.05578630057338093	0.08338505930091444
Si	36.59433821391481	4.3076075575890656	22.191357984276586	14	0.007916947501799965	-0.02977519938103886	0.0023469049362311663
Si	34.42522006002175	-0.6325464393287478	22.879035847148774	14	0.24581026702222508	0.10286735275380449	0.2605984934921208
Si	34.37249886943503	1.8690466018665268	15.960663950847104	14	0.0027531395768145626	0.022011746866851735	-0.06107095044841329
Si	40.48838737942531	12.258694828452407	9.918093910371933	14	-0.14501779626178007	-0.02588588836325086	-0.02193718481256744
Si	37.36641181356555	-2.192078278147151	20.59304835678308	14	-0.027432151102787912	0.019752259511505603	0.05146735785659619
Si	35.339461454881295	13.00356956195772	20.3231447510934	14	0.34268000239572016	0.1939927246210247	0.36468095062022726
Si	39.029521575385466	1.1969200522479306	18.964930275325926	14	0.048653025973162095	-0.03515446593185267	0.0329515428935498
Si	40.81379333942533	6.268252816148175	16.85529176863584	14	-0.01582798146136359	0.021895790016913056	0.05291797547822374
Si	34.39234284843593	11.82210277958887	22.198211216154863	14	0.037948228972725574	-0.12056889866196	0.05688056299763595
Si	37.953587047283364	5.638095367044997	12.654518808138278	14	-0.0075094273085564945	-0.017162642233052458	-0.10240686779096596
Si	35.53074244449484	0.7358024532506173	25.55817400118869	14	0.001697186621829747	-0.027304624278908566	-0.008385402891130943
Si	35.395454026064186	4.35018616108269	10.322282623959783	14	-0.0065051535705066554	-0.009755287805705842	-0.10390299397676014
Si	42.97634748939492	6.146559745649625	20.21859293057175	14	-0.6573241581594816	-0.23803215920771315	-0.0624480344578846
Si	34.80840951684571	8.982064009583695	17.566292516247813	14	0.10247628763460997	0.029346596124170177	-0.08813003416924772
Si	29.132967794393462	3.6194917676440643	22.19971945006608	14	-0.012819016905194292	0.00826636071480809	-0.039897126805397816
Si	37.7712606858751	0.33960264062912354	17.177060319441527	14	0.08544605732554514	0.06188599083490023	0.09299842209294812
Si	38.62791467065972	13.798358177426277	10.168957492731694	14	0.037220863277655676	0.002462347565105815	0.013702962914261202
Si	27.520602015107645	-1.5744883555999647	22.476456678959135	14	0.6717519156634926	1.7505828228975182	1.2330573743104483
Si	32.56606276653084	10.39192119881828	10.06290724263628	14	-0.05122181729852204	-0.02357240779618162	-0.0005162779482857343
Si	34.11449282724218	-1.4190275128637908	14.267791488638315	14	0.0849382640248159	0.11002916662307696	-0.02282807280599875
Si	37.96725919585884	7.166004949471313	19.292194157272913	14	0.09018280465685395	0.09501339733234816	0.09963470203478231
Si	34.81338031593339	8.118042065204618	20.989334774385387	14	0.008067357163028628	-0.08656088859236134	-0.010745420464494866
Si	27.033893461306878	-2.6195719018561228	14.63575971156954	14	0.02778979185282051	0.03358403480230622	-0.06170369946770174
Si	31.895687925203497	-1.1655396361796353	20.077233993202654	14	-0.2673895539742279	-0.044802795756240354	-0.13162516575966077
Si	39.24810764480016	-0.38628926151473414	10.693020572220927	14	0.01684819605239835	0.02747431723003834	0.008518071925650586
Si	28.518376365050056	9.015627524791089	22.173793513733045	14	-0.40841930877392635	0.33775350749178445	0.4589944930844312
Si	30.205358054507006	12.822550445542927	18.10483333403975	14	0.012920318454808127	0.09485733123941517	-0.0471198758707578
Si	29.213445064304082	7.445093585296376	20.600739859513418	14	-2.202038063851679	-2.259390681786094	-1.3270549279308057
Si	33.259149355563515	3.3725989419519755	17.33173354706913	14	-0.020038423533638085	-0.0012076481688735527	0.04423946658059591
Si	36.549471931682604	-0.5928846262268073	23.9297225722582	14	0.010970392180007824	0.029634302809494747	-0.0451126139473182
Si	26.726625525591285	3.277259930521821	8.960592510565917	14	-0.031946497823903915	0.02620136298603303	0.021632765942661905
Si	27.429668419305493	1.2881771911859692	13.66396031964742	14	0.019858446161227717	0.02330938372193047	0.10747708748229799
Si	40.4622359433309	0.2760656317776588	23.2127101317325	14	-0.081189849578572	0.08456905330084262	-0.19711687469553665
Si	36.50129341744819	5.495306630464293	16.30050843180002	14	0.014621618845150109	0.03500534182328408	0.014067288538126183
Si	32.011308842707365	6.497863863026565	10.86937772617775	14	-0.02736118859595183	0.0021558718109441644	0.0032905005887255115
Si	32.859114412942425	0.4289315932017908	15.020609369535212	14	-0.07958445141667154	-0.04706896798541887	0.0023055101405767826
Si	28.52411680462764	7.065564414454134	12.935337909523447	14	-0.01228731232498767	0.01195306863336842	-0.006067551445017451
Si	34.454531760887875	8.239767816828005	13.764678644225713	14	0.039158448246919275	0.06525748124121042	-0.01650983859226686
Si	42.12481790498471	1.6157286670315227	10.038759159494367	14	0.02703311555710093	0.018810977853799392	-0.028353121028464955
Si	40.64569307165852	5.081478619105829	20.412568478928094	14	0.22841416842610318	0.05596524950366324	0.14251353967995586
Si	27.518621538942536	2.659387316244796	18.662878247134284	14	0.06666156185654329	0.09670029953289731	0.04855815218684864
Si	34.2106897181993	2.742366326261673	19.492284344086222	14	-0.042513997800244535	0.05631132027975517	-0.0312638693614046
Si	38.54127210654864	13.259082034325514	22.462531251666174	14	0.17946366556739993	-0.0291977291261336	-0.12098156106584375
Si	29.248500472860275	8.340384829919302	9.458495983679532	14	0.0072122075335473755	0.003182257054747277	0.025997731444677298
Si	28.43881906880359	0.10327889070925537	24.17092234600372	14	-0.07948546386184585	0.2830283020840286	0.1340114086072902
Si	34.31858808590424	12.024926742494776	9.938225483271403	14	-0.02488701394637333	-0.049237181101899744	-0.04689670392896895
Si	40.207380361572326	-0.3794572723676012	14.759546008113887	14	0.09442178599818209	0.023852401165545743	0.04295674213637403
Si	39.70483616873189	13.863568459869386	15.453639175791537	14	-0.07949137740408219	-0.06534361326943537	-0.07782324427237011
Si	37.53835047944443	6.409579072392432	22.975303002524292	14	-0.02953582947573307	-0.05167638871912422	0.013037817967938892
Si	30.246011739747747	9.161171280195534	23.862348799350894	14	-0.001604626830304416	-0.08993083633547944	0.15555470008481093
Si	36.481088312017846	12.680258462059742	17.015689095278614	14	2.1657178587676715	1.2363465893465135	0.05861014554649956
Si	24.7569439360148	-2.3906259158681618	19.701838984652266	14	0.08214244409968688	0.34957133598531304	-0.454912863388696
Si	27.406544889427213	-0.38529248720721176	15.358847573202398	14	0.011913987832502169	-0.016297722403354645	0.03346344996279128
Si	39.26792547890119	6.90997938344358	21.230781290623426	14	-0.14926783335598487	0.03957008220867498	0.07532824366969842
Si	41.27519526420872	8.11810742745429	11.520759931806188	14	-0.08775105324505789	0.030644490089780922	0.004772485695258864
Si	29.2693722732373	6.702964066277354	15.146890869960847	14	0.004997714521303836	-0.01970675094733898	-0.008101809974318612
Si	41.67053392919077	-1.704209544414675	23.355574034900332	14	0.3552856175593422	-0.06953862870978897	0.48869590174278166
Si	29.87122950228805	11.314602494166929	16.288184379624063	14	0.05596910616164346	0.024992686375031416	0.06878632329311364
Si	38.34224405629253	12.526439845846616	13.975375490104804	14	0.06000779839853206	0.09653420612921575	0.007505827761108286
Si	31.347197338954995	7.65118402662972	15.611199780798474	14	0.033752442200775924	0.08563863311402424	-0.0005021368690249199
Si	35.437588166260035	8.103466283527405	11.567891015989579	14	-0.009008638820734839	-0.017102735479093006	-0.007567534288791841
Si	38.393868795140975	2.9150664623492593	22.757131983395023	14	-0.017027916314276696	-0.020895115826311424	-0.06334740709887239
Si	31.83609552811983	10.0367100529671	15.845209707079897	14	-0.04343496772592158	-0.039613019667521454	-0.05391736411616529
Si	38.13104392109094	-1.9636290452567098	17.13370880734551	14	0.2598873257605679	0.2613785668462537	0.044985601344502885
Si	35.8234689137143	9.225584143192625	15.452619524696628	14	-0.014251636789580802	-0.06695955296314844	-0.030566585598580436
Si	38.31496675544749	11.463414362055055	18.352080749936317	14	-0.006777690734442352	0.21935205061470922	-0.5809034518392523
Si	42.31382592236586	13.3857442698555	8.959940522125423	14	-0.07998374407289055	-0.06535724012763215	0.031244328960971467
Si	31.015944725721678	-1.47289744498853	10.576670865633192	14	-0.23062763299621866	0.09132386119793566	-0.08346296379211493
Si	36.27858625819158	8.79419656345935	19.37523526142698	14	-0.1289437600212783	0.05275856694837456	-0.048184827694363136
Si	31.68182591238396	4.901301041655584	25.43252978269737	14	-0.020143581741232142	0.0922237480599875	-0.002859069116004664
Si	31.098306062479136	13.584471653763114	21.526989933694246	14	0.09436033658103055	0.1366961567825888	-0.05007638987839608
Si	27.509572135475228	-0.01569347614663136	9.977797423280041	14	0.09188950436836824	0.010502708122272887	-0.06788335110467764
Si	29.445454905745493	13.329784379797449	10.75525033607892	14	0.006475842969856967	-0.0962313299225023	0.04239726961870981
Si	30.897013210271833	2.080189545099641	21.959911892238612	14	-0.02551307809182939	0.010056107128163167	-0.042741540621077635
Si	38.629163089628484	2.9835889767945774	25.058167497691826	14	0.042247888399609204	-0.028820547975667875	-0.02465124358851575
Si	31.33163948947644	-1.029793682001261	16.08545519198018	14	0.11544211465358473	0.056989320752678214	0.07049430855728803
Si	26.43166693554547	12.997667350812192	18.26939750409921	14	0.04411682485682484	0.056265554605056535	0.02330141329543801
Si	41.10959020032321	0.007302597344782961	18.719859422343486	14	0.10511655568787003	0.017515654993508788	-0.06513355396477928
Si	41.57317849235818	11.927233056020128	11.993462989558147	14	0.22696406502553967	0.04347430563731984	-0.047223748525691785
Si	30.930182917924945	6.595026481222614	21.956166635332313	14	0.1771568698741631	-0.3693091973070258	0.18271559957632322
Si	28.291654329607237	10.959044928392478	20.9166813657607	14	0.2761439104788001	-0.20329935454836476	-0.2803666938566113
Si	42.446694303502355	8.817398528037234	14.966079278688769	14	0.23761178348786893	-0.6598163305463012	-0.31934027963101197
Si	36.889380140828955	10.9128125751421	20.050360304249356	14	0.06165073469810669	-0.09150898078098633	0.027877723654769575
Si	39.915291174287184	9.95324082607767	17.46716249433659	14	-0.7471956019620656	-0.16460421948013615	0.6785892560413624
Si	35.749784415601006	4.454568039755188	19.98392121151238	14	0.0429649696733985	0.0032953856888337926	0.03224551737263714
Si	27.398168717131544	9.792608195336072	9.52329611800594	14	-0.05833760838256387	-0.14399783878127734	0.02437356421393976
Si	27.318606518716354	10.67838923263149	11.69608599627441	14	-0.0050614779332435085	0.06560406623836636	0.016981122197450002
Si	39.05104536420298	13.524676633705463	19.05890158168166	14	0.047069739317014914	-0.11039349224694193	0.10988981271472495
Si	33.08311574474258	1.66175512919543	11.390439044350723	14	-0.09739604063252938	-0.09233070604130565	-0.09143801827415024
Si	36.83921951637319	2.519087247320414	10.002806654061402	14	-0.03227919885233107	0.025432859605840772	0.014429300167203035
Si	41.14348869706018	10.649904364223737	15.567282885242783	14	-1.0936769835736249	-0.21759341457572798	0.17468655188256482
Si	41.460618162195274	4.783970901322745	7.921242867662375	14	-0.019805995612696695	-0.021820456631032718	-0.04238158587625691
Si	36.635451068959505	6.234460533066924	10.812058301326488	14	0.02215958542276025	0.021538149266880458	0.07132194735984368
Si	34.14749749521487	-3.649901554304707	18.10440847941687	14	-1.230864735693426	0.5215934514246084	-0.5811039980542239
Si	29.431140573066976	12.53247441554773	24.932830481773973	14	-0.058380802951942354	0.03471917780115161	-0.0010261281332710984
Si	31.522108353137792	2.6565358881027854	9.83660189153513	14	0.11834874921801213	-0.0847976245638038	-0.05705925481738624
Si	43.39985238181755	12.51853101363611	22.14840518190358	14	-0.2482461322025334	-1.0433270280891649	0.416939180473301
Si	39.213455848135695	9.101915498697691	12.433228375643337	14	0.1685660356679523	-0.11553853110309026	-0.08747208831782183
Si	40.39349446534918	10.638552575511673	6.188448777409194	14	-0.09343576710790528	0.131594569606351	0.41962007199061935
Si	34.11289472023766	6.1401313683942265	20.059305128117185	14	0.01574904852803504	0.023171572476770534	0.03217686886058918
Si	42.28020848330248	-2.361078910903211	12.513027512213593	14	-0.016848453162930363	-0.06796716913811446	0.05868059383227162
Si	39.89724302309607	2.7095463066443166	12.730804723788578	14	0.04255616392749496	-0.016243729191631532	0.05679185986409084
Si	27.70633701783639	7.883040266784398	16.547969909064268	14	-0.015239455453581695	0.015106272197998025	0.07413319391689359
Si	37.42439466525099	7.610839178018691	15.777873517466155	14	0.010938510474037988	0.006519808870831499	-0.0329515428935498
Si	33.30069850362478	14.139197798630473	10.56736164722343	14	0.3235000709284795	-0.06147358554154847	0.04553864609886673
Si	35.83665247947347	8.012263068445346	23.024966873882537	14	0.020314303134489974	0.05039932070660667	-0.0004337454675089809
Si	31.632376102393398	1.4884961458731347	24.148238377254497	14	-0.031244071850439457	0.12802921785890167	0.0027999336936412583
Si	30.847679418274446	-2.266112464296196	14.115737653166375	14	-0.012557278383603218	0.008479762456380378	-0.07656237422336949
Si	33.983850030707075	4.981288094693651	8.445189929158436	14	0.028536440837791516	-0.13017686213282134	0.04112405826417248
Si	31.299435509062256	7.018956228268131	17.839467502533658	14	-0.0500907880681889	-0.16646929927937157	0.08109908956077078
Si	40.122095698198216	1.068857430518688	9.042290420489191	14	0.00857283646896974	-0.09722171969182335	0.0691622188909193
Si	27.321410559227353	5.0130606842599885	12.63135115874147	14	0.02667393214387625	-0.0032797019463808898	0.08988892731876102
Si	33.19064808384935	10.627194250574645	17.76368977837457	14	-0.3267414634055902	-0.29439824403078746	0.1890245778109026
Si	29.397581960028308	11.591880595676033	12.311734660006291	14	0.017958142219106275	-0.025118670535718673	0.00891993568718973
Si	30.470665059988395	5.01763604173714	18.822759212004634	14	0.06416450436961546	0.031170024017219192	-0.07833412289948354
Si	26.55924751068337	7.642583988628917	22.114366156329808	14	-0.05925934963983695	-0.011348601772601606	0.09675840651313265
Si	27.58922584103996	2.2251368699758163	23.383815428928052	14	0.0679103477105392	0.04414819234173065	0.06263598225678743
Si	32.060789699766524	5.167331934052102	20.54953507311912	14	-0.04107006505244937	0.06910873990026022	-0.16317031404308954
Si	28.737642201861355	0.8717624687966726	11.777689130935658	14	0.016627080994865612	0.01937610680316794	-0.02343176833516952
Si	39.19049408982536	3.183615435414454	14.927960014679126	14	0.0016064266040285197	0.021003616470821673	0.04260655759176986
Si	34.48502161630437	3.547335112116894	23.04259997478823	14	-0.025482996159583656	0.03717792581880921	-0.021087434504258498
Si	41.81758755256268	8.59196412891299	9.262162492166215	14	0.016002045291537613	-0.010849550229960864	-0.0471980374724903
Si	28.399711200767634	4.5122632975420744	20.000230726862185	14	0.04605235294183232	-0.40997688437687196	-0.025291448813232625
Si	42.78720057723321	1.1091892066797828	19.93495998433813	14	-0.07054804465847911	-0.003963615961540278	0.0687004483754207
Si	32.86878965995036	3.192387049320651	21.341835020931356	14	0.005051964843558961	-0.023721274794218192	0.10138716742099525
Si	32.222124974692115	8.204544100478902	23.02500609123234	14	0.07009475879053699	0.08983904787555015	0.026715584050062646
Si	37.40470428753683	5.002223623264105	18.45956896952455	14	-0.01962421846656223	0.017503570798504092	-0.0014143650366134583
Si	29.69044405591584	2.9540730188982214	11.234327847230295	14	-0.053017991475177495	0.1311381984120247	0.10590974167913571
Si	34.228652898465846	3.5419508968000315	12.1770933278474	14	-0.027945857945753497	0.04521725793384822	0.1249256366269509
Si	34.14722460782248	-1.1482317124660661	20.642163185244062	14	-0.18657148622494932	-0.04366225343622267	-0.07836266216853718
Si	29.186291951733427	12.601812324057727	14.425023648340641	14	-0.030805441282822192	-0.01987927211432092	-0.06821682346470084
Si	38.06613920716506	10.981857987584807	22.062968551298976	14	-0.17243143540626293	0.1570454269494328	0.11087223205755353
Si	30.84560580090355	3.3764226335578806	17.198092257330245	14	-0.030701568627888212	-0.00461770515498595	0.01917093259862012
Si	30.78276490001111	3.605071221309827	13.256637486187723	14	-0.01599973129674948	0.021965981192153098	-0.020548273718623448
Si	34.92341276109017	-1.8475652985112982	16.439164640145112	14	-0.11536703837823639	-0.34420389651897193	0.004896412971690001
Si	41.581561200878824	9.330152304276693	19.049263917967288	14	0.12919624256371687	-0.08169378622132104	0.06652709304829953
Si	42.531995307438876	7.270743052404531	18.17394574278837	14	-0.04488558534754911	0.08547613925779086	-0.0634427951062499
Si	23.905584293453742	10.1324101908267	8.65970556447471	14	-0.13516686333816474	-0.16018243255054546	0.22860031645128193
Si	38.4242426325643	1.0079822992851806	15.120353796593367	14	0.0023872712897574913	0.013609117570075796	-0.0627380551379973
Si	30.326093568047842	11.852089345682876	20.203067762218026	14	0.08014135282901562	-0.033181656819703045	-0.1530571283768191
Si	34.08897540496961	7.305867091322883	8.010522798547788	14	-0.0291334514931299	-0.009002468167966484	0.020019911575333015
Si	35.83264577356848	-1.0298982616007388	12.739318156808563	14	0.04941227337420182	0.012581189663080593	-0.021240158160275295
Si	40.98631046121383	6.979564034446095	14.655469697958612	14	-0.09235821686823124	0.02083238085649981	-0.008784952657881958
Si	41.845443309317325	12.864428038908802	16.014437473653572	14	-0.011504153644470565	0.740324580104502	0.12743940629845968
Si	28.142737882119633	-0.6331118227884244	20.373360933461385	14	0.26830075369968837	0.22843756548451652	-0.14422358182838632
Si	30.268542107210237	7.933001536378656	11.532175448711682	14	0.012939601744709237	0.006739895486236175	-0.04552990434077823
Si	40.904877268401734	8.73436722822062	21.294011096901425	14	0.19417835842513942	-0.022523396825561204	-0.2524084946053211
Si	30.809342824784636	-0.6033736332431782	24.70466230655713	14	0.023842888075861195	0.028324581759411313	0.13726771349525774
Si	40.8119566602095	-0.575699256731376	12.492193295130134	14	-0.043845830356081236	0.005462570363186608	-0.05704537084865745
Si	38.14531740236342	6.706286102617014	8.978898842643249	14	-0.02587123306292602	-0.005936939294753929	0.014179131619552627
Si	41.818228102609474	0.47665093763224436	16.395620309412557	14	-0.02869842047296084	-0.013213167350772994	0.016114402594028087
Si	32.06915279961226	-2.265377138987368	17.970518813129225	14	-0.01508081825532856	0.007438207691188392	0.5030979481935912
Si	36.83226660706416	0.889671725207239	13.469824633779377	14	-0.055749533767302815	0.0216083404421205	0.026753893519332852
Si	28.0848612440899	4.46833496359269	10.439826825660303	14	-0.010952137332234773	-0.014423900846030723	-0.036078778294445904
Si	40.603390623669775	3.7055379012268754	22.278467888472832	14	0.01529576266009294	0.007479602486842777	0.11788466470772539
Si	38.2244302353121	9.129812106858383	9.116252708163595	14	0.05469409503338203	-0.027242660640693	0.07722623361703172
Si	29.763563170569455	14.225185106188578	23.336215370603252	14	-0.30122041488726836	-0.1710466380808312	-0.08709156473043991
Si	31.735718721296085	1.4144635937803316	13.272115266910431	14	0.03159425639504363	0.10004299355962183	0.040437573143692944
Si	36.793608104494716	9.996455077449372	23.7723940032376	14	-0.06980165278404012	-0.01991526758880299	0.03548176763910752
Si	33.10918220991241	14.582481307804345	8.032844006811322	14	-0.2261870769977909	-0.22083660682656275	-0.08464361535512692
Si	37.21948728063674	9.648472996412092	11.207457426389478	14	-0.07978036964206683	0.03784924141789987	-0.05219575199379414
Si	28.414911191929228	6.231667930949619	8.845329451379007	14	-0.0026053010209060486	0.029167904304419883	-0.049377820562911845
Si	39.62232613285642	4.995063188812362	25.750420718041166	14	0.02486464533008804	0.012026088024460625	0.033611545629231805
Si	34.44032527592132	-0.2902819210816668	10.971906585072002	14	0.04220212272491057	0.04470020865396645	0.030167550052893455
Si	41.820876907777496	1.5060164968981433	12.340830665448493	14	0.032536309384345874	-0.03012384126245093	0.010103158355521875
Si	29.18662366515052	-0.3380274104119898	16.868713906606317	14	-0.06585886277559304	-0.008078670026437279	-0.01817000129748647
Si	35.66658807610397	11.931283881443651	7.949074113573395	14	0.05686770747103521	0.02803224708451047	0.00900066839424238
Si	38.164599266017134	0.5757123291813108	22.584613227550285	14	-0.002918975869964114	0.03353724068547953	0.01450283377935927
Si	29.580055386498337	1.5960023400800303	18.157762049769186	14	0.0914755564118244	-0.020834951961819958	0.0563969380869161
Si	31.931566898105576	10.247616058045146	19.74463001545733	14	-0.0027467118135141933	0.06299388011735205	0.040773102387972264
Si	32.91609722220787	10.029882965988692	13.74047663722782	14	-0.0630522442081194	-0.0035717795107497114	0.01655791826175363
Si	36.31828238647459	11.539273789026234	14.973950527605712	14	0.2543424800271365	-0.09203708581374474	-0.5249227757036681
Si	27.199233808081214	-2.172253907821148	10.674876011711534	14	0.07667421730479594	0.038733444537498794	0.0036046896588476066
Si	35.92388166977537	11.639137502190044	11.606083812530105	14	0.0968303974620968	-0.004941150204260578	0.07404783322026467
Si	29.984490842578705	5.313709058139888	23.712432309443283	14	-0.09662419481542094	-0.051840168128017665	0.10884645817580885
Si	28.681448641760717	9.747558898804787	17.566604620990006	14	0.00023628457892160845	0.07338577360032655	-0.040386408147821996
Si	39.348814530984754	3.6449323892732717	18.83392635236137	14	0.0888833680280511	0.08505859175379883	-0.1049352927627996
Si	33.13890896106396	6.4366537502634795	14.57990113299848	14	-0.01235518950543958	-0.003758441756992462	0.03049253776536017
Si	30.307213682229623	8.737512786486162	18.99977489062692	14	-0.011052410439720547	0.012490172534747353	-0.4463407982513224
Si	34.37199231200005	-4.665629280176209	13.462441967678744	14	-0.016166853142559105	-0.005296991180569073	-0.10643167605912576
Si	37.301337157790506	-2.7782828824573165	8.108441984783807	14	0.03850050239549337	-0.03214164471770315	0.04899086921222956
Si	40.46342063410624	3.9535304467697228	16.791777636571766	14	0.04016863552720545	-0.032129560522698455	-0.04386717053023847
Si	28.333360347067718	-2.0150119437813685	18.378987120014454	14	-0.02793557352447291	-0.0767811752861141	0.017506399014356255
Si	32.55329751916958	5.099384607403912	12.730216463541515	14	0.018613516965212018	-0.00885411539099394	-0.04632129055831981
Si	39.08195190396114	7.782509858673918	17.368264508411706	14	0.06011989859049051	-0.10819725408247145	-0.08770065958078299
Si	34.155885105904225	5.385780742742483	16.436267458428325	14	0.06396601503890002	-0.013941561487970945	-0.02788209453381383
Si	41.96013281476334	1.7761161893368442	22.086023450815095	14	0.02847062054159572	-0.03709590755909648	-0.056925300230206526
Si	33.30471991603595	9.741769437539947	21.556767340589296	14	-0.007470089397158229	0.021918158633198345	0.00048773867923209064
Si	29.67001835289284	4.280483858030763	15.251923103017598	14	0.0029194900910281436	-0.027434979318640074	-0.012821330899982426
Si	35.469713711974606	0.2880024126243	17.313440287441733	14	0.023437167656341826	-0.06275219621725811	-0.015742877875266688
Si	33.622282406075136	6.997997822910292	17.978775699319243	14	-0.031074378899309682	0.03297159751504695	0.03118210821222389
Si	35.49045642190852	2.7069465231635492	14.014939259832234	14	0.0325123981048685	-0.03885377226648173	-0.026898132527793155
Si	30.246748699112818	0.543946275839941	20.238971245963736	14	0.05054998747836734	0.08564197555094043	0.06505693502623885
Si	37.2755059967195	13.49038596347045	12.091148505751583	14	-0.02895938766295587	0.043036960622362654	-0.05059343915827786
Si	33.578079550677124	8.2086096324086	10.110080812281957	14	0.010651060899245432	-0.009115339691520985	-0.001412051041825325
H	30.162903639287762	8.350123805120669	21.056541873556025	1	2.7304115200055183	2.624304574548327	1.196055312095537
H	26.970697970209958	-2.57927770898859	21.461670169482932	1	-0.08593251045211715	-1.063648273208019	-1.8058153073849392
H	33.41921333473295	-3.813392149413283	16.640181336847544	1	0.3673996373857518	-0.2517050401897286	-0.36848130139393814
H	40.93996045591403	12.316971810261387	23.376259552865783	1	-0.05487124418994023	-0.49317528143154366	0.16679223010758215
H	35.46347815335574	11.65407114218422	16.93385882679975	1	-1.4093189853121357	-1.3492137420219699	0.5266634140054084
H	41.933909480194295	11.098250179634828	14.344595400117278	1	1.0261623289718564	0.4869969153472279	-0.8762820583286123
H	41.86180021229814	10.437834911101499	16.893857129999507	1	1.0882041287891575	-0.13391884881576485	0.993374051266136
H	45.00248572212697	12.167248138990315	22.321990976474243	1	0.10449923330050248	0.2471595830942388	-0.28473294491128676
