220
config_type=amorph dft_energy=-23172.79998479539 dft_virial="-16.12528754910116 -1.8006705675761434 -3.447920772892436 -1.8006705675761434 -10.170155066646425 -3.702275584007452 -3.4479207728924357 -3.702275584007452 -12.830787138468573" pbc="T T T" Lattice="16.427374779450407 0.06191527086591551 -0.026201872388202502 0.0619809808907135 16.478907866398234 0.19520805616865852 -0.026448284981195003 0.19497807108186552 16.246294378613317" Properties=species:S:1:pos:R:3:Z:I:1:dft_force:R:3
Si	32.3930988514306	-0.9649352866524306	26.153411244913976	14	0.6963105994604829	-0.7520753027491747	0.1333776311458737
Si	30.861265110589006	10.218455892045444	25.380143886844213	14	0.011318519840355874	-0.03523185620198913	-0.2831735695346169
Si	35.79711962030814	-2.3623673855228176	22.53598238574936	14	0.416800597896545	-0.06366391016378263	0.3439503855344053
Si	36.53277291743291	-1.0713773130720907	13.899436201693447	14	-0.13039720585875803	-0.056573830132942295	0.10286143921156815
Si	25.232930432788013	7.990757916844888	21.212740190377154	14	0.2816517322956213	-0.06774296875419757	0.19776119368876577
Si	25.462588612207643	9.26485065641881	26.786545404099527	14	0.18832215183743814	0.06835180649400863	-0.09498665783701862
Si	31.265069640478917	10.922726081326688	15.402050337257993	14	0.40223091537886185	0.49454156679867034	-0.01574030676994654
Si	25.961575755768077	0.7880521136493144	16.756655927466284	14	0.06411359648427653	-0.04394301813718283	0.03426023550150517
Si	39.519661520640874	11.089999163203098	24.125969498537184	14	0.2449029239547448	0.2012656102401276	-0.040417775632727804
Si	29.523721128319515	7.541276705967269	14.32710004158751	14	0.1455387021996421	0.20111648613155902	0.15416270366448276
Si	40.97237217787258	0.0904662766406465	18.54742166377502	14	-0.20445300950551515	0.2309996719360441	-0.026758778619441134
Si	41.01202324958631	4.451960958854797	26.626623631247394	14	-0.14992757898113485	-0.08103249793297895	-0.05815223168898119
Si	33.60090824624016	-1.9355413484449286	21.757134603823626	14	0.0565427197585685	0.031244328960971467	-0.23680625619106652
Si	38.432709288941034	8.223698312003178	15.857080759729804	14	-0.20239946768631292	0.28193352543870953	-0.06350244474967733
Si	38.20804671415668	2.239598060691474	14.092037212628245	14	0.05276062383263067	-0.17698563425984123	0.03212236142780204
Si	29.64023978704195	8.774059195701307	26.78911630881975	14	-0.14041911728616321	-0.08867536560765112	-0.0752981617374527
Si	25.111652725519583	6.131137931051569	15.27208083645941	14	0.01768354817091446	0.0856329766823199	-0.005961364795295336
Si	39.917029753601824	3.4234725789683607	15.103600332877338	14	0.07208993651897193	-0.40461381578957517	0.06001114083544826
Si	28.85037571945883	-3.0330712513866236	14.595081950219955	14	0.11861948660822372	-0.09426289168939693	0.05482316452045345
Si	35.58680647218903	1.5612866167066797	16.771775804172304	14	-0.10529139084964012	-0.10162473755257692	-0.25375986756159097
Si	37.107899909477396	4.8009386868038755	16.398365446252708	14	-0.03654414835739271	0.2247511146764882	-0.1724064956846575
Si	34.847195788820805	1.9601119694675209	24.424611704740375	14	0.22638402366531427	-0.2614965805804485	-0.08968452444580924
Si	32.8466622975988	-3.020339934082011	25.01694486677823	14	0.36090913911557004	0.13431094237708746	0.3880147598426991
Si	32.73258640904823	-0.7976539910229221	18.184751609408657	14	-0.06316537284220591	-0.21617416443900622	-0.07103244090079501
Si	38.90576725671618	9.744770393533482	12.300116622633686	14	-0.11672715309259472	0.10934293861312946	-0.07925432149356454
Si	35.70129797664645	-4.724404578171025	22.746781788051965	14	0.5070145129277729	-0.0316215101114372	0.18907805680156167
Si	33.42266159022249	10.737317032606033	22.51686076853314	14	2.2255161120826115	0.8802248483370592	0.7983647116015246
Si	37.44608805135464	-1.749176218863461	20.985969966547398	14	-0.13214607169752274	0.032417010097491004	-0.06770697327971548
Si	39.016919049163235	3.455241733207574	19.408390549192053	14	0.00799150955608426	0.023043274321295142	0.11547373924902253
Si	32.73436879347088	9.308878015784089	24.333342123046574	14	-0.16821919356026435	0.06266040775732884	0.36266109028071897
Si	36.23764784030703	3.0593519758045833	15.06142599621136	14	0.23008461555260337	-0.08106360830735274	-0.04373964370635912
Si	34.10022886817644	-1.7254171166471242	27.638866850253148	14	-0.1518451093289013	-0.20135842714218494	-0.2581932244651223
Si	33.737752658383236	1.7422323119929324	12.540193126485038	14	0.40230239210676205	0.03757464736970806	0.2699840563527893
Si	41.43210086711744	2.2178234012240368	21.625660343457167	14	0.054824707183645544	0.13179203049493837	0.09497894452105818
Si	32.99263876043817	6.702939995841285	19.622560875766794	14	-0.017143873164215378	-0.13893970328495	0.07420184242894155
Si	27.42024302674772	1.4007652398782653	24.605802169869005	14	0.22124515546193427	0.05359880416699894	0.2509105686458028
Si	36.147014003103145	-2.658570107055382	19.286733366530417	14	0.037636868118455645	-0.21845987706861783	-0.12756204802223076
Si	37.05712413056536	11.361021803233069	12.459888905179403	14	-0.10002216760652864	-0.5115262885435685	0.08184522432467776
Si	26.09353791306866	-3.406874226704386	24.799625387265042	14	-0.11123604346035448	-0.29904885933387126	-0.01631469169846762
Si	30.951959729565825	7.875530460109735	12.429934990375235	14	-0.21669455615580419	0.015189833120902834	-0.4435007553146868
Si	32.565265687403844	-4.119415665357079	16.50816854044079	14	-0.4553059853921467	-0.08466109887130392	-0.024094856397235707
Si	37.36789969284751	3.985952033989861	21.236995403280716	14	-0.23870964545957213	0.003466107082091625	0.016785718193118748
Si	33.41288229578192	5.793156775752436	23.0116424705065	14	-0.1193674211458548	-0.0024628617861698447	0.16722289024870696
Si	25.419509119950074	-5.239799514923518	16.787217659999833	14	-0.07060486608605439	-0.17649095359624473	-0.22154623189492362
Si	29.99301719717497	-3.691733755206196	22.30141566747732	14	0.12179583012073467	0.0800626770062191	0.008675937792307678
Si	37.64516149973205	-2.901703769810462	12.868843458262855	14	0.19647795502347987	-0.28543922754273143	-0.2784599621511895
Si	26.885084157286606	6.432222907426625	24.4947949394765	14	-0.005087446096977004	-0.020929825748133422	-0.18739166882207653
Si	28.22936998810037	10.29418669562514	20.483344130363776	14	0.14311312144061442	-0.13461561835752497	0.2003402694354063
Si	27.860357273590385	4.849600245668034	23.051714086378944	14	0.03190613147037759	0.332919315268842	-0.2056850831749301
Si	31.728364741319695	0.8262592075681114	19.586169021283045	14	-0.32812086140984964	-0.3301453497389343	-0.550459765074975
Si	35.11132873275071	-3.017322201193163	25.91085911587836	14	-0.5497413982485255	0.22198511957307293	0.1837864649421649
Si	24.83027254283083	0.8899897178690717	11.295178715634853	14	-0.12466029855791162	-0.09971003542066266	-0.17126543914357578
Si	25.845883400607477	-1.3333763239466765	15.741682456930176	14	-0.10023839756395309	0.10420818417826172	-0.008950017619435462
Si	38.94886810473181	-1.9883163548614422	25.23744306874102	14	-0.09297656769772684	0.07662948007222536	0.03052390525026598
Si	35.03421637589964	2.8039108254048384	18.65547851405409	14	-0.0727270564173046	0.2108843723533336	-0.10191038735364537
Si	30.408227344619196	3.957631013301923	13.245626383205208	14	-0.23707776491287413	-0.27535946624562296	-0.1296829528008209
Si	31.212897523539926	-2.276389103575874	17.20123681324459	14	0.045901429059539624	0.3450821860963345	0.04076513196147981
Si	26.878805564417156	4.537025871457049	15.278845683512364	14	-0.22765774924091559	-0.19783215619560188	0.018622515833832533
Si	32.71648416747148	5.726765009447156	15.953845342247337	14	0.17978505373241846	0.03187116443802357	0.0934236829129006
Si	40.53327643641428	-1.0013632816498217	12.282407770950623	14	-0.023909222593121015	0.13196506588298434	-0.02294428676646944
Si	39.47277413244626	1.2088459704507468	22.567638190195797	14	0.062179868172993154	0.055002884782331805	0.10878012365854904
Si	25.76301648833472	0.1207881675836836	20.601937583119206	14	-0.0777900770137402	0.11707322386868665	0.038364490924057554
Si	32.65377873355737	0.2089348803489607	21.72934747708717	14	-0.07678168950717813	0.04927137680265771	0.3351572053394989
Si	37.14973912501691	10.802595013990985	24.665762567497175	14	0.05440227457954522	-0.06779439086060052	-0.20505696214521796
Si	27.63637808306392	5.792318972936261	11.790095123159048	14	-0.12083063718355107	0.19385439915480077	-0.043362719666425416
Si	26.740354542167772	-1.6909949201566916	26.261671796269923	14	-0.051316176863771476	0.08146110118984763	-0.13102789799379036
Si	32.79486637055177	9.43336730051452	12.16002120701373	14	-0.14437064905269884	0.004737004441840821	0.05876081231826025
Si	38.645475063735724	-3.11333933217862	16.81692516221101	14	-0.23693661123079804	0.05804398815500296	0.14199983283699025
Si	38.21978088183498	11.167624058247595	17.609517838573865	14	0.026786289446366716	0.00025633920041876347	0.4769320664609762
Si	35.78217880341969	4.019626778948216	25.228043249693663	14	-0.06639545245590796	0.40539208936998394	-0.1093650501188827
Si	28.69108147734352	6.75991880109425	26.087397311251287	14	-0.14508798743702014	-0.1028642674274203	0.13301716217998893
Si	34.867733457071424	10.18609206208181	19.142833340474656	14	0.23872404364936498	-0.06769925996375503	0.03912990897786563
Si	23.17964821915941	-4.951179730252642	21.627352376595713	14	-0.19997157293249707	0.007387556916381475	0.1855746686923279
Si	25.7413173953958	-2.9834421124073143	17.436956742451837	14	-0.07878509477263751	0.010105215239777995	0.3321945206790922
Si	37.69282755172051	4.2437242475193155	23.684084366526214	14	0.049415101590053995	-0.32737575508807076	-0.3039735544640829
Si	39.66932595862204	5.457772809183444	13.956459361213152	14	-0.031924643428682654	-0.15421078333396954	0.22084483436358723
Si	27.603923901816188	4.054093329705387	17.46972140356674	14	0.09983884779720208	0.1973433890742417	-0.15262646823569428
Si	40.33676567900401	-3.9028469228772105	25.47358025660573	14	-0.06730125286019611	-0.07156285992834156	-0.0964257054847055
Si	28.100133154078286	8.739661640470175	18.672937667642916	14	-0.045197717533415095	-0.10254750725197807	-0.26444306727733824
Si	36.772161108774505	9.852472409678644	16.199016015771157	14	0.021377455184371202	0.14751588219083597	-0.20109951683644603
Si	29.687314448807236	5.096610799886196	17.709456215289144	14	0.09886208488607783	-0.011781833019046558	0.25379174926756076
Si	33.752746043291516	5.518971840779061	13.840701296027756	14	-0.13271480019433954	0.06732156459222528	-0.12678557421554604
Si	36.7011072162098	0.6611003457395783	24.935955618464074	14	0.10468923798366142	0.058232450174969815	0.08090368555643952
Si	30.05781220987766	7.4933297436227875	18.04865136329642	14	-0.049920323785463086	0.20835749004469203	-0.04953414376637685
Si	36.69643194794542	-4.94470236455818	19.188058265041878	14	0.13013855266355115	-0.0010595525024330234	-0.11325358980507468
Si	34.118676957638485	6.665715266793218	17.588774826495758	14	-0.03729028312129967	0.037846670312579725	-0.06288512236230977
Si	37.17212981596683	8.707154891202602	21.876041821947464	14	0.04204014308974124	0.27410116730194245	-0.1961434542213286
Si	40.68149361109927	10.97135314242783	11.33663681303053	14	0.14784935455085918	-0.16860614491094664	-0.014045434142904926
Si	29.416360804303302	-4.234477204279616	12.6721947098005	14	0.013755670573324238	0.02409408506563966	-0.15613011345546007
Si	34.59566438489654	6.855280474582348	21.29871354407224	14	-0.13116313813363015	-0.15312474844673898	-0.01615168362117023
Si	30.12946406366802	2.469545364220215	27.75606067948038	14	-0.1652027727986666	-0.031768063114685635	-0.12148729748231689
Si	29.252013461281027	10.984587141422146	23.834865874928948	14	0.117235460614388	0.19466224044639127	0.19941672840440913
Si	25.91878045936776	-2.5076374655956157	12.100699839376714	14	-0.13527330709841887	-0.04945752482783643	-0.012192438538674206
Si	27.805446691367937	10.629345605359198	13.038040201115225	14	-0.21239695361317668	0.1194802926694093	0.019441927099363727
Si	29.13691578184485	-0.22901093567536968	24.128402412205332	14	-0.22046636766046146	-0.08412039542247679	0.03290243478193497
Si	37.088830860281014	0.6042661025411681	27.225365163453674	14	-0.11741595220786238	0.15930542852584298	0.09472029132585127
Si	29.47657747102819	-3.5578692926877102	18.208591206405373	14	0.4874224332777124	-0.15742749320000682	0.0042004147615259165
Si	24.710908640034642	10.24194722591073	20.50857020888373	14	-0.32666458735651777	0.4686428229088188	-0.021889105143080668
Si	39.61472257076552	-2.6720209491315328	20.73899391009225	14	0.04905746084002139	0.020453657042841997	0.08460222055947254
Si	39.969233082802596	9.33284410457854	14.387707682959945	14	-0.011380483478571443	0.01657925843591086	0.031948811818692045
Si	29.580563585271026	4.007890968519293	24.373957489374217	14	-0.16439493150707607	0.2591491614231533	-0.3733915983343569
Si	26.242931297197533	8.31531451407779	23.282231424372807	14	0.2932929258536558	-0.004637759776483105	-0.160677884545738
Si	40.77925205774187	6.111741974481819	17.44769047500259	14	-0.2289633565224868	-0.08907980047451043	0.11055161522413105
Si	34.889490046282035	9.168567399832918	21.27695038385914	14	-0.26798322219265014	-0.034253293517140765	-0.12277156458973085
Si	38.329102650091414	7.403474570212763	20.19848295911135	14	-0.4436573356286838	-0.3490859113008691	-0.15016977710229282
Si	34.225477103693294	1.9209652221941123	22.159089396515473	14	-0.11076064608665909	0.23444032507546622	0.054614390768457435
Si	25.717837560784854	7.2060668709639915	11.943587170084697	14	-0.09403303487377569	-0.0490610603874696	0.1010652650349127
Si	25.577451378305167	8.071934438729718	14.1152049246214	14	0.096955610291188	-0.0758193247858467	-0.00602204288085083
Si	37.45454164604491	10.965311105647652	21.50095585839552	14	-0.07398535536098506	0.14149641041530528	-0.1061663379900865
Si	31.43666151373517	-1.0108978062480116	13.486862668994245	14	-0.03259775880149742	0.06255962042877904	0.21942969799537773
Si	35.240348723690964	-0.06863412090151101	12.212732146156066	14	0.00970232303611079	0.08585460596091667	-0.036208104892049356
Si	39.415512774086665	7.935706058069123	18.03187887946673	14	0.12957290949311856	0.040671286617294404	-0.03504956483479063
Si	39.6653455738699	2.4033622272436697	10.298208149142775	14	0.08899469688841351	-0.25335414714207155	0.04154237709976057
Si	34.938261669437736	3.6279720326434566	13.167871710861734	14	-0.08797988161855107	0.016483356207469334	0.18390550711848777
Si	31.949810810390193	-5.975477453307587	20.274029774621606	14	-0.4994955725295317	-0.23908991193642204	-0.3286739061642135
Si	27.660125686025918	9.977723930696731	27.128681075716514	14	0.12578490002494438	0.1828179295680651	-0.2045244862334153
Si	29.847021021328157	-0.04322569706274435	11.937004668350559	14	-0.21487987002084372	0.1993187692917115	0.4331726252436519
Si	40.939697868041776	9.215637133346348	24.615188846911394	14	-0.14574490484631797	0.06187827751893978	0.06454399951486932
Si	37.57372813177414	6.358425621326611	14.721153203797398	14	-0.1830431583941101	0.3562942621764362	0.41544536828229495
Si	39.18778975489733	7.497587753229698	8.753657875752149	14	-0.051854566317810484	0.03370924763139743	-0.017440064497096435
Si	32.70192939697873	3.726070528664391	22.153385766363005	14	0.0030511306834197253	0.241641991077201	0.09413305087072946
Si	40.79850673775831	-5.021400748253026	14.666252478078668	14	-0.04526250938748282	0.048483333022032324	-0.07110957406039946
Si	38.304638807859114	0.10173061764164365	14.964649914439486	14	0.06247708794800227	0.17070005308367522	0.07313714771586823
Si	26.02063099780466	5.174901008931774	18.89331594881045	14	-0.07148161300022488	-0.2427169702115549	-0.24597378932058653
Si	35.68720810457914	5.0721091743896425	18.21497657806512	14	0.07786489617855652	-0.07328884292975696	0.03420367118446191
Si	31.744667398472078	11.53505644666119	12.863422381217019	14	0.08476574285783396	-0.01735470380046752	0.2207466181403576
Si	34.260612253952786	5.763296497733604	25.176708935570844	14	-0.21657654242160942	0.026976551240057673	-0.16069793916723518
Si	29.046810910340593	-1.1301927135181606	26.3242178833739	14	-0.5494814595006585	0.021265097881880732	-0.14014606590116352
Si	29.114410098351538	-4.813246174448541	16.186636247099212	14	-0.05044585771290135	-0.17316445753303716	0.4051342075063731
Si	32.35048918585034	2.502548224175011	10.73144419913971	14	-0.3166275064077237	0.2501582632291275	0.10507850332913184
Si	29.869152157680123	4.576759080701779	19.947209467034412	14	-0.2612225007533207	0.05301233504347316	0.053144489856928774
Si	38.53931887592393	-1.4814357945721501	11.200203088542443	14	0.17175754870185211	0.14001622508249603	-0.013042188846983147
Si	25.663810778395938	2.463611748980956	14.951396202437728	14	-0.18199569008668176	0.20070665194352738	-0.17520334405191457
Si	31.309497830995465	8.268200426297625	19.94170460970696	14	0.0932743016938	-0.16665981818359452	0.053781352644729455
Si	27.650755436489725	8.996423562368358	14.707301530569978	14	0.05426934843449356	0.005032424443125835	-0.2093530220246534
Si	29.150619607516475	2.5550620332429523	20.835027468583913	14	0.7890539679056725	0.14454111333542463	0.2303191003578009
Si	25.09836451575481	4.8119221174488604	24.44357890339832	14	0.26814494471728745	0.22818251183675783	0.3387456970348296
Si	25.613250199815116	0.21602006377280508	25.509581136441934	14	0.06993920691866805	-0.08764563792693182	-0.05071530955045287
Si	30.605947166485755	2.7561067823642933	22.711474148977377	14	0.07662330941945701	-0.060732850098813816	0.1970741943472222
Si	27.165552613381294	-1.6265678835928727	13.842408113921884	14	-0.2656268041667344	-0.18291691712289082	0.22358151886635283
Si	37.56750046417391	0.37459642386719855	17.18427869859485	14	-0.25449803189900544	0.04070573942858439	-0.243343291467543
Si	32.78528913443746	1.1711793414859133	25.28949362213413	14	-0.24190784336730436	-0.02560255255697054	-0.3078327835496252
Si	40.20742206619162	5.981701835406577	11.756949343900317	14	0.21206219570049342	0.016047296745172218	0.05716029925646806
Si	26.34195137631626	3.0698310820092445	23.3211136887964	14	0.0074832020342909845	-0.07541000481887912	-0.12790117681395827
Si	41.22887125967157	-1.487315199040951	21.978592172148467	14	0.013409599797232306	0.12850795766951323	-0.06654097701702832
Si	31.240093260053193	0.7050488530751007	23.56781376314739	14	-0.3244791478343919	0.06906631666247777	-0.7296056420248045
Si	30.669784455577012	5.856520952665147	25.18865501807912	14	0.058671594963651104	-0.11143299012787782	0.15632680301245142
Si	36.04021221429772	2.137612816703738	20.73309807811725	14	-0.09364145553351713	0.046143370070165564	-0.12214987132331905
Si	28.07301955509601	0.4705544158303379	13.387310338674656	14	0.11737430030167599	0.03996937486489397	0.3441339624542639
Si	32.58248499940216	0.8815279094257092	14.36494737312054	14	-0.2170000034678378	-0.11093316725364102	0.14819259711109892
Si	32.315533095408426	-3.566659651255063	22.796999031753213	14	-0.0692300960713712	-0.06577941562120047	0.045958507597646914
Si	27.50717903230609	10.041766563615482	16.795966949801688	14	-0.01747400308732239	0.09375227017281551	-0.3038606829405284
Si	37.09712017990929	8.486319925362725	24.244658230828573	14	-0.11154920408834851	0.05803498928638244	-0.09996328929469724
Si	29.297033042020757	0.7647891221202023	19.34347561569411	14	-0.0731541170109812	-0.35700311591320105	-0.16380254884131396
Si	29.190257537225246	0.985522237421644	15.444344594719226	14	-0.13475728626066516	-0.048670509489339105	-0.04374607146965949
Si	33.196837590749816	-4.6304967389815825	18.76915192870277	14	0.12096639154445488	0.13694375422491906	-0.1950494489076056
Si	40.043993020765896	6.304909734380499	21.368083617251486	14	0.10491780924662258	0.10205179814625352	-0.008256590514591525
Si	40.973640381351174	4.245025306010316	20.431461137533894	14	-0.05484347625248263	-0.04745180556758892	-0.20027059248123028
Si	22.204969778580054	7.5304986191497765	11.12509160194647	14	0.06059169641673769	-0.273867453828341	0.04639739527579619
Si	36.79252793096064	-1.8227123076149025	17.271490686257373	14	0.1495012897190543	0.18290174760150196	-0.05041500444905958
Si	28.348857097193054	9.241766724707272	22.564760091109644	14	0.045689569981159424	0.3115930250803417	0.0968980175320167
Si	32.46150791549718	4.843648560171956	10.284524036478594	14	0.19183659569954856	0.23142698964025268	-0.10717755371250073
Si	34.22585165083464	-3.718783286914293	14.868161314026104	14	-0.02880743533853512	0.1644856915248773	0.3030916653392721
Si	39.23740082361983	4.32735668158097	17.2179288022939	14	-0.08779090537752018	0.11358089151232952	-0.18355326568962746
Si	40.291591679705995	10.10984214930621	18.25789508076193	14	-0.10596990554362717	0.4290855962267446	0.11110954507860318
Si	26.489335676436934	-3.0711206412459053	22.503935606655375	14	0.02800576469971295	-0.29085628934175145	0.07355289544613618
Si	28.64243470323494	5.390635234096707	13.878891962440353	14	-0.21834803398719146	-0.2918261102685113	-0.1696736678398721
Si	39.51895349512367	5.799951192316549	23.611980756315372	14	-0.10962678864047379	-0.1030411594734465	0.47019139964314405
Si	29.365586668141887	-3.396817307409052	26.65639027248089	14	0.21759110058093986	-0.047863696639876635	-0.04139813809130027
Si	39.27263289616589	-3.2556179633724898	14.57808769505657	14	0.060375723569845254	0.10054590176024279	-0.03956802532441886
Si	36.346529351397315	4.18574007888694	11.312616513465622	14	0.1943763335347908	-0.16453454252596011	-0.037767480268719164
Si	40.17766363871123	-2.1784023145970965	18.427877058410637	14	0.22677071790546452	-0.29035466669379056	-0.20144455917040993
Si	29.97660119022981	-4.743095794724816	20.194098457706698	14	-0.0008361234501121554	-0.04653032142084785	0.02538760815220616
Si	35.18884192075305	-1.7704711951498728	15.626808191578313	14	-0.11785226878069154	0.10494866251046435	0.044701237096094505
Si	26.39385243940296	1.9564026385676736	12.713360397585827	14	-0.2246570122217708	0.021297750919446613	0.045003599081743915
Si	38.51886827345617	2.162884892241049	24.448952340676176	14	0.06900846679277445	-0.006952268785680406	0.023930819877810258
Si	36.50464574131812	6.585215558163807	11.439381007804684	14	0.2566868138580475	0.18801901852019268	-0.24620261769407967
Si	27.934529106831747	11.729443127519875	25.60591696104766	14	0.0306735435798986	0.11453348603344439	0.24375004032919045
Si	30.13338038114598	-1.2444953016542817	15.416123781819104	14	0.09196252375946044	0.01791751875504793	0.09568445582090679
Si	35.40799306720748	7.702083921403554	25.787820379945344	14	-0.04968301076441342	-0.2837551535580345	0.13822647866914095
Si	31.586171533158062	11.898036980894723	10.360409258616563	14	-0.3068305666958314	0.0987314727358143	-0.12433762484023306
Si	35.539534680349355	7.047830560247928	13.546300671925277	14	0.19029341828639565	-0.08165599097311486	-0.08735201769937091
Si	26.781075044535093	3.707606011696153	11.160029622131566	14	-0.008931762771662412	0.09561246487194265	0.4910350933630524
Si	37.88065801485498	2.681243351111932	28.0353627826349	14	0.12683185411130868	-0.02853515528513144	0.05424029494437589
Si	32.87263254214959	-2.916711939474325	13.099957114731762	14	-0.04375866988572822	-0.1479090041942866	-0.06462704621671009
Si	40.2265157566473	-1.140666891470962	14.579076630929782	14	0.06336026262547315	0.14538546432256125	-0.0816842731316365
Si	27.386256159171573	-2.8492113165005795	19.08719337697695	14	-0.11297642465156271	0.03738104313910091	-0.17873424298807394
Si	34.14478355049073	9.416249839054641	10.106840843923562	14	-0.07288183695757752	-0.14491598049110221	-0.15353381130317456
Si	36.632326890503116	-1.6946681105429	24.620061245250167	14	0.16766743435856055	-0.22882991615637113	-0.1448290771312812
Si	27.924805665912263	-0.8771565500260223	20.35986678001523	14	-0.07760315765696543	0.09763155387985493	-0.21035960975749135
Si	30.079435736288065	7.746766738266195	21.896315007348267	14	-0.09454288505876106	0.06523202729854094	0.3932862970805987
Si	31.191137648828068	7.5286965217196915	15.986215743213453	14	0.07817445725910233	0.003829147153296534	0.09808046886875281
Si	34.732760137884476	8.946359094474763	17.162405474090214	14	0.07087611769733	-0.09215509954793955	0.21265920635583177
Si	25.676328538119957	-4.728833433842411	12.788723225026654	14	-0.16863082752202005	0.18366408032892587	-0.07657137309199001
Si	34.336734032180026	9.092128570736026	13.870724206357963	14	-0.006222846206354396	0.03582012509923901	0.2204226588700189
Si	28.453340964873735	2.913326230446608	26.118849414620847	14	0.01570276863227238	-0.3098585574313698	-0.15259638630344854
Si	26.942304446880705	7.078145880188485	19.885458471230493	14	-0.032938430256417045	-0.041047953546696096	-0.16570028167811526
Si	37.83255827670285	0.5563864929721055	20.89945943339959	14	-0.02471269300566729	-0.10472060546856723	0.12881186231835473
Si	31.560094509816977	3.872574314452772	16.813031843241728	14	-0.08230648061911232	-0.28932468190253924	0.0237318163260308
Si	28.61476749729374	6.0661178615139475	21.20866945434092	14	0.21750034056313863	-0.0640593461620214	0.04899575431233783
Si	32.756421077793085	-7.288884500718151	15.525705104673488	14	0.1990950831288586	-0.10747991569815013	-0.045265337603334996
Si	35.8541887768452	-5.403465116438516	10.17787830898206	14	-0.019226725584067333	0.3359776450471581	-0.10034689820846335
Si	38.93503943001307	1.1577892811827009	18.92418980396179	14	0.005403692051355218	0.042445349288196585	0.12799656482133576
Si	26.4693154746316	-4.5732731638862445	20.55013179956846	14	0.2376845457684291	-0.11208990753717565	0.1050342803176253
Si	30.966747770646617	2.4814602344667125	15.006364280931876	14	0.14497151636601743	0.024447354936628012	0.02297668269350331
Si	36.48649663246891	5.908463084517346	20.244778957082776	14	0.2962435263190577	-0.1685449526043271	-0.08015883634519264
Si	32.67864669244217	2.8058114878721203	18.634883349531776	14	-0.14092511081316839	0.2136958760209155	0.04297216876829492
Si	40.36667852504267	-0.5163017350947056	23.956120583688694	14	0.019283289901110594	-0.016571030898886386	-0.0645401428568891
Si	31.670756762579288	7.262092880857386	23.571385102995166	14	0.20294968422482457	-0.1251824900484337	-0.07452657303087626
Si	28.064623456677445	1.665294086707574	17.441416810385	14	0.002238147181188903	-0.12455359768712547	-0.04193421355055114
Si	33.83677766575382	-2.4495185914124047	19.48175250637778	14	0.11171658304469016	-0.1288874528147671	-0.04431479996647625
Si	32.177297273490254	4.563176818576032	20.05971652874293	14	-0.034272319696509866	0.08270345928054318	0.15413390728489712
Si	33.82087748250332	0.05810408942763151	16.24221378607336	14	0.4058065515475919	-0.14533789887413853	-0.0980701844474722
Si	28.519469891079822	-1.8253062108438038	22.45669995532933	14	0.1033170390742984	-0.1643782193224951	-0.17530053183301617
Si	35.70383766910489	10.939059950740852	14.356184941313726	14	0.021012358228910174	-0.15581258194842182	0.06915784801187505
Si	31.884682319311658	5.66883669433586	12.407123755266609	14	0.40516943164925917	-0.013240935288230591	-0.0614216492140815
H	30.7675084044566	2.3971230603890996	20.300032874184797	1	-0.6002402207310219	0.24704799712334438	0.3858959119483651
H	31.002996705826433	-1.0306157419392716	26.850471401724263	1	0.742514904726736	0.07361768730020389	-0.4718204519739898
H	32.07080925005323	10.149829984897032	22.271317190618596	1	-2.065466091456053	-0.9579028251588408	-0.728710126041797
H	33.83307983410832	1.4872609882704928	26.456958704468338	1	0.4752181676545655	0.06312474937814758	0.47366547715172813
