237
config_type=amorph dft_energy=-23405.418715377837 dft_virial="-62.07689132997668 15.522249005292188 2.8930211949036906 15.522249005292187 -79.74167067626449 -4.486805535192334 2.8930211949036906 -4.486805535192334 -52.72803483263797" pbc="T T T" Lattice="16.40961835988806 0.0785046347939568 -0.031326368691819304 0.07825848731864131 16.439041188104106 -0.007072637457398701 -0.032557106068396804 -0.007548522576342001 16.291090145607804" Properties=species:S:1:pos:R:3:Z:I:1:dft_force:R:3
Si	7.896324036013296	3.7880045222094494	14.777918232903794	14	0.0864577872690234	-0.3036732493626896	0.003964387293136323
Si	7.276775763593689	14.656739830805973	14.307162827346069	14	-0.10447249380517294	0.032306195458192626	0.0069802938336700196
Si	12.065466590967603	2.8908265123814894	13.018636587497165	14	-0.19279536087343177	0.03135308671601374	0.3347286020826302
Si	10.397400635980222	3.568477075857736	3.302888872941818	14	0.015118870614066748	-0.005498822948200697	0.015092131118737211
Si	1.6551875190788734	12.79089273841942	10.459518412850842	14	0.060450028513597535	-0.06583597993824374	0.11894601698388253
Si	1.0463450208523215	13.093306244625705	16.01141082022166	14	-0.04050725009786896	0.036357229000617934	-0.06072050879327711
Si	6.7690457252772385	14.734716069019587	5.754117327191018	14	-0.02768926163480272	0.1395505979090172	0.12899826745406545
Si	1.6289711719746038	5.227136915321727	6.404479981553789	14	0.042031401331652736	0.04206354014815458	-0.1962563257448831
Si	15.31461818808171	15.533371090377763	11.027802371078076	14	0.00609634782460311	-0.12168115882345605	0.19427965997475327
Si	5.155522768853435	12.294316462701099	3.1952846836160624	14	0.08297753910767097	0.034111368503468596	0.052067710948850765
Si	16.788298199846103	5.351477491985768	8.401229942296293	14	0.02351044415796605	0.38068376724336095	-0.5131622828587787
Si	16.599155197847335	8.968086245166697	13.429043196040203	14	-0.07124532842130328	-0.05996228983436543	0.04577930155683259
Si	9.949031522810857	2.8023430589382428	11.959099702951102	14	0.18958122211271464	0.003435510928781863	-0.06735370340872714
Si	14.403948014640124	12.427296815748713	5.246749946154866	14	0.4499064071093037	-0.37571973420175103	-0.30096921789748987
Si	13.305457471633797	5.881103168723117	3.0182160357731043	14	0.0219590392077887	-0.07705936888175412	0.270273048590774
Si	4.485752206553622	11.572769599460255	16.096039604201465	14	-0.05222223437859166	0.04651309501520286	0.10478205488571878
Si	1.256031491140921	10.083956440913466	4.401057783247065	14	0.02065368903674952	-0.033388630797974966	-0.006378655188755369
Si	16.40440331537771	6.735727203018532	5.266381027802861	14	0.022960741840518387	-0.038709533258021414	0.059293288230062906
Si	4.937263802491181	1.4611100806916142	3.6620656279390267	14	0.25947234936189595	0.008771582910217186	0.09813471919100791
Si	11.161842799252716	5.9982808538554755	6.027656093559627	14	-0.020354669488016296	-0.026337631568000876	-0.029498805559122942
Si	13.32570720393642	8.80418484626995	5.860773028245225	14	-0.001014815269862447	0.021624538405637436	-0.05566622995493001
Si	10.71378054993591	6.274601086695149	13.10246457169061	14	0.021145798595025862	-0.10159105607288299	-0.09146758598533195
Si	8.753476825371788	0.022473264496305153	13.903236461336501	14	0.035128497768119174	-0.04266132213508902	-0.044189587137385036
Si	7.515077698379299	3.934275197940932	5.548767975417478	14	0.05788355118302571	0.058739986365167036	-0.06595193678818241
Si	14.320536840171544	13.972730457550742	1.576622167907672	14	0.008572065137373696	-0.05832783818234731	0.04836917594581775
Si	12.334487730672588	-0.5123920714989263	12.634713806314902	14	-0.9518614989880889	0.05390862235807679	2.310870380948227
Si	10.187464736249972	15.378984111893544	12.323854159738959	14	0.02576658907639599	-0.00483753465985861	-0.05347230578524766
Si	13.579411406744105	2.7792265290397795	11.223195877966686	14	-2.338538302408873	1.1122269942374292	1.0551654254252545
Si	15.979459236942537	7.50732569389003	8.862492260222686	14	-0.13796731125287	0.08566897215680198	0.026681645459836693
Si	10.20556970355101	13.1118444314833	12.842552529555467	14	-0.7851037216917969	0.35496654338911177	-0.16633148803421163
Si	12.104497375636798	7.405768527541192	4.387381829518536	14	0.010863434198689664	-0.026235044465726966	-0.015329444139786876
Si	9.45001182315424	2.817592715525622	16.236750628957157	14	-0.15504536412088962	0.11402929228016336	-0.046818799437768455
Si	9.707532952812484	6.30026934542105	0.3511014768236917	14	-1.952338742922198	0.36331003726352434	1.7898677695261889
Si	16.49523173376913	8.400916514511058	15.671110294614811	14	0.004063374847962023	-0.032174040644737015	-0.11108666224125388
Si	9.209629121710627	11.066980844232459	9.390115937494134	14	0.3302811040998381	-0.45939121463533	0.285535901102769
Si	2.7059500666215235	5.380019112240184	13.799972672492142	14	0.02159162825753954	-0.01734467648971894	0.0028043045726855098
Si	10.404064668628598	1.5264737222700608	10.01534857561036	14	-0.19575213199160207	0.06347287703849562	0.021472328970684667
Si	12.621518660654823	15.45802534818369	2.2963836414608942	14	0.37525256436508014	0.257928914838211	-0.37117787665370944
Si	1.8263043209687027	0.230801000721163	14.312392640704939	14	0.7044388918195991	-0.23455216815689267	-0.0943544230387942
Si	6.348432201424449	11.98210136402775	1.1625135013358874	14	-0.13655140355306447	-0.007537709467078124	-0.3116040808332184
Si	9.88813956036731	-0.11011161160763579	4.69299853487026	14	0.14111074461728307	0.35054784178590526	0.06111697323364394
Si	12.141621337863882	10.092537141902964	11.768020340813184	14	-0.029488778248374363	0.034400360741453244	-0.10211761844244929
Si	9.43516256646004	10.893957219900518	15.870770357742225	14	-0.971136304241643	-2.2832047734823697	-0.3760177253083562
Si	1.1585702187813331	-0.8145380974487025	6.162334864186919	14	0.026850824189902433	-0.03320299699386027	0.020167750131241533
Si	5.538754696121644	1.2225997410435698	13.731305731794963	14	0.4464773239438222	0.5801927983287635	0.046613111012156615
Si	13.170870596063956	1.0947392554825177	3.081221584538029	14	-0.08293048788031226	0.09408857074869088	0.10180831447243549
Si	1.3311064711121485	6.01623156873865	11.979881113800404	14	0.015642090546716884	0.07598053308941999	0.18302824598325323
Si	4.306606074019002	15.300105332937108	9.106266873876143	14	0.47527524619267286	-0.7244156088255537	-0.5954728772464034
Si	1.001336134499298	9.02719774087213	9.85940266311581	14	0.033191941240983645	-0.02116019678481869	0.008945389629859196
Si	6.797518424238567	3.9605719532204713	9.294668151482627	14	-0.002160242689988416	0.09531730198118966	-0.007011147097511798
Si	10.352099654623158	0.7703759584107643	15.51791466991112	14	0.03594996591790649	-0.07719872279010614	-0.08479968144805991
Si	0.4819321419202175	5.090751522198914	0.8627075173847771	14	-0.20894987271045418	-0.3863039463626726	-0.18008587305487578
Si	1.5637995254269035	3.107533108666087	5.35983994221382	14	-0.08435770844352646	-0.04621613235072575	0.2606643137883166
Si	14.505341082672084	1.7411569863075649	15.294560450809835	14	-0.07676883398057739	0.7077689874302548	0.3709953281759789
Si	10.71591711002165	6.957937656851184	8.097405190564865	14	0.022154443212119956	0.03780836084330951	-0.03164696405410666
Si	3.306692671927027	9.074303803714841	4.90898145757743	14	0.30902011998646955	0.5281294582589569	-0.06382409002522785
Si	7.277138420873988	0.856401219067194	7.920961757309209	14	0.3811157129371458	0.09091608389416017	0.07250182759125963
Si	6.60366415956226	8.27881587987239	0.9133400530571756	14	0.16777182123455858	0.02587123306292602	-0.2501544065711473
Si	8.874520666849769	10.690705044616667	5.558805869460844	14	-0.017710287666244	0.029270234296161775	0.04478736912431946
Si	16.14178201003093	3.2665230449387064	1.9641469071453828	14	0.054622875416013926	0.05028002141975181	0.013343008169440469
Si	15.59801598132829	7.008130409034352	12.454087506962052	14	-0.017253145140321672	-0.028973271631684675	-0.01955762683877039
Si	1.174361399814407	4.284351060284142	10.4745432547441	14	-0.23231376386517177	-0.5432002492035369	0.3064323024817405
Si	7.83988570188979	5.643693928781317	10.468069576143304	14	-0.04925337906541668	0.0018581378148710165	0.053876483541574934
Si	13.198998688559843	13.86329493100864	13.589775856438056	14	1.384756701967697	2.5895576288097177	0.6535330633649232
Si	3.098606160227978	10.13239170012288	0.9885610805304235	14	-0.09977225616941024	0.010293420149212834	-0.04006399154067543
Si	2.525689706515308	1.9220573298496009	15.857228964633537	14	-0.1383365219768433	0.2204707385395057	0.10449511953199025
Si	6.858151111341449	13.789545865437779	3.679422306915107	14	-0.06145095981473118	0.30113711107489555	0.10613754161050083
Si	14.02992856688139	1.02119859477409	6.832856996778029	14	-0.05883177482509632	-0.09830389792107366	-0.017147729822195597
Si	14.014127539949303	15.220471701723037	7.370666256578033	14	0.42143604367824	-0.14522682712430812	0.030344956319983674
Si	10.846603368599322	8.65556264165762	13.161746729645596	14	-0.07493049367667151	0.04691547299780603	0.0878310146205145
Si	3.8603275734066496	10.962973690012648	12.663795310031846	14	-0.06778307799719187	-0.0008654340507618434	-0.020968649438467657
Si	9.532484355250281	14.392809020890514	8.29166313710069	14	0.44126543634935006	-0.06861637323145185	-0.283400083913322
Si	2.3539329211896582	-0.01991825370253026	10.05247910177012	14	-0.5112298401001555	-0.322779647217774	0.7933263736161625
Si	1.2372012092792852	1.4821392799994018	7.069263596003711	14	-0.17528304831683916	-0.26254276333521676	-0.10804093087900646
Si	15.221372601482692	6.493826592143809	16.095693356752854	14	-0.05620667629322514	0.12987578569983202	-0.00917936021399267
Si	14.72784034954244	9.08101706585828	2.4841432946483892	14	-0.030222057485680597	-0.005592154071322073	0.07216578412591627
Si	3.695129797806574	8.33386101928561	7.073060831056244	14	0.07127515324301699	-0.043307955123106257	-0.0022391756233169618
Si	15.949836208779903	-0.13069774545985544	14.870413890194683	14	0.07325156190261481	-0.6657792380047887	-0.5704177130120923
Si	4.078890121655125	13.458129622706652	7.62699767343892	14	0.004780713232283338	-0.12756230513276276	-0.07808472568342917
Si	12.675831921574774	13.818197431564505	5.957124995982724	14	0.10271257221353157	0.777015024354611	0.6862280099475223
Si	5.868341242619592	9.00802449352822	7.490065832920908	14	0.020199888947743386	-0.006941470143335784	-0.03731419440077706
Si	7.889963585251143	6.47822904712465	1.8884401486541786	14	-0.511256065374421	0.16254527833976154	0.5630288705430507
Si	12.286026215732472	4.912235527201101	14.194701327840754	14	0.17543962863083618	-0.049672983453664846	-0.18909116943869445
Si	6.2625726800680654	12.842086490335538	7.07162497078357	14	-0.1728093878883247	-0.1852185706054874	-0.5916840964466332
Si	12.479059988824394	0.7102175154436561	10.573107267793102	14	0.08613562777240887	1.5829290153971542	-0.8596706610761995
Si	10.443362933554303	10.77141516078945	7.430699984824315	14	-0.11075164721803858	-0.041786632105174644	-0.15841299786921956
Si	15.40156404029582	14.686239785230951	13.277329379137912	14	0.22901889239740197	-0.7049263733882992	-0.30345650518420114
Si	16.197593488583966	14.975955363677294	0.4858606556262529	14	-0.17088234445087372	-0.5356926216687045	0.3311010295864333
Si	5.033996478323836	0.213449244694589	1.6737782173978688	14	-0.07813074846865982	-0.20168161508092755	0.10184019617840534
Si	10.886922325056002	11.879444738955836	10.950677803129054	14	-0.04468272513778944	0.029998114212295698	-0.04639713816526417
Si	5.660451648900795	8.271730114549639	15.01618570704286	14	-0.0046225902550942315	-0.0558361800165918	0.03570493958089638
Si	5.344826587202743	15.450491594455865	13.19065100718031	14	0.277549533757325	0.15333455064086307	0.7059224195893244
Si	1.5981797637958035	1.812582419711448	1.7282194750049822	14	-0.15526262252044212	0.13646809974069168	-0.1770946491254155
Si	3.324901021167699	15.03446297757662	1.7205610065563326	14	-0.03463433132558671	-0.001018414817310654	-0.06988135704896471
Si	4.79655441871866	4.419717402859149	13.239399694174962	14	-0.2536279698586673	-0.013655911686902491	-0.13608911881650185
Si	11.112498435367803	4.505591693064051	16.278907486562854	14	0.391693240224235	-0.6589051308208407	0.0856363191192361
Si	4.92679268889126	0.6424186548427547	7.670122711114195	14	1.1757088701445453	-0.5435635463852737	-0.7986884137613313
Si	0.7112332840251248	14.812672615435174	9.739230183700444	14	0.026104946536527472	-0.09142721963180561	-0.2210592645472876
Si	15.42783289886149	1.4452959258941778	10.635272633175616	14	8.842586297627864	-11.185688826201062	2.5006688614604946
Si	15.592858371228845	13.599224637523834	3.618812593576587	14	-0.03803744632733471	0.0938456012959369	0.02568482792721528
Si	5.5031207466118035	10.514095872060963	14.303966192133306	14	0.018119864743743587	-0.08694475461665946	0.08679820161341102
Si	2.511524739802485	12.947307972100237	12.669668388792873	14	0.18755107735192575	0.024492092169198586	-0.15781341610856103
Si	16.89021310052573	10.269175852155705	6.5726249629249756	14	-0.0709681632677913	-0.08707819498277515	-0.12114971135378144
Si	12.629449532309488	12.891379983742219	9.678769799830285	14	0.1396647549852318	-0.12335546260793646	-0.05615036908671389
Si	14.480084710721545	11.375144355462115	9.257752594117978	14	0.0015226085705916923	-0.008623230133244644	0.038450880062814524
Si	9.938777018989216	5.0390457835341405	11.25723971478599	14	0.026383397242699513	0.015503765080492915	0.002685776617426683
Si	0.9985366172133764	11.297642361384277	1.1397530647850476	14	0.026906102954285617	0.03435330951409453	0.06932188453130049
Si	1.1382532061687918	12.188497663062964	3.275435224528296	14	-0.029580309597771633	-0.07531358836937357	-0.055208058986879624
Si	13.423155348430656	15.138079577802264	9.654593194804795	14	0.5031984784116089	-0.4377846739669336	-1.1099605648977184
Si	4.885265968822367	5.647446857288293	0.5476748506106501	14	0.32899889387668024	0.4082413882857721	-0.8780967444635728
Si	12.292321027167874	4.088452130579548	1.9347306428620117	14	-0.09209390724132001	0.06003813744130981	0.10307201273728829
Si	15.601000929712281	12.101029978201186	7.228819671469554	14	-0.10348261825691593	0.08650432427531808	0.11703542862048048
Si	13.6246844913873	7.328929490663538	1.298683925663591	14	0.11639959427480787	0.028949617462739313	-0.1397930531407072
Si	11.081810409128632	8.947652722749172	2.803972555224831	14	-0.043952531226867375	-0.06348804655988449	0.14828181446570807
Si	9.411955782487293	-0.5626455400593388	10.159851912469078	14	0.07810940829450261	-0.23490878046479724	0.04498688689716295
Si	3.3199764306782202	13.653096473971384	16.060029869545975	14	-0.0022412325075730805	0.007927231923080556	0.030877175121254326
Si	3.560149086276229	4.980639910591279	2.382359672622261	14	0.025471426185642992	0.07898924053505726	-0.3523959522900277
Si	16.87818305291548	12.868732775030024	13.733530904971815	14	-0.13453308587674823	-0.05824196326465436	0.039473151538105405
Si	13.6681393666795	10.48755296930611	4.183504439647383	14	0.08097696205806375	-0.022568648279195806	0.013295185610485717
Si	12.882643389351689	12.285617610923449	0.5736466912227729	14	0.17574893260085	0.014372478739627763	0.14281384478134915
Si	8.580376074830916	9.10344110085952	12.62157937703207	14	0.03381080629154328	-0.013833575064524727	0.0202731654493676
Si	16.391083454996803	-0.6835712307491688	4.113667477950869	14	-0.04275516747927442	0.035061906140327344	-0.001665047805327896
Si	14.743421484729911	5.125853793162074	4.680947154478814	14	-0.1195898217560476	0.10300567822002846	-0.06312294960442348
Si	2.2325477552125723	9.839251389803314	8.097103249661812	14	0.024639416504043072	0.024568453997206984	0.031445903618071085
Si	11.95892575873521	8.97627475117886	7.839294947949033	14	-0.014077572959406776	0.032400555023442065	0.09838000263855005
Si	7.085394460552719	15.399622757207165	1.9653415428922472	14	0.05565800241790554	0.0019661242383172363	0.12135874221630946
Si	11.300607617970245	9.487836485194387	15.370554381355573	14	0.31289374726180463	0.19374101341018224	-0.23647432649423536
Si	5.62274349666563	3.8702719314093956	15.462418260126487	14	1.3342008009470934	3.490056928148804	-3.4210230074133605
Si	4.862106773361516	-0.1878892908578275	5.485545816874276	14	-0.18744463359167157	-0.06694489766282359	-0.03786595360248084
Si	8.916830135890164	9.395488516388687	3.535778845236825	14	0.05779716204426874	-0.8292035772535087	0.051992634673502444
Si	5.914319950025359	9.169357753765844	9.814510286567769	14	-0.039857531783467536	0.01833172382212379	0.00671881242261096
Si	14.023477862044956	2.484971991148618	1.3148229951284438	14	-0.2156540298327403	-0.05508104638406432	-0.1108231239459387
Si	4.783828594244849	8.899578479836887	2.2572839354986116	14	0.35465184009792566	0.5532473574630795	-0.16042283089797932
Si	7.815569613294956	12.851970131961039	8.871035218599301	14	3.3557228458238355	-3.900333346295474	0.9814340952699003
Si	3.1654614555068368	13.466319769701983	3.50171203465316	14	-0.00012984081866747798	-0.02153866348794449	-0.011082492371966278
Si	2.546551525539881	7.787114965148485	11.113246723692761	14	0.020369324788341144	0.010933368263397691	0.008317268600147022
Si	2.558325579775806	9.00420920766083	13.065419376655628	14	-0.013027019325594271	-0.031480099318829044	0.024174817772692314
Si	1.4748795704607631	3.9808873248498435	15.283341048884955	14	-0.03405968928653361	0.10748840034570666	-0.05466786975911652
Si	7.259583182934486	7.417624630935556	13.584332715267246	14	-0.011434476690294551	0.037344790554086814	0.04683062652224114
Si	6.211981168974886	4.898451268583433	2.394460282508771	14	0.02159908446296797	0.1352913048356599	0.210579696372896
Si	13.165514427001092	4.604948300983569	6.332762453145865	14	-0.10326998784693968	0.09738935575869699	-0.14868573511150335
Si	8.818075768793587	5.9637496450350485	14.483274782001633	14	-0.49014471959068523	0.11178780266205826	-0.2532482176028815
Si	15.485485560529888	10.110825899318906	0.5254346057243102	14	0.12234887487509849	-0.00012495571855919663	0.1379634545948898
Si	4.745042316067801	7.177899963742621	10.47990598773964	14	-0.0917066987801057	-0.058342750593204165	0.03107360756771364
Si	16.887316765232853	2.6682583242180455	11.94692032587249	14	-0.27851112714706044	-0.19023788241148046	0.5097933635577888
Si	6.102936196426951	6.125814783765943	12.064490205982185	14	0.09694429742777937	-0.0074893726870593385	0.031830540973965225
Si	7.832929574237374	10.868881356098544	14.031858363087863	14	-0.1334467938789857	0.033364205297433565	-0.060120412811554544
Si	11.247933699235896	5.018965072497902	9.319620941546942	14	0.012717201134516427	-0.16775279505518945	0.06708605134489973
Si	2.9804963966557576	2.834750835538281	3.446479823158699	14	0.04207459590103123	-0.380632859358022	-0.09240526809558995
Si	8.156442842027705	7.268457619911194	4.285002530602145	14	0.14454085622489263	0.03529844782978096	0.15761929765688984
Si	7.858770136195995	2.140841410825861	13.058985081650881	14	-0.10726574262498181	-0.1592246958187903	0.22728339630630204
Si	3.2752678442450813	14.571901000980564	5.638176943367911	14	0.0065408919344567135	0.03364882665637395	-0.03634205947922907
Si	13.506712570401257	11.470134307169536	13.181064383508355	14	0.5953124402744262	-2.625557731281367	0.5412495515971404
Si	4.69527950147485	5.201485066427515	9.110269231824773	14	0.11039452068907002	0.040076332846212134	-0.054587651273127896
Si	5.861286655977049	5.562914891315444	6.057088767674686	14	0.10974737347998872	-0.053370747125101814	0.1343291972248605
Si	8.15503323748573	2.9991461703688285	7.618646710093049	14	-0.09728779709855113	-0.005156608830088987	-0.0232543620680793
Si	16.41491709454002	11.164844157468396	10.60075291123737	14	-0.0638372026623606	0.008108494848150996	-0.0010994046348953186
Si	14.613421157116782	5.483264850269686	14.060247371907584	14	0.0390738588818864	-0.0072924260195359955	0.009636759850447015
Si	0.32322445475262696	8.098553878783004	3.421193913511122	14	-0.6042673429939699	0.04358100650810598	-0.0891332794651695
Si	12.178843759081092	2.4572426575627424	6.532246931074221	14	0.059661727622440125	-0.017273199761818823	0.03083629454666397
Si	5.758035994998042	15.01993371260033	10.909641737027624	14	-0.14027667805142702	0.14309126704539313	1.2325922613580333
Si	7.980442474227615	10.220627365107644	1.3841446881099637	14	-0.2940223484329818	-0.5061377660136022	-0.22346839023226633
Si	8.95578379435043	0.14317249950884497	2.5528709517228143	14	-0.08206788204540258	-0.12836140466626478	0.01489158490376566
Si	15.498815266809805	8.348219622012348	6.717722335690788	14	0.024738661169400787	-0.037036000805137026	-0.002026288102808701
Si	16.26048088656074	14.412128315736442	7.546495962128571	14	-0.0653562116855041	0.0956078368823664	0.08658068610332649
Si	2.3626498237821645	1.176906564709169	12.189129441582942	14	0.033190655688323564	0.029332969265973386	-0.18957093769143407
Si	7.292233825043502	7.296314950184233	6.778629066982855	14	0.04006450576173945	0.09216461263762409	0.008321896589723288
Si	15.752637620405643	11.048587063893716	12.825041598161523	14	0.16209533490873565	0.011870021931527636	-0.054374249531555605
Si	4.865226282365347	1.6558307844810312	15.963643441161933	14	-1.2695932951308162	-3.2265924235563146	-0.5496881763683985
Si	14.899165556294703	1.0849803285778425	4.620593434514622	14	0.09224303134988861	0.016898589716673247	0.02784918438571593
Si	11.371516141675965	7.890359062194817	0.7343662237552755	14	0.15167773037255966	0.3332358183337522	0.3150496190727488
Si	15.5813796939633	2.0376990547359917	8.263700783904849	14	0.32285086683514214	0.0026127572263344783	-0.552684028287435
Si	6.593883899876391	2.2855761263113754	11.011940627768745	14	0.06582081041685486	-0.11656465923636138	-0.11572005113869273
Si	11.319474001461591	1.7698348081649895	4.484503418362189	14	-0.05421509811223843	0.08985447450747104	-0.05196975183615313
Si	1.7208826392574117	6.805736467947766	1.9555366684588464	14	-1.611313246799993	-1.8678812755922498	-1.3830322616294737
Si	13.498305813627647	10.626478604374178	15.422186275777753	14	-0.04853269824417917	-0.06618179360380365	0.06576347476821555
Si	12.07166130242971	11.102810070739382	2.55814671261041	14	-0.13963004506340979	0.06144658893568693	-0.08959942085971236
Si	3.305077944488957	14.749657220771237	14.012742550154861	14	-0.004715664267683592	-0.04734407625467472	0.04624595717243946
Si	6.8318543560619105	2.919661868623116	3.496313200027907	14	-0.05881429130891932	-0.04464313011585915	-0.03130886370450719
Si	11.31319231789154	13.0856822368236	15.080321893211067	14	-3.401239637527482	1.4954710681585934	5.181633655280521
Si	7.488206598990692	13.882489511133743	0.2554518498824259	14	-0.058533012386895115	-0.08990281128748982	-0.010587811708369789
Si	10.500492121591861	12.81816095573487	2.7138825792593577	14	0.17619604781602374	0.2141797580421674	-0.17099470175336418
Si	2.3087943971663023	8.123662562248354	0.13926695956717236	14	-0.20235138801682614	-0.012110420278961483	-0.25516883327703205
Si	14.310144493763724	7.129871668359061	10.441536519287462	14	0.020816697114046906	0.13384094432456436	-0.07427974692014203
Si	8.725051714922353	2.4109488813885718	2.158145578340541	14	0.0806252348502675	0.027875152549449427	0.0023751870947527954
Si	15.919098953045673	3.175482939718515	4.259692006207036	14	-0.0036507124440782568	-0.12007601777208761	-0.05155091877950101
Si	3.0090429398596807	1.7251574004120573	8.563482153108428	14	-7.620383615758017	13.244397795765234	-1.4855167768011082
Si	9.835779069418196	13.628184708486287	0.5073247154737645	14	-0.736715776677142	3.6327738422595846	2.4885273308071594
Si	12.416285818686267	1.0560366674470774	14.369234656687963	14	0.1049340072101395	0.043072441875780694	0.018397287007787564
Si	3.3219209957332123	3.5403653931935377	10.012184760060972	14	0.2839991514529165	-0.006087606066514607	0.16997088761488122
Si	6.62753225975202	12.875636391221041	10.882170037799243	14	0.15571308017253208	-0.7954565343739052	0.5614656385084008
Si	6.591552062793569	10.701256566391857	6.09746844050861	14	0.001805944376872011	-0.05244283521506037	-0.16097921808925938
Si	11.370318223962762	12.936518507765575	7.6768491011229845	14	-0.20635742721614886	-0.10350524398373323	0.06323582112797797
Si	1.1148396583167814	-0.42520991770851374	2.093569608683104	14	0.015726165690685728	-0.05598658967782046	0.05500828410350412
Si	8.664163034445142	12.360201936927215	3.953381164974921	14	-0.28080378176103654	0.07649758236930176	-0.22780044558618381
Si	3.496583962250754	7.458631159339949	14.617500641274345	14	-0.10067394280518617	-0.02553313271332654	-0.0796289315387101
Si	3.205348833390129	11.79849832120675	8.995853321365454	14	-0.014391247808464843	0.028343350828248393	0.04027482217692757
Si	13.472071415708523	4.824889275093812	9.979826212955995	14	0.22304647184923002	0.07617593709375124	0.14423926557083927
Si	3.7028735973799995	7.228850850149762	3.46933215476699	14	0.2715809698671333	-0.5383462594696292	1.397253816486809
Si	4.914375369253178	11.181477162867047	10.552836202709287	14	-0.01416216232443965	-0.0016095119304126975	-0.030513877939517403
Si	8.564617713461216	-0.6392072507814719	6.607594314251464	14	0.037833300564914955	-0.07070873874098836	-0.027324164679341695
Si	10.564790765093775	-0.6616083120183511	1.0591873551311157	14	0.0902774213326354	-0.010900972336363826	-0.022091965352840356
Si	14.737024932338047	4.277396573614896	8.106360035716843	14	-0.1490845135466583	-0.27634651357802775	0.10074413398042621
Si	7.231873541146635	0.16638420643109664	10.167643300554397	14	0.25829555445686414	0.7128191525000898	-0.14721326309465452
Si	5.8666789266696275	6.554291898963477	3.993547509996904	14	0.7235810280386336	0.2034788176997111	-0.010547702465375479
Si	13.272099565779042	9.297229726209077	9.822695510613594	14	0.08449063458857811	-0.03821922347346918	-0.004822365138469737
Si	8.509667751071783	7.266762484297854	8.842659337644932	14	0.0211429703791737	-0.03197169465604137	-0.0008826604564068355
Si	15.854470471926835	3.427231090589027	14.062446289353737	14	-0.04436082275170689	-0.047856497544980225	-0.05802187664924968
Si	7.909404312851563	12.867421629478176	12.899115578399801	14	-0.09296731171857432	0.024668469994160745	-0.04657274465863029
Si	3.7763338499131573	5.952316915298228	7.077166570944506	14	-0.06013378255921931	-0.0028202454256704276	-0.025487367038627907
Si	10.505838444755712	3.015588821719904	8.187893925440349	14	0.035858691679041224	0.053273816454532226	-0.07192461444688639
Si	8.199454651864334	9.147581907116265	10.268151878658392	14	-0.02110568935203155	0.07244886282166459	0.04337043298238586
Si	9.377783948980827	5.217107226194204	4.734751710616444	14	-0.0780695561620403	-0.22896747029099906	0.014734747479236624
Si	4.410322774217941	2.5045981498471073	11.916923153547375	14	-0.1803470973554028	-0.06427069101933756	0.12499634202325496
Si	11.418692766794933	14.56053883352	4.109981829753811	14	-0.7557681813205034	-0.4740717117923115	0.2721409566058616
Si	5.263735762934804	10.199845954258342	4.1967028672738	14	0.03862520100352056	0.011926329138038878	0.13133848751646424
H	8.079272326549956	11.292775205305706	2.820866476947318	1	0.18051061965376425	0.9621667462217747	0.7814324404051575
H	9.916308677442416	12.339589547344294	16.115803605486132	1	0.12688019089132746	-2.0034363758337568	-0.9984656111316251
H	4.836228468790012	4.136923491418677	1.0344610207440892	1	-0.6549420290803645	-0.4266530734833524	0.3781972512882457
H	14.752853855984002	2.3422392751290033	10.40743853002359	1	-6.889125267233422	10.147443587777172	-3.5494198933330434
H	12.790228140236067	15.657644386731883	11.182788308418894	1	0.2682490744827534	-1.0259175597453782	-0.41737266883027796
H	3.563191469071128	0.7321492554942672	8.66418108526	1	6.2354698192552585	-11.430687909494782	1.6032222354680192
H	2.583867482797711	4.48937057444076	3.734067046435148	1	-0.5283562297481939	0.22693886819340217	0.3117645178051956
H	2.923171931621115	6.023740707718942	4.343593834643077	1	0.1473824418247203	0.39219511998272794	-0.028838545712908913
H	2.4713977783765526	7.844619938331691	2.6175355344713647	1	1.110943755572143	1.4812014336317716	1.2076278571415233
H	5.329747592864916	2.9409913678507884	16.499181580256362	1	0.245686596856326	-0.7342020070056333	2.8817532069127343
H	12.025085277150511	12.921769351044672	14.04669777388305	1	3.6265036877153394	-2.5326225583792947	-5.6359379380399375
H	13.396747006295643	12.83171547670891	12.419282253952442	1	-0.30685627774903296	0.4795232264026214	-1.3161418713994373
H	7.03018686380579	13.857592514497163	8.5785956080928	1	-3.6170780156116766	5.040034914873473	-1.0046347212367883
H	6.043017337002484	14.722987962312386	9.336478761639718	1	-0.33479339393669794	-0.4950948686635663	-0.9040826488237772
H	4.680274351379619	13.918976771891344	11.429790735965325	1	-0.38932448089278254	-0.18999928383777073	-0.4826915994886399
H	11.492481215961845	14.770635549600792	6.443564918667552	1	0.39821896263730283	0.747444742067588	0.4687168707420391
H	15.857379935085062	0.7739582246681892	13.57844650864087	1	-0.16310500796795782	0.7257518122604346	0.09596650607452706
H	16.370416912969315	0.9582078148576849	15.935085411075828	1	-0.09047951021079903	1.086179126239009	0.11347367642047936
H	10.581468077037986	13.935842796899962	5.372334388060834	1	-0.41919892493917915	-0.7536948419903359	-0.7922848188509706
H	10.798053240568095	6.193495493578692	-0.571283675459744	1	2.2967249308083684	-0.21107334859436447	-1.7432934822043664
H	1.658221696957929	5.461324905303231	9.43015920877846	1	0.6092282907091956	0.6333408877331403	-0.3325035675385741
