221
config_type=amorph dft_energy=-23184.09479975284 dft_virial="-26.89558816525585 -4.900005941038514 0.4315231569474247 -4.900005941038516 -16.92216043505976 4.113585234452087 0.4315231569474247 4.113585234452087 -12.453677650968672" pbc="T T T" Lattice="16.472860167371245 0.039040795719057005 -0.0009719016655799001 0.0391066873574014 16.406869691569327 0.18813710038284814 -0.000988374575166 0.187955898377401 16.254314075892456" Properties=species:S:1:pos:R:3:Z:I:1:dft_force:R:3
Si	32.27799753383376	-1.0602541161449475	25.951522246690416	14	0.3268288809864752	-0.35449577400499266	0.25444943800845465
Si	30.817413827054533	10.046339958438644	25.306976829569333	14	-0.04735564622861538	-0.17543088687274766	-0.1869360689593463
Si	35.7343977837909	-2.347687775682759	22.48206392130438	14	0.5455985762461709	-0.13548465195573503	0.40615159388155575
Si	36.49467692179104	-1.1427800985893912	13.827689764764065	14	-0.08429343081052275	-0.12141864897026891	0.11872593036847785
Si	25.13979327018	7.937193091890281	21.115023278900782	14	0.14391273519518044	-0.06068271354507093	0.2821253298955926
Si	25.21696720429992	9.233986658654914	26.707938487392628	14	0.2234956439486599	0.19428634484858562	0.5297780509902358
Si	31.187612818764872	10.827795021711724	15.320871712323221	14	0.41630720278560857	0.4663213719152571	-0.007061540761786699
Si	25.927417438093077	0.733509012631778	16.686474269719955	14	0.11785149744909547	-0.0229088055130514	0.034370278809207504
Si	39.37427165342706	11.02774814014068	24.062013625526404	14	-0.028089582733149782	0.3662272133597643	0.13082478067349868
Si	29.469144065124297	7.458241598383465	14.186580104043548	14	0.23053841564160954	0.25017986051381674	0.26992363537776587
Si	40.94866504524568	-0.012267375768768672	18.46324559225862	14	-0.2020855357267228	0.33083697707005405	-0.012278570566899166
Si	40.98365844707944	4.384012850823848	26.546253585223138	14	0.1320774231854748	-0.4362286410271799	0.5039579829231807
Si	33.53736629730973	-1.8828255617449339	21.713070614133184	14	0.0781320340213199	0.05974040344523665	-0.23748297111132946
Si	38.373975633593595	8.126516241763328	15.861939253297304	14	-0.1698019659953475	0.35976653991129626	-0.0606942835190116
Si	38.21311767148533	2.1665500145830445	14.017088690021207	14	0.0667574640849848	-0.2178975763351015	0.13273999702647696
Si	30.235859168899733	8.00876129487805	26.426563071461494	14	0.26386919656988117	0.08572373670012114	-0.08454925578987749
Si	25.01583297825364	6.032992282666424	15.214351289775665	14	0.024265834901025556	0.18266366324885625	-0.1805180758591927
Si	39.90793462154218	3.3107714927612193	15.089687604609978	14	0.05170467087764585	-0.4852115398129171	0.08078927136969294
Si	28.761543644689535	-3.124434881396132	14.495748613028349	14	0.1460251553262141	-0.001336974766477001	0.06146638644665207
Si	35.579715515486456	1.501270146165934	16.758073771235935	14	-0.17163285009382495	-0.11498034413808612	-0.28080172487678035
Si	37.08436919728137	4.6980029804445005	16.378788322597902	14	-0.018495760341549237	0.21512412502625775	-0.1627129144066352
Si	34.82083657480113	1.9092464614300795	24.388009211653408	14	0.05059806714785412	-0.2924758285829127	0.017104278142285094
Si	32.80701019957274	-3.1666434176285962	24.954548812720475	14	0.24225031459594804	0.26068154019396156	0.33190192889365944
Si	32.68270891841794	-0.8416964936294484	18.1084718330847	14	-0.3222818812277934	-0.05671164137810222	-0.09230550920916819
Si	38.796261965415184	9.6421046409415	12.30245647702323	14	0.024269434448473765	0.08662902288334526	-0.10192941353301446
Si	35.63335789826264	-4.707707171481672	22.684067916976808	14	0.4325984974256628	0.0005301619170145339	0.17163182165169688
Si	33.3618688604523	10.741717479960517	22.385050014878964	14	1.6624468751860342	0.5179399107646779	0.8415433401270274
Si	37.41044879524727	-1.7986473464690043	20.93640916754966	14	-0.15920284142356902	0.07932065601082434	0.02833563751228795
Si	39.00536084324634	3.3455210955330976	19.380671345837285	14	0.06227319929611453	0.06587326096538587	0.10750228431443543
Si	32.75596559463828	9.358643754656768	24.224250370167027	14	-0.13804598707566654	-0.014972574721350324	0.24156074414908432
Si	36.25748843853366	2.957043763346018	15.028494040079533	14	0.2304759377823299	-0.07599570261080886	-0.07253190952350537
Si	33.93325808610152	-1.70828849551637	27.54969428349659	14	-0.014772028506378772	-0.3453269553228126	-0.15906245907308897
Si	33.70639976444558	1.6835297124084616	12.517811765915193	14	0.33286043695701056	0.01600667328111388	0.10095007951657006
Si	41.56492482931648	2.131225507266612	21.565931291128223	14	-0.14063791834890785	0.08308501131005316	0.03971303566447521
Si	32.929642774986455	6.628937674635639	19.632267035818668	14	-0.01838211748639869	-0.09204994134034548	0.02267869158689815
Si	27.595152924790387	1.3401370864675795	24.53312071948832	14	0.05469795169136225	0.09493446439901962	-0.0656652585449859
Si	36.09755790123509	-2.674516891034817	19.227021928963897	14	0.09108911928220614	-0.21371541642134864	-0.037688033114326586
Si	36.999452995655986	11.273151663408647	12.43285273472488	14	-0.1410518663054517	-0.47321810482602233	0.07372773060790623
Si	26.012747109749075	-3.5700369694458884	24.715843174490217	14	-0.10264906591212392	-0.31963569963229693	0.07750057055469153
Si	31.069528413687877	7.745639510059275	12.380645142373654	14	-0.3227943025180989	-0.17613408417780818	-0.29824230359494086
Si	32.4947942023145	-4.133161736355758	16.42927614318834	14	-0.49211727159230273	-0.009655271808752081	-0.04605852359460067
Si	37.352839735842764	3.906397310284465	21.16818959458992	14	-0.20829501218541244	0.05041037645948331	-0.05985378918985519
Si	33.5012099080592	5.84407930824207	22.945583593110936	14	-0.20718917978721677	-0.012143844648123405	0.09808432552673303
Si	25.382198723903297	-5.268178152657221	16.73309260384862	14	0.005710682026580899	-0.2342346366498544	-0.2581906533598021
Si	29.965210911691067	-3.7299230298885755	22.220897470853476	14	0.11640962158555644	0.1082034247352398	-0.01179854520362752
Si	37.689634961494406	-2.951003147400795	12.849875971933711	14	-0.06508984517433675	-0.21719617880376507	-0.3691158501869507
Si	26.63381863070997	6.529691688961304	24.59470963384883	14	1.7495440963481785	0.7877768998931548	0.20378400790121262
Si	28.118933794444814	10.233864266584888	20.377379565962894	14	0.09839080128089467	-0.18298736540866287	0.1311153155746754
Si	27.639965828028412	4.927317412919723	23.20620808483646	14	1.0819555715296016	0.16985364521228247	-0.12104069648820717
Si	31.65034014362034	0.7619363127045109	19.48785562664116	14	-0.06958388016342358	-0.029558455202550373	-0.15944555376579103
Si	35.0477410206039	-3.004912391312266	25.889458912533826	14	-0.49967426434928197	0.19875518300553502	0.16770137294878654
Si	24.867314872716324	0.7978143097830367	11.091602079569281	14	-0.07347576228653173	-0.0677002884058831	-0.15414701992202987
Si	25.79936362813457	-1.3678247528998966	15.642810020819168	14	-0.11333226562787121	0.12071699432840052	-0.004608706286365431
Si	38.9319888566589	-2.007515603565959	25.197670838010765	14	-0.0678391280931711	0.05713613086645867	-0.04514603831648012
Si	34.95164465524243	2.731954632179631	18.62716422096798	14	0.05072045176109317	0.25669658405826407	-0.1354010910328302
Si	30.39518515041649	3.9775339230410793	13.182640276609643	14	-0.2634007411805501	-0.38465638207352176	-0.1977498808253571
Si	31.137960174690452	-2.299965756611827	17.130160558384848	14	0.08348996039797649	0.23606526363779984	-0.008740472535843395
Si	26.81224824547373	4.475925097150452	15.192961216678114	14	-0.10898375519990476	-0.2591165083855874	0.1273478749490624
Si	32.62695141405091	5.621105298666538	15.953370490663994	14	0.07892701978630969	-0.00768246269660246	0.07033155759052263
Si	40.55784032344258	-1.0555988718959155	12.178110719012555	14	-0.0673616738352196	0.1262857513413092	-0.08727411320817043
Si	39.581100564317246	1.107149195154657	22.538493520382524	14	0.15359268961500594	0.2526792319955327	0.2374780860112212
Si	25.68683883004288	0.005749045445548901	20.48643846387767	14	0.009158791371431486	0.18868493479811105	0.08875584120417176
Si	32.60750514428452	0.2740021416003944	21.635573810985377	14	-0.16109903159717825	0.21528481910876704	0.2677811333144865
Si	37.03113204808102	10.763639628037698	24.619512893812622	14	0.04425566454411284	0.03157548732620655	-0.24791883049527852
Si	27.299282995714446	5.8175908696276215	11.868451317322087	14	0.1307365917610176	0.20329935454836476	-0.20515337859472352
Si	26.878060813852116	-1.9554068486722491	26.1932078342648	14	-0.24037623592809215	-0.07473817499872444	-0.3814345299968442
Si	32.76606348821456	9.435918173525163	12.092178138865705	14	-0.33542202918747416	-0.010028339190705568	0.02554573112939527
Si	38.61932644355088	-3.1652547513504876	16.754212521228958	14	-0.07248357274348657	0.0630399029025827	-0.09922023985717444
Si	38.17121058949829	11.055079991725938	17.556054457405793	14	-0.0341062262928283	-0.28737655540146306	0.3997662538189679
Si	35.82108152861487	3.955404216303112	25.165583257428004	14	-0.19769845871895417	0.2754782513114138	-0.06245394800012095
Si	28.029087250980307	7.386345584494931	26.3760933710716	14	-0.26592505238387154	0.07796696905976638	0.37405828594387136
Si	34.78467853825964	10.14438671629511	19.02283527277131	14	0.2270432550694002	-0.13290506198803045	0.015390122225342374
Si	23.012134147838783	-4.9988510227973615	21.53992386147369	14	-0.10109251875130626	0.052390127555997326	0.11808726780695307
Si	25.681430773825763	-3.0058546417405916	17.351073806971158	14	-0.059533943688028765	-0.050452285476201716	0.23106035002159955
Si	37.71301825665187	4.121500563659758	23.61158662225888	14	0.027190724313226007	-0.24377215183494372	-0.17327552928286755
Si	39.60162580966153	5.328319098265114	13.949063809885407	14	0.13072245068175678	-0.11110208887317477	0.2209438219184129
Si	27.51624768787297	3.977575105315044	17.3897769080437	14	0.1577555662388577	0.2503958333607092	-0.051490240693945505
Si	40.270641733972774	-3.949600810255929	25.435954769755618	14	0.09554175947563859	0.05514686668026011	0.008370233369742072
Si	28.0167737510647	8.649631605870479	18.586126908607092	14	0.021833055047101445	-0.14439893121122044	-0.24517751800293666
Si	36.69857530206587	9.745254706187742	16.16559427944364	14	-0.037086137358879924	0.08619707718956039	-0.2135169270906332
Si	29.58346441036087	4.981122877500801	17.829514640280806	14	0.07320502489632014	-0.042316279801125144	0.09595930697963063
Si	33.80626677881131	5.406324914319132	13.914637076141416	14	-0.20476719857563727	0.03754610810065441	-0.130135724447699
Si	36.699716874700194	0.6272818078748535	24.888421611768994	14	0.050370781437553025	0.024399532377673255	0.0727702509866831
Si	29.96767525896515	7.376951084157978	17.992122025387115	14	-0.020781987192224908	0.29008264375091886	0.008392344875495346
Si	36.652716369069125	-4.960714589814582	19.115744130127872	14	0.08616262437827041	-0.046423877660593714	-0.09612514327278018
Si	34.015169629018395	6.575921262423735	17.58272080344377	14	0.04821696651086499	-0.0029153763225159067	-0.08944823986688764
Si	37.049415330430634	8.562771600913932	21.8924012970513	14	0.19020394382125452	0.20551821843965248	-0.28201862902480646
Si	40.53699220907042	10.919499709377542	11.321590254046574	14	-0.1371926372199094	-0.1443428811152412	-0.09976094330600159
Si	29.30623852035448	-4.326202821922389	12.55417077195363	14	-0.05318459909992309	0.1512388426944104	-0.12617185137562667
Si	34.665156048175774	6.8345080552334565	21.18914148829248	14	-0.28320210880367064	-0.2384833881913991	0.042608614476025986
Si	30.156822148705626	2.5165696920504144	27.71133635610115	14	0.046838082727669574	0.017703345681879597	-0.17509047252836007
Si	29.253484027404994	10.857304591944263	23.74669577939311	14	-0.038602832387235275	0.14096084917711843	0.08779321937230833
Si	25.869539870262315	-2.585839924150924	11.993292909911304	14	-0.11000551245413161	-0.06061792169100321	0.05623213023589461
Si	27.72227766264824	10.39278336723487	12.798803363052967	14	-0.1568664780191505	0.06508855962167667	0.11189527486444044
Si	29.214077533093125	-0.313906117781763	24.097552280667454	14	-0.1008811738939901	-0.0393690217726394	-0.01651858035035536
Si	37.07224678311697	0.5526298762125657	27.185947730471117	14	-0.1379423715312646	0.14937864799528322	0.055402177438550804
Si	29.404025006239483	-3.5945601899467157	18.114827081603014	14	0.4679008019134241	-0.1268123137108756	-0.019513660937795864
Si	24.589453128399906	10.184302223513189	20.442612287923847	14	-0.27181339778807473	0.4178670923833424	0.032072739095123176
Si	39.56884636687615	-2.752652843074565	20.678591659617606	14	-0.044071059182126206	-0.0032719886304204454	0.11576221726594316
Si	39.86826456067694	9.265430148472863	14.399970174821888	14	0.04531881659399407	0.021815057309860407	-0.00016969295112977324
Si	29.48749488640321	4.330798763696911	24.525726030375118	14	-0.20472528955891886	0.07643484739949016	-0.4407617568171331
Si	26.083674516553945	8.293334102559845	23.199594211637642	14	0.7488143698716309	0.3150743016838222	-0.3654173151839177
Si	40.75266707240835	6.00405596968748	17.41700992217144	14	-0.20091799680084357	-0.08207893779827923	0.19052301799148488
Si	34.80964652731929	9.164382026489806	21.160376493573235	14	-0.3753991173683286	-0.0409785337030521	-0.15323324909124925
Si	38.30571683814167	7.382026387601456	20.163027477264723	14	-0.4430952920056994	-0.6244662034995851	-0.10658439971514257
Si	34.20239413021018	1.9474850264522936	22.12285071299701	14	-0.07797853903370705	0.16979810933736728	0.17029124733777165
Si	25.369886871278645	7.206047941784108	11.938187732763884	14	-0.027190981423758025	-0.28826101563159395	0.013619916212420419
Si	25.4246724739801	8.016885733885916	14.115194750352185	14	0.10818722677172289	0.004618733597114009	0.016437333422238683
Si	37.30284939712182	10.81137317814534	21.425445376305085	14	-0.03535269815203609	0.31332749272931365	-0.005329644218134953
Si	31.36577392510238	-1.0000604572263794	13.473421723914438	14	0.07508938798545667	0.07463995877549479	0.24559583683852476
Si	35.18311539158247	-0.13341409473782392	12.149442914459865	14	-0.029322941955224807	0.13765877861445225	-0.03390130919881249
Si	39.40945449372105	7.839451082861156	17.994581430788323	14	0.05499645701903144	0.16270314420641865	0.04851778583332231
Si	39.68531148494083	2.297924763114109	10.204605084578057	14	-0.017886665491206155	-0.4309280502991627	-0.060975048219971774
Si	34.942815175704276	3.5250642789848774	13.166902058791083	14	-0.08318348464381482	-0.03918133108426859	0.16463532985450993
Si	31.88361466356006	-5.980379456739379	20.176976737102237	14	-0.6334105646873164	-0.2925640174953938	-0.2872482572459877
Si	27.481517852592592	9.658024060765507	26.898595942942148	14	-0.047517625863784704	0.03594070993875395	-0.09707285269378677
Si	29.83948472385708	0.03914622234040804	11.927244778925838	14	0.15922212471347016	-0.1856859975526903	0.05958767978921986
Si	40.768365755243906	9.154331904351327	24.545513289369943	14	-0.4644110406623871	-0.083047730282911	-0.38363822436674305
Si	37.5456732627486	6.267406727949503	14.727273709970026	14	-0.27376975182617536	0.3809269938066469	0.3717831148460723
Si	39.02118801477667	7.4270946209380675	8.722949231856292	14	-0.461389220579617	0.11592779644856069	0.17349407323508012
Si	32.69850314412909	3.789367171420976	22.17361527846849	14	0.10073590644340172	0.02726451503591426	0.012982796314087724
Si	40.811626910398914	-5.051033905784209	14.638764766763911	14	-0.0611439698395055	-0.007802019093989344	-0.02343511077208571
Si	38.27523866082547	0.030959186276116345	14.887504054223063	14	0.030051850313486797	0.2591548178548576	0.061882134176920005
Si	25.955100162652517	5.098482474556011	18.834645459077787	14	-0.11154303343558014	-0.22798607939029852	-0.2126196113339015
Si	35.622400118805956	4.993749362698547	18.152866324419236	14	0.06708296601851554	-0.10753262335721317	0.05444264093307155
Si	31.618382699023307	11.457356680273293	12.838140671144574	14	0.15080741122168953	0.05050782135111693	0.07630346391763058
Si	34.343341286501726	5.7275186473017845	25.10465655403285	14	-0.28928637243326905	0.12493643526929551	-0.0344188726997583
Si	29.906768323061502	-1.1218973911070924	26.224038531846148	14	0.015416604610139896	0.1308011265045533	0.015896372862879527
Si	29.059349140641846	-4.870718142872842	16.09485301651709	14	-0.07040817652906306	-0.14143830343506994	0.526795568818864
Si	32.3714285824242	2.4646816741451585	10.676102586497164	14	-0.37089685484221724	-0.19940772953578859	-0.1008150964872623
Si	29.727541419473777	4.52174284787323	20.098025376037974	14	-0.2396385858117416	-0.1852242270371917	-0.008768497583833008
Si	38.52152677933821	-1.5068264585693254	11.162536075537986	14	0.19875081212649076	0.00841831303922884	0.00895464560901173
Si	25.614942816154347	2.3916407930403905	14.859837802573207	14	-0.20660708154273522	0.2071899511188128	-0.14173603743114307
Si	31.235147046666526	8.188007965957281	19.862803758185176	14	0.09441047313477344	-0.14295885512140552	-0.0706364906814922
Si	27.571909649364397	8.881374145218691	14.577024301635207	14	0.00745414854417331	-0.0072039799965229025	-0.21918390032677157
Si	29.052180130389974	2.5248012049705886	21.130909752905616	14	-0.255150321318727	0.1494526958285035	-0.0965925702199831
Si	24.97703598159646	4.883998602581156	24.358527645367165	14	-3.465280471731198	-6.58689517928693	3.409925602630538
Si	25.796284841332927	0.04836940441766544	25.375342698933565	14	0.2548536157647819	0.09257393260459167	0.23197849173142443
Si	30.589863643195983	2.9774421672864855	22.918408234166748	14	0.3826753454243476	-0.20955074002377275	-0.04410962576192843
Si	27.11027612570545	-1.6900183914944265	13.736232170742037	14	-0.3590869967751811	-0.15194692509957916	0.25321582167584755
Si	37.55869839235833	0.29668533810045405	17.125838066909456	14	-0.12365345371454164	0.0614720428783564	-0.243116777088838
Si	32.74059966457637	1.1149392340979236	25.21065478534653	14	0.09150666678619819	-0.04836943305634977	-0.0077236003817248286
Si	40.02765643383204	5.810976996428803	11.728275093199171	14	0.15982813423742906	0.3335340665508894	0.03473588998573256
Si	27.133178411903003	2.6662886726965604	22.60090278564042	14	-0.09450431847895885	0.04094330956016607	0.2453798639916323
Si	41.215769979602385	-1.6195917611409731	21.909623724023568	14	0.1403298999315541	0.12540026266905024	0.009937836283436354
Si	31.196720690475033	0.794037071614944	23.46199942488942	14	0.08412373785939298	0.2908987125795339	-0.10890353671391614
Si	30.870955725082233	6.08172903296786	25.24238160920936	14	0.37870298770471883	-0.09624881343867932	-0.08528124947452365
Si	36.01801186813478	2.062411574761638	20.683518706874807	14	-0.17019148845134993	0.17299476458190735	-0.035066791240435616
Si	27.99149277672291	0.42390891341582165	13.302767322475319	14	0.1732071378813516	0.01653992052451259	0.3302875318631385
Si	32.52894254388649	0.8737148879919511	14.350760652015332	14	-0.21147881190335183	-0.09212218939984164	0.09097984730609986
Si	32.26470389579778	-3.5417678093051825	22.716386118293777	14	0.04805421554409961	-0.1187547267480635	-0.018987098568229534
Si	27.43467219231164	9.91780678681118	16.67690186195947	14	-0.08152897837029954	0.12351564246938171	-0.21995574614388005
Si	36.95357923704062	8.444156768148261	24.2776143607712	14	0.00271020211796809	0.0963891957891594	-0.11056652763498791
Si	29.22437145429348	0.826032403904026	19.430877479673804	14	0.09832909475321112	0.14735595943992275	0.12976239995521346
Si	29.105305263805146	0.924967051587184	15.386483311204659	14	-0.14599173095705217	0.007705345533951778	-0.053732501643646645
Si	33.12518115364634	-4.620445227531224	18.688926100879144	14	0.17974468737889213	0.09040391971438667	-0.12152483561999106
Si	40.002811991594285	6.231828537825444	21.315493646690744	14	0.16029916073208017	0.13079032786220868	-0.010194175483855117
Si	40.95448986607533	4.152573413012019	20.404965100355778	14	0.05467275485922479	-0.17973928805771983	-0.18596290559567025
Si	22.042375607796036	7.445796315191165	11.090697716833002	14	0.0034077429913242636	-0.3401667469452754	-0.04650358192551831
Si	36.7554233130475	-1.8893966053788291	17.1922255398324	14	-0.11913962121448968	0.28678982916740525	-0.026073321941089658
Si	28.2298788405072	9.206180387273577	22.46557783339061	14	0.17594099416826509	0.04134054533212895	0.2505429005850216
Si	32.567695063687786	4.793924732964361	10.237560787496008	14	0.16244809055865997	0.12359586095537033	-0.08786212499488828
Si	34.160577649225864	-3.740885751218125	14.797655863467597	14	0.006642707705134577	0.1948571302296585	0.3121486409400257
Si	39.21777901235911	4.219359530346945	17.196207042079358	14	-0.1576236685359341	0.12842825340458863	-0.16372747256596565
Si	40.253050313825774	10.020492316007093	18.21745330832442	14	-0.07002071095731674	0.4398017060905898	0.023194712424651865
Si	26.457896192785217	-3.1474014119410727	22.442975354147524	14	-0.028607146234095587	-0.24431799749441116	0.01959182253952836
Si	28.55694022388442	5.339719998989653	13.776345352875149	14	-0.1539495590334425	-0.17230930790355592	-0.013686507840212254
Si	39.43828043820576	5.764548100760379	23.556786193938798	14	-0.9903625156046466	0.21650095192519705	0.32803138694470846
Si	29.116559555634367	-3.315438268046962	26.613011698611764	14	0.17767571892776898	-0.048054986875695656	0.04309301071834188
Si	39.32606862539621	-3.2558606959469136	14.546231491745912	14	0.2708664596986642	0.16597024773673083	-0.6078602055683449
Si	36.29471721419825	4.097021820014814	11.27338557872477	14	0.2960380950039778	-0.09674015166535961	-0.07630089281231044
Si	40.15088697586374	-2.2681417425824404	18.370455339851073	14	0.43367527633374087	-0.08728696873477117	-0.0034136565335606043
Si	29.907214738911286	-4.75909606022647	20.10494893993701	14	-0.0011945355317407975	-0.09156374532430549	0.03404786220206093
Si	35.13982952706307	-1.8018513273835006	15.56098578432309	14	-0.20444761018434285	0.06580795489025411	-0.05431357144600011
Si	26.318864835878532	1.9038400525039216	12.599471273315407	14	-0.33196492097400304	0.037044228342161506	0.15361531534182324
Si	38.56156748066914	2.059079105152369	24.38352199108215	14	-0.013081783868913427	0.031088005757506466	-0.0750796177852401
Si	36.402598299077624	6.487285477813806	11.475201783227917	14	0.2711536521629247	0.26320508006568694	-0.2975077388049745
Si	27.8852490990564	11.49931318098909	25.501169371516028	14	-0.09414873461318236	0.19488027017753987	0.061159139360894364
Si	30.014637876904164	-1.3133373098619534	15.353718694037907	14	0.23492523553884617	0.02655926084659764	-0.04233222065411006
Si	35.33021682689539	7.680449617663243	25.8851776033324	14	-0.043594376255770756	-0.27759298543723554	-0.07179194541236675
Si	31.359026621335914	11.774051661647983	10.296868203878844	14	-0.19676411904561233	0.10675229289254824	-0.04239855517136989
Si	35.513487829786506	6.990292361189204	13.593405455466714	14	0.14869627664331594	-0.13733019135453733	-0.15310752204109399
Si	26.67156465573556	3.707383147701915	11.103274783301991	14	0.18742303630698234	0.04680800079542384	0.2505238744056526
Si	37.920695522385756	2.6196472764944767	27.964294355705302	14	0.10716932617547627	0.030626235242007877	0.13829461296012488
Si	32.77641835918039	-2.922612087729152	13.048153795457763	14	-0.043449623026246414	-0.10509264440839267	-0.07731005165046856
Si	40.247309504835016	-1.124238191559277	14.478672794951398	14	0.04766006509852091	0.0036666532970631755	-0.01335097859593293
Si	27.32953055229644	-2.8557979664479305	19.000914771985087	14	-0.07565220294003706	-0.014218212420418876	-0.1474765442794377
Si	34.05236051699094	9.445742616802313	10.046405850076988	14	0.09719703708074992	-0.25587151636102856	-0.2203560672422271
Si	36.59840683345472	-1.7200600367065968	24.570909574078833	14	0.1262505271984232	-0.17469683630384542	-0.1822273466760271
Si	27.89404398548442	-0.918369651297951	20.30498771749582	14	-0.17206196757175765	0.11861305884492333	-0.05130563533195888
Si	30.01327556728139	7.741134169287477	21.830262187510616	14	-0.07220152248986633	0.0199484348474329	0.47763217843965255
Si	31.08393232582996	7.409317056912748	15.913387444516612	14	0.14938584709017966	0.0359224550909809	-0.0484550508635107
Si	34.629556443269244	8.837828008727836	17.088615880408703	14	0.09552761839637777	-0.004903869177118432	0.22015783502204367
Si	25.63506118063185	-4.806455675286507	12.706072413119935	14	-0.191167079874182	0.11233621942684585	-0.3023956671291081
Si	34.27784499798739	9.033998947115824	13.81462180558941	14	-0.01467406939368113	-0.018232222046234058	0.3515659994926839
Si	28.437857560486506	2.948158275915276	26.10317844150389	14	0.12840819878309148	-0.14383380226185188	-0.12584326411571176
Si	26.864131321506107	7.00620189726746	19.8311345895059	14	0.07118979254638806	-0.018093125248414048	-0.134997684608099
Si	37.842383310213435	0.49362720865707266	20.884305354528824	14	0.06862254388422022	-0.05917578871693215	0.04238518542370512
Si	31.43211527387848	3.794468831519791	16.81407836924676	14	-0.0038877683545959106	-0.23414207685832908	0.047777564611651675
Si	28.470841267350753	6.068425511186125	21.302684312196593	14	0.3463703098617287	-0.1313533999273211	-0.03425535040139688
Si	32.673859671388286	-7.329670539063954	15.457148798747111	14	0.21596101980796595	-0.1058521489199644	-0.06245394800012095
Si	35.80243748954532	-5.347776899068215	10.161507011227943	14	0.014449097678168175	0.18867362193470238	-0.0317865750729907
Si	38.921678462548954	1.055086564407788	18.883670485296978	14	0.04262352688688284	0.06159185638627528	0.15016180667580034
Si	26.37492214720003	-4.574533581223805	20.45566871606179	14	0.33389376418517813	-0.1474783440531618	0.14066800028115356
Si	30.862519948083193	2.455010428927159	14.94849170738368	14	0.2197104626963379	-0.030554244293043726	0.1429760815270505
Si	36.51147434769599	5.829472779312075	20.13740057182163	14	0.2796740380833634	-0.07698377838534176	-0.022148786780415628
Si	32.585092103501665	2.7621774793972484	18.621896184482345	14	-0.16117487920412263	0.16152017864861853	0.15607200647522473
Si	40.458068851952454	-0.6280774494078623	23.91524823756905	14	-0.02773862685694957	-0.12142996183367756	-0.07691050188371754
Si	31.740470021129727	7.312257026340488	23.412982635125022	14	0.2270206293425829	-0.24395521453373822	0.0072052655491829775
Si	28.026678911598818	1.6048814528805857	17.421457607759688	14	-0.16314563143201613	-0.012436179323024243	0.010284678391124331
Si	33.78639221339568	-2.4602059846106146	19.444240303930044	14	-0.027908319808079333	-0.051663790303055505	0.02446072468429278
Si	32.05466770941116	4.507340583022104	20.072128314877666	14	-0.05819619758995572	-0.10175740658709655	0.2168490795855451
Si	33.799021993175344	0.042274427870808436	16.19786306203185	14	0.3443206247005066	-0.2274667161156286	-0.07170941293158999
Si	28.494455183242426	-1.8858483406539832	22.40758330790179	14	-0.05329669929188154	-0.0404108336483634	-0.05933853968369751
Si	35.65719419843372	10.856497419374543	14.325891500413197	14	-0.10471443481579887	-0.10720789275527848	0.0642676056929534
Si	32.04125711371712	5.571166025965317	12.401799652864124	14	0.046395081281008055	0.08561163650816268	0.00924029541008018
H	24.476231526232723	6.106631130389167	25.182024868485886	1	-0.40841673766860614	0.5922438260748294	0.5545362525600697
H	31.929200146257678	10.148063469714726	22.082999450126316	1	-1.314902598635126	-0.6305864626036657	-0.6224666548921061
H	25.501391755795442	5.816913833043633	23.709672915098352	1	1.9373265731789173	5.115155670343836	-4.828274566937566
H	40.14522029496612	9.074061063229221	23.083816013902698	1	-0.12319553985702328	-0.07467981090795707	-0.3411177988031982
H	38.11865212417288	-3.1010664118572904	18.318405887431876	1	-0.07555115850095526	0.07624098605835099	0.214885269342016
