245
config_type=amorph dft_energy=-23512.80582120629 dft_virial="-75.23469065575205 -1.246783192782762 17.92704765544923 -1.2467831927827622 -88.32793162850305 7.549292406784944 17.92704765544923 7.549292406784944 -85.03142072719717" pbc="T T T" Lattice="16.40961835988806 0.0785046347939568 -0.031326368691819304 0.07825848731864131 16.439041188104106 -0.007072637457398701 -0.032557106068396804 -0.007548522576342001 16.291090145607804" Properties=species:S:1:pos:R:3:Z:I:1:dft_force:R:3
Si	7.891186117711878	3.7787050705920295	14.74826566704412	14	0.6568397619171658	0.0006661733884503673	-0.042893235834966376
Si	7.297191235196357	14.725275492849653	14.296522692479764	14	-0.20056884069836747	0.199276088943397	0.7329377945197164
Si	12.060599434889031	2.975483193075165	12.93759499272429	14	-0.1891497906399938	-0.16739181186824068	0.47219094825062313
Si	10.338765025393734	3.5887235261940207	3.2800545921483835	14	0.19556315575057115	-0.19348056044125123	0.03714912943922355
Si	1.6544818963163022	12.744362660668946	10.471577998158134	14	0.020497880054348543	0.03185496647450664	0.040863091074177446
Si	0.9275575312313987	13.128506974578992	16.013806655648064	14	0.5214011327466613	-0.5161357661615301	-0.11232104990545697
Si	6.761887756695064	14.765884903327205	5.747763440361541	14	0.12165390510706248	-0.1006328051200638	-0.1148361051296258
Si	1.6442913908382406	5.270260312013833	6.338208876283012	14	0.44653131715554534	0.0816498203203465	0.06081486835852654
Si	15.440575133166988	15.52273095551146	10.952986666447513	14	-0.6677260789532047	-0.382126157327964	0.044543114118905394
Si	5.174228335994244	12.46666892491701	3.154806551792013	14	0.5726949409941475	0.6372785355309472	0.4346805785139188
Si	16.833428518953614	5.360468438767458	8.337979887039223	14	-0.10729633877829158	0.24442546969679335	0.07976751411546609
Si	16.627068321548112	8.903610375482554	13.438775867214177	14	0.014627532387386451	0.22405280247153597	0.26460916068101975
Si	9.960500354177393	2.824406077642355	11.89675547040319	14	0.2422516001486081	0.14665301924539426	-0.2332990114238525
Si	14.337127180007808	12.364373316142228	5.22119655625078	14	0.20279156124763548	0.017842442479699606	-0.030238769670261557
Si	13.24792624271989	5.941176280565448	3.088205608904314	14	0.1495583682571616	-0.30593530782335593	-0.22333906363466288
Si	4.318337462692538	11.62646256874241	16.096628717159053	14	0.13112097200637973	-0.024905268794146382	0.009302001937763735
Si	1.3186776645918845	10.086734625418192	4.409864939913853	14	0.14055461453653503	0.4424864542658884	-0.08713707329460653
Si	16.411174011932058	6.782551016756215	5.21657882961386	14	0.0530807264449891	-0.38871461471084345	0.2251447509010029
Si	4.954804271582164	1.4373798230880312	3.614391784919921	14	0.01729222594118792	-0.05392173499520954	-0.17576693033809104
Si	11.06357580415726	5.986057170231308	6.028109004914207	14	0.1439536157697708	-0.1547430021352402	-0.2661117146301143
Si	13.246597046353187	8.761927888690952	5.917032495203336	14	0.1520849934552711	-0.02728765498379559	-0.3101136110791285
Si	10.754814975054174	6.294607953488793	13.1693182259863	14	-0.18584489186147546	-0.028200140261916144	-0.34730876330358273
Si	8.795528660054687	0.026206501205256902	13.799934929879262	14	-0.03241649587642698	-0.10867470834042298	0.021444561033227068
Si	7.52603126103084	3.877405285244039	5.647120301637708	14	-0.04027610772958764	0.08175652119113264	-0.036895104233592914
Si	14.341493836219906	13.998930394823324	1.6954621689899956	14	-0.1505513291318028	-0.31934850716803637	-0.20685287921134138
Si	12.417677372413383	-0.5254707073540231	12.663852744442753	14	-0.15911953761119627	0.9287164088961161	-1.017443453720702
Si	10.267205031370011	15.367185442910088	12.250495648162264	14	-0.09835917668545685	-0.024203357041745956	0.0066565916738633765
Si	13.440183830772984	2.7457980609087653	11.042075642680038	14	-1.10807594469805	0.7414872339302728	1.0427940379562983
Si	15.997401746909869	7.498766325681726	8.82235381191457	14	0.06657800093363846	-0.031807401026083905	-0.0026906617175349646
Si	10.185973082549559	13.10470943666549	12.744945209693858	14	0.88975362176406	0.35919189787224315	0.4354038304404765
Si	12.011043384175347	7.405845653750125	4.430812090063203	14	0.05762206977196666	-0.04688256284970813	0.12173540914571117
Si	9.459816697587641	2.7745070614463967	16.19566369237749	14	0.031021157019182618	0.0731695436429021	-0.10204177083550495
Si	9.85005070003699	6.293327986617153	0.26712908611139324	14	-0.08755436368806657	0.074209555744902	-0.14435933618929017
Si	16.40744898013895	8.441865608504546	15.723879390372948	14	0.14261972632967795	-0.1377258844633081	-0.045215972381188144
Si	9.294407235158793	11.021171158093075	9.366986279730321	14	-0.31056535428387855	0.14948689152926148	-0.2069276983761577
Si	2.724463638731587	5.431782285315865	13.855662718290692	14	-0.12864396914094908	-0.06758330311381636	0.04729034015348362
Si	10.524540729930186	1.5484136672365156	9.960224669005038	14	-0.3582254193823995	-0.027799304942505057	0.44628500526587506
Si	12.619554403801807	15.484123544499807	2.2898098628868016	14	-0.162118731967149	-0.0370146606309798	0.31098213045627454
Si	1.7476979452182821	0.23041044672699573	14.199499562626237	14	0.06763061145170708	-0.010589611482093893	0.07498397266733059
Si	6.241454867669164	12.04192504642843	1.0778797944065746	14	-0.11998088687524212	0.2463350296180673	-0.15118484948268726
Si	9.891070356306734	-0.09286323752069431	4.712404801824135	14	0.29504307724508055	-0.04624749983563156	0.6469440917609798
Si	12.164429362926617	10.02673043486895	11.833820483914524	14	-0.8113593350000851	-0.2726513210119109	0.6556051171424306
Si	9.332530556135657	11.019408742169817	16.076067198054368	14	-0.9722205393551495	-1.433455493615558	0.4330435557565805
Si	1.1402387958030034	-0.7811719866781021	6.268019103205213	14	0.07714087292040281	-0.38701331432050146	-0.35241703535365293
Si	5.52835250381481	1.2630466941874128	13.605996975061347	14	0.19368419198260695	-0.014482779157862115	0.27319588111871834
Si	13.176714137127949	1.1054040050963538	3.113511210349916	14	-0.21711801720203258	-0.17395841485589889	0.2408567755124278
Si	1.3828597982888169	5.983214987382998	12.000290021470397	14	0.01871687539908197	0.1259895600084282	-0.3432194202918872
Si	4.245620575534833	15.326863204487072	9.12518905079523	14	0.14374458490724276	0.05894258946439471	-0.02034515639833175
Si	1.012174828329024	8.983234160797611	9.881670804716018	14	0.10328464314726453	0.15158439924943828	-0.021761064098137297
Si	6.8256005692057276	3.9365102170167967	9.36594753738449	14	0.15790263346317016	0.2981260896344701	-0.2975799868644706
Si	10.340110631592125	0.706394024660422	15.469677969665126	14	0.020406862926015304	0.05965221453275558	0.05028002141975181
Si	0.539734133056972	5.028340009341085	0.9143476167228003	14	-0.3920609082850162	0.05630103585847457	-0.10327538716811199
Si	1.6004295517201872	3.1454332559319993	5.291282947388947	14	-0.05312186413011147	-0.1595334855677401	-0.07755816331386285
Si	14.424606351751768	1.8334196239884895	15.326654799624638	14	0.02042203244740418	-0.3128855197247802	-0.05402406498695144
Si	10.64471156836238	7.0294927279254	8.114909558026135	14	0.032103078137900934	-1.2495782686555919	-0.00040443486685929285
Si	3.4307542814523764	9.247256865770524	4.947037498244375	14	0.13423972275971935	0.05497305996061809	-0.18133954400897997
Si	7.222597063293579	0.8139325746594265	7.941219694527675	14	0.5874057771939067	0.09310486585320224	-0.04622153167189806
Si	6.633249445112014	8.421217117291912	0.9154060508666569	14	-0.038089896875865725	-0.015047393886166636	-0.4132892393608188
Si	8.781024009825929	10.425213659707707	5.532412296174347	14	-0.08205502651880184	-0.3080001625059668	2.2190366695653063
Si	16.148382044335722	3.1913118633644704	1.972279619729807	14	-0.06970215100815039	0.1651325816234266	0.09863274229152061
Si	15.627579934096849	6.960420464385534	12.449881667100495	14	0.13868079297921113	0.04013006894740323	-0.1507493042414542
Si	1.1993732652727993	4.298465156518733	10.39115997698939	14	0.031149455174658003	0.017615413879930535	0.3754816498491053
Si	7.876732337961351	5.644022125415071	10.530720672543772	14	-0.0012269314587746633	-0.1611501965930492	0.1027804493939835
Si	13.293731005909766	13.754955581223275	13.338319800571584	14	2.876016042501356	-4.382597370969374	-8.855229965150224
Si	2.9996597981006534	10.158325798122123	1.008841991513252	14	-0.40298039257968504	-0.11705059814186936	-0.29407299920778873
Si	2.484750458420834	1.8829248042239428	15.771681230079219	14	-0.13909576937788304	0.037540194558418075	0.10167076033780757
Si	7.045187090951517	13.750679179085461	3.7083233024834845	14	-0.18241400892226986	0.07041974650300373	0.20411105249793549
Si	14.078790481714686	1.0646797257969887	6.839847585076989	14	-0.24520220061401005	-0.2776107260639446	0.29607203359420387
Si	14.036449833994082	15.257790940947205	7.415816267483572	14	0.11763269638635088	0.14664633437156188	-0.11435967931380238
Si	10.830482349949326	8.681352333138008	13.284485706736916	14	-0.23311286339867382	-0.5186065983741923	0.3848245323614594
Si	3.885419847040312	11.019827192877854	12.765672468098593	14	-0.24417684381233504	-0.12998711456019443	-0.15482399195282484
Si	9.617106575297413	14.417555047075565	8.301576316423228	14	-0.3719214403122963	0.1138220611913594	-0.15022222765082385
Si	2.2495795195212365	0.04460028154399984	9.972417173949	14	0.27172906553357384	-0.027204351171422794	0.01708293796812787
Si	1.2683585567047213	1.5160042496533084	6.9955210943655235	14	0.20312451938659468	0.11439310368296429	0.16275045254430937
Si	15.223300756705996	6.456203771033419	16.174701773379624	14	0.19215052765913862	0.21130963317328605	-0.07965721369723174
Si	14.812710358048056	9.093941449295512	2.571702874567619	14	-0.5207303313686347	0.12606412206271247	-0.08449706235187848
Si	3.7064525816710865	8.397360503984334	7.126007152996608	14	0.15286995190951233	0.2950819009354148	-0.19193378348065013
Si	15.880087860174502	-0.04598527133844172	14.887698365911339	14	0.27759941320053594	-0.14753979347031335	-0.2482201640387999
Si	4.081976810995582	13.499119741279358	7.642011028449996	14	-0.033584806133902266	-0.2567868298550013	0.17225094381278855
Si	12.75014876732203	13.862192190319227	6.004779147203805	14	-0.12002613832887674	-0.05235670318683541	-0.18105415131844357
Si	5.8314141983727605	9.150476601425977	7.693861173633623	14	-0.06806975624038838	0.12598801734523607	-0.3644068707930995
Si	7.828285591869754	6.41973948404018	1.4187645100215043	14	0.3281478580157112	0.05840985644206003	0.15686596379808646
Si	12.31245917261502	4.909304731261678	14.2301826659159	14	0.09458093741749925	0.11336260467064896	-0.24087580169179687
Si	6.305151270348141	12.93722084856181	7.18513341755056	14	0.0050434801960024716	0.2923439308799891	-0.36816762654488006
Si	12.552561265936772	0.5717250999321432	10.544793744199145	14	-0.030091702445949085	0.5786591340052951	-1.1346920269722227
Si	10.387807448375593	10.749849359985475	7.277972040323722	14	0.17826887292512714	0.050242226171545626	0.5139945496509107
Si	15.435796590179532	14.759470300120482	13.212459673493264	14	23.45811650826933	14.499759251617434	-16.37134548997602
Si	16.125930112620612	15.032032681503672	0.514663192204504	14	-0.07364416968500143	0.43427691497865556	0.011251156880967993
Si	5.08145863451417	0.22927816834054443	1.559821782225805	14	0.10381943305385533	-0.06508675984795258	0.3136182847410224
Si	10.955671314911621	11.820579390725719	10.912254182232305	14	-0.12161765252204838	0.0946704118826404	-0.045036509229841815
Si	5.640128072355579	8.347617381189409	15.077935903683676	14	-0.06733596278201812	-0.24259252871405976	-0.18382091775345488
Si	5.327071149316651	15.460660767152733	13.198826385327123	14	0.011774376813618129	-0.182433806433235	-0.11298336663592712
Si	1.6134720859455711	1.761432974340887	1.689080385446649	14	-0.11390227967734803	-0.25165464652545366	-0.11557992589874465
Si	3.3385195404853207	15.096183636520399	1.696121844223841	14	0.09796785445573031	0.34247688507542845	-0.41776167706521633
Si	4.805824332639042	4.486859870192542	13.285327531102496	14	0.21093425179654443	0.07954974149484956	0.0930416166623266
Si	11.167747056693951	4.410997218300305	16.259407683568362	14	-0.13293282992548808	0.1204981932656559	0.3421382705047649
Si	4.953289644117389	0.5669859405407355	7.615740528901158	14	-0.31197714821517186	0.03520254560133944	-0.044161819199927434
Si	0.7835235155589495	14.73937974318523	9.650971544951318	14	-0.20728662467885037	0.01372224620416231	-0.04504730787218643
Si	15.369256363669077	1.4545576348987155	10.58096757717151	14	9.116382017617772	-12.292576663130674	5.375867035359511
Si	15.62432422349001	13.573553096831596	3.6842697711956536	14	-0.02279439132630481	-0.09148069862246469	0.17221494833830647
Si	5.515631602290505	10.58850789483201	14.41219723702953	14	-0.1971639259228954	-0.07373981480291093	-0.1785601791578999
Si	2.464551596596444	12.92700244636988	12.691596846877149	14	0.0923872703583489	0.14178874509020611	0.04082246761011911
Si	16.869067391412962	10.267042574036303	6.556830499925565	14	0.16239615423119297	-0.14718729493092106	-0.015874261357126253
Si	12.635393173346776	12.776788488083842	9.519594432459593	14	-0.13622847272485386	0.24341836774289136	0.2224276067986704
Si	14.440066054184753	11.24373770527335	9.189592717219947	14	0.2565456601759714	0.041166738612486944	0.015142010561948081
Si	10.01021229829211	5.094392863850415	11.28751257228346	14	-0.06713284546172642	0.008572322247905712	-0.041077264147345784
Si	0.9338195230034251	11.346432072958146	1.1812830668202787	14	-0.2364707269467872	0.1819008163003683	0.002671121317101839
Si	1.200758255067241	12.232334887433487	3.3294974150234236	14	-0.9203682870321271	-0.5846310403324029	0.10166021880599498
Si	13.51819452963314	14.987059896780362	9.674562318985556	14	-0.2503870916026207	-0.1609866742946878	0.1371250171499895
Si	4.820153397668741	5.420516935862259	0.6805682315503198	14	-0.22709519139686718	0.4822678813318796	-0.47837882742462357
Si	12.298760245122127	4.105989317704194	1.9731099572132045	14	-0.11764220947603544	0.06812246389945141	0.011527036481819884
Si	15.534756080172205	12.033300038893374	7.191326488029497	14	0.07659065638189112	0.10937919119814353	-0.12878255171770503
Si	13.684381818083985	7.400640455138786	1.3711169227330988	14	-0.10797279658802253	-0.354970400047092	-0.0027631668875631402
Si	10.971411625466462	8.900615581199549	2.888150068833226	14	0.020063620365775532	0.050193375170462816	-0.08044011526721684
Si	9.426572019571529	-0.5042577179313333	10.137285111932153	14	0.34666778674726983	0.059416187064365994	-0.035439087290793064
Si	3.2095645191506996	13.702750983675196	16.068495701713662	14	-0.12370127627349639	0.18500465464285107	-0.2607401613952609
Si	3.7527726135759574	4.996649342385799	2.6769342022313327	14	0.06070071128231198	-1.0571037817261142	0.2398098214260635
Si	16.81545975325558	12.861530499902292	13.727803873712809	14	0.19657514280458147	-0.06976000087785372	0.11683668217923303
Si	13.630690489785	10.39352299275242	4.191304032648546	14	-0.11572159380188482	0.261035838507078	0.19489132593041647
Si	12.877823821785011	12.372478132012782	0.6715936946003166	14	1.5264181773445558	0.24805484196671435	3.666532969334193
Si	8.591365739112168	9.2088266809411	12.743273047844882	14	0.06837828887880615	-0.20392541869382078	-0.046225645440410294
Si	16.42289555470658	-0.7182845887013294	4.1816041811379465	14	0.014353966781322695	0.022175269165213153	-0.06700274753252693
Si	14.751862702150063	5.176174542032406	4.690830796104316	14	-0.2175000834526066	-0.2629507977495243	-0.18061963451933852
Si	2.2020714158021764	9.892534113293276	8.128237623322885	14	-0.07563960452396834	-0.36443720983587724	-0.2074763722514773
Si	11.916534240536375	9.019288201998659	7.87940221757694	14	0.4228658353467743	0.8348237563728204	-0.4715905951583686
Si	7.115537680379855	15.342086605343752	1.9602577770353977	14	-0.1428061314653887	-0.28848033091540265	-0.38046856572806453
Si	11.202639281811505	9.597669129663332	15.487208592857094	14	-0.2207399332665252	0.25139496488811874	-0.6359274196852093
Si	5.6500264828296	3.813518528517485	15.511132486474592	14	3.4392837687286484	-0.4005198447883033	-2.1061551187000567
Si	4.814775895824682	-0.193429250035595	5.418828364181595	14	0.3576731459596317	-0.37174249138201393	-0.10195383903355588
Si	8.730371782355505	9.09603698480203	3.5377595119215304	14	-0.2871824369497919	-3.533465927710993	-0.5191434451650393
Si	5.895830992662827	9.23206628457722	10.028387827869405	14	0.1853751509194844	0.041735467109303696	-0.3440624857263638
Si	13.995914267759126	2.462124582489833	1.381709469087509	14	0.22616599393416573	0.2589558143030782	-0.3357868690324032
Si	4.797706388903137	9.160332346337608	2.2152796893276063	14	-0.08105820898618042	-2.0285013102682847	-0.7056334273513399
Si	7.903524670157859	12.875001330734726	8.924731469847792	14	0.10398964022604913	-0.04714970069247151	0.086641621299414
Si	3.152647017941912	13.57454753263187	3.5203929870464377	14	-0.6879473080751053	-0.5742602299130537	0.7743343899478247
Si	2.593312981917151	7.803880890183807	11.171716594979204	14	-0.20859968816585	-0.06981605097383295	0.09512189797685841
Si	2.588045425945399	9.03425396849784	13.135661661194828	14	-0.024049862054133116	-0.11904937541775246	-0.13445595271714378
Si	1.42845615661626	3.9734635169943284	15.24974191850439	14	0.44766028950162234	0.10798745188834738	0.22792951507325526
Si	7.239556624342817	7.4762881382359145	13.603929336268697	14	-0.06226317198536596	-0.1603012176163363	0.22995348918127584
Si	6.771897754024561	4.309072471721663	1.5306385375523992	14	-0.13713890111871832	-0.0013721989093630298	0.08012464064443466
Si	13.159029261518112	4.651859086829197	6.347775808156942	14	-0.0343250273555729	-0.057577589649928096	-0.25662202200397977
Si	8.815410812127505	5.962023330741502	14.457655752770798	14	-0.011368913504630776	0.202817529411369	-0.029510375533063606
Si	15.373165185577086	10.170473996520526	0.5928248615161877	14	0.4075423047492238	-0.011739924002328143	0.012130217789926621
Si	4.761924750908107	7.1870435219590085	10.470421105024151	14	-0.027661236586813107	-0.16396324292382322	0.2519395249949261
Si	16.722962454981523	2.7902047064388507	11.941367238829372	14	0.1852363112321964	-0.08913302235463748	-0.33932393862133087
Si	6.111011474600468	6.114455898271716	12.076894397754918	14	0.06966666975473235	0.361204044895791	0.02184436791051009
Si	7.834458970550667	10.977179681304689	14.156453292143064	14	0.04478068425048708	-0.46692661010761993	0.6813709348872306
Si	11.2888450506165	5.10161811274251	9.317244797918566	14	-0.12818682661502673	-0.7551140921270577	0.030040023229014112
Si	3.0176236408491786	2.8065505397829686	3.3501081636231747	14	-0.09354452486294756	-0.6766709543619999	-0.10607377819856116
Si	7.880921767991222	6.84757005186922	3.6821890045376535	14	0.27834991884348714	0.0648751578801044	0.07435508030602238
Si	7.8929288418371115	2.1632949835241413	13.024601561315642	14	-0.2950003968967661	-0.2725515621254892	0.16910339667986324
Si	3.2198485606693805	14.578766874558697	5.682069961166172	14	-0.2178039881014481	0.28332732163276186	0.5650047649815846
Si	13.558974602360243	11.337457536008143	13.260179464041096	14	0.2837417838103697	-0.18486401518183898	0.29190375764917975
Si	4.7650688746594705	5.238733743375425	9.050609647740972	14	-0.18409988268069097	-0.007199352006946637	0.30231262042726725
Si	5.984609823076452	5.580046755597403	6.193039300257775	14	-0.4179797067963649	0.117009717567279	-0.34808575133133146
Si	8.173637063670077	2.9186592279069976	7.675711899787027	14	-0.0845685390797786	0.2151683480377643	0.29412339287206357
Si	16.40448536453615	11.136095773334713	10.55477912678111	14	-0.25352563986692545	-0.14828310001836814	0.15552050438405296
Si	14.614651894493361	5.521875543247676	14.078882376772137	14	0.004697152309378526	-0.04970949314921094	0.3188602542677403
Si	0.40551976066644246	8.122938888670927	3.40354678051417	14	-0.30517940285923234	0.2766231645104757	0.8480150693283721
Si	12.202235974151908	2.5072860802775523	6.589167714249346	14	0.012449549070689014	-0.20618079228065467	-0.31241115079321286
Si	5.72893972243258	15.042119805042102	10.9062170051544	14	-0.004511518505263834	0.16310089419944557	0.017489686829775294
Si	7.91986722153564	10.388965982492746	1.600501754979613	14	-1.4164720574233196	-3.656604903250973	-4.5375342344457525
Si	8.982410387246889	0.08910046311470471	2.5170023416198393	14	-0.7911530182890412	-0.41829929518765935	-0.29071924942818755
Si	15.465793762504646	8.362999957413459	6.690816775655635	14	0.007814360399526056	-0.05165941942401124	0.050664915886177976
Si	16.219781222008905	14.315797680780136	7.517045237198655	14	0.11187830556932747	0.343892792775234	0.07971969155651133
Si	2.187832604846759	1.2203253383716546	12.076400461821118	14	-0.2789962947209724	-0.01893979023033881	0.1855538427392347
Si	7.2393974489754465	7.460544545714735	6.931096095159614	14	-0.4368102250505974	-0.3049451751645669	0.5778368945239117
Si	15.792897501468246	10.984971069390008	12.808585818945097	14	-0.07961890422796154	-0.05804578792872706	-0.01681374324110836
Si	4.833793249767558	1.613536084289153	15.842401040720532	14	0.06884597293654109	-0.3596657525827464	0.11933785343467308
Si	14.929858505483375	1.0287307075187444	4.6469984946833	14	-0.09098807484312432	0.40066588357048777	-0.17343108115473652
Si	11.435074701768764	7.934345616033697	0.7955141795731518	14	-0.09403252065271167	-0.27866590768733335	0.3580870939161755
Si	15.688132213024463	2.0394007542820063	8.245413667472075	14	0.1543588790004101	-0.1747868249900506	-0.7369877996200137
Si	6.532130421269239	2.259075889118909	11.050858184599294	14	0.09103692584420714	0.26511823953440905	0.08134128768192873
Si	11.296281986337366	1.8153573222498378	4.521949013290351	14	0.15926403373018858	0.05579067145242519	-0.05210344931280082
Si	1.850623691529874	6.623362521520176	2.172932477674327	14	1.2342238847941993	-0.6522644799999622	-0.8638201679523865
Si	13.381497349708262	10.640528702265186	15.508387121633241	14	1.3651134573217658	-0.926372075065205	0.19338054444429748
Si	12.039991968255617	11.043611602926005	2.5562448131178055	14	-0.13816785746784158	-0.03272040052526848	0.400461737808068
Si	3.2401278306690404	14.752256538110569	13.979273057444628	14	0.12156134531553714	0.14234461806042212	0.052682976451962196
Si	6.741710227651868	3.0246880733907338	3.562208520153035	14	0.15111697230223536	-0.24448691911394485	-0.16216912563142388
Si	11.528195573646954	13.246713556158168	14.924247984029353	14	-2.2223932475607593	0.8231859052517022	-1.0711934388805258
Si	7.592450054786806	13.845372112839335	0.22640152484569062	14	-0.12347733300011152	0.01089583012572353	-0.18139945076293942
Si	10.581110342707193	12.846922467733902	2.8895777241900555	14	-0.03485390371992736	-0.298834943371235	0.16689301743613194
Si	2.1963246927451436	8.065903236673988	0.3144222210353447	14	0.24703951247578787	-0.07091648405085633	-0.5730003883061812
Si	14.34571772689632	7.072023729693581	10.419841080813153	14	0.14155683139032874	-0.008054244525895872	0.23263515203019028
Si	8.651609513204052	2.4208719066101243	2.121072486591689	14	-0.09932102718572423	0.43583654746585737	-0.01894698932523522
Si	15.90326510645021	3.163462738007275	4.279894149997763	14	-0.009307144148404032	0.05099915957779723	-0.15392950441194533
Si	3.084780877031091	1.6907492653292882	8.460018164317479	14	-0.20723957345149163	0.4150949266271588	0.34984541581244083
Si	9.968716756903424	13.355141519034646	0.5267030857137694	14	-2.882724313392154	3.766830245209977	4.63237279661633
Si	12.372917915502013	1.131367640792633	14.325950443645317	14	0.2812568105184466	0.4626279791228644	-0.08521980005737212
Si	3.3624450750859878	3.5477809961332087	9.925941248643095	14	-0.24815048708462384	0.15392924730141333	-0.025324101850798506
Si	6.583860774681544	12.8914702378165	10.849191199056474	14	-0.4502360228113467	-0.1377204851421358	-0.14294857070012493
Si	6.572989261188443	10.810818448637956	6.229431383991587	14	-0.041917501365970174	0.015975305796208074	-0.04868979277924022
Si	11.326771453613114	12.91085681297235	7.548570164853896	14	0.00843219700795764	0.04539852085891866	0.2987210434055524
Si	1.0966723336553288	-0.470405876142777	2.134269273234937	14	0.3776650324869751	0.12604818120972755	0.07330966888285015
Si	8.617161994525233	11.988269819759156	3.727117482715407	14	0.8919683718868355	6.658560883428079	1.7304988907997136
Si	3.448365312819616	7.519101389109124	14.740955087027249	14	-0.06816411580563782	0.0029246323016684397	0.14532941422658202
Si	3.218519364302677	11.817051276912864	9.00206116069291	14	-0.0037900663524302832	0.01056107221304025	-0.01598841843334083
Si	13.548994142727786	4.813776537074902	9.848818321677244	14	-0.12117387974379082	0.07430777196813165	0.1657514466739862
Si	3.788913626884948	7.4382042008551	3.45588429769892	14	-0.08650998070702241	0.9044996821067054	0.712077131504695
Si	4.8569508042452405	11.231471356086795	10.627308941857576	14	-0.06723209012708413	-0.0813929668988637	-0.1151829472373138
Si	8.562694481187417	-0.6255345790192802	6.6335120024190175	14	-0.07212207533547377	-0.23117784953473036	-0.0064588736747439885
Si	10.58367684038315	-0.7841323203145633	0.9812340906818655	14	0.4817264065514563	-0.5812708627895015	-0.618732638635655
Si	14.836394668122914	4.229609502757144	7.99441708689286	14	-0.14403126315043926	0.2709829307696669	0.25197243514302403
Si	7.210516145205094	0.1923905076897636	10.19313597408124	14	0.05507976083140424	-0.2796611825567627	-0.06814766073158887
Si	5.616286227896519	6.033419226448348	3.9544789827148286	14	0.17824624719830984	0.1932527605098861	-0.6171658070535568
Si	13.252813090596486	9.206179775089874	9.863400098114933	14	0.2542661181991281	-0.5231913933810804	0.11818111315113848
Si	8.457097214277068	7.326517245405445	8.974446695928847	14	-0.265672055620369	-0.24089534209223	0.2873210195265478
Si	15.812494122469696	3.463244107210854	14.099947677709638	14	-0.27714252778514564	0.14090814151805542	-0.13055044373583885
Si	7.852114308463464	12.912783327212487	12.895198551575946	14	-0.05994197810233628	0.23094670716644905	0.6008899390454233
Si	3.8131689991025373	6.026154593960203	7.041437444410877	14	-0.3235913451673448	-0.17496834502565306	-0.02499011526971127
Si	10.530463038186276	3.0987456437973235	8.208094428247907	14	0.044957576296513264	-0.09768451864945	-0.09852784119445857
Si	8.211220501184414	9.22295390504104	10.390313229674305	14	-0.2354176022076545	0.08203394345517662	-0.1381097504876062
Si	9.246003154629584	5.171911267759941	4.699751180609749	14	0.33462832897514444	-0.0035221571780708534	0.22692549844573748
Si	4.279884304098751	2.556489319609952	11.967716505570312	14	0.12299782185790387	-0.005996074717117335	-0.49580809327937536
Si	11.497185914706709	14.618608304913266	4.194992962811941	14	-0.15430565712028302	0.06206313999145843	-0.5602978424719894
Si	5.355758817073089	10.405431607608184	4.2179765730737335	14	0.26746925823915246	-0.199658155193971	2.0910786713237726
H	6.243896650624293	6.8971474353641	8.169792240105648	1	0.3504267427253263	0.01632986121985649	-0.24793914222730767
H	4.608038272290362	3.7256340339308394	1.138528891341145	1	-0.3745102862591534	0.7505670923683757	1.013483180196078
H	8.162937853409696	11.17037591173032	2.6682747340497333	1	-0.1388142333453268	2.4043909945316972	1.4381025093711934
H	10.529478448285014	12.579768766874977	15.90924156715087	1	1.1451888215522594	-3.4747485670726426	-2.8811816502000656
H	14.737682966588723	14.314115673032147	13.729540033905366	1	-22.01321008288943	-13.640013257155356	16.498758413889686
H	4.994818005169451	10.604556710222578	2.705784327321478	1	-0.06388271122652724	1.0943835233156014	-0.9075893793699271
H	14.773495783263957	2.3202139990377724	10.195352942342248	1	-8.12765343944408	11.873485981725473	-5.600425831358052
H	12.762861463930491	15.133512721643578	13.945335884531296	1	0.35011332498680026	1.9984628297024627	1.1509887209334495
H	12.658061714840164	14.134301660347838	14.334291561092174	1	-2.8841348217707874	1.7579312990130334	7.544594372904416
H	3.9237712646776353	1.2494396617519719	11.075566468171463	1	0.13485910203134302	-0.5812739481158856	-0.08180820040806762
H	4.304300492666879	3.834423013104446	15.969203092137725	1	-2.879272604499856	0.5675527303538513	1.1173964585941187
H	8.748355316902057	10.573250033328785	3.9935770476939423	1	0.33270334242194954	-1.3914266633892252	-0.19105857922967173
H	3.021253495618498	4.706155937917458	4.045126892957684	1	-0.34558329452323133	0.6058202906073393	0.7817594850018804
H	12.320439273764748	12.124157994981832	15.648597646522456	1	-0.8174698239039491	-0.768368140052421	-2.5915664333963493
H	0.6259661575926667	7.670685568341083	1.84844118391541	1	-0.6327713879047275	0.6122639947606944	-0.16943866881361055
H	3.111312292903764	6.281460396340608	4.289190319648845	1	-0.17586643211398076	-0.4785233235436158	0.6544589183907086
H	7.907866711622424	0.6750922707161343	3.547595565035138	1	0.28474811443267567	0.2300411638726929	0.4561994444908981
H	10.310417041153231	0.8988665815086241	2.8922804234690194	1	0.16853029730400226	0.37772776745678666	-0.00400809608357884
H	10.366861939209413	7.721643018680899	9.499162551025238	1	0.007653923427548816	0.44864065196019476	0.17799145066108316
H	10.215837335238005	8.313099300234331	7.314378892906054	1	-0.4760332080410524	0.12018991773777014	0.0034928465774211655
H	11.06385641227912	10.757831102118372	14.376673233391998	1	0.20853823874869842	0.6362950877459905	-0.1883527479907479
H	12.642664369767594	1.304653822431576	9.12925868905378	1	0.2743690764763019	-0.17676709030762866	-0.36422637919962514
H	13.033157647557609	10.902902219153484	10.889078576939765	1	0.9239503509641576	0.47064931350066236	-0.6920199389022199
H	8.21632231785612	11.7231985265414	11.975473433009087	1	0.12705116939511732	-0.27257881584188276	-1.0052139912654179
H	7.863935951211283	14.208986086324897	12.05058451461003	1	0.37456170836555636	0.41350598353930723	-0.9449655374089199
H	12.742178512071312	10.311027486892014	7.726513456725808	1	0.8509602704726017	1.0546967129253917	-0.07305744345094363