231
config_type=amorph dft_energy=-23325.432560269976 dft_virial="-31.985896449271156 14.98781615172386 -0.2431771144141243 14.987816151723866 -48.6962171614284 0.903808275239162 -0.2431771144141243 0.903808275239162 -46.06179842194205" pbc="T T T" Lattice="16.55616437812862 0.04720459853175219 0.17977815884172757 0.047237712946716595 16.379714217990816 0.017517525516167597 0.17876816918531338 0.017053923706666002 16.279559669930986" Properties=species:S:1:pos:R:3:Z:I:1:dft_force:R:3
Si	8.394403194509758	4.224040002723151	14.662387412171045	14	0.008380260680490649	0.2982932114802797	0.23606526363779984
Si	7.641654592142759	15.171809637658885	14.092513166444943	14	-0.07907434412115416	0.023871427344914844	-0.08226302893920182
Si	12.47924178676781	3.395177917560478	12.844364637606779	14	0.0052471117373582	-0.0762620691219762	0.01766966420218566
Si	10.946118881349758	3.9010552449263796	3.076090726405016	14	0.003382031938122783	0.1025585630048547	-0.10463267366661816
Si	1.945811301911885	13.350655895159736	10.180341412415016	14	0.07829144255116909	0.04986221680522774	0.06150880968443451
Si	1.437203691032169	13.556284822043423	15.740524878861232	14	-0.06004353676248212	-0.4083941119417889	0.38813585890327806
Si	7.166560424927764	15.23995082505188	5.5148100950619945	14	0.07051050652080496	-0.0059497948213546705	0.23851012768672863
Si	1.8139397671991548	5.762504263274959	6.125006108169497	14	-0.008643284754741798	-0.008300813526098072	-0.005051193511962916
Si	15.73802474053142	16.014972182923934	10.910019201876318	14	0.0548586457738715	0.18365405301817728	-0.037092822232712305
Si	5.742168701045321	12.787841642704047	3.0744184484493142	14	0.17454102732144441	0.19072202154326437	-0.30717098104021906
Si	17.146256629911235	5.816778789401611	8.295800056791013	14	-0.004096799217123949	0.049834963088834165	-0.02095116592229065
Si	16.90548503014658	9.513393914941526	13.183055562421167	14	0.024646872709471503	0.005439687525837291	0.025661687979333946
Si	10.367568658902986	3.248722794497426	11.778464602966686	14	0.21195652327183534	-0.3887824918912953	0.44375066675180513
Si	14.782298020198633	12.88869656064037	5.131312055359279	14	0.005296219848973028	-0.006475842969856967	-0.02530790388728157
Si	13.687151334261983	6.289689060949703	2.847331380668696	14	-0.06812349234157947	0.02859249093377074	0.04038280860037379
Si	4.917831700687533	12.044722712208694	15.949559623324006	14	0.02162119596872124	-0.06929900169395117	-0.12241160984491012
Si	1.8008744747749508	10.410304467135292	4.036829313442664	14	0.027471746124718192	0.09683399700954501	-0.1642784604360734
Si	16.785158836211185	7.157705630366283	5.145786366140218	14	0.03671666952437464	0.004841905538902862	0.012983310535151754
Si	5.334656087610422	1.8555132594662107	3.4664153027526434	14	-0.038862771135102246	0.10124652795998314	-0.036642878801686395
Si	11.58509628822357	6.446159638818738	5.897235227719865	14	0.033084469038601454	-0.12729233907414725	0.07387556916381476
Si	13.714257138631092	9.243610776226559	5.736272679460909	14	-0.035088902746188894	0.01894673221470321	-0.027819102453470197
Si	11.052194286805221	6.763615945037204	12.915515925320038	14	0.004114282733300957	0.6883082912620541	0.6668112796802961
Si	9.211945116916851	0.5420929072917173	13.729133789553849	14	0.19428840173284176	-0.15474942989854057	0.04888596811516751
Si	8.02962142214492	4.533249163894733	5.255178180254365	14	0.01631109215101941	0.1072204911713472	-0.06075187627818291
Si	14.800232787343354	14.295688315179769	1.5579338808301266	14	-0.006787718045190929	-0.008663339376238952	0.012532081551465766
Si	12.72061441316407	0.09137426093201713	12.285249265302612	14	-0.06368576455900389	-0.42381508743097296	-0.1640342054306593
Si	10.5321969728985	15.905439632546189	12.064347970237344	14	0.011926843359102908	0.03000839863357629	0.008682108445076032
Si	14.001781325163236	3.3207565813694857	11.048076509304398	14	0.1555780971432243	0.21281887199621297	0.030634977000096375
Si	16.421127105345295	8.015829268312247	8.690346721046602	14	-0.03204111449968536	-0.010905857436472108	0.008157088738701794
Si	10.460999325004291	13.614410554630433	12.436282456234492	14	0.00031676017544224333	0.04046251286529838	-0.026356143526305942
Si	12.521412994224972	7.82118770431375	4.245304424292541	14	0.1327029731098668	-0.04219852317746236	0.016557146930157585
Si	10.033742241646868	3.2861437391279464	16.03936757242821	14	0.07058841101200544	-0.08926080628904884	-0.01135734353069011
Si	9.884887979219647	6.7771812651273695	0.18222200266610034	14	0.05025019659803809	-0.08344368050221382	-0.03266203643450112
Si	16.60981635325394	9.129655795730317	15.428019177679944	14	0.02835414947059301	0.0007692747117883053	0.0163820546578555
Si	9.541022927067072	11.547869062920592	9.128717002066075	14	0.012101421410340965	0.011854852410138762	-0.05267012092536146
Si	2.760848118826921	6.052425933450525	13.373079321252881	14	-0.3051943152700892	0.041621824254153145	0.12548845158153132
Si	10.803827895968482	2.0816681564655806	9.761010264279323	14	-0.06862048699996409	-0.16066657168232934	-0.11202203035672374
Si	12.90072371615544	15.592963734338369	2.2396553745399848	14	-0.02258536046377677	0.014163447877099722	0.0780901250046015
Si	2.251179190947596	0.8179426068281621	14.005225224319535	14	0.027966426788314683	-0.05696386681000874	0.05108143494804195
Si	6.650934213796343	12.427389580095804	0.9519020054043977	14	-0.048935076226782344	0.2285537794449872	-0.36038489074079183
Si	10.264753367600768	0.3783619939417379	4.521101140765042	14	0.1381668290257135	0.27052398847002046	0.37951082899630934
Si	12.458765488274572	10.570086486500767	11.52351837787652	14	0.0328890650342702	0.05509904412130534	-0.02233082103708211
Si	9.553730583809662	10.95914112503451	16.00601804511756	14	0.17077872890647175	1.4737742816934598	-3.9477316728724032
Si	1.5260529778231506	-0.24903364629827374	5.870775154442561	14	-0.06346670638572728	-0.012223548913047997	-0.03995574800669719
Si	5.935287001955457	1.8998782969147656	13.53983192496836	14	-0.005775216770116615	-0.04525325340833029	0.15792628763211553
Si	13.578933426158324	1.3370060942328874	2.9274334947468317	14	0.05251893993253675	0.00817122981796261	0.032306195458192626
Si	1.4915461017094975	6.6234111677986816	11.50133337557112	14	0.20911442345094364	0.01105369599238062	-0.0535928906247626
Si	4.661443342825666	15.872172891272953	8.907333892263077	14	0.26763792274815423	-0.7600624414262147	0.14991960855464237
Si	1.338357162363435	9.582468928836516	9.407863241612226	14	-0.020003970722348097	0.03205962645799043	-0.004548542421873966
Si	7.1767944348725115	4.521910788210922	9.082734325446511	14	0.07045471353535773	0.07277436475519533	-0.18082609427654642
Si	10.907072018944488	1.23930698004267	15.310209679281847	14	-0.030669686921918377	-0.11580412628266157	-0.22071139399747156
Si	0.39589773238613596	5.575290262552976	0.3770324501809173	14	0.004707436730659118	-0.015081846697456616	0.028381146076454568
Si	1.8372870854698051	3.6400904749164322	5.028142439816942	14	0.037912490608775516	0.04381703397649558	0.05866105343183849
Si	15.009754313706104	2.2072313951275926	15.084746873555234	14	0.03239849813918594	-0.012701003170999496	0.018172572402806623
Si	11.021475699763496	7.463061929356756	7.933286621851237	14	-0.0705182198367654	0.0510266704047228	-0.05823167884337377
Si	4.056135017366909	9.457182195539456	4.248687061781155	14	-0.020003713611816087	-0.4381898801653889	0.16947543561968867
Si	7.639437582060892	1.4965414112068773	7.662849473440723	14	0.3052462515975562	0.20290571832385004	-0.02324202076254259
Si	6.515842302228325	8.63465820940097	0.9631013005453578	14	-0.2505716969646073	-0.1316413637231777	-0.037362531180795834
Si	9.339592908000872	11.350267070224275	5.19648784689221	14	0.045328072573146604	0.023005221962556954	0.013445852382246395
Si	16.475433090166163	3.6796837251686174	1.7869945677426224	14	0.026454616860067615	-0.0373201079430134	0.00011004330770233777
Si	15.92606991306901	7.554063653120424	12.206397220389384	14	-0.02786821056508503	-0.027926831766384403	0.041978693672589704
Si	1.5772528305203577	4.824856357791987	10.071027417176037	14	-0.10990678200983793	-0.02734961862201116	-0.1034175692923162
Si	8.195551132648536	6.108263459963497	10.401979503213242	14	-0.5736171964724845	0.28168181422786703	0.0817575496332607
Si	13.582802845546915	14.419673651968727	13.1505156825564	14	0.0633093547401342	-0.03459576474578449	-0.01746526132923389
Si	3.241056807433168	10.507419111901388	0.6740339822758726	14	0.10448817754762585	0.019527802017056676	-0.045541988535782923
Si	2.966674076479646	2.5465961982865046	15.523214842098852	14	0.021794745577831235	0.01903183580080011	0.012911062475655594
Si	7.531787586173872	14.257282216704057	3.485495828655131	14	-0.14669287137785655	-0.0513269755061161	-0.08046325521509816
Si	14.478554393216926	1.514962960251573	6.674038141117005	14	0.8001439164830672	-0.04633183209013242	-0.18561220683000204
Si	14.438254150205253	15.657771955865197	7.217516886674982	14	0.029473865837517505	-0.01609049131455071	-0.3164853242835195
Si	11.142167807984244	9.14085177942978	12.942075341842235	14	-0.11335360580202844	0.06538835050200593	0.012429751559723874
Si	4.143603433053875	11.51046798693905	12.455662667592408	14	0.030613636825939143	0.14112771391239604	0.029937693237272214
Si	9.90160910305592	14.898329274513145	8.10923675432308	14	-0.021477728291856978	-0.03603198417761921	-0.02574216357585458
Si	2.715322421133864	0.6105668945551036	9.749759641795167	14	-0.35106231996046694	-0.4020612224277322	0.46908325325016015
Si	1.579971523988935	2.0577578931405354	6.776803760796776	14	-0.08252965256090117	-0.232196264352041	-0.20477208367574556
Si	15.56163418634055	7.0589551335009455	15.829910619174637	14	-0.002953685791786113	0.009598193270644794	-0.017435179396988156
Si	15.136893798520422	9.45854650943599	2.5222024645029797	14	0.002805075904281554	0.08865376832296189	0.02657725858383868
Si	4.0935907321331415	9.045449149917346	6.641928748646775	14	-0.10269894535533479	0.0765762581920983	-0.013112122911691174
Si	16.510822465438615	0.3785043859260849	14.757687386997091	14	-0.06722334836899563	0.0685996610468709	-0.036426905954793955
Si	4.45828806273982	14.027408570904186	7.4293084061835435	14	0.009734204742080626	-0.024794454154848	-0.04841031363094012
Si	13.041474881240875	14.279477153333948	5.815551900327179	14	-0.03483333487736617	-0.013896052923804324	0.028706133788921284
Si	6.254332800092214	9.647460935366396	7.3038478222079215	14	-0.08596747748447117	-0.09322493647165316	0.04915567706325105
Si	7.963599557309648	6.835815303984084	1.6469023795149802	14	0.05211579061833753	0.017761966883178975	0.025140267820407916
Si	12.670343419806613	5.441150390415184	13.987442783483651	14	0.04583483743174779	0.005059163938455375	-0.04425283632826068
Si	6.645077929509888	13.408839577972936	6.8990323778718725	14	0.006267069217860943	0.02147412874440877	-0.005324244896962643
Si	12.910603401860069	1.3029661313702323	10.2519331218473	14	-0.7966574976689463	1.8123729115039768	1.7778743345392938
Si	10.77668566574291	11.258722270055191	7.1598034285542775	14	0.05771334401083192	0.0022456033866173324	0.08259213042018076
Si	15.837300100873943	15.17546050190871	13.183620163196311	14	-0.21230465093218337	-0.04777782172218369	0.08209256465647599
Si	16.593805533618657	15.437556129189693	0.44555445334600197	14	-0.2984443924731045	0.15600644328956098	0.32544356943997943
Si	5.359806485775883	0.6277665216876129	1.446339958120847	14	-0.030615436599663252	-0.11206779603142238	-0.1089809269840526
Si	11.229906106153171	12.33761143396507	10.64612546186277	14	-0.010491909479928266	0.011984436118274225	-0.004404046302881644
Si	5.863640653738481	8.565699095958355	14.929049517275617	14	-0.6911570759567781	3.0676073547533624	-0.5470677058261035
Si	5.72178015575174	16.04894591695666	13.006398437189834	14	0.05602695603134678	0.08623487243776658	-0.04976580035572219
Si	1.9142648544960494	2.38834903205463	1.4307198885821393	14	-0.04512624080551498	-0.049166218595063656	-0.008431939897425625
Si	3.611269343852167	15.418599782343321	1.5405090756758595	14	-0.034160476615083424	-0.01026539510122322	-0.023705591051765288
Si	4.894290663089341	5.254067191632309	12.920560906439864	14	-0.4235757175256672	0.6436116821555359	-2.246515100563857
Si	11.610072835710469	5.034934206326141	16.12493522069622	14	-0.05624961375207162	0.014422615293370649	0.09673578078631534
Si	5.2924368642515605	1.2416663821088836	7.4113190002541325	14	1.88371902725383	-0.8264321828289213	-1.1271864563216465
Si	1.0198709978395768	15.369512629320843	9.426904030216756	14	-0.16980685109545576	-0.05394076117457863	-0.2065194068513182
Si	15.86983998073871	1.9884941270802483	10.485878184967046	14	0.05076004678302345	-0.06523099885641288	-0.17477396946344984
Si	16.127440326188275	14.008101211259193	3.5906937021140366	14	-0.0008055272968023931	0.03463047466760649	0.055990189225268674
Si	5.772036247622462	10.912251113444919	14.122567809466634	14	0.020261081254362906	0.017613871216738446	0.045151180527120416
Si	2.788556605548383	13.49056098694283	12.424728836853415	14	0.07316671542704993	-0.09357717790051344	-0.02488367150945714
Si	17.361685767903637	10.72227040335266	6.334716386697546	14	0.0033966872384476273	0.05802444775456982	0.046441104066238706
Si	13.033222769031745	13.365759379825	9.4935120201969	14	-0.23542171597616676	-0.27605289335046684	-0.0394818932961939
Si	14.903321272569027	11.84263537200545	9.081022310192852	14	0.06682945503394895	0.06418661587536874	-0.04435465209893854
Si	10.303830032979509	5.4791210343341135	11.11298241835537	14	-0.4888056879399521	0.9302539298775646	0.5260345216441003
Si	1.3231907603097397	11.810795862017178	0.9967869391678937	14	0.0948804711872965	-0.5733382315452485	0.4996714361334299
Si	1.591260228050299	12.624981638467629	3.1218879623007814	14	-0.0396173905465657	0.15213307312475788	-0.010650803788713418
Si	13.855399053813107	15.612954906652378	9.50285028521686	14	1.2158073144965107	-3.815835769722532	0.9244681715756353
Si	4.947586658253795	5.900460571737398	-0.9624307336423287	14	-0.23053841564160954	1.4343679788936785	2.698032819377297
Si	12.7341201273073	4.496531900582206	1.6866578904004905	14	0.08156163140786542	-0.03936773621997933	-0.05463573094261467
Si	16.04762465179958	12.548831729815495	7.052494511141392	14	-0.009433128309091288	0.022897492649642748	-0.019858446161227717
Si	13.913988388209619	7.8384883304119	1.1810438226335562	14	0.019871044577296444	-0.023453108509326748	-0.010954708437554922
Si	11.463902496616111	9.33402306340386	2.6925397036383565	14	-0.013747957257363793	-0.033776610590785315	-0.03843725320461774
Si	9.776540924897626	0.03437110701229898	9.908490278485523	14	0.1708072681755254	-0.1486695371479864	-0.07118876410426
Si	3.721719163524426	14.11044131070667	15.822300926615819	14	0.39779961535958663	-0.06352635602915471	0.19388730930289866
Si	3.7921750485234322	6.632800760161837	1.083210595062733	14	0.031246385845227587	0.3322320588167664	0.1978486112696508
Si	17.28761047734902	13.337087263628074	13.6790449254787	14	0.03797573979965115	-0.05630026452687853	-0.24661425165583534
Si	13.993153364344263	10.94778288070172	4.112023871223076	14	0.006106889356415716	0.008285901115241214	0.1105454445713627
Si	14.072478945391483	12.15905519703553	0.6418682953002027	14	-0.01150929585511086	0.008125978364328004	0.02363025766588495
Si	8.863303310405662	9.633834353608545	12.50089695843378	14	-0.05678337521653435	-0.06383848821502068	-0.041473985698244634
Si	16.904561137969075	-0.18612453646965485	4.031865462639501	14	0.004641102213399298	-0.004331541132853468	-0.04952720178201244
Si	15.129097009517055	5.58082036985203	4.510958195461447	14	0.023530498779463203	0.044421500837262394	0.06510141514827743
Si	2.565668445585251	10.485533795051417	7.666015211511319	14	0.03009221666701312	-0.008024419704182155	0.02276405228352706
Si	12.287886828454527	9.473095327650599	7.647969511076469	14	0.03268183394546626	0.031373141337510894	-0.011392824784108153
Si	7.450920529110059	15.815000853836915	1.7207342791196063	14	-0.453853825107327	0.09349053165122444	-0.1507912132581726
Si	11.509913320488396	9.942528585627429	15.165926861840461	14	0.14206385335946195	-0.1738985081019394	0.043968986300916335
Si	6.513227919166885	4.215428599111658	16.10269226816463	14	0.03322279450482542	-0.3469765764962196	0.15838702970548604
Si	5.252502535525242	0.29613393442288805	5.277131381655014	14	-0.19303935876831382	-0.028742386373935374	-0.23797765177492594
Si	9.284924320336144	9.782438602202786	3.407408726727579	14	0.11309289572256542	-0.21476751271835323	0.19414544827704153
Si	6.191142217736397	9.827710974621365	9.616298615164148	14	0.09449917626831854	0.05751305490639238	0.03650506755652646
Si	14.372599855376084	2.791757113754692	1.1472671193698682	14	-0.008808606826827318	0.012925460665448424	-0.004819794033149589
Si	4.39234732822121	8.79616548978609	1.9215119442110082	14	-0.014429300167203035	-0.03662770928029752	-0.0459235405652929
Si	8.170109327631387	13.38395243940644	8.704975013857124	14	-0.0012498142961239812	-0.03876944001198087	0.007737741460985644
Si	3.6411070874558393	13.874913378551629	3.3474269311818134	14	-0.03075967560812356	0.04090140054344765	-0.10304141658397852
Si	2.8300605575440136	8.353432384595054	10.721783621452683	14	-0.08656500236087358	0.03678326115216648	0.03416947548370394
Si	2.7404115576316417	9.608366057059424	12.645441379753386	14	0.06169161527269705	-0.04504422254580226	-0.03459833585110464
Si	1.7252510853207506	4.526455741664786	14.863391911004953	14	0.015888659546919082	-0.010355898008492433	0.032048056484049764
Si	7.548000403740442	7.909926057814601	13.445012109159299	14	0.32363299707353116	0.28097218915950617	-0.2825385065205404
Si	6.677496941760037	4.896199709112039	2.00363569332272	14	-0.0002859069116004664	0.11951371703857122	-0.15080818255328557
Si	13.579748040766448	5.066939288389234	6.1769543466449	14	0.5146147002541305	0.5008569727965502	0.1206406325003921
Si	9.166656187290789	6.450875131509668	14.310889487369177	14	-0.034045805317804816	-0.026047867998420193	0.014533944153733061
Si	15.90502901380063	10.729691343746182	0.7550301855580468	14	-0.05245671918378916	0.011937127780383501	-0.13244123458827578
Si	5.055001541794567	7.80729124007394	10.1311499489854	14	-0.12830175502283736	-0.054711321439027016	0.032782621274016065
Si	17.386683839760263	3.191059007999168	11.752590654834254	14	-0.11141319261691268	0.1299243795903828	0.017178068864973348
Si	6.366453241999427	6.766220393774153	11.795945702626394	14	0.1353067314675808	0.16673977955905114	0.28175251962417114
Si	8.11573876970134	11.35008659666272	13.96384545138002	14	-0.4849073780535435	-0.21174106464600692	-0.13069931073387545
Si	11.602656862479192	5.526259404035937	9.157998423498347	14	0.2725883289315673	0.124666983431744	-0.77842373295952
Si	3.3831971222263584	3.2581256326265677	3.228973357412658	14	0.03496034748018149	-0.039661356447540236	-0.038812634581359355
Si	8.75729247805938	7.499057298423059	3.731537587561371	14	0.02143941882258677	-0.005981162306260476	-0.025274222407587633
Si	8.26414929896804	2.6423912336162694	12.910172914465532	14	-0.14635939901783335	0.23081403813192938	0.7443473314884056
Si	3.6153076467570755	15.049771428469835	5.433870186285261	14	-0.0017133845853466799	-0.022775365146935716	0.09785652559536791
Si	13.861588137969953	12.011671214632726	12.795929838559099	14	-0.033084469038601454	-0.059474294044601334	-0.03928931750771481
Si	5.334589858780493	6.0575570120492594	8.492059259960522	14	-0.24844410731218478	0.12201848784145948	-0.025208402111391838
Si	7.115875501383253	6.745485802844194	5.178847798040675	14	-0.0991464491344862	-0.1621799242737685	0.019154991745635206
Si	8.535553388295513	3.64145975597521	7.380032500995768	14	-0.10355332365322	-0.03444124131604359	0.07442424303913435
Si	16.853839788568102	11.67775207701471	10.424353257683938	14	-0.028110922907307007	0.014007638894698748	0.02798365319395968
Si	14.990357545140707	6.001967843648521	13.804270397108073	14	0.08419212926090892	0.022788477784068468	0.007073624956791395
Si	0.6428435148209043	8.511747435377606	3.1288734481375213	14	0.09491235289326633	-0.08527147927430707	0.03601527199303824
Si	12.598940462539627	2.922171614208988	6.360128388741226	14	0.5398943219828904	-1.0514815457225466	0.308090408302704
Si	6.118413028150085	15.593602842547181	10.714145781641143	14	-0.017210721902539222	-0.02850584468448175	0.10097579056977155
Si	7.906685812310334	10.430583734859491	1.4964056421055232	14	-3.420964386212061	2.2024005897018197	5.787115588427729
Si	9.368796510557976	0.5529875498150049	2.33846382163151	14	-0.28331575165882117	0.5697535965078981	-0.06271902895862821
Si	15.921109373707344	8.830173993954528	6.545373737493577	14	-0.032297710810636135	-0.030560157835280065	-0.018006993220189088
Si	16.699370977083667	14.873549757795283	7.439184780446675	14	0.06200246190590294	-0.05882508995126395	0.06696520939485276
Si	2.752430434542971	1.7957003474367634	11.875930260531407	14	-0.21418104359482745	-0.06079378529490132	-0.07977599876302258
Si	7.093685531915608	7.496520734236786	7.367227156729035	14	0.05334220785604817	-0.06227499906983863	-0.06797282556981879
Si	16.128794705760317	11.593979230037771	12.634950733092664	14	-0.12340071406157108	-0.1723386185042056	-0.10014789465668388
Si	5.320080777863841	2.1872319442098433	15.813373280341414	14	0.0357471057081468	0.16632557449197527	-0.0419856356569541
Si	15.331937702660738	1.526288090169398	4.457922148454464	14	0.0457394494243703	-0.08000097047853554	0.053131120109264005
Si	11.619566738480763	8.354223819112704	0.591024422563863	14	0.07358194893625383	-0.059050832998372944	0.013576464532509918
Si	16.024022352533706	2.5258334601038257	8.114869516308524	14	0.032672577966313725	-0.015321987934358449	0.033347236002320584
Si	6.967928573926055	2.8978490764176366	10.829811121670296	14	0.0038330038112767565	0.2135395528174505	-0.19717601011790006
Si	11.797644472114067	2.1432808369483434	4.31888299862269	14	-0.12042825920094789	-0.1407772722572599	-0.621718463243943
Si	1.615547995705938	7.260982867757254	1.3741637792644406	14	-0.02183459771029353	0.015463398726966593	-0.010877832388482493
Si	12.996632996216833	11.75838733317377	14.963700441094366	14	-0.046167538460174955	0.13607652040043314	0.060666515581554
Si	12.521113308769543	11.41020250558909	2.288260712824731	14	0.25031227243780435	0.019277633469406266	0.13463695853168223
Si	3.6808245167641407	15.254655281016822	13.780663130679953	14	-0.0709473373146981	0.030241083665049687	-0.069174560196456
Si	7.350083824101965	3.2118101561366097	3.43014177260064	14	-0.007774251156531746	-0.15508315936909578	-0.003134434495792523
Si	11.706435783256874	13.622646109632079	14.446519508180366	14	0.025634948484004407	0.044536686355605024	-0.10297688184044279
Si	7.839971856202305	14.301852563525394	-0.01577736300978838	14	0.011939955996235664	0.03064191898446077	0.02955511276563419
Si	10.464643566371125	12.390276599524453	1.5121283663306204	14	1.3567637927945848	2.1630002004442748	1.726856920113724
Si	2.0644188577106246	8.782192862391861	-0.33956845681094333	14	-0.12927517549704542	-0.08253479477154146	-0.0586749374005673
Si	14.68051258720181	7.673000697348059	10.197006241745852	14	0.01502811059626552	0.05393176230595812	-0.05453185828768068
Si	9.20243962410132	2.814755074947468	1.9949961424585083	14	-0.0667296961475272	0.7107031328216078	0.020772988323604392
Si	16.331418499485988	3.635495849840122	4.094166922953522	14	-0.04378386671786567	-0.04342725440996113	0.04613745652792922
Si	3.377069299737196	2.3851733596595444	8.269027052292296	14	-8.91957059023427	12.255669731812608	-0.5473217310317342
Si	10.23534942283313	14.184897417033376	0.05307744002568854	14	-0.4025191362852505	-0.40628323447394726	-0.6409485312649265
Si	12.928571283419753	1.5377109076113675	14.126928977917446	14	0.15659625485000292	0.06620647621487706	-0.06769900285322303
Si	3.835742028571345	4.284054912683882	9.627784349994547	14	0.31454465398787174	0.04716358466120032	0.15809238103579712
Si	6.932570657347817	13.417626487983739	10.693525435442814	14	-0.005998388711905469	-0.05394770315894304	-0.027656865707768857
Si	7.05513704145555	11.322912907742934	5.876447653725963	14	0.2674646302495763	-4.216612725042849e-05	0.20430105718109443
Si	11.741128100094326	13.404311181726552	7.524570299432381	14	0.05269480353643488	0.025241826480553765	-0.04991929534333503
Si	1.4540970098262576	0.11533750732100519	1.7949652074245537	14	0.010524048296430118	-0.0066568487843953915	0.029782912696999304
Si	9.68528587585948	13.191430197965664	3.6224769175968676	14	-0.05989158443806137	0.025660659537205886	0.1588477717788566
Si	3.577151562114345	8.095865153560455	14.226282157135136	14	0.22392887519510488	0.059890298885401295	0.1443999596533485
Si	3.517014128818247	12.377661663143765	8.73920041744358	14	-0.028025305100146076	-0.0014159076998055472	0.03713370280730266
Si	13.841737701919543	5.362533457848201	9.802050614465452	14	0.23407317123574906	0.011806001409055949	0.10082872334545909
Si	4.863979383351677	6.905388689824289	4.5475595583215975	14	-0.023263875157763847	-0.019864873924528088	0.025079075513788393
Si	5.184947473277117	11.789137378909713	10.355612699380089	14	-0.08835012078465239	0.003883397475551658	0.05376541179174454
Si	8.937577287450065	-0.052905245067873655	6.429559382597084	14	0.0009070859569482423	-0.015236884348261545	0.005619150677183627
Si	11.011925502487763	-0.21512779681622457	0.8618390753049708	14	0.419804677352606	0.03747617403594638	-0.07051102074186898
Si	15.1193812401665	4.743229324904741	7.964791676248367	14	0.03342025539341279	0.06143476185121424	-0.023897652619180348
Si	7.600652323533839	0.8006552264959972	9.912425926704042	14	-0.1768357388196766	-0.13531187367822106	0.10307586939526851
Si	4.5201176426406	5.331675790263626	2.8210799282056684	14	-0.03197220887710539	-0.10855875149048429	0.059412587516917775
Si	13.619621107825083	9.791208955006107	9.604283049694313	14	-0.05404026295046836	-0.015232513469217293	0.042430693987871734
Si	8.85702647304916	7.776340852127462	8.859473628315028	14	0.08822310818183708	-0.056356571733389774	0.06379452231404616
Si	16.277523133410675	3.931439376376965	13.827748517317834	14	-0.038864828019358366	0.08716227012674398	0.006551176355737306
Si	8.181863289223001	13.322038417747502	12.732409767774389	14	0.14736264431375512	0.0422044367196987	0.07467364025518872
Si	3.892851148618949	6.687639887063632	6.665868814945288	14	0.025993874786697076	0.00748834424493128	-0.1543473090264694
Si	10.881900096409298	3.5651028822295485	7.951163438769767	14	-0.4504946760065536	0.5387733200633059	-0.08845733587650258
Si	8.467927130055216	9.730833097922265	10.141337598749198	14	-0.007919518607120112	0.0073464192312591055	0.06808878241975748
Si	9.999117809360092	5.565162218736114	4.44182357561952	14	-0.03679611667876722	-0.13384094432456436	-0.052866296261288755
Si	4.776247708065744	3.1789440992844424	11.755377232853508	14	-0.3074201211457414	-0.7338065710073945	-0.3360493788855903
Si	11.540352090723673	14.807647104853883	4.059305722599751	14	0.09119839125831243	-0.026594742100015684	0.02860637490249954
Si	6.089969401416415	10.625072972549154	3.8635399242132102	14	-0.3730666106218902	0.2793523928078129	0.4330895785418111
H	6.011786267685466	7.090925445428326	-1.115285217397251	1	0.5577257087097134	-2.5106874304509836	0.2832586731207139
H	5.06564948192637	11.46823717353495	4.784327625317058	1	-0.0757532473791189	-0.053990383507257496	0.08592351158349665
H	4.042448829662122	1.453693013963692	8.319766614621498	1	6.942330178065372	-10.315873097752624	1.3179154198492755
H	5.03317748661228	4.797517096797379	14.337068088119283	1	0.2432134506488755	-2.316769010773711	-0.36259244176867095
H	10.221308910888224	11.05108992106616	17.41153289674955	1	0.5379518519135186	-1.4133808174969056	1.044023797630925
H	8.58227948353103	9.936475270571938	16.66936103852218	1	1.9767639863530728	-3.046744377743553	-4.4199935836298625
H	4.695190243115886	1.7540142661588285	10.955276672808164	1	0.051485869814901254	-0.17929140151095002	-0.2653555525554588
H	13.486443209442006	0.5762835407424602	9.036592699635117	1	-0.3170437683590557	2.1124358147761146	-1.6370515537178674
H	8.176548425621215	1.5786850289675678	11.731755064938653	1	0.02091671311100067	-0.7870407924399966	-0.7429792463475547
H	1.3943867524831997	14.699212297332208	14.724957099246279	1	0.1658200951860342	0.9131460521878312	-0.7954663045741217
H	9.477026008706872	-0.918496183588311	2.561921549532029	1	0.301041465956986	-1.6306510441338908	0.20633274460507542
H	11.910534824169202	1.4168068671348468	6.488693449119761	1	-0.4131624838685355	0.675874940154882	0.09961284763956106
H	11.281582806425865	3.9084381037426925	6.140117871438502	1	-0.7949911643109584	-0.16035058283848316	0.2640499452738876
H	9.799118333020354	4.612829725937178	9.897315819155786	1	-0.033415113182772495	-0.5623452136384234	-0.7891938360350884
H	11.740636351032105	5.050355589375061	11.597535718204947	1	0.6843140791472041	-0.7129484790976931	-0.23347230392243046
