229
config_type=amorph dft_energy=-23288.992112099917 dft_virial="-54.78571215349201 35.83141363593315 -4.706118638777453 35.83141363593315 -50.7895683093577 9.538004241177404 -4.706118638777453 9.538004241177404 -28.44767577164439" pbc="T T T" Lattice="16.432594876817923 -0.0117499045820585 0.165156001468095 -0.0117006042831128 16.43351514906491 0.0564324088598446 0.16495880027231222 0.056695343787555 16.364346829644095" Properties=species:S:1:pos:R:3:Z:I:1:dft_force:R:3
Si	8.186605511697264	4.17141332782655	14.808025132466446	14	0.20258741548521572	0.028625401081868635	0.04774594001621386
Si	7.446101874786465	15.275278575784107	14.173702836081597	14	-0.31001308086111073	-0.01776530932009517	0.11032201551904182
Si	12.281434111798267	3.5021223293995165	12.882452412901998	14	-0.14634757193336068	-0.45669463937555865	0.7095304516850883
Si	10.706815430338573	3.998379138586933	3.1620324338390957	14	0.16827884320369177	-0.31662853484985176	0.11709096449539569
Si	1.7682423188823346	13.402979759260383	10.371353189505855	14	-0.04593408209710551	0.11379017948538958	-0.07272217131719633
Si	1.1737300138961382	13.746928224884952	15.898950364253388	14	0.03131580568887159	-0.03146518690797219	0.13981362198326835
Si	6.852243620432949	15.35396678293134	5.716118231229292	14	0.17171821079045385	0.051680245377104445	-0.17450940272600662
Si	1.6558244905397532	5.883441802507701	6.086514663894932	14	0.23426009059252387	-0.39722548754159764	-0.013561552121653057
Si	15.641627453906306	16.12540142740067	10.939422457480877	14	-0.5818056526960922	-0.17569905315763912	0.14880426306676217
Si	5.434278282216514	12.972494478896424	3.2495059542584515	14	0.12154334757829612	-0.029469494958473248	-0.03978631216609944
Si	16.947799434233474	5.898162871772886	8.299918962137362	14	0.8829527910817365	0.5301830000781591	0.288470046494122
Si	16.642006113306273	9.52225742745066	13.40492383438214	14	-0.2276778038624128	0.08126055497487607	0.37865490803523205
Si	10.179834674848196	3.3390599472933156	11.824070308449114	14	0.2699141222880813	0.07297902473867912	-0.3279223720791342
Si	14.45704480086892	12.872868434786954	5.253311674876533	14	-0.05975043075598525	0.09250245587669155	-0.14377903771853273
Si	13.41283324567633	6.458546223142272	2.9475005396335843	14	0.4964871221944264	-0.8976962803190616	-0.4906316869383212
Si	4.68318329774888	12.249950940891543	16.14542227880252	14	0.20105297983015136	-0.3205782668426633	0.012629783553631393
Si	1.6141295843780765	10.618587615345348	4.1710747991071235	14	-0.15119179146705167	0.04091322762792034	-0.0038648855172465925
Si	16.56543617567041	7.2895947890967445	5.124279645789251	14	0.014561197870126632	0.044346938782978094	0.2839456724622574
Si	5.117929767285045	1.88309886867943	3.5020697424139744	14	0.03904891916028097	-0.029685724915897705	-0.12549667911855578
Si	11.353541681938161	6.438280513588993	5.9569994918779825	14	-0.21036886573664387	-0.16851075690356912	0.5119520635845851
Si	13.38742880162961	9.240783943993378	5.861473589297496	14	0.35026399175856093	0.08545402775203761	-0.14761666951938576
Si	10.851273522965965	6.747373667858954	13.085492407423267	14	-0.12245660418801273	0.06941393010176179	-0.20196443666614383
Si	9.067375072481774	0.5748990027222987	13.766794602016772	14	0.06419510052292522	-0.2290428036768794	0.05604418243699179
Si	7.743280790144549	4.61311935623055	5.405439250676578	14	0.14157894289608203	-0.20929440082335402	-0.4780088453690543
Si	14.47026549770286	14.330691421357688	1.7038380516829703	14	0.01941210227765001	0.13225740055788518	-0.13389930841533174
Si	12.638443869956852	0.042579024856102904	12.513720686997424	14	-0.5289229013607545	0.3869894030410241	0.15586914626546505
Si	10.39538215521199	15.902329078074466	12.251155511529117	14	-0.04329201427012134	0.13019460275953038	-0.00041163396175570747
Si	13.659500718077947	3.2703188971300277	10.98535061597869	14	-1.6140139358282768	0.5999160043501512	0.7060075231754215
Si	16.11803760608148	8.058646585783702	8.735169938066068	14	-0.4351775731723034	0.17521002892574697	0.06358034924087783
Si	10.184526419964529	13.629695400678674	12.653501824598166	14	-0.17198303463842912	-0.04329252849118537	-0.1768028286715787
Si	12.185204858286156	7.894486450354309	4.328835755733364	14	0.17929320128467413	0.3573018783514023	0.2965492307416233
Si	9.871052112461593	3.2449029496802213	16.184570002852002	14	-0.12673749454605926	-0.023146118534101066	0.017086023294512045
Si	9.7229638744885	6.65395288804345	0.1810799980275561	14	-0.24821656449135168	0.08111837285067189	0.07851718559827808
Si	16.450425151603284	9.248711432063848	15.721686209364227	14	0.5867442317950327	-0.05588554523873865	0.008856429385782074
Si	9.342311336298854	11.522250591616942	9.308619511999364	14	-0.2398378464740531	0.324827532605272	-0.17121093171078863
Si	2.619954283468248	6.118336363521084	13.478890716233673	14	0.09451383156864339	-0.15797590996479438	0.03125152805586789
Si	10.688965435433634	2.096592169920486	9.843675656457046	14	-0.27676740351893603	-0.10047879591138692	0.3164395586088209
Si	12.650870831977764	15.67084116771823	2.4224967261309303	14	-0.14016200675414842	-0.008647398523254033	0.032034943846917005
Si	2.0439328772732854	0.9299663291024228	14.056029595871404	14	-0.058940532580138594	0.1074495766553724	0.12512643995245448
Si	6.384646718365967	12.731419303738548	1.0744408551627969	14	-0.5014521836781645	0.34301887407691567	0.028277530532052605
Si	10.130637906530282	0.43961733907199974	4.694946349077325	14	-0.19511346943007726	0.1906410317256797	-0.156701413057597
Si	12.280352791908058	10.539840247839383	11.705700290680488	14	-0.24637925262957386	0.3946716086270945	-0.07674235159577987
Si	9.234859691403404	11.138812586536865	15.580682424349632	14	0.080269650984491	0.04227797033185494	-0.3841701860574817
Si	1.3499128488950882	-0.16130400477713766	6.025203168782762	14	0.006090177171834754	-0.515476277646912	-0.47566014065909895
Si	5.774203843447116	2.009363507652561	13.491289741418516	14	-0.11822096528360077	-0.33340808239020214	0.23165427535055377
Si	13.39592817316785	1.3716016937445998	3.04364433929419	14	-0.28040911709439376	-0.048308240749730245	0.381414989596411
Si	1.406486585278577	6.731919667482775	11.597098305476303	14	-0.288868824929277	-0.2823125063628994	-0.24212870131430503
Si	4.424683753600296	15.972568857325703	9.02209110455685	14	0.11550227851807619	0.1583600330996245	-0.06393001956441796
Si	1.0541044818476955	9.695546334901499	9.578632319295068	14	0.013388259623075077	0.061502896142198164	0.018083355048197483
Si	6.943989833427598	4.513181076894423	9.18757906137118	14	0.4856776812074599	0.0008119550601027633	0.13689413189224023
Si	10.686755138697567	1.1634985585216073	15.43479790973941	14	0.007930574359996749	0.2925887001064672	0.16178140294914556
Si	0.458310369088911	5.629405578756998	0.5000447154897442	14	-0.09049056596367566	-0.01122853115415069	0.10540194837840647
Si	1.7233839768716421	3.7402329132474583	5.052385019836737	14	-0.16635282820836886	0.05950026220833483	-0.1372797976902624
Si	14.705030234595686	2.3430657278129163	15.237904019153373	14	-0.027098935853296723	-0.38295431035158367	0.0940749438904941
Si	10.831052183681736	7.527846700468331	7.999303815942762	14	-0.0509657352086353	-0.20915453269393794	-0.4400693581544171
Si	3.6911511789604172	9.375015511276136	4.459226829728249	14	-0.7360501175097558	2.6758961167918867	1.2525491808530227
Si	7.473215395863303	1.5367051082271528	7.737047589014514	14	0.39453688270831877	-0.049362651041522966	-0.00125135695931607
Si	5.865427473272941	8.018314011216223	0.7449143703231416	14	0.09065408826203708	0.16216295497865554	-0.20764195143409483
Si	9.119909471038312	11.317154774629637	5.291958179220067	14	-0.09868982082962789	0.3400119664050025	0.09957453817029084
Si	16.265210501837483	3.652775826261085	1.832222603510766	14	0.17120424683695626	0.081606368640436	0.13470766392798628
Si	15.707052237293848	7.580599663683528	12.356598990914181	14	-0.3922804806793568	0.007820273941762396	-0.2612672379858913
Si	1.4529751238410742	4.972551402410667	10.087207629845718	14	-0.22930942729857873	-0.4979796488327724	0.2399090660914212
Si	8.000924152434777	6.165086193667993	10.432401749690316	14	-0.11294222895080473	-0.2419214702255011	0.0545652826568426
Si	13.624505722542992	14.402802968625563	13.013885366547937	14	0.06237655772998449	-0.1374862574474703	-1.0451103467392195
Si	3.214882354308886	10.619803689386009	0.99548478305796	14	-1.4615674449649927	0.8012685179500999	-2.123794186748933
Si	2.8398648402887354	2.655312457872104	15.585199975076357	14	-0.24125606816864678	-0.4020959323495542	0.11632837465743977
Si	7.2966184383532084	14.36737906048978	3.6925940343762287	14	-0.17129783507060964	0.05903283526113191	0.1587017329966722
Si	14.31038791490855	1.590831906439637	6.7847482244896895	14	-0.1940965972759587	-0.33925323322502676	0.29153454692520653
Si	14.17304714210562	15.778979730112324	7.434655988714572	14	0.1235989462817545	0.1341610469369228	-0.15118407815109122
Si	10.92800615158835	9.109881790232755	13.051948484020613	14	-0.07707093885569478	0.04686147978608292	0.01266500769651742
Si	3.9785094747685172	11.634157340193788	12.65005902038846	14	-0.23208724948646672	0.11225420116713311	-0.057862468119400504
Si	9.664035227158704	14.957132243284418	8.320178098317445	14	-0.32961981581149596	0.15352712642934216	-0.3594186693614802
Si	2.5126275326634593	0.7183201457285328	9.745042191699683	14	0.28533664044045753	-0.047801475891129055	0.003481019492948484
Si	1.479465817807897	2.141835054262955	6.785206717269884	14	0.1995691949498939	0.0897912253165954	0.17563451841410338
Si	15.420275685013305	7.123002505586031	16.07320391422026	14	0.4943196804095416	0.1758152671181098	-0.0028356720575913167
Si	15.006250131124018	9.54786071603646	2.672081132886835	14	-0.10482036435498897	0.3263401138651151	-0.12509841490446486
Si	3.773482678199737	9.150666284207235	6.8099521806540295	14	0.10804247354219854	-0.1535086144710371	-0.15150340943185361
Si	16.178727917426937	0.47094274902209743	14.88173565276346	14	0.15993714910300333	-0.23937838995334265	-0.11430465765995121
Si	4.25188291910902	14.107992110960172	7.577490458163353	14	0.016721440560115045	-0.3002086849437901	-0.09039749195108632
Si	12.859493263682985	14.367518744670125	6.065706651053251	14	-0.2488657685846891	-0.07560489460214635	-0.2192332655489184
Si	5.954148291255623	9.710075133000796	7.438195750178874	14	0.0816863300158926	-0.09665247697394255	0.10789129254937385
Si	7.75180481183226	6.773936668930896	1.5597382078945838	14	0.2191499617365456	-0.23584954790143942	-0.009283747089990683
Si	12.496105690184125	5.467181301732874	14.14914142714685	14	-0.07047759637270705	0.07041794672927962	-0.21422320972207787
Si	6.4259570821958665	13.40617770531866	6.992713318875634	14	-0.08118059359941948	0.17758855845741595	-0.1916033964470111
Si	12.745193807263977	1.1579309114273395	10.394682090966961	14	0.0387699542330449	-0.35183005200906314	0.09279041967254811
Si	10.481187682183682	11.286149816622688	7.267235460181571	14	0.24793065757975122	0.08099984489541306	0.4305562684698693
Si	15.721789739992014	15.327017596184321	13.193918554894546	14	0.2907480458077732	0.012264686598170366	0.543151912423518
Si	16.208352467063406	15.524616481045284	0.5447830934396687	14	0.1712068179422764	-0.15973094645632746	-0.24706728041324547
Si	5.20036479715215	0.6242551753401371	1.474657395317393	14	-0.0430708992125886	-0.09861962965438785	0.17929217284254606
Si	11.000311613365412	12.314996111977202	10.855569222347432	14	0.09070910991588826	0.0029783684028595347	0.1602575088258938
Si	5.590384392141477	8.700866790059651	14.874187776994875	14	0.1935944604069338	0.048690049889772234	-0.2657661580750864
Si	5.5064604932462125	16.175671298892304	13.123848040003022	14	-0.028580406738766044	0.012275485240514989	-0.13825913170670684
Si	1.805937327456217	2.3821017045181216	1.453685048145892	14	-0.2486819345542985	0.012963255913654598	-0.2301370661011344
Si	3.417348822019087	15.507086938083491	1.5793350767254994	14	-0.1657684159690992	0.038968700674292346	0.3761568221061762
Si	4.747740395874976	5.2370244994481725	13.069597991043175	14	-0.3416456467254246	-0.4080238727756875	-0.2493231682211434
Si	11.47048199103736	4.997655114633817	16.248632454645342	14	-0.19338491532334173	-0.17695889476451168	0.20491478002101376
Si	5.192713390755777	1.2274147527614092	7.462744012367236	14	-0.21545579761255682	0.0889440461136066	-0.16368273533339506
Si	0.955750385451024	15.39184420261132	9.454612487267266	14	-0.2547471720045278	0.09561426464566676	-0.0487589555123522
Si	15.638418004444942	2.0535842324635554	10.55238060054787	14	12.112881340973928	-13.816735867340945	5.236830401403991
Si	15.777827746460293	14.063194572651513	3.7149714400676817	14	-0.0381675442565342	-0.07119004965692008	0.241919670451777
Si	5.534569880361752	11.031678106897964	14.339621348840053	14	-0.14786992339342034	-0.19603906734533058	-0.13234944612834648
Si	2.6304421003972966	13.600604937614115	12.577986913359739	14	-0.005521962896082029	-0.1450113684984797	0.11733907615878997
Si	17.016428737052482	10.825903589128508	6.454743526750261	14	0.27182471065148334	-0.3506630273042479	-0.05425315047097663
Si	12.720964353675463	13.343494018552502	9.566816680981084	14	-0.17858023377939705	0.08545711307842177	0.09988127103498452
Si	14.534516933975492	11.825307745952651	9.212091170006982	14	0.3911013717795369	0.010917684520944788	0.13360568818777083
Si	10.131701149644211	5.585598976457148	11.19114978389762	14	-0.1754159744618908	-0.11047448206452662	0.09989592633530936
Si	1.2204026069080325	11.972702493053909	1.097638289160047	14	-0.16031972957464138	-0.008022877040990065	-0.02073236485954605
Si	1.3847665169063998	12.833410118854113	3.24781824069121	14	0.03388176879837937	-0.3676071255850878	-0.39506190241469297
Si	13.673554589964068	15.538297314002715	9.702310335916849	14	-0.15413185040064098	0.37984944356697287	-0.31316808419946446
Si	4.408856714295427	5.1434574620791285	-0.8613337395968157	14	1.036401498798814	0.792781299288291	-0.620401285988431
Si	12.561767115006605	4.588040294156872	1.7977699112642125	14	-0.19162010863159207	-0.14253436563304905	0.07186959279303522
Si	15.66268854161591	12.553323617140505	7.208655201630992	14	0.12176034886731661	0.1183690609500413	-0.20060380773072148
Si	13.762069990034474	7.988554707429301	1.2532678295285344	14	-0.09697952157066539	-0.1481139212883024	0.27433822321246015
Si	11.122967470455718	9.305742017884233	2.716315004444215	14	0.5445796472077963	0.058719674633137875	-0.2977296251941033
Si	9.595055892217179	0.044182927915136345	10.084047480683298	14	0.25590108407221024	-0.023172858029430605	-0.03910445503519616
Si	3.4606131210305353	14.285548780956407	15.962685790730388	14	-0.028769640090328945	0.05018926140195058	-0.21138188123278223
Si	3.982535665849083	6.61545592794005	0.9924330945532213	14	31.95537507924279	-27.899736172968026	1.1009508976348557
Si	17.008917014836456	13.396920752519955	13.806644033654582	14	0.21616619401251377	0.14652394975832284	0.04347816229530006
Si	13.713331714496757	10.895131068908059	4.210597205428593	14	-0.24280798733988818	0.43866090666004	0.24693923936830214
Si	13.678103364213456	12.219470209396714	0.7985070819637138	14	0.11750054157289527	-0.2382370763017289	0.09769763128658275
Si	8.656402850440523	9.52371014292626	12.48663181607006	14	-0.1253922922425578	0.06148181307857295	0.17404788932104004
Si	16.658533216856174	-0.2037417021095962	4.123097391516466	14	0.22888262381543414	0.02839451582411934	0.029600621329800805
Si	14.917364978811518	5.688123878144626	4.565772992466397	14	-0.18276265080368195	-0.12731496480096452	-0.12724451651519245
Si	2.287545374483568	10.61815870274452	7.866227518998634	14	0.06938204839579196	-0.3092062680116483	-0.32569425220869386
Si	12.028078232173016	9.558208848785164	7.778121311409475	14	-0.027897521165734716	-0.12558743913635703	-0.01124935710724389
Si	7.230296389524857	15.920113339247479	1.8987204900720245	14	-0.0678982635155345	-0.13886796944651789	0.0019149592424462893
Si	11.222396313369405	9.863249518481787	15.282849458358868	14	0.06096039291964693	0.032753567783898395	0.10962884552472991
Si	6.343319921103084	3.9431217201852937	16.251353831147146	14	0.04094588066548622	-0.2820857348736623	0.0514850984833052
Si	4.981671957715621	0.3497494674671814	5.326354997794483	14	0.2333578897356839	-0.31285543779253444	0.16021842802502753
Si	8.950995143447257	9.804965061724884	3.4147408362048597	14	0.2930828665489997	-0.4092096665493398	0.48404991442927414
Si	5.97873763702644	9.897189487619306	9.778268949845787	14	0.11459493545059593	0.040726051160613556	-0.4439674109302936
Si	14.123536495217751	2.806677522381788	1.2708466727892729	14	0.20118204931722278	0.31770685642112184	-0.37392047469871137
Si	5.828363508525564	10.140631077126576	1.7318767750366884	14	1.1075815211449855	-0.3772497989777711	0.28735932899581806
Si	7.957142200284399	13.371204073246581	8.79437631041326	14	0.12779550438530018	-0.08597416235830356	0.1183659756236571
Si	3.3694108546675863	14.09931361500243	3.4720425736694467	14	0.1374235224776587	-0.17179971482910256	0.050039623072317956
Si	2.655008439361939	8.53533610631957	10.828048152132647	14	-0.03549616582890035	-0.13969175159109334	-0.1586410549111167
Si	2.551162289662716	9.730809195394059	12.793457156588518	14	0.3516230780307912	0.12908979880346275	0.11554367331373057
Si	1.5352310292886764	4.618051029468417	14.951451205502575	14	0.47379968884943985	0.08093916680985756	0.16818654052269846
Si	7.3173623608062615	7.861757625227557	13.512247298500332	14	-0.055347670005763676	0.3117817442108406	0.07659297037667925
Si	6.540399509481818	4.802616558631436	1.9854117790814414	14	0.0048362491071985364	-0.18987767055612773	0.28638488007948193
Si	13.3970604367003	5.1429200888206195	6.268935630053812	14	0.0018249705562411065	-0.014969489394966146	-0.32588194289706474
Si	8.92474273425867	6.393198676889747	14.414616963596252	14	0.019701351626166673	0.1987880931536329	0.0490975700830157
Si	15.622364183764923	10.867951814099296	0.8750556561367021	14	-0.03741806705571104	-0.05047182587663485	-0.024943835373948602
Si	4.834070149358792	7.875325067497413	10.214502645066814	14	0.06524256883035355	0.12968578101667305	0.3320541383286122
Si	17.017316142433504	3.390803897723424	11.874902203348727	14	0.3753682641044868	-0.19213201570083357	-0.2763375147094072
Si	6.137093483926624	6.7506587111120355	11.849019546402236	14	0.3637440398415653	-0.002905863232831359	0.10840885605031965
Si	7.766460147365518	11.32800084039769	13.73699914467729	14	-0.1456847409818265	-0.06214130159319094	0.11361997231319577
Si	11.433452536499246	5.625762286664911	9.247943990743593	14	-0.10597556197533152	-0.1760320112965983	-0.05236235961853974
Si	3.2059590001997145	3.304768302689985	3.2240768600622594	14	0.04631666256874353	-0.025237969822573543	0.13490152526912547
Si	8.373166059624285	7.509418248722429	3.6846123159769197	14	0.09745517605489279	0.04504062299835405	0.29109771613131336
Si	8.138522930135524	2.6790472651278625	12.98266841725552	14	-0.16011918335966982	-0.11703285751516032	0.11732030708995289
Si	3.3287496114404718	15.116299901773909	5.615659012067639	14	0.14434853754694554	0.3959414775447157	-0.021801430451663623
Si	13.578170014907226	12.024538470708714	13.074138548576071	14	-0.1452332548876085	-0.46592336481169816	0.4224680853537474
Si	5.043026179753545	6.0508623310407	8.61170884275965	14	1.5187840514279722	-0.9784436426720361	0.3309467632672244
Si	6.792204073033577	6.791190130218594	5.266418981022897	14	0.07823179290774164	0.12086149044739285	-0.38303555727970034
Si	8.351715499553011	3.6797513065008736	7.480702467929857	14	-0.09784521273195924	0.1400383365882493	0.23355072263469503
Si	16.48367820324216	11.730067785106048	10.591114202086208	14	-0.1418723060131109	-0.058899652005548246	0.1678245288936216
Si	14.779251834658437	6.112310223646621	14.014827692699184	14	0.14775165254869355	-0.009391219292372873	0.1078663528277684
Si	0.6675720613371273	8.6852961123093	3.1540622188428746	14	-0.27762589558533346	-0.285222483364243	0.3544204406191123
Si	12.418622053674467	3.016174212721646	6.513123297418461	14	0.1605161620211007	-0.21939910184206798	-0.2701038698607083
Si	5.87253657638091	15.695108418202603	10.82103600627927	14	-0.02675363640880083	-0.02398069932102113	0.08666450413676331
Si	8.166770358088112	11.107523330139328	1.4342426535850064	14	-0.7189928905948293	1.596571557336392	-0.4776038962811309
Si	9.228644567049649	0.5626560951507832	2.4796719261615565	14	0.12521951396504385	0.20616330876447767	-0.005834352192480021
Si	15.635335092417536	8.898383507755703	6.580033663147565	14	0.0743052008628115	-0.14201731635316728	0.17113945498288852
Si	16.361411818513528	14.84155097909282	7.535994396540757	14	0.11011735553555806	0.3960674617054029	0.06720663618441466
Si	2.446052408967186	1.887292680776411	11.867191636593619	14	0.021607054889460426	0.041978950783121714	0.39257075847000156
Si	6.798859613391247	7.5398365331719255	7.4434577354196785	14	-0.22308478131850024	0.2599971119577381	-0.12919855655850498
Si	15.844389723410181	11.608000244916495	12.852617515323358	14	0.007408639980006689	0.3115192343576535	-0.2737941773267168
Si	5.128286116750239	1.992905424521188	15.81538142751053	14	0.349657468013538	0.2657988111126523	0.2537300427398772
Si	15.152782122993726	1.5353082664236914	4.587000057849118	14	-0.2171290729549092	0.31961924455824803	-0.3815638565944476
Si	11.43284778616551	8.256505118885777	0.623890353127939	14	-0.23357077725619219	0.03220463679804678	-0.24205876724959705
Si	15.908169520156234	2.574364653689861	8.204038097404466	14	0.15016823443910074	-0.0929115187331271	-0.6942645138467092
Si	6.741294940998949	2.8723948208764063	10.941466776543825	14	0.041784575220918524	0.2929753943466175	-0.07820711029666823
Si	11.618313867455937	2.2448693923728715	4.454214632668769	14	-0.08615105440432974	0.18805449977361072	-0.3116254210073756
Si	1.7952605260478767	7.274341276602946	1.5685038010471293	14	-1.8219891025118629	0.69282135243051	0.301613279780187
Si	12.676725552088188	11.717078799677155	15.191454920830031	14	-0.056003816083465455	0.2880021053258551	-0.06545468501926577
Si	12.113785158546818	11.447471898176103	2.469161102426334	14	0.3769289250338167	-0.1602294837779042	-0.049068773703430046
Si	3.4232385643998002	15.419108911271591	13.897777279599007	14	0.22957039448857378	0.11807904026992858	0.047741826247701624
Si	7.133966892071555	3.19840948108783	3.584343724637857	14	0.18054841490197043	0.21878537900214864	-0.15026953598871456
Si	10.70242441704581	12.952582088152257	14.877799845564295	14	-0.009984887510795064	-0.09253510891425742	0.13529001928299983
Si	7.595945203402026	14.525744767449753	0.0692356964960429	14	-0.11026236587561439	-0.05815557412589738	-0.06543874416628084
Si	10.026726023099133	12.577237548815765	2.115835719942291	14	-0.02824436327342269	0.10480442350200406	0.10826924503143562
Si	2.127720378674801	8.834906086176519	-0.10882383654943999	14	-0.9430678045721185	0.5495084561065201	-0.45399832122631933
Si	14.451017017651159	7.620041546183386	10.320427624038246	14	0.007175954948533288	0.26208047859865413	-0.022664036286573302
Si	8.983571137647276	2.8430545696305223	2.0806731033909194	14	0.27926677500065195	-0.14382763160908354	0.09936422175510273
Si	16.073780727717924	3.6793289672732388	4.142426395389777	14	0.019332140902193404	-0.026368484831842655	-0.08633488843472034
Si	3.322942036224668	2.402007521889097	8.23433970447979	14	-0.3160569781371828	0.22028639028805108	0.27799279231451857
Si	9.890683491501772	14.130860876297783	0.3736239589032857	14	0.06046776914030656	-0.09997305949491381	-0.2634002269594861
Si	12.664285443320889	1.6336689361935555	14.233001235653486	14	0.09621461773792134	0.14122413036190162	-0.16693595489497842
Si	3.6701295314899713	4.306381112906895	9.620484986413372	14	-0.2705111329434197	-0.07711053387762506	-0.029077915618214698
Si	6.646311341706865	13.517294005769074	10.711298470856036	14	0.1503574677906636	-0.01910485519189232	0.2271993211623332
Si	6.836465881427026	11.297534898992547	5.93039047719369	14	-0.05195123987784806	-0.19636791171577753	0.05838440249939056
Si	11.40929867670245	13.450898006492304	7.620771190607782	14	0.26270602852304614	-0.035789786056461256	0.06704671343350146
Si	1.3159597330111847	0.103400803665413	1.8660656153936908	14	-0.03675137944619664	0.3570123718923536	-0.04169998585588565
Si	9.458832592857016	13.440047010694355	4.178336733141825	14	0.09280430364127693	-0.06360580318354728	-0.19266989093380854
Si	3.3681635571042605	8.169018451720037	14.327514838762287	14	0.21066479995899295	0.08280373238802896	0.3300828718796546
Si	3.307939955255492	12.45773362417139	8.89061378064186	14	0.018172058181742595	0.07849147454507659	0.09586160497746501
Si	13.677575851014739	5.333797699591986	9.805223066622698	14	0.04341259910963628	0.13724380221578036	0.06749357153814318
Si	4.552511212050004	6.976350549655556	4.562027813089823	14	1.3466932874766289	-2.7819364706212855	1.259169519941872
Si	4.9481362510294575	11.854196077791533	10.510940412597412	14	0.004282947242302671	-0.07656108867070942	0.04304493104885511
Si	8.756995180409332	-0.05476277206888357	6.55664067129783	14	-0.09097367665333149	-0.13117033722852656	0.1020497412619974
Si	10.829762159192658	-0.29114291542383136	0.9634428754298513	14	-0.041936527545339275	0.06355720929299648	-0.05264158165630781
Si	14.978351091950648	4.737221355423262	7.975578868746792	14	-0.5141719559180009	0.09904103381636012	0.09408060032219842
Si	7.416324494223263	0.8502723958566988	9.983335186653724	14	0.10084389286684796	-0.22103715304153432	0.030361154283500606
Si	4.400643284491074	5.336906905112161	2.8799131164656258	14	-0.30484978715718936	0.07199120607467822	-0.2774163505017414
Si	13.35699408374713	9.745955890573477	9.753957329092364	14	0.10041451827838323	0.0343355688873855	-0.04934362486215387
Si	8.637404158570149	7.771733636009411	8.831673629908979	14	-0.13315137387770068	-0.046600512596087884	0.17931274168510727
Si	15.96825015113806	4.030843385442676	13.985321463780183	14	-0.21796673906821348	-0.09904437625327632	0.0087145043721099
Si	7.863723063812192	13.422581558121193	12.752161582848302	14	0.3270582235810325	-0.0538898532892397	-0.07982279287984928
Si	3.6991690509122868	6.768837374676614	6.741498715567925	14	-0.806012207265773	0.30713858511318515	-1.430524176440057
Si	10.704164717598593	3.660782194809866	8.077316608994437	14	-0.026609654510872542	-0.1386041740406707	-0.061711412783662184
Si	8.25508691361944	9.659729667717448	10.185311938061062	14	0.05532787249479852	0.09249988477137139	-0.1375921869866604
Si	9.69786016226535	5.642180929557128	4.50941617739827	14	0.1250122828762399	-0.1273080228166001	0.022914719055287736
Si	4.483098034477757	3.2705933354608256	11.742057617809643	14	-0.12163025093811712	-0.08059489580748974	0.05512398384291079
Si	11.385396248430276	14.963570862326728	4.360042844965991	14	-0.09186250776250668	0.03998917237585912	-0.07065294575554114
Si	5.562552730043332	10.72828242384283	4.002162114859366	14	0.015426117699824445	0.5470844180106845	0.18805090022616253
H	3.7549884927219064	10.277830522405862	2.2910851359478683	1	-0.11732647774272126	-0.21301941821118453	1.1723317233065305
H	5.633670054615802	6.203196968096317	-1.0445928108377718	1	-0.3667586608294389	0.04443332792173507	0.05131514842164342
H	6.826287013038038	9.20231327738275	2.6053318148009534	1	0.168508185798249	-0.013856715012406057	0.10112697156259627
H	13.89444129270368	14.284099352167406	11.455833228877296	1	-0.08043702994083266	-0.18340362735999485	0.6528522346761481
H	9.240770797246993	10.128881172544517	1.651076871751282	1	1.1684570675890675	-2.0878089966881404	0.03370127720490498
H	3.849738737265647	7.016109597411965	8.2502193307702	1	-1.210521379068818	0.8495821580210023	1.259029651812456
H	14.981195719199814	2.853672210680128	10.230091399593443	1	-10.525249002614625	13.413161549432308	-5.718209451626695
H	3.297815317195343	7.216267167788208	0.9700901990710299	1	-29.937025778331105	26.70031219868203	-1.4847734702530535
H	4.212399953026707	8.140639556303592	3.692958856588427	1	-0.0992073843305737	0.6806571960503575	-1.8061811756719965
H	18.384479165929694	6.745049980435313	8.536517670150968	1	-0.12471300621697468	-0.01814351891268895	0.15249148520638653
H	1.3727158805007729	8.009949393828437	12.693903419584169	1	-0.013043731510175235	0.2292137821806692	0.320834863153614
H	11.370182176175632	8.847806331067309	5.245901839944994	1	-0.7032060468185881	0.42759101270414246	0.30933790860403987
H	12.902923540367551	6.911803311589249	0.27353120529712915	1	-0.5788869339366601	0.07928774586272645	-0.11592316845898443
