221
config_type=amorph dft_energy=-23181.410420435866 dft_virial="-35.060462335763525 8.613749323568888 -5.990067477121007 8.613749323568888 -26.72926336488902 -1.081764207458511 -5.990067477121007 -1.081764207458511 -24.747374462418392" pbc="T T T" Lattice="16.335599187411276 0.10655945780755552 -0.013656861371626002 0.10732724786074502 16.459605448980668 0.0768933570289995 -0.013803884998832502 0.07666465360890051 16.351330715522373" Properties=species:S:1:pos:R:3:Z:I:1:dft_force:R:3
Si	33.26741022146621	-1.1398104714935384	25.717358168598263	14	0.15286352414621196	-0.33665178886210095	0.15911645228481205
Si	31.793352968689693	10.046340081673382	24.926807224321337	14	-0.06301702006523337	-0.11927563268592552	-0.021241443712935373
Si	36.682617157058424	-2.4727936531778396	22.268574303743797	14	0.31741477885675307	-0.1281516024721407	0.25863622591178376
Si	37.401124890408305	-1.2548482918033355	13.577061847565886	14	-0.17990949522991362	-0.11193049900732648	0.035201002938147354
Si	26.246574615515634	7.9108071941362486	20.861731352538527	14	0.2371939788733448	-0.10096087815891469	0.2321409855876578
Si	26.592034398766888	8.999226373537685	26.464047064091915	14	0.09230962297768044	0.08814546080116861	-0.06766352159980497
Si	31.980242869211168	10.746987711509389	15.234014858991426	14	0.23122567209368508	0.4855889780739148	-0.06074339163062643
Si	26.923785045579063	0.6434668740236836	16.462915114188675	14	0.13785032596080327	-7.121961736810179e-05	0.14424517911307558
Si	40.44998488611079	10.869273796640467	23.78170880303594	14	0.24789157677888496	0.1570055748169705	-0.07141245026711289
Si	30.51135594732475	7.421532165943311	13.888501997077416	14	0.06698217868996574	0.2430980080200009	0.1807124514213959
Si	41.815251189137925	0.0321458992907723	18.287236555634376	14	-0.19223048903459522	0.1466936427094526	-0.13758524500229602
Si	41.972608943741186	4.145654621067123	26.34741812141657	14	-0.3039046488415029	-0.05756473412332736	-0.1339684711484437
Si	34.499714890431214	-2.0667258300044917	21.437191630999912	14	0.0025078561292724362	0.020993074939009065	-0.24811552005226983
Si	39.33347602593363	8.153964670385506	15.504793174005211	14	-0.11771908552510785	0.2135403241490465	-0.038777924659537354
Si	39.1262756281115	2.099218051617128	13.677031379682875	14	-0.4011754766449411	-0.3253335261322771	-0.512871747957602
Si	30.65444260851383	8.620999924569674	26.44439980670955	14	-0.09295497041303762	-0.1490649731462252	-0.15483787592155368
Si	26.138747487322384	5.999777751747583	14.863446707405016	14	0.08905408942130894	-0.0810263272802106	0.0698029383367002
Si	40.8035620071797	3.330447814507668	14.696388660597844	14	0.1397930531407072	1.325357998419508	-0.5498092754289775
Si	29.80382597813962	-3.1751532914728737	14.403217013564651	14	0.15632474612819527	1.317354918889483	-0.8343948960054197
Si	36.48875997020322	1.468440950217223	16.312518111535713	14	-0.07726120064938574	-0.10687570594791536	-0.15318568364282648
Si	38.015205008545124	4.7098447217052035	15.934293296163558	14	-0.009341596959694014	0.2178381838022061	-0.08185242341957417
Si	35.88752318270081	1.6700479158220651	24.010854927612417	14	-0.04434231079340183	-0.16186290698779426	0.07787903725781734
Si	33.72389898079209	-3.2298036073013874	24.682308565872788	14	0.1893130558278232	0.18915724684542223	0.2633567752795757
Si	33.65834441261243	-0.8878299440160338	17.843050406713953	14	0.17148346887472435	0.07512512634940673	0.12498631471250639
Si	39.81719846180573	9.540653949492484	11.920270562130273	14	-0.11355003824848774	0.16105917946471596	-0.1011832787691075
Si	36.60210538520428	-4.8394215451498654	22.502381077302722	14	0.22257544535457888	-0.0530146490382613	0.02451883166452813
Si	34.37664958007594	10.573806947426995	22.142156854688217	14	-0.038307669496482274	-0.13071216626047616	0.28242666343911393
Si	38.280786855135084	-1.7009947557531755	20.72859165652789	14	-0.18523219746368416	-0.10035461152442378	-0.03850307350081353
Si	39.90137275557316	3.3860325471668724	18.95242535377989	14	0.08857663516335744	0.037617327718022515	-0.01420664244647821
Si	33.702743914432936	9.137194978904121	23.96726242214569	14	0.012403012064394333	0.3902665338820848	0.13939170360023206
Si	37.15856694383888	2.9611064934105036	14.604554435852949	14	0.2712441550701939	-0.08901063774139843	-0.09283001469447841
Si	34.84394947678908	-1.8610446763301713	27.367107022290682	14	0.03730570975322057	-0.34509195629655104	-0.16700563184915443
Si	34.65247407269462	1.6535763687873635	12.14701693439157	14	0.4981226022885727	-0.08446929441442089	0.08921221239849805
Si	42.18127794423951	2.289618549637119	21.38602904232791	14	-0.1265629164948212	0.2870749647474097	0.0342296393481954
Si	33.89003077874787	6.59779798900588	19.23162485544089	14	0.0218739356216918	-0.22861754285692687	0.06220043701555435
Si	28.419119884404072	1.2165257665740323	24.38743797914743	14	0.28523019668020344	0.07947080856152101	0.14565465904958078
Si	37.05120048967755	-2.700020302621343	19.004095990763684	14	0.02446843800025322	-0.15032327208990565	-0.03021408705918814
Si	37.995518544862165	11.201661545837206	12.036291807146497	14	-0.12175289266188818	-0.4321403264576125	0.01613137188914106
Si	26.92631875275459	-3.69068837308075	24.55942295106188	14	-0.020322530671514447	-0.4125932411506547	0.33261335373574435
Si	31.953277102385634	7.794322007896397	11.97555798034335	14	-0.21285178214431089	-0.028074927432824935	-0.41890041961151
Si	33.35315113366132	-4.237523151325032	16.247963304021052	14	0.027131074669798576	-0.33317616869032474	-0.07052259071580964
Si	38.1919404772142	3.983503896216931	20.608999370966412	14	-0.26689255931584327	0.07249000050678696	0.1336758793630109
Si	34.42685814876696	5.645612536169845	22.606222231602814	14	-0.15427634651963335	-0.0541503062581707	0.2174635737570605
Si	26.312985187924806	-5.363541172990743	16.53770439975276	14	-0.06387242680524663	-0.1572590858015371	-0.13563866116441192
Si	30.864438088848733	-3.760852948771265	22.053018063108773	14	0.1482856711236883	0.09860548857512703	0.03010455797254983
Si	38.60326521185811	-3.073680851166663	12.61066901155413	14	-0.08575690395875105	-0.13141716333926076	-0.292011486962094
Si	27.924534036077265	6.26528118573637	24.173216386328267	14	-0.07573987763145414	-0.10293702970798052	-0.16366808003307023
Si	29.159834719845566	10.212612368872929	20.144383472247718	14	0.1482476187649501	-0.1492611484821525	0.09947915016291337
Si	28.844225633704806	4.639101853081009	22.720939867124475	14	0.054371678426235456	0.32727008265941265	-0.02856780832269732
Si	32.630260462624825	0.7227044411086979	19.226673426395745	14	-0.24276582121263773	-0.5061835316883009	-0.512347499582824
Si	35.893554418608	-3.2313473553870558	25.729611771127992	14	-0.3249244632758415	-0.04294800037828553	0.07306387121424401
Si	25.913291655788793	0.6535902675547801	10.975653558903659	14	-0.12574941877152637	-0.014378649392396118	0.014491778026482632
Si	26.820268976854685	-1.483893133436626	15.461777327876305	14	-0.09413845019190176	0.06358831966737027	-0.03550876424496907
Si	39.794395097226	-2.394134379026504	25.11937387044884	14	0.06768229066864206	0.20149263883989665	0.242875350299276
Si	35.83757108855948	2.748059456013138	18.122416535152457	14	0.005891944951651338	0.22486295775791465	0.05716904101455657
Si	31.440600813529	3.8988182869459873	12.8226656468149	14	-0.3349042085759963	-0.1946020765818998	-0.18181339871948327
Si	32.084742362641975	-2.354944414396683	16.94233629216706	14	0.9336596159846328	1.0602017065263607	0.41292157130003765
Si	27.889985117279597	4.397118932253546	14.891696480574817	14	-0.1748701288024234	-0.10866519525073841	0.06915913356453511
Si	33.6430016803155	5.617264747248575	15.519100206528261	14	0.1982206502094762	-0.029259435653817153	0.06488775629617312
Si	41.422500439397766	-1.1288784480128062	11.995757393125665	14	-0.06752442480198496	0.08578904277525289	-0.14463701556386616
Si	39.910087989474796	1.9489631718038005	22.20972401296475	14	0.10116270992654632	0.01514561010939629	-0.13406231649262912
Si	26.540429105617406	0.12379552770373085	20.402004806222376	14	0.03859254796595468	0.08557564103368061	0.10359291867515028
Si	33.5806538608048	0.08769959362867726	21.34781760161694	14	-0.11340091413991915	0.1429783955218386	0.1642512067196798
Si	38.09176511201912	10.63913934656999	24.30575981985079	14	-0.12300810627918447	-0.1359145407652638	-0.08694269773240333
Si	28.63618393401589	5.66904156796313	11.359483241664094	14	-0.09964575778765894	0.19595293531710561	0.03973077629118423
Si	27.87973593686744	-2.194183879621522	26.125183740914657	14	-14.746017662296962	6.301874270579788	-9.916729565642196
Si	33.83817391183627	9.275189721804285	11.670836810595159	14	-0.03754533676905837	0.04154083443656848	-0.00603592684957963
Si	39.517654157331066	-3.1872876415049833	16.567979831786296	14	-0.2636527095019247	0.02288695111783014	0.20433576710291643
Si	39.11704907870637	11.081750709083442	17.255098020727587	14	-0.012554964388815086	0.010696055242348025	0.43083523339710533
Si	36.94403333421087	3.702504171920579	24.69603403827044	14	-0.20746094561955641	0.18199209053923357	0.09218595281178131
Si	29.71281508570708	6.585547653667862	25.7747398567011	14	-0.06418198788579248	-0.11610880226309911	0.1949540609002281
Si	35.79297882242775	10.095217269740253	18.74785994607648	14	0.2577139704334466	-0.016652277827003063	0.09091634100469219
Si	24.155184755249323	-4.979000876032143	21.431603099570207	14	-0.31490435162216046	-0.14447143638124862	0.14301181989100056
Si	26.651712922645864	-3.109508875521029	17.18874789136515	14	-0.03848661842676458	0.1134122270033278	0.3737165860468236
Si	38.770981597795995	3.989726262839482	22.948986581688615	14	0.12564143234808015	-0.1579028905737022	-0.2071081899696321
Si	40.613545404186304	5.378867569329092	13.552296534360881	14	-0.06279487656557257	0.4060034982151152	0.03553216130338242
Si	28.568709890703254	3.919997857243012	17.10971289016651	14	0.1553405270116426	0.2423305330819367	-0.1961570810795254
Si	41.17642372735054	-4.258393972004924	25.38923737178223	14	0.046743723162420134	0.11180991416781154	-0.05316531581002198
Si	29.058380249093794	8.633469161752643	18.33735037576564	14	-0.02563186315762023	-0.09138068262551094	-0.3185478649713423
Si	37.66878140373773	9.79019388475836	15.818000874234933	14	0.028301698922062	0.07249154316997905	-0.1858214948030621
Si	30.623423890364975	5.009032902282858	17.35685143952135	14	0.05027256521432338	-0.020655488810473622	0.21486290072573072
Si	34.736607526565614	5.413097936934482	13.416882872916121	14	-0.15032558608469376	0.13682059828008397	-0.1111792220327792
Si	37.610494703529646	0.2704091223499105	24.720786282708584	14	0.33920181111862385	-0.04861985871453219	-0.018436110698121802
Si	31.010022518104467	7.392620786451082	17.65598244424398	14	-0.10958642228694745	0.2142862018024215	-0.07220615047944261
Si	37.5721313384039	-5.00428893991166	18.965788167897106	14	0.14494837641813607	0.016358657599442154	-0.06537266675955304
Si	34.97844832455344	6.617907554016013	17.170881253467847	14	0.042738712405225476	-0.009327712990965216	-0.11753627993684532
Si	38.10186890239992	8.602966659894866	21.507325168369128	14	0.0885794633792096	0.371274550213747	-0.36832137864302494
Si	41.63489240485614	10.744292278343938	11.00741229597612	14	0.08160225487192377	-0.14104286743683114	-0.019778484785771114
Si	30.860698787930115	-4.870595454905217	13.106094528151875	14	0.6676569162200927	0.06729096843891554	-0.7978774871433565
Si	35.52756523621114	6.7671430700140425	20.8753980154853	14	-0.224400673021352	-0.09903794848997595	-0.04243635041957606
Si	31.192550717685478	2.3269886884812956	27.46693933235561	14	-0.07796285529125416	0.06266966373648136	-0.1668901892202798
Si	30.18318614263298	10.88809935530633	23.460455643206302	14	0.21231724934825214	0.013578521416766035	0.019874644124744652
Si	26.8411969733896	-2.7305767131424274	11.801143851388279	14	-0.5498406429138832	0.035154980152916696	0.35739366681133156
Si	28.909561300039513	10.528817717501806	12.710052082758152	14	-0.2857433893021049	-0.030071904934983948	-0.1580489293558866
Si	30.133312461092817	-0.3369046417436948	23.846722650986653	14	-0.17079749797530883	-0.02280673263184152	-0.04740372589810214
Si	37.97157002958609	0.33366522115757824	27.01055839035634	14	-0.12825984600611895	0.04095307976038263	0.08751836821358448
Si	30.32971315669869	-3.5246741940267436	18.066815466534674	14	-0.07303970282423461	0.0013426311981813268	0.7218362759683811
Si	25.69917624670039	10.170627321730326	20.16352104772243	14	-0.3707081357117184	0.4168826161562577	-0.013707590903837467
Si	40.44729598732877	-2.6276503725227305	20.565050741602672	14	-0.045658202496253616	-0.19394953005164625	0.04009433058345317
Si	40.87659191000488	9.203027258379619	14.020620695676893	14	-0.03848661842676458	0.06681274284936797	0.006311549339899505
Si	30.561540012077902	3.8329925418539212	24.091172301559467	14	-0.23106472090064384	0.28731562020537554	-0.34146129847396994
Si	27.27948584126318	8.143078387588794	22.94049024963194	14	0.15154917510655225	-0.029708350642715008	-0.2355944942536807
Si	41.70587704566729	6.032782922459584	17.047088992955832	14	-0.16385757049516514	-0.07928337498368221	0.10247783029780204
Si	35.82800311762005	9.069791180213372	20.88129693012799	14	0.2236134005723227	-0.21251342468417941	-0.1293409957932412
Si	39.26695273541026	7.350111355038109	19.803847346912022	14	-0.42023199505681463	-0.4421884631592832	-0.009872530208304593
Si	35.18404779843487	1.7685619140297093	21.772645639621835	14	-0.10359960354898266	0.23854123806110242	0.029166875862291823
Si	26.709195893691888	7.0503873550190805	11.513580338935085	14	0.05711556202389748	-0.04979331118264777	0.15962655958032945
Si	26.58835390729915	7.929056093464291	13.693078191794536	14	-0.03541594734291173	-0.11152426436674308	-0.024589537060832195
Si	38.41435455326047	10.867507879518131	21.145008309460717	14	-0.05914827789000656	0.07211307646685325	-0.14336766086730904
Si	32.337743887530635	-1.0859361136975032	13.180463979580495	14	0.010604009671886723	-0.10842376846117652	0.12718898064027725
Si	36.11324202316753	-0.20904309394977527	11.899476520455702	14	-0.024194101062593426	0.238916362327312	-0.057545450833426236
Si	40.36175600742418	7.859224771328777	17.65793949208168	14	0.0016946155165095988	-0.0029156334330479217	-0.06491218179671451
Si	40.66908602975735	2.147036669568113	9.91359408226449	14	0.00794831498670577	-0.035770245656028134	0.15271774247455955
Si	35.903547124470464	3.5309847748256185	12.685925505533564	14	-0.20665104744370974	-0.1540171791033624	0.1611432546086848
Si	32.81742480725042	-6.06564760392781	20.023817563554957	14	-0.0424474061724527	-0.028744957479255526	-0.28661370845297507
Si	28.739994049994685	9.890083370678314	26.851400413117734	14	0.09101867099643407	-0.20139056595868682	-0.2270139444687505
Si	30.83005252963685	0.00022053544080975	11.6602119031357	14	0.07286718165725267	-0.1856235196934107	-0.05876621163943255
Si	41.89960681204558	9.016361160490673	24.323582350659933	14	-0.18425132078404768	-0.013985270278413462	-0.061352229370437494
Si	38.530795632412165	6.304534860604647	14.314058618834915	14	-0.23236055798199845	0.19276862137810222	0.31022699682374705
Si	40.126325439582544	7.384768091162397	8.290304580681667	14	-0.013831003959204575	0.11150138152939375	0.11969909373215389
Si	33.679011033810085	3.591378813690333	21.76157966128076	14	-0.04802593338557798	0.22081063866282924	0.12733296253820556
Si	41.666283582860586	-5.138247067447076	14.412317776088733	14	-0.03512207000481881	0.09607629227169738	-0.13048256655538693
Si	39.1673850678743	-0.026163671259325602	14.599844778994767	14	0.016554318714305422	0.26173492204362625	0.04396101587442387
Si	27.01691144464752	5.0657105105709626	18.520474837834765	14	-0.15661039592926373	-0.23186227777095375	-0.3617529758816426
Si	36.548049698268024	4.9991202426174235	17.70434341601977	14	0.08659714117737544	0.07017831971344182	0.07878997987274579
Si	32.87868301832394	11.461161515048394	11.836752973897694	14	-0.05868265071652774	0.3494507511457981	-0.0772969390133358
Si	35.37209755201542	5.454833043910833	24.726113438801036	14	-0.16427486088862517	0.204623730898773	-0.22570808007664733
Si	30.9069246499197	-1.1347446907383456	25.972932606963035	14	0.051823198832904684	0.2118919885282996	0.10085571995132063
Si	29.819634285256033	-4.832122638856991	16.164692388763008	14	0.24512892411238585	-1.0451815663565878	1.9273314012468419
Si	33.37346979894126	2.429866021225257	10.259264599381408	14	-0.24380917575155384	-0.23960413300045166	-0.00415027820778303
Si	30.82175222908311	4.478882038534796	19.59387310332327	14	-0.3018521354644287	0.08255073562452638	-0.03781093194862967
Si	39.41955999325889	-1.6300640236053285	10.933317288651617	14	0.12747283066762163	0.07990609669222208	-0.05067185787054236
Si	26.636197029188004	2.3261163482932035	14.649145068388822	14	0.3020058875625736	0.21760164211275246	-0.3582477879986848
Si	32.211705432714076	8.158669426456113	19.589865892683967	14	0.12438878983610399	-0.07063134847085191	-0.008760012936276521
Si	28.641244813983512	8.860725215921587	14.309847208713377	14	0.06400535295029829	-0.09467066899317242	-0.09607269272424916
Si	30.131337443700676	2.4682963637811786	20.51295046890826	14	-0.8367158327779174	0.35513289390332536	0.6063016015232711
Si	26.16476903574208	4.609318133400688	24.18980391866888	14	0.31277393375388574	0.35615927914712847	0.30895455680080575
Si	26.860416228657204	-0.1990552888748804	25.40176378482022	14	0.13453025766089605	0.13088314476426605	0.24039783321278135
Si	31.58526716191262	2.668235428015156	22.365712814239135	14	-0.07890567961215245	-0.05485633177908337	0.2503441541437742
Si	28.120080361049485	-1.835794185155384	13.535379015656986	14	-0.3317345499373177	-0.2622735686081972	-0.04093276802835346
Si	38.43109891080344	0.26428803867054657	16.810431594624962	14	-0.23690832907227638	0.1315691156636815	-0.22827815695466736
Si	33.76628262532401	0.9847675222208528	24.882237828531615	14	0.012942687071093415	0.050309846241465526	-0.049812080251484855
Si	41.13509375214693	5.815857728495683	11.33341105177281	14	0.22808738093991235	0.011424963600610004	-0.06309543877749789
Si	27.329380759549494	2.8627444196176395	23.05962022756565	14	-0.05075413324078711	-0.013688821835000387	-0.16610625920816666
Si	41.94060026650247	-1.3808867466198942	21.87107632444073	14	0.09540343400941463	-0.044668326947996606	-0.007774765377595776
Si	32.18222882905503	0.5993793890120279	23.158857908738323	14	0.16465769847079523	0.2283966849099262	-0.14525793749868193
Si	31.69971688771359	5.670918569603799	24.86433525152544	14	0.07426149207236898	-0.03976214377609004	0.14656457322238117
Si	36.82258365015901	2.1367058093630695	20.188407247020915	14	0.0033334380475719843	-0.1174038680128577	0.04311229400824299
Si	29.005443575320164	0.27826998561788474	13.081784988191208	14	0.25601601248002087	0.048205396536924315	0.28067059850545284
Si	33.51528388895707	0.8003851913411811	14.002397933882575	14	-0.2796115602240838	-0.09613028548342048	0.13969020892790127
Si	33.21503387107182	-3.7024420952779806	22.466028668677982	14	-0.062375529287856425	0.14631260490100667	0.16646569973192335
Si	28.403981351589376	9.87498077697249	16.437512698599104	14	-0.22455596778268896	-0.19545722621138106	-0.16140730712506401
Si	38.079387356204194	8.323311384989525	23.871775477062638	14	-0.1272846257581868	0.017981796388051634	-0.05018771873875849
Si	30.205038754423438	0.6377950292052285	19.0752178536269	14	-0.2665009799755847	-0.3572219169759457	-0.11041123287365097
Si	30.12131533311277	0.8713812673233422	15.12994826846295	14	-0.1655550142275269	0.10717472549664857	-0.11464224378848666
Si	34.05107882639401	-4.733953329375354	18.4980684370485	14	-0.1007163660429686	0.09562274929322326	-0.2618853317048549
Si	40.98349769013431	6.261002798184661	21.008152182873477	14	-0.020741106617634553	-0.016533235650680204	-0.05643473333512228
Si	41.83063149413958	4.208962994942241	20.018591690405692	14	0.09297296815027864	-0.06902826430373958	0.017369101990260347
Si	23.23280099164804	7.301881070930945	10.665394499197355	14	-0.06509035939540078	-0.188337321358827	0.025299162129193066
Si	37.63382735316732	-1.9229644937261179	16.945662293333644	14	0.05451514610309972	0.09970797853640652	-0.07529456219000448
Si	29.325262437986602	9.130342044280441	22.205922635403535	14	0.04540571995381507	0.31047459426607726	0.062245431358656934
Si	33.532570600324846	4.761327495165347	9.798224641995551	14	0.11020425889537905	0.060684513318795034	0.009199929056553858
Si	34.97587214388562	-3.8738945149427697	14.54085726616366	14	0.10245289057619662	0.2679955634981868	0.22998742777150177
Si	40.14328053099117	4.2633535690293565	16.789227520390067	14	-0.2513551127556565	0.4675848130695779	0.09841959766048033
Si	41.17934786393609	10.032776335265654	17.924271159170402	14	-0.13011541271566981	0.47771548225202526	0.15531918683748536
Si	27.285355351180435	-3.1121373312563096	22.307313395916854	14	0.015670372705238512	-0.01267400656513794	0.10206362523072621
Si	29.631764227219854	5.270924455829937	13.44938816329562	14	-0.09204299935598108	-0.2098708426361312	-0.13182031265345998
Si	40.527601926104815	5.587356874283056	23.23395104313197	14	-0.16480759391095984	-0.009253922268276966	0.16977034139990968
Si	30.096806494457446	-3.2618547580324044	26.508761849912982	14	2.224636022731525	-1.2091250117694456	-0.28289589016004096
Si	40.196476946506195	-3.3411413329931543	14.344706510724038	14	0.0431732292043305	0.10519960238971081	-0.06151600877933093
Si	37.303576347352646	4.019456073856494	10.767017230322487	14	0.32083537737467804	-0.1611396550612366	0.018126806728107986
Si	41.01178340241298	-2.2328608951519784	18.223299247353985	14	0.2827357102985958	-0.29536086586265087	-0.2737723229314955
Si	30.85847546396758	-4.805475423223743	19.958254827396004	14	0.18060600766114174	-0.32902460492988167	0.2201724903223685
Si	36.02418654497683	-1.9375165656278455	15.287939858259055	14	-0.11548788032828336	0.1654040903452342	0.0678113601557135
Si	27.35106184377488	1.7866801256891236	12.437135390766441	14	-0.15284604063003493	0.04746106154674145	-0.07230976602384458
Si	39.841739972378214	1.035047969129618	24.340552144431275	14	0.033712590068313626	-0.05022551398696467	-0.11225600094085722
Si	37.43009344575556	6.41216759089081	10.94522293526363	14	0.350908824972854	0.3298944098596878	-0.18866642283980595
Si	28.937231146679782	11.613721398617148	25.279953076083775	14	-0.07339400113735102	0.049691495411969905	0.0623804143879647
Si	31.05830017649151	-1.3447009647726589	15.130247216504937	14	0.19427451776411295	0.6037634063512208	0.13624389935677475
Si	36.41295132082383	7.448989645122054	25.376869417542444	14	-0.08158065758723451	-0.2899738859958766	0.17770194420203447
Si	32.266675933330724	11.95306009818904	9.683644228525953	14	0.4461780472845569	-0.15067834173461808	-0.1658334649336989
Si	36.5213861466762	6.922119041856556	13.08183726325866	14	0.13310098021342573	-0.009910582567042785	-0.05948714957120206
Si	27.7803381633007	3.5459893527799706	10.88805361462231	14	0.08290426260604676	0.06332478137205509	0.09949663367909035
Si	38.84193846747756	2.410916309274197	27.70081635053642	14	0.1577504240282174	0.010702483005648394	0.15685336538201775
Si	33.69522610629511	-3.0294822816366733	12.722098218613937	14	0.16631683273388675	-0.1077583664043222	-0.09691241572180952
Si	41.128451551388906	-1.2171596017668782	14.29104615398538	14	0.037055284095038145	-0.03660096978496798	-0.15373307196548602
Si	28.22600598366419	-2.846348017992399	18.90669283773938	14	-0.223479960206207	0.0723624736829076	-0.07803536046128233
Si	35.136425211986825	9.26835475673504	9.61936549871127	14	-0.1709705333633548	-0.2846748379310514	-0.2800347641597802
Si	37.489976169116765	-2.050154633622461	24.42397661769996	14	0.1202359405230008	-0.08291583257998743	-0.009446498056756058
Si	28.71801728491903	-0.8651801374469436	20.196892143906588	14	0.08683471130895712	0.012289626319775804	-0.36171980862301273
Si	31.039365166903167	7.603852898850376	21.577479942484498	14	-0.008051416310043708	0.091659647552747	0.37363328223445086
Si	32.13752547840497	7.423882910382757	15.570991378952867	14	0.13473260364959172	0.09442692820882238	0.08758753094669647
Si	35.59860215208975	8.899103283410057	16.7449505382589	14	0.07774328289691351	-0.1319835778412894	0.16363594121656838
Si	26.674088285110837	-4.917471488046222	12.542255650623229	14	-0.20904474649676763	0.28948357621132437	0.1393698492050108
Si	35.319289932314554	8.974305868726184	13.424974073200051	14	-0.06622113151520191	0.03621144732896554	0.15110180278084648
Si	29.47199365153455	2.736890561133017	25.876865735350453	14	-0.05022371421324056	-0.3205726104109589	-0.12068485551189868
Si	27.937184602400453	6.950290402425179	19.5464530827616	14	-0.10710299165821643	-0.006760978549861389	-0.16190070223600045
Si	38.62143406498911	0.6349395036457067	20.543322283097407	14	0.04540700550647515	0.04714995780300353	0.12455719723457367
Si	32.43934538190962	3.792355211294045	16.38224651713218	14	-0.04122638825591437	-0.24448871888766896	0.06735293207713108
Si	29.573379511260296	5.922092100727526	20.903487696261028	14	0.23329361210268024	-0.05225128786870934	-0.02175360789270887
Si	33.627642612059994	-7.351908310481744	15.147945594028883	14	0.09197152262808096	-0.11378195194836511	0.1877192276398634
Si	36.734436451265275	-5.463502537128442	9.839858466028716	14	-0.030014312175812633	0.1736516819912052	0.13135622814317327
Si	39.77278752481423	1.0821347361362863	18.55334278649471	14	-0.0467136412301744	0.05615268308150202	0.20705034009992876
Si	27.3799193146038	-4.607526078744627	20.360161881919407	14	0.07015723664981659	-0.17106874958658444	-0.1120233159093838
Si	31.86749861748579	2.3841514747391828	14.594832906902884	14	0.16737638523631979	0.05801082089637304	0.08213910166277068
Si	37.37072693868543	5.940277289817113	19.678731873755147	14	0.3236468810422599	-0.15547705270414244	-0.0609495942773023
Si	33.5028342549244	2.6934989879568056	18.188461182089473	14	-0.0665733729440622	0.242353415919286	0.1443251404885322
Si	41.27948402283057	-0.8015009373120926	24.11125246184416	14	0.012202722959954797	-0.17203317119217199	-0.12289857719254614
Si	32.670783441474654	7.073736340615331	23.221158353969148	14	0.11189064687486418	-0.004133051802138037	-0.04550239351385264
Si	29.023269373321025	1.5298935591978242	17.144934850457616	14	-0.08141045041504072	-0.06284321334559136	-0.07561517902342695
Si	34.735011503412494	-2.5514774312670423	19.157799391432935	14	0.13164753437594603	-0.15409431226296685	-0.0211933640434486
Si	33.126571388177524	4.433992457956936	19.67255361422076	14	-0.011662533732191687	0.03653103572025995	0.13321925105815255
Si	34.726098604412066	-0.0445612278104323	15.870708844588464	14	0.3931047770449963	-0.27744977487090333	-0.1800596477806103
Si	29.35121700897613	-1.9213701041688562	22.24124097785025	14	0.27633082983557483	-0.11926252004879274	-0.04513061168455923
Si	36.62419323479828	10.8429140938782	13.946151594900943	14	0.018527127826455044	-0.18852578337879386	-0.02617565193283155
Si	32.917531561419466	5.596336750713657	11.933324626630354	14	0.34080386684360814	0.016661019585091565	-0.033430796925225395
H	31.53969963905375	2.3086385062100665	20.020718632212613	1	1.1318931217207098	0.07749979922309548	-0.19318179800305002
H	29.81425322050028	-4.761505557113852	14.571049384808445	1	-0.8727632435874575	-0.7196490366725312	-0.3569236687588085
H	28.712062828017167	-2.5844450292743137	26.716605884503096	1	12.515422845875463	-5.210760421899819	9.709973617101424
H	40.91795619072151	2.0972512022042764	15.385158414951425	1	-0.07423449546650743	-2.2409460864404163	1.2949446506980085
H	31.02431321466894	-3.343614597121939	16.335357415224312	1	-0.5931879359483877	-0.7731887054171666	-0.8115974193527307
