230
config_type=amorph dft_energy=-23305.63351724727 dft_virial="-51.11443888839658 16.116947018086627 11.45034541219792 16.116947018086627 -37.81361422468607 -1.3817989170683447 11.450345412197919 -1.3817989170683447 -50.73060585587759" pbc="T T T" Lattice="16.498159387519024 0.0845397812133336 0.115738986184921 0.08427580063187119 16.37377503729121 0.047615497381280396 0.1153925116717516 0.04758249980859759 16.29124810801153" Properties=species:S:1:pos:R:3:Z:I:1:dft_force:R:3
Si	8.063560740622275	4.108804954345963	14.620222979417756	14	0.02767640610820198	0.28881431749648984	0.1709931590901721
Si	7.447875530720251	15.015547099186772	14.09074887778545	14	-0.18379957757929768	0.0011174023721363551	-0.17463101600764963
Si	12.262741096910526	3.2339947558018136	12.819024076468972	14	-0.16093885173573302	-0.02898535582668937	-0.02504025182345416
Si	10.743785282025437	3.7382653114189974	3.0378126370521286	14	-0.060377009122505314	0.0039016523233247097	0.0794047311547932
Si	1.7543357502246715	13.124271422328482	10.237782353842407	14	0.06797179712769073	-0.016586457530807272	0.03308986835977376
Si	1.2316162517205345	13.405729168162328	15.773176317619763	14	0.02285198408547613	-0.014278376284910342	-0.0056440903987890634
Si	6.9785906515400065	15.070560652363538	5.509004155024289	14	0.10986435877205547	-0.040048822019286556	0.2905989216992046
Si	1.672658508441571	5.532018312091908	6.159135531049887	14	0.002074110661763455	0.023200111745824176	-0.015901515073519824
Si	15.539320870138127	15.834799284604893	10.7924583516112	14	0.18975580016395271	0.00827767357821674	0.012014518050519958
Si	5.425663835577975	12.611528739924989	3.0721235131277043	14	-0.03644798901841917	0.47962478506276734	0.09051216324836492
Si	16.87749783320186	5.647435571943171	8.217839241822071	14	-0.049135365331221884	0.08348713218212432	-0.029068659639062164
Si	16.82378768414607	9.309659626993291	13.221919489290057	14	0.08806652786784007	-0.08412373785939298	-0.05683171199655313
Si	10.146408775326464	3.0875350294492057	11.7267565741879	14	0.13282998571268215	0.16977548361054995	0.14037438005359265
Si	14.620912628686828	12.694420292382816	5.128967810679213	14	0.015708682174508718	0.0590204939555952	0.018780638811021644
Si	13.479845016165163	6.1749578671512895	2.817491144006341	14	0.022793105773644736	0.03606360877305703	0.06687187827173138
Si	4.732020210334202	11.930480288174241	15.917575345558332	14	-0.08470172233536227	0.03323102204184989	-0.009452154488460382
Si	1.5739330707319017	10.219341660348624	4.149321023964539	14	-0.03192181521283049	0.016707556591386247	-0.00831238350003874
Si	16.570531313805578	6.999110192112805	5.14503927845437	14	-0.04843139669456534	-0.034816879803317234	0.00964447316640746
Si	5.150835302096104	1.7640716840447317	3.4449317391766123	14	-0.003716018519210019	0.10040989028880697	-0.04551422059832533
Si	11.358634003459951	6.311054705802864	5.845442456462215	14	-0.0002987624382012068	-0.030378380689145598	0.05315965937831765
Si	13.516648858856925	9.077383113364524	5.760376363964591	14	-0.02662816646917761	-0.06054181697352681	0.06177466197453782
Si	10.84896504495186	6.505966418004262	12.822973885919104	14	-0.005981162306260476	-0.0656878842718032	0.04790843387244721
Si	9.060234274841273	0.320630814244231	13.609758109695981	14	0.020860920125553455	-0.2732766138257709	0.07972226266183148
Si	7.815951904846446	4.447353450556954	5.203751859528877	14	0.042981938968511484	0.020126612446119165	-0.0051141855923065435
Si	14.651046012060759	14.156697826549294	1.5748289548302397	14	0.048068099512828415	0.3428838910476079	-0.053908365247544776
Si	12.846779984731109	-0.15806497266514855	12.532248771797294	14	-0.24955636747368082	-0.14801339107028463	0.8318644141493299
Si	10.65724749778616	15.588360212780668	12.185827054744186	14	0.05818694161080319	0.6385422337957999	0.0026443818217722994
Si	13.795636736375462	3.1428340116296765	11.03943363399152	14	0.15695261004737546	0.39119573134478636	0.17283638449418626
Si	16.193060530736588	7.83139641874063	8.720704100842969	14	-0.034746688628077185	-0.027808046700593565	0.008462536050735388
Si	10.216850343611071	13.36131608520991	12.620876952266025	14	-0.02152066575070345	-0.3969074418134953	-0.08019534604073873
Si	12.327205154903643	7.702895621320637	4.229797154101986	14	0.0221343885906228	0.004498662978663094	-0.024186130636100964
Si	9.683601319663852	3.129554138503483	16.02741931538347	14	-0.0423034242745244	0.00796425583969069	-0.0038206625057400456
Si	9.731795924445716	6.454709638477434	0.15684241259725082	14	-0.1230104202739726	-0.014059318111633726	-0.08511618451297014
Si	16.313663359134953	9.083225333608015	15.455414642320301	14	0.6331043460436867	-0.18173626555987882	-0.11165770473285877
Si	9.375488134616843	11.36742455682265	9.251765385721319	14	-0.07636002823467383	-0.025938081801249867	0.04735898866553157
Si	2.6823462853266657	5.472472542307161	13.348065909899134	14	-0.04877721036012525	-0.04529284843026058	-0.1868123987934472
Si	10.62008563143079	1.8133634581182985	9.789561475184225	14	-0.19998031469058558	0.16149755292180124	-0.03904506250230075
Si	12.818608307053168	15.566857344541921	2.160908742521255	14	0.0680232192340937	-0.01652166567673954	-0.05981419416792491
Si	1.9637515454987935	0.5849314721616541	13.975070937109992	14	0.010958307985003126	-0.1956942821218987	0.02778850630016044
Si	6.461908058958187	12.286707233950041	0.9794240530990647	14	0.12403551996511564	0.09755210672546237	-0.22155883031099236
Si	10.081449753743104	0.1429009381387678	4.457487005127843	14	-0.012387071211409416	0.013120350448715647	-0.07259104494586878
Si	12.237981368247986	10.272126227490663	11.56764227871144	14	-0.09472543353649157	-0.01187722102642405	-0.04497403137056221
Si	9.449737622789044	10.95831900082266	15.527468142030465	14	0.011260669970652542	-0.03139576706432819	-0.018137862480984625
Si	1.312795230156125	-0.4744193014896887	5.855082697321495	14	-0.02453554384910909	-0.03335829175519722	-0.00295779956029835
Si	5.699974307168726	1.9403232688940055	13.58026652911073	14	0.6179564219395023	-1.461635836366509	0.8323426397388775
Si	13.404953725204281	1.2873870991903689	2.86235629370451	14	-0.00031110374373791757	0.01396393010425623	0.05862660062054851
Si	1.3965909161054613	6.264308694461776	11.55745592802426	14	0.043376860745686224	0.05167638871912422	0.08391753521271711
Si	4.5098244551600315	15.654880019551925	8.910257007240679	14	0.2906140912205935	-0.6942064068664738	0.17281375876736893
Si	1.101378132098791	9.352899646236832	9.615908449183724	14	-0.01314246195446892	-0.054131280078801615	-0.02908100094459888
Si	6.9542301935069295	4.281067132657886	9.027368692449203	14	0.011544777108528905	0.036166195875330945	-0.07077790147410035
Si	10.57975104846197	1.0914458627212684	15.291484351110785	14	0.04108857701075443	0.011750208423608735	-0.023441024314322052
Si	0.47435000658705484	5.4666237225491345	0.48544544040164633	14	-0.5255064166113418	0.2772646552878526	0.3483582884952672
Si	1.6766479149789215	3.4373406475809345	5.0432236180629575	14	0.018742329341751435	0.05847310563293567	0.027684119424162427
Si	14.726981676197052	2.1136347700172413	15.1205239270412	14	0.05251971126413279	-0.03759650176492932	-0.042009289825899465
Si	10.875321856132247	7.224734395088718	7.945888096678141	14	0.020088817197912986	0.015416090389075866	-0.04358512027661822
Si	3.6493302535243144	9.134503561557086	4.700870501721639	14	-0.10901280869002243	-0.0528079321705214	-0.35603612320229333
Si	7.505118069931738	1.2483443711920799	7.66194893337855	14	0.40765723315703445	0.14214998538768692	-0.05836023410938117
Si	6.90695787088155	8.745150352565021	0.7423315437372443	14	0.02249485755650756	-0.15441390065426125	0.1285303262857985
Si	8.855454638529084	10.200724429840987	5.740274242686229	14	-0.09048773774782351	-0.5822746223064873	0.19545208400074077
Si	16.318245072101963	3.6185600169976038	1.7740485001453763	14	0.02351327237381821	0.03658682870570717	0.012464461481545872
Si	15.807181966148024	7.3394537562777415	12.272630469443559	14	0.0028580406738766048	-0.06008621711079657	-0.0003422141181117093
Si	1.2425631964580532	4.558718608482771	10.05500219923784	14	-0.13244611968838405	-0.08108289159725386	-0.14673143795765878
Si	7.943380281154249	5.930990313521008	10.278397416179029	14	0.020630034867804153	-0.026460016181239925	0.008004107972152985
Si	13.213407765416529	12.878873423922402	14.701370610159296	14	-0.02662430981119739	0.6415658536522941	-0.4467305778178568
Si	3.2389064444956484	10.30195768307455	0.6685407218253328	14	-0.2519798913484524	0.022163699191272486	-0.28518391678444077
Si	2.658036973531247	2.283917093968197	15.54055002972056	14	0.21357554829193257	-0.4125587883393647	-0.03325441910026324
Si	7.258604753568979	14.012434088658727	3.5009929652860556	14	-0.5739283002162225	0.35040951631968137	0.0393291696401771
Si	14.238017044668787	1.3353985674438429	6.618206011606172	14	-0.005808898249810555	-0.03878923752294601	-0.01459487934982057
Si	14.205087117009985	15.472347346742481	7.204858307183233	14	-0.044743403223344934	0.16077712921109574	-0.27211678821585217
Si	10.880593218368325	8.836485983872377	12.871901036814524	14	0.0407980421095777	0.015129669256411373	-0.0781806279118707
Si	3.835108237607113	11.26216724960042	12.51758960013296	14	0.012752682387934472	0.055805326752750024	0.017976911287943355
Si	9.715775602908217	14.643065549107424	8.111245532906189	14	-0.037347875880471	-0.04052730471936611	-0.03820302550995225
Si	2.4887808740907267	0.34582116123028056	9.709171138735755	14	-0.2060370674932584	-0.4276131242098957	0.32266394747836735
Si	1.352819635941727	1.8011840540410768	6.723134992980207	14	-0.07053930290039061	-0.14161596681269217	-0.2165680577740529
Si	15.41700876747479	6.950615309419528	15.900982516134786	14	0.13435362272540188	-0.3155106182566514	0.2594479238613545
Si	14.924668484261074	9.326920657263663	2.48335442326304	14	-0.009569139780527121	-0.2871832082813879	0.022215635518739476
Si	3.7402121682072824	8.728244046200988	6.9841738408379355	14	0.12915896153657472	-0.022070110957619096	0.005366668134745085
Si	16.131442513387363	0.23463089043968352	14.662232189200228	14	-0.039350509814334335	-0.0015969135143439719	-0.028977642510728926
Si	4.295049854082222	13.794796948150685	7.44904694455049	14	0.024368936224363494	0.004169304387152125	-0.03282273051701037
Si	12.856605011997413	14.048970651011757	5.797289098646205	14	-0.010915370526156655	-0.07425429297747257	0.04458990823573209
Si	5.872660504289623	9.458559523845791	7.43580831839015	14	-0.02984256234042674	-0.05569836877143186	-0.010228628295145103
Si	7.807844401238282	6.672160342699818	1.4882416742319382	14	0.0675874168823286	0.07484461875897856	0.09709265020475191
Si	12.476403679788923	5.274356765798264	13.961782814590629	14	-0.0009582509528191891	0.00999054394249939	-0.028960930326147962
Si	6.474684719100967	13.211868428650877	6.846758749157684	14	-0.007685805133518652	0.0640228364664753	0.06348059035445607
Si	12.721079031353252	1.0579417772977873	10.416437811861622	14	-0.29423035085338173	2.220390099405832	-0.5838121432879358
Si	10.5577251686962	10.940506911088484	7.283681258929272	14	0.03129729373056652	0.022515683509600756	0.10217186876470444
Si	15.23138917174087	15.196306152464517	13.0504096556353	14	0.2628063016305319	0.04766520730916121	0.05950154776099491
Si	16.387825403739548	15.284863388151981	0.3927107120125394	14	0.04207048213251899	-0.012236147329116723	-0.020760389907535665
Si	5.157839036898029	0.550163579704422	1.4232727533767733	14	-0.07298545250197949	-0.03514958083174439	0.05521988607135231
Si	11.06322158413855	12.129363258248013	10.799549529980736	14	0.19968875134728079	0.05419555771180531	-0.24180345649130636
Si	6.033122750610177	8.539997843681515	14.977255065967018	14	-0.16690124497315642	0.19592722426390413	-0.25907717047418916
Si	5.530122601541281	16.008288972620615	13.006074116978692	14	0.05458199484142357	-0.03907128777656625	0.037979339347099364
Si	1.7379359566013202	2.2045265839720143	1.4681873994339665	14	-0.12389385206197548	0.10538909285180574	0.049776856108598826
Si	3.452927051037655	15.295585949395258	1.5098121874946846	14	0.00835634940101327	-0.012234604665924634	0.004066203063814187
Si	4.87986253498222	4.491297967977274	12.952901828357628	14	1.0380776023570186	-0.02550510766533693	2.143612523667166
Si	11.377739598043293	4.787038713146869	16.058245647783743	14	0.03289703546076266	-0.013665938997651068	-0.022319765284205477
Si	5.1396887220438545	1.0319413399023751	7.4145545818251595	14	2.0580939611715925	-0.8569535169738669	-0.9135705416761878
Si	0.8626802908259524	15.115811873662096	9.409990396613978	14	-0.13153389152079548	-0.025340299814315438	-0.08494443467758424
Si	15.624528852198287	1.8019743459068298	10.39384107408844	14	-0.19523996781182854	-0.17134462918743634	-0.2519446672055664
Si	15.939563278115514	13.84066027442251	3.5908833029099054	14	0.010612237208911194	-0.06736630182479586	-0.006635251499706148
Si	5.507280031851613	10.70748135255982	14.118905706555683	14	-0.014394590245381035	-0.0619461546993917	0.05734593306058275
Si	2.4705596144552846	13.29956442769132	12.502242429078189	14	-0.03422064047957488	-0.009430300093239124	0.03620064868662092
Si	17.132475026957756	10.542739321062307	6.408275454198198	14	-0.015544388544551254	-0.031247414287355647	-0.0159652784854595
Si	12.774985515966508	13.150167917369943	9.47963672339693	14	0.04580578394163012	-0.1896290446716694	-0.0788298320052081
Si	14.655088214714402	11.650812660658437	9.106059653904513	14	0.020687113405911447	0.011002530996509675	-0.011737352897007995
Si	10.054142612469454	5.291499004806979	11.010308326463045	14	0.07315797366896143	-0.02515286623647664	-0.07290009180535058
Si	1.2835857788173102	11.608559268838112	1.0245350347137205	14	-0.011436276464018656	0.1465301204110912	-0.01659339951517167
Si	1.4509577168576426	12.433030020376018	3.1633420030520365	14	-0.022488944014271216	-0.05421715499649456	0.019416216046162248
Si	13.605793451338142	15.40345501449533	9.482393670594577	14	0.8455434657841138	-1.060532864891596	-1.4349588188962483
Si	4.729791224299479	6.596237877592597	-0.5351942308568697	14	-0.07696038132692842	-0.25796285342843694	0.2279719383110377
Si	12.532847677741486	4.3616488550279175	1.657433428405727	14	0.0497017798332505	-0.008933562545386516	-0.03546968344410282
Si	15.815140980679114	12.355551719716802	7.083321647477945	14	0.0361065462319035	-0.046247242725099544	0.006828084398717254
Si	13.717493534626689	7.7127074495578665	1.1292841793166348	14	-0.1649178943291942	-0.3082801558753309	0.15663764964565732
Si	11.265404311480602	9.231961892475734	2.675789667634593	14	-0.08416153310759915	-0.19040783247314227	0.037086137358879924
Si	9.726993127741734	-0.30651610252916334	9.975946614604387	14	0.2011730504486023	-0.19496768775842488	-0.13356609316584053
Si	3.5237233432286024	13.986554092403606	15.810732504968692	14	-0.007951914534153979	0.00012392727643113741	-0.005695512505192024
Si	3.9078497367077114	7.026532824890846	1.6477981371823494	14	-0.0492919456452189	-0.10018029058371773	-0.18820568076643543
Si	16.827325023937664	13.299242701357661	13.67830726718723	14	0.10144681706442268	-0.006939927480143694	-0.011776433697874247
Si	13.849538271352817	10.755512619356903	4.1181003705707075	14	0.021221903312502247	-0.006972580517709575	0.2379712240116256
Si	13.836354091187403	12.062666914462902	0.6045897760874324	14	-0.39049844758196217	0.7198549822086749	-0.8198167288401802
Si	8.644779985857113	9.351119427190593	12.402561711639354	14	-0.028026333542274132	-0.013701163140537096	0.03243217961887988
Si	16.662733131395857	-0.35406230500780983	3.9598407122267307	14	-0.012132274674182741	0.10879220785355373	-0.04915464862112299
Si	14.903167265900962	5.424233390802176	4.489417106334354	14	0.060649032065376994	0.029101826897692078	-0.005371296124321352
Si	2.3082676527294694	10.259455159580469	7.890561066560891	14	-0.02981659417669324	0.07306952764594833	-0.02568482792721528
Si	12.137969025203688	9.226601436793414	7.72014510244057	14	-0.02838911650294703	-0.03228074151552316	-0.019866673698252194
Si	7.234336688739413	15.654950964333194	1.7748915881274216	14	0.12574453367141808	-0.027163213486300426	-0.11446149508448024
Si	11.222045500975401	9.491637940581663	15.115681533249997	14	-0.1141498771196783	-0.08741835221663073	0.08261809858391427
Si	5.954049017311749	4.440549351069762	15.760919369246738	14	0.09632208994030352	-0.04662750920194944	0.45445700641543385
Si	5.068399116141299	0.17621033788342028	5.252415029842836	14	-0.27418318556165516	-0.017924460739412333	-0.2737707802683034
Si	9.102758246757597	9.642491293736986	3.404976628293644	14	-0.06514049594914367	-0.019911410930822767	0.05647664235184069
Si	5.997704805971093	9.513591225687529	9.741038544554169	14	0.029120595966529158	0.023860885813102233	0.038155202950997495
Si	14.228477446406188	2.7418854555968757	1.12783558587586	14	-0.011485641686165499	0.011058323981956887	-0.018396258565659504
Si	4.943760684603827	9.133327198090944	1.9966171278908622	14	-0.0888710267225144	-0.663982292496537	-0.38441264128917163
Si	7.958349630001801	13.143941275404698	8.702395397639917	14	0.002628440968787381	0.010261538443242998	0.010565185981552486
Si	3.420163761120903	13.779111551975916	3.354241210415205	14	-0.032607529001713986	0.07211204802472519	-0.039394475715308866
Si	2.66608838126585	8.05100516421647	10.799818460198098	14	0.018404743213215995	-0.06613139993952874	-0.009417958787702414
Si	2.7022933180134183	9.195959890800166	12.787942012880409	14	-0.051715726630522485	-0.04334189371333221	-0.011842768215134067
Si	1.480284309579481	4.257779095737001	14.936750545498882	14	0.7004315670676163	0.4961521071712111	0.5553554067150689
Si	7.388027833145456	7.629068502078773	13.366674891013599	14	0.03636622786923846	-0.07648704083748917	0.023219395035725288
Si	6.366528575118554	4.832921837962302	1.7724811154429432	14	0.007630269258603455	0.024732233406100416	-0.24360143044168586
Si	13.31837469399915	4.900819293393066	6.120170347347403	14	-0.025156465783924848	-0.017106849247605242	0.03972126320149969
Si	9.015388923686714	6.244640491264193	14.264486047596295	14	0.02282061660057032	0.018698363440776907	-0.032270714204774585
Si	15.732815336592797	10.67167073680581	0.7700610539412353	14	0.4868380210384427	-0.2185015289748043	0.1604835089835348
Si	4.880105067141438	7.419342529621433	10.219232768358768	14	0.06669987132581348	0.08352492743033049	0.06734624720329871
Si	17.085610224355012	2.989403548047827	11.73565931929772	14	0.0755604144801078	0.18514529410386318	0.15989601141788098
Si	6.188052953870459	6.302810262268067	11.874932174320016	14	0.07712416073582186	0.3241305059529799	-0.04715304312938771
Si	7.808329465556719	11.091908023950342	13.759877266859112	14	0.10044922820020523	0.02089074494726717	-0.11579024231393276
Si	11.422080086335804	5.272330714835539	9.119370874724753	14	-0.06897684219733663	-0.014512346869043818	0.04699106349421838
Si	3.204857899122901	3.1515074236093503	3.2226089433476135	14	-0.0032082252184807733	-0.058818662187963576	0.011516494950007275
Si	8.55148099897513	7.30675481162772	3.5564156883640865	14	0.0014452183004552352	-0.0821169901570174	-0.0190542044170854
Si	8.039446114505685	2.4708780410316735	12.851762618206212	14	0.3160358950735576	1.0518106472035256	1.0389157826913868
Si	3.4751822639335694	14.898372718590151	5.467156633347961	14	-0.01648669864438553	-0.0529017775147068	0.0719384984156152
Si	13.730443432026055	11.172115223870424	13.139623543019153	14	0.10692481405953018	0.36227439604056866	0.08936622160717492
Si	4.901282909289258	5.5553261475564035	8.674251767898758	14	-0.009875101313624743	0.033483504584288434	-0.13035966772108387
Si	6.953142923487031	6.681180229192662	5.13479683189363	14	-0.0007091108472968402	0.0887131608558573	-0.036993320456822576
Si	8.32089561094636	3.4236664534611823	7.312522787332673	14	-0.04468761023789772	-0.007146130126819571	0.04076667462467189
Si	16.587117543714587	11.509200277732933	10.461106626002328	14	-0.07011687029629028	0.04132203337382388	-0.029084086270983057
Si	14.798713449573556	5.8678874054010555	13.889267348862907	14	-0.023782981321901743	-0.013902737797636707	-0.06358677700417818
Si	0.43609097093998234	8.351555305604583	3.2002926849422355	14	0.0644828072082498	0.03041848993213991	0.09415670503967483
Si	12.366840189331588	2.7401481333951265	6.311354983714278	14	0.04325473324297919	0.002393441942525847	-0.010732307827362111
Si	5.947058481538898	15.408082924064093	10.73087828147056	14	-0.04979845339328807	-0.0603088748315214	0.15426657631941676
Si	8.15934774448454	10.624424812238578	1.3272432173552888	14	0.08878000959418116	0.10873024421533815	0.014218212420418876
Si	9.156356204066268	0.3660915701293246	2.3053077704598217	14	-0.06809366751986576	-0.04951383203434767	0.07803870289819853
Si	15.703452446541007	8.643554126031948	6.577727889196181	14	0.0386172305770281	0.022714944171912235	0.019785169659603495
Si	16.469641235327916	14.671083788072389	7.3903211644469105	14	-0.03282221629594635	-0.07370664754428102	0.046470671777420404
Si	2.49600734250826	1.5220575867172719	11.83169050519784	14	-0.0020666544563350256	0.03785592629173226	0.17685013700946942
Si	7.704619744493312	8.190403410014957	6.765147502519948	14	0.020204259826787634	0.1693088279949431	-0.06174920803186835
Si	15.963598710057667	11.37848369330729	12.67955323601058	14	0.10220040803375807	-0.012560106599455383	0.09158817082484688
Si	5.012078859086296	2.225156666413301	15.820974951529433	14	-0.3203167854316042	0.207454003635192	-0.2609101114569227
Si	15.125706195831032	1.37842575234358	4.417272863299314	14	0.0076521236538247125	-0.03639322447510002	-0.008211081950424904
Si	11.365677335349096	8.051229547710713	0.655237750398262	14	0.1734639913028344	0.06501682578324455	0.1197304612170597
Si	15.77839488373955	2.3765957264837434	8.039752991931634	14	-0.026053267319592496	0.0751680638082532	0.01512426993523906
Si	6.733446734443583	2.552396894465897	10.733473540562061	14	-0.33100229914213963	0.3444818330040799	-0.25561466293954577
Si	11.578222950392181	1.9612668282757786	4.2695575793061264	14	0.013158659917985854	-0.0024176103325352387	-0.04400369622273833
Si	1.6255115765923862	7.220875328963465	1.545454515628011	14	-0.22309506573978086	-0.0765430909334684	-0.0015802013297630095
Si	13.45656522863745	10.234393503127883	15.243938148632138	14	0.09341931203385634	-0.48581626378421583	0.12750959747369972
Si	12.352303108686181	11.33339580999351	2.393211654208167	14	-0.38235164326454096	-0.3989545558693972	0.20068325488511407
Si	3.4914583166593607	15.087584100110593	13.761497447677836	14	8.098981758466449e-05	-0.021037555061047625	-0.08104432501745162
Si	7.104322952611913	3.202389680686228	3.2800593672670026	14	-0.0326113856596942	-0.0298801004781009	0.10454757008052128
Si	10.87487638890103	12.759453558504713	14.828450862075297	14	-0.014471723404985476	0.23616605096634963	0.2598114781536235
Si	7.625519613136739	14.160782926047423	0.049857682445076656	14	0.004677869019477415	0.03894658916853907	-0.031235072981818934
Si	10.598219789892532	12.906548488131465	2.493798155017146	14	20.576550477823904	-3.4603472919534295	-10.558230884550955
Si	1.9103070269030966	8.597878885924416	-0.28043977071658066	14	0.30822256311615964	0.08807218429954439	0.1185271839272304
Si	14.512334115774074	7.438372229787605	10.274855126751532	14	-0.004447497982792147	0.05672732512055513	-0.05755316414938668
Si	8.991294096113732	2.6347456368530926	1.9839988560969597	14	0.03498220187540275	0.079175645670768	-0.09293620134420053
Si	16.11904037569453	3.4888036619370295	4.068269086183777	14	-0.03605538123603256	-0.0043973614290492595	0.030431345458740648
Si	3.1402123544800276	2.0659153302820106	8.179172686152366	14	-12.721293048633443	14.787851345629498	-0.882388433463964
Si	9.971416047875039	13.89331780090972	0.374863974827047	14	-0.17044088566740428	0.14368339260062327	0.1364979245624054
Si	12.642559657275894	1.4499166434395003	14.205697572104619	14	0.07943429886597489	0.15003659384670914	0.030100444204037593
Si	3.4143512386928276	3.948425201957116	9.499253780356852	14	0.31563917352265874	0.034462838600732834	0.08732784930936152
Si	6.67477540033493	13.202384926261841	10.681401720989967	14	0.031519694340759324	-0.009180902877184762	-0.05161468219144067
Si	6.677857373623503	11.052104701901714	5.934347816541483	14	0.1571845237472528	0.2764683839702028	0.12007370377729946
Si	11.499616132747216	13.133916612823663	7.4642027296837	14	0.017562706220867495	0.02566245931092999	0.02804973060068748
Si	1.2479517000771545	-0.05463078133364367	1.7845631766807506	14	0.023389345097387076	-0.0308159828146348	-0.03308549748072951
Si	9.12125008648904	12.705980991972234	4.240067648599508	14	-2.377311599078834	-0.09844942248219404	2.251132291497779
Si	3.161007424784728	7.487701951069757	14.374729288050895	14	0.08073167861052162	0.26971743273109	-0.04452897303964458
Si	3.3413639076757424	12.161918663456865	8.808508991873264	14	-0.027911148023931496	0.006486127391137559	0.006523408418279705
Si	13.638241614435774	5.161793795984062	9.806426534582405	14	0.10664173536378187	0.0878886073796858	-0.0038528013222418967
Si	4.6486353441647665	6.840824135710681	4.673079946008184	14	0.04379723646553044	0.007538223688142152	0.09349130298282049
Si	4.958665688184648	11.513425616914967	10.442697280202594	14	-0.008558695389708926	-0.039046348054960815	-0.007178783164385452
Si	8.763889674091583	-0.29815286773270766	6.382984464615466	14	0.04617370911294331	-0.006949183459296228	-0.027565848579435615
Si	10.7967546355745	-0.4085874941088686	0.805660485230074	14	0.025041280265582215	0.02318159978751911	0.0028449280367438493
Si	14.846167258848691	4.5900217558083085	7.906574788583854	14	0.05780230425490904	-0.015541817439231108	0.006652477905351139
Si	7.532129882929878	0.47582334820734185	9.912899802357995	14	-0.1672444875333962	-0.10114034131026102	-0.1582749295135276
Si	4.402440454378396	5.232844169484667	2.9739969813622276	14	-0.04801487763270135	-0.08234119054093433	0.11852615548510233
Si	13.457233429484276	9.551908007086798	9.6672642214286	14	0.05038235141149369	0.0250410231550502	0.033565008622937126
Si	8.70642605114312	7.616768656861261	8.784399315392577	14	0.03283687159627119	0.042556421038026974	0.05131900507962364
Si	15.992705868921163	3.767440115306495	13.839056592390124	14	-0.7104483362843812	0.03386608505592647	-0.12460296290927231
Si	7.92015493962146	13.155483826329142	12.68686549811709	14	-0.27016094839881555	0.12959707788312794	0.12676654803617696
Si	3.755356404190054	6.400037610177938	6.78004095695033	14	-0.033615916508276056	0.0108814319359307	-0.05168153092976452
Si	10.675409361790772	3.3068946432512893	7.9492159018832025	14	0.08189767487320876	0.012261601271786188	-0.08159531288755936
Si	8.298811985428395	9.4985987785391	10.116305089767947	14	0.0032912719203215556	0.021151197916198173	-0.03490686848952241
Si	9.796926533407028	5.423116422966863	4.378213636514683	14	0.039888899268373336	-0.004590451438592381	-0.010482139279711703
Si	4.4253572686066	2.865692348302741	11.324491415005058	14	-0.15789569147880575	-0.43330298028338343	-0.2269841196470368
Si	11.534172840739277	14.678447196416556	3.95094126687418	14	0.1608082395854695	0.17310120834216153	0.023792494411586294
Si	5.428570921731329	10.455158813526253	3.9738894287964333	14	0.32232610423929986	-0.11718943782915735	0.9215844198485573
H	9.68140038156591	13.115353828310955	2.949098662894421	1	-18.766235479018174	4.124870287898793	8.025777762012257
H	10.323229568304516	11.937650660718212	4.576032434869435	1	1.171381957001268	-0.30281064352778	0.09821288079274043
H	6.7148130051496056	1.0484846729668968	14.541177294056109	1	-0.05339157307819501	0.3247771389409971	-0.07313791904746428
H	14.496533228094915	8.978771517280611	15.496263987422974	1	-1.030285353463246	0.5190156612306279	-0.3429142300903857
H	4.2666108960655516	4.9941248797895845	11.776931033330733	1	-1.3216975157752133	0.9664471223587571	-2.588743359754827
H	13.811929287887594	14.396337748522226	14.28711248318489	1	-0.2934500203887168	-0.8376326889350822	0.22945160942278292
H	13.074557279324575	15.989140481192786	10.858443597704996	1	-0.4432547005355486	-1.38741136821075	1.1795197624500686
H	8.024140190416768	1.4312614657232792	11.729292437648576	1	-0.1776852320174535	-1.3533272534236747	-0.952348466335725
H	5.088342849070783	10.767909807413831	2.334343984542052	1	-0.09782207278407792	0.14977331266192595	-0.07335286345222865
H	14.323672143838797	11.555358932280267	2.0529736822758164	1	0.34235192935686926	-0.36749836783004547	0.5043940423854778
H	3.835583402653745	1.228704215931277	8.229894905001732	1	10.321213283502571	-12.976574753434031	1.4184163272664156
H	2.9297208383364466	4.677392728757827	15.822454892664256	1	-0.1860868328721014	-0.39809297847661557	-0.7207363571124218
H	2.129689739006058	3.341565192869107	13.595021393735843	1	0.5724848816894914	0.2954223152798024	0.14218855196748914
H	9.906249141583777	11.790633275387265	12.92770818161431	1	0.05878729470305777	-0.3653332400399488	-0.01581898259274307
