221
config_type=amorph dft_energy=-23185.149684485423 dft_virial="-23.91338962276569 2.329567079577208 -8.070718530458993 2.329567079577208 -17.57066885670712 -6.064141687218313 -8.070718530458992 -6.064141687218313 -31.677267428704987" pbc="T T T" Lattice="16.427374779450407 0.06191527086591551 -0.026201872388202502 0.0619809808907135 16.478907866398234 0.19520805616865852 -0.026448284981195003 0.19497807108186552 16.246294378613317" Properties=species:S:1:pos:R:3:Z:I:1:dft_force:R:3
Si	32.188205137606715	-1.0749174406580833	26.090229413320078	14	-1.9256912931631194	1.6777873750786976	-1.9019692470373049
Si	30.840914715909065	10.167100222164569	25.311133576050732	14	-0.010751848227795237	-0.04838383124614259	0.1442336091391349
Si	35.876045573843626	-2.3759118643843053	22.607149628106832	14	-0.17454642664261674	-0.06709659287671232	-0.08062909150824772
Si	36.507832677520824	-1.1843361312010927	13.833405840524556	14	-0.037329363922165924	-0.20582083753583397	-0.0631913410059394
Si	25.29381734176584	8.05839488812009	21.193771348968593	14	-0.045012083729300406	0.02328598666351712	-0.02151475220846711
Si	25.524195045957008	9.249901625777264	26.72005671550767	14	0.02858632028100239	0.0036957067871808483	0.0521638702878243
Si	31.366330431443252	10.956087060916634	15.464527428835932	14	-0.12712444589674154	-0.08174238011187183	0.19005841926013411
Si	25.94237200102086	0.8307274892543753	16.78474203481557	14	-0.026699128976013696	-0.03630297867836282	-0.014337254596741735
Si	39.55391779931869	11.132868383381313	24.150543405061015	14	-0.07937130678563127	-0.003120550527063723	-0.12879052214419753
Si	29.572988862162436	7.527742083609501	14.304068677895811	14	-0.10155968858797719	0.025680199937639016	0.06633683125460858
Si	40.92097051097434	0.14285523666147196	18.559075336672944	14	-0.03768520489847442	-0.033726474037042424	-0.015712024611424912
Si	41.01214481313219	4.417648826655901	26.69184247361003	14	0.002426352090623742	-0.14042348816520747	0.08459759256989627
Si	33.670431095227066	-1.9184879542592277	21.75436492627839	14	0.10189213250587233	-0.03506807679309569	0.03401752315928319
Si	38.433282608907405	8.384563023711163	15.868391097748159	14	0.052004204647443104	0.013244020614614771	0.12494312014312792
Si	38.20234801225607	2.1834357024966233	14.081942510068652	14	-0.07634742981860511	0.2070631956265295	-0.14309872325082157
Si	29.578087960086762	8.710317186146007	26.680114876934205	14	0.09049390840059186	0.06773834076462129	0.06228348371739513
Si	25.068607731025036	6.172443252639592	15.281460942499322	14	0.030776644903236536	0.030076275814028202	-0.004669641482452942
Si	39.8465179687417	3.3736758794258166	15.15145201568586	14	0.00882094813236403	-0.009056204269157578	0.06104446806361576
Si	28.85404398159318	-3.0750271022201465	14.712671682346596	14	0.06162939452394944	-0.07582318144382692	0.01178620389809081
Si	35.55224299914529	1.6230523972661797	16.705395537121362	14	-0.0488510010828135	-0.0002290854840251938	0.006985693154842331
Si	37.04190568882215	4.8904160275713116	16.348756020280838	14	-0.021157368568966526	0.03014543854714018	0.07180094428098728
Si	34.82287815139369	1.8707709770015402	24.47151223493995	14	0.12637342603272628	-0.02783710019071124	-0.05834429325639626
Si	32.856242819214344	-3.0911539850561955	25.041397209756184	14	-0.04337968896153839	-0.5546015586352014	-0.8385469739869268
Si	32.790610003695484	-0.8230246315974299	18.194021651157033	14	0.061697271704401375	-0.011721669154555093	-0.03364111334041351
Si	38.9029860799166	9.691840968558692	12.25232079334624	14	-0.02807544165388896	-0.021872650069031722	-0.005451771720841987
Si	35.76736940658084	-4.735787197216658	22.76996264205008	14	0.05799128049593992	0.01740458324367839	-0.0685338407506751
Si	33.52822310230985	10.654476404343194	22.496083258692014	14	-0.0983527489221565	0.12629063644141755	0.15938333301704344
Si	37.43860532228078	-1.735506890954857	20.991910152789135	14	0.07099387432099279	0.04068979857559947	-0.00246954666000223
Si	38.980596190205524	3.4759568185251433	19.41745031886108	14	-0.0650124549042003	0.04909911274620779	0.016236787207267133
Si	32.74344827614734	9.328952428359877	24.33242711095126	14	0.06850992947119773	-0.04677894730530617	0.019463267273520955
Si	36.270440428182475	3.1071543760945084	15.019898903289643	14	0.015980190896316356	0.0029356880545450765	-0.04586851891144173
Si	33.87852653000923	-1.7256651719907365	27.6304395395728	14	6.129293453954424	1.474923565771566	9.096851901605929
Si	33.771851233001534	1.734057984908061	12.582745295793604	14	-0.06697035160549307	-0.029877015151716726	-0.07977214210504235
Si	41.46090649923827	2.282176514009958	21.628747071872052	14	-0.08657785788747432	-0.00598244785892055	-0.005851064377060984
Si	32.908224377081424	6.597884450944862	19.64767196174335	14	-0.078758869498372	-0.07141733536722118	-0.1231250915712512
Si	27.504838112672665	1.446151154006244	24.573080220270217	14	0.0922587150923415	-0.02016826435230556	0.07244372061102429
Si	36.17403396530008	-2.665269244083538	19.273305522962946	14	-0.04841391317838833	-0.07108823388624222	0.05165710542922311
Si	37.01657775976376	11.236213824882368	12.454773379748879	14	-0.0037432722356035885	-0.022033858372605006	-0.031397309727520285
Si	26.08480012252115	-3.4519299479577548	24.775567304435874	14	-0.06316871527912211	-0.42991709168728043	-0.38778258903228974
Si	30.903953628199027	7.828475511351887	12.307983755352625	14	-0.18622515833832537	0.062034857832936795	-0.0046845538933098
Si	32.53305627599848	-4.0648484180142	16.54972191737242	14	-0.012111191610557527	-0.02833640884388399	0.13372164503770953
Si	37.30756310532736	3.931875969082347	21.222987668744402	14	0.027333163547962214	-0.07267871963728582	0.04387282696194279
Si	33.377681435497635	5.803162769778551	23.013605557497343	14	-0.07048608102026355	0.007296796898580248	-0.02310420951738265
Si	25.405976140342926	-5.243622195616141	16.707810380532692	14	-0.022135931253814887	0.07002919560487322	0.006687444937705153
Si	30.100656788796577	-3.637513128244126	22.290608011148667	14	0.02591699873762465	-0.045091016662628956	-0.005900172488675812
Si	37.680868327207286	-3.0050705670695756	12.786664858499856	14	0.057823130208002234	-0.0202939914024608	-0.006220532211566262
Si	26.877785416282173	6.481467642760866	24.462529674550062	14	-0.035577669867549046	0.06936533621121099	-0.003939447571530886
Si	28.26588669163124	10.246716130960445	20.45522023975023	14	0.11248894308286263	-0.16872955796631373	-0.09470460758339838
Si	27.831497430699102	4.993802537837865	22.953927712975798	14	0.01173812422860404	0.07449751954075857	-0.012129703568862591
Si	31.701720969014726	0.7678709222832286	19.5317200519848	14	0.0957819007125404	-0.17894121696634588	-0.15507596027419937
Si	35.03727517755399	-2.9622736279186386	25.986517638430776	14	0.45693298083873635	-0.4028189271655798	-0.3697539985274115
Si	24.891831336812217	0.8414645073063687	11.191872700148677	14	0.04107469304202564	-0.03290834832417131	0.02195981053938474
Si	25.764049778474668	-1.3003176104708027	15.79279171421806	14	0.0472258054099479	-0.006135171514937345	0.15303578820266187
Si	38.99699248414324	-1.9559147416335485	25.265639240381837	14	0.0036442846807778874	0.021709127770670304	-0.026579829689158826
Si	34.94667748086374	2.8130691601110596	18.617118644327636	14	0.03896792934269629	-0.002518140550553029	0.05413179429986564
Si	30.350394309043857	3.9176283929555202	13.200803932539872	14	-0.35774076602955157	-0.5410140383498149	0.19923469414774264
Si	31.22284109304248	-2.2228633601260435	17.249789950567834	14	-0.0006502325354654492	-0.019920666909975304	0.03625798433526023
Si	26.79106461105501	4.527925033022525	15.230571813794512	14	0.05516820685441733	-0.05313626231990431	0.04603204120980315
Si	32.73927897507391	5.676567478753344	15.971748038503554	14	0.05408679995676305	0.006579458514258934	-0.006187107842404338
Si	40.57624422162969	-0.9812510858097739	12.242323013073225	14	0.0003036475383094882	-0.010516849201533701	-0.003308498325966548
Si	39.53961272692017	1.2051530670570991	22.600005305660673	14	0.023574978901501766	-0.044232267485699486	-0.06828650041887686
Si	25.77059942519641	0.1863519875765081	20.58766043748122	14	-0.034848247288223035	-0.03275228223123832	-0.027274542346662833
Si	32.638760707389785	0.22182882996494827	21.711590985636132	14	-0.01917658903032445	0.03370384831022512	0.02609749033109905
Si	37.17032771853674	10.785497265538547	24.682972022991773	14	0.011020528733750711	-0.09254307934074987	-0.011063466192597184
Si	27.567283991988827	5.81600907962656	11.785551274944268	14	0.035235712859969355	0.09259064478917262	0.02308261223269341
Si	26.917970381947384	-1.791329199771378	26.20754480609319	14	3.912293356913207	0.6398226442452336	0.05940718819574547
Si	32.716584375259295	9.44651094822474	12.144661488717196	14	0.49231036160184594	-1.2406117959621072	0.557406120318419
Si	38.62579162580748	-3.0432727327365128	16.81980161854654	14	0.03773945522072955	0.02932062796043668	0.13786678103485223
Si	38.21857510287993	11.248112267622666	17.638786726369514	14	0.035803412914658043	-0.022264743630354304	0.025752447997135174
Si	35.76394427153824	4.010893916652561	25.16924756225503	14	0.047510683879420305	-0.03784847008630383	0.07535369761236788
Si	28.642976810939526	6.687232014413323	26.074414653101822	14	-0.021903760443405515	-0.08649095452765332	0.03237201575438842
Si	34.93592403530555	10.169046881649207	19.152119809729236	14	-0.10877986654801702	-0.13338148780385392	0.019811137823336992
Si	23.15786206043763	-4.840791816843862	21.682024759978272	14	0.057518197117032675	-0.03746846071998594	0.07988244252327671
Si	25.745923668134143	-3.0034541004595448	17.45654654359474	14	0.018780638811021644	-0.061852052244674285	-0.012868125016809121
Si	37.69657138038338	4.167615611297032	23.641397491666815	14	0.03743760745614416	0.04354552525468794	-0.14976431379330546
Si	39.60334487997174	5.449087586655768	14.060734599565098	14	-0.08896281518244369	0.030741677870882524	0.0005489309858516149
Si	27.622416345544966	4.094508280457397	17.386984268592958	14	-0.013594976490814982	-0.007628469484879351	0.019469437926289312
Si	40.34483322729857	-3.89234974641573	25.50548083089454	14	-0.10502810966485693	-0.11699814759333833	-0.053738929406947016
Si	28.07043058011897	8.727390293339147	18.56866900029345	14	-0.032270714204774585	-0.032689290150894695	0.12422809575359475
Si	36.76064706967927	9.957334110001913	16.199058727287277	14	-0.07686936419859518	-0.025246454470130034	0.039776027744818844
Si	29.696952466694484	5.094613215132337	17.815847316439584	14	0.019221840483959054	0.016060666492836988	-0.11911648126660834
Si	33.76116185471752	5.5429543570797115	13.822340272348574	14	0.1372954814327153	-0.06187699196627971	0.2283154379818095
Si	36.73697010499393	0.6434703460862748	24.95344269881344	14	-0.050200574265359225	-0.06430437249903151	-0.037884722671317914
Si	30.06566127233978	7.5165812358975606	18.063013931966644	14	0.04120813340814133	-0.06388656788450746	-0.05471569231807127
Si	36.721043637733516	-4.938732608805282	19.199979706290858	14	0.03087254713167806	0.21470040686949737	-0.10170341337537345
Si	34.09544517837114	6.631674188446613	17.63169990019505	14	-0.0163889966422199	0.005221400684156718	-0.009816994333389395
Si	37.19090974105409	8.78020472577054	21.78318205765355	14	0.13678228881081378	-0.10356617917982074	0.11045417033249744
Si	40.695966244061026	10.905352350770098	11.295318349437547	14	-0.03719900888243442	-0.04271171579936392	-0.04511312816838222
Si	29.40020106645486	-4.194177246071003	12.730835978680856	14	-0.0634289111375211	0.0017378100858880866	-0.23225282866908425
Si	34.554621903407714	6.769778590315191	21.248028116444303	14	-0.03553730351402272	-0.015781187344536894	0.1273455609542743
Si	30.12714778529389	2.476167291969234	27.712803770155855	14	-0.09848053285656784	0.16284378366743074	0.04250962692120028
Si	29.291202920070553	11.12183731296835	23.8639294188971	14	-0.02188422004297239	0.12244400577194399	-0.07759955810951723
Si	25.958482456350712	-2.4890464568296418	12.055810035935961	14	0.04348947515870872	0.08650329583319002	0.3238433134887193
Si	27.739984721913547	10.700200725098881	12.982507016407816	14	0.08441735808695389	-0.0521949806621981	0.056455302177683464
Si	29.13954746833801	-0.23909413898062276	24.074137430976524	14	0.06749742819612341	-0.08690001738408888	0.07886222793224196
Si	37.03970604574204	0.5961295587205558	27.250739089529418	14	0.12010687103592939	-0.007113734199785705	-0.03523725552316144
Si	29.595174209284863	-3.6085005095451894	18.28521566632232	14	-0.027198437629186452	0.022949943198173766	-0.043843516361293106
Si	24.67848238554745	10.383401196293384	20.53291084481953	14	0.03709873577494864	-0.07990558247115805	-0.023031961457886493
Si	39.63697855616461	-2.5935303245103216	20.76053365622104	14	-0.0122808845616873	0.0027094307863720457	-0.03889233884628395
Si	39.984796502175996	9.395758167821386	14.358798557550065	14	-0.00686690808905149	-0.012295539862012145	-0.05410016970442782
Si	29.514534866852756	4.076722219495198	24.26934548714518	14	-0.15277842056011504	0.07562366367098343	0.10287892272774515
Si	26.29980825191206	8.390007099265675	23.260655537730383	14	0.03365628286180238	0.018191341471643703	-0.037537366342565916
Si	40.70219226891064	6.128021633125523	17.4460280113752	14	-0.0097840841852915	0.0002632811847831633	0.04397464273262066
Si	34.920500249734836	9.059227561319668	21.22843174429892	14	0.0684137701322242	-0.01924189510545621	-0.0346183904726018
Si	38.29656961681392	7.350699563796249	20.182641914883167	14	-0.04766597864075725	-0.020474225885403183	0.01934319665507004
Si	34.17548163132573	1.9607099306931826	22.21362050334471	14	0.07096353527821504	-0.07270648757474342	-0.03161482523760481
Si	25.675510448311222	7.231682281380872	11.968943025903625	14	0.006000188485629572	0.0040379209052925575	-0.07688350527785599
Si	25.596602565032544	8.104469114757826	14.131900199171952	14	-0.028140747729020723	-0.047618413192334515	0.03029790509262496
Si	37.49165959630268	11.02979071023131	21.484474141425565	14	-0.09216949773773236	-0.08865299699136583	0.07093551023022542
Si	31.43440273163274	-0.9833735196107495	13.592696877684524	14	-0.03860874592947162	-0.06806409980868405	-0.07675469290131656
Si	35.17871929143291	-0.12497553891393616	12.199885836308056	14	-0.06845465070681454	0.3510705474974914	-0.10958307985003127
Si	39.417939116752336	8.012327232484832	18.050732728331898	14	0.008772611352345245	0.037752310747330285	-0.04950457605519514
Si	39.70307627010891	2.339518367149933	10.293345607307725	14	-0.011445275332639173	-0.013747957257363793	-0.14149769596796538
Si	34.95423741921675	3.6450089993229584	13.142348294479572	14	0.047528167395597315	0.06140339436630844	-0.06736115961415556
Si	31.997580355667722	-6.0003782672047885	20.247535492623054	14	0.11877401003796462	-0.26836554555375614	0.01540734863098736
Si	27.70241008698343	10.018419791804753	27.082294726460983	14	-0.08372675919796212	0.05653834887952424	0.0016678760211800586
Si	29.834166497727047	0.011315266270215603	12.055327067253696	14	0.2169845768359169	-0.13103509708868677	-0.06067859977655869
Si	40.926958336984065	9.2125947591982	24.57436813675626	14	-0.08199152021739417	-0.0203425852930116	0.055889916117782906
Si	37.535933368260956	6.531686529212737	14.795880286748302	14	0.029223183068803064	-0.07175877815373684	-0.03416793282051185
Si	39.16417850023679	7.489017523245419	8.728027680579688	14	0.01034124270816759	0.04208822275922801	0.0035275564992431644
Si	32.639833423544616	3.7435346105050793	22.223672494388186	14	-0.05112668640167657	0.010217315431736452	-0.05443287073285498
Si	40.76365578335607	-4.935923505245166	14.609917631068722	14	-0.00942952876164308	-0.08816011610149346	0.13631974696371915
Si	38.23793327618542	0.07166006754345891	14.914161616885941	14	0.09948634925780978	-0.03461659069887769	0.057725942426900635
Si	25.987314372481453	5.1423022656294854	18.811114350538773	14	-0.0032048827815645805	-0.007027602171560745	-0.010475197295347304
Si	35.6733547886011	5.040262810871291	18.215482545256062	14	-0.01707779575748757	0.012264429487638352	0.007046114129865812
Si	31.66555745686715	11.50154926226607	13.050822443689055	14	-1.4702297558991035	0.21998479963399772	4.01139866836257
Si	34.238891805255804	5.738211695766967	25.14171834736591	14	8.201825971272371e-05	0.0628766377147533	0.06405009018286888
Si	29.82740493617533	-1.0489028418405548	26.265520760972464	14	-0.4412042440427305	0.033375518160842214	0.2506267186184585
Si	29.19802117665513	-4.86878921565967	16.28918495454959	14	0.023525870789886934	-0.011394624557832257	0.10372533059913791
Si	32.353161941109	2.4175884476124367	10.728597312315337	14	0.06718169646280923	-0.13038075078470907	0.11470600720042633
Si	29.727341710412936	4.421524075368364	20.01569409762951	14	-0.09164319247869805	0.4759936130191221	-0.027190981423758025
Si	38.566552395701464	-1.4538145856483107	11.21547902655736	14	-0.031715098345090585	0.01239324186417777	-0.010084646397216809
Si	25.581783311689975	2.4653333516306635	14.93954704221603	14	0.04509564465220522	-0.0020093188076957236	0.07758104615121217
Si	31.313957898928628	8.245880373624363	19.994257844789782	14	-0.025587125925049654	0.030829095451767558	0.03920858480066216
Si	27.698661330068703	9.021411442048418	14.613385477627437	14	0.05885465766244565	-0.016941012954455693	-0.019087628786247323
Si	28.818445575658863	2.540922878657043	21.03018459948335	14	0.07646595777386395	-0.05545308532388974	-0.055231970266357
Si	25.16144942506213	4.839986869040087	24.54341707232578	14	0.1103646958673563	0.02660091275278404	-0.1362356718197503
Si	25.79282748383495	0.15060737683701603	25.48151474210009	14	-0.11147978424470452	0.10932905464440065	-0.11382360385455151
Si	30.527748951474894	2.7537592917283846	22.660098766089064	14	0.2605838381917959	0.08661282491982834	0.44964775391409684
Si	27.10317080133931	-1.7333516021414825	13.949786508194915	14	0.036534892378240175	-0.07137748323475887	-0.018387516807571
Si	37.52463124399569	0.44922658453152703	17.133951390602057	14	-0.05604983886869611	-0.03339891521925556	0.060798670395009614
Si	32.7314151278562	1.06155037886355	25.273940059264447	14	0.33889404981180216	0.21420932575334906	0.10838160233392609
Si	40.22950884827684	5.923260982101856	11.85578050669775	14	0.01795479978219008	0.024911696557446756	-0.03512335555747888
Si	26.433377019318957	3.128046878479033	23.26117793242753	14	-0.18650180927077328	-0.03852544211709882	0.2340474601825476
Si	41.33136575635149	-1.4901571576134647	21.948372131743866	14	-0.10269971668693083	0.08643541865273813	-0.06121313257261748
Si	31.212036722215068	0.7432674462482375	23.496513457989703	14	-0.11085012055180025	-0.2784656185828938	-0.05320259683716413
Si	30.667409038180566	5.81043194127183	25.2287545607121	14	0.12040409081093849	0.08484570423329056	0.00795037187096189
Si	35.94721774445297	2.1176188989083267	20.708225190980592	14	-0.013933848172010498	0.019713435821171365	-0.008439396102854055
Si	28.013415634352366	0.3714505564299943	13.470717715901376	14	-0.09933028316487678	0.11400640944281402	0.1218056003209512
Si	32.592985461364876	0.8915799004691832	14.41519582908357	14	-0.0752760502316994	0.022883351570381932	0.07139059587189163
Si	32.42308890674841	-3.6039960873452865	22.79594274310459	14	-0.06495666191875309	0.10996154655315707	0.02502456808100125
Si	27.508710075883887	10.06183276243817	16.702068967115967	14	-0.010195718147047207	0.003253476672115379	-0.05206616828565867
Si	37.0756625713115	8.48219005030417	24.179165049112406	14	-0.03277387951592756	0.04544762897053349	-0.010013169669316695
Si	29.294030093887486	0.8904546162945175	19.40905257769189	14	-0.04334446481865235	-0.4317343489275611	-0.17290400456410615
Si	29.15600454404867	0.9670675769571256	15.482502406119425	14	0.021383111616075527	-0.0066473356947108425	-0.0514570734353156
Si	33.21501626911019	-4.691643202557362	18.742682287963515	14	0.050118556005646506	0.32670983881015236	-0.15640110795620368
Si	40.08344860515585	6.35911886208823	21.403879153260196	14	0.03116102514859867	-0.03479991050820425	0.008263275388423912
Si	40.95245054110445	4.2732428334091965	20.396436051565942	14	-0.006695415364197612	0.05209085089673209	-0.04727774173741489
Si	22.274239643971487	7.449957841754868	11.112360284641856	14	-0.022592559558673186	0.022486115798419054	-0.0013488018509496824
Si	36.793628573876	-1.7515039964919301	17.29427892285732	14	0.09112691453041231	0.12579261334090483	-0.08182234148732843
Si	28.39106264612081	9.364164787898506	22.603162672352212	14	-0.07584966382862444	0.05521114431326381	0.10791494671831921
Si	32.49081130105585	4.763640033977911	10.262866012305173	14	-0.03699974822012295	-0.09006299114893504	-0.19594265089582502
Si	34.19740906660083	-3.6943046599264178	14.937192980577642	14	0.11220972104509455	0.025448543348293672	-0.05541503296515155
Si	39.13736059636611	4.366859905738908	17.20914008647717	14	0.05846513520644321	0.005902486483463945	0.045799099067797736
Si	40.2738549012624	10.221317563625398	18.280980655224088	14	0.05720580782063468	-0.009472723331021568	0.03329452834325755
Si	26.54067984706347	-3.1459002922166492	22.47590206732593	14	0.10733773357394596	-0.008168401602110449	0.05302030546996562
Si	28.587785318361064	5.36980844173698	13.839879920717781	14	0.09608297714552975	0.11383825915487635	-0.03905508981304932
Si	39.536820050866254	5.74998036120829	23.669642945826237	14	-0.0012012204055731825	-0.04842496893126496	-0.010290077712296642
Si	29.383812986270236	-3.300246569464672	26.73190094747751	14	0.27325193121469754	-0.0650384230679338	0.06356595105108499
Si	39.260281054254484	-3.1698417397518006	14.575273663244596	14	-0.016706013928194156	-0.02997188893803019	-0.0853344713546507
Si	36.40099639095238	4.150402870301195	11.265586205967073	14	-0.0657452199204425	0.012493000750599517	-0.06432082757308047
Si	40.217590692529114	-2.182923164303199	18.43133176296439	14	-0.06648569825264515	-0.01306172924741627	-0.0244576393579086
Si	30.02953554345646	-4.810791905022335	20.25329661904722	14	-0.05224100344742874	0.1532381341913575	-0.026668018601639903
Si	35.2251352101996	-1.7781411977944193	15.62556955761087	14	-0.10232510664178526	0.09538697893536567	0.09930405789061127
Si	26.34302902072295	1.8806554074817792	12.74680351470677	14	0.04055070177777946	-0.031626909432609505	0.01906603150155808
Si	38.54494365404664	2.1395693326920986	24.451539672902598	14	0.059123081057869106	-0.08971280660433088	0.15487155740124758
Si	36.57240263338858	6.5641062126974505	11.384749693187626	14	0.004945263972772815	-0.00691884441651848	0.06863334252656485
Si	27.981958602730945	11.819194807640843	25.658606544431937	14	0.11626975345614038	-0.00798148224533568	0.07258307451937632
Si	30.10546019160931	-1.24652738417116	15.486238021029191	14	-0.000722737705493625	0.08810175201072609	-0.020726708427841724
Si	35.41480555402841	7.652510635945323	25.777686251370874	14	-0.044717435059611434	-0.02671121317101839	-0.02678089012519441
Si	31.528271144807306	11.824088561737675	10.346909134021816	14	-0.4597542547065349	0.6944987415413746	-1.0571081526051587
Si	35.56480347038543	7.078096597669886	13.48471230843273	14	0.013743586378319543	0.02521585831682027	-0.0486201158250642
Si	26.781715717276874	3.6730228256449657	11.268290173487511	14	0.0037993223315828167	-0.020822867766815262	-0.05070553935023631
Si	37.92096782956731	2.6474552563608	28.028463230031107	14	-0.026856223511074744	-0.04466267051629228	0.08146341518463576
Si	32.813626582631606	-2.946872840856607	13.168569879875212	14	-0.28518185990018463	0.1402815631515353	0.1993012857755345
Si	40.22833756708482	-1.062757800569213	14.520284228992391	14	-0.05565825952843755	0.03909777016136378	0.07845959283910675
Si	27.44688187080083	-2.8628527176486442	19.04075117420034	14	0.03162973764846167	0.047929516936072426	-0.011816285830336542
Si	34.12367420502437	9.372695591867906	10.08680092911079	14	-0.028578092743977913	0.03231185188989696	0.03641996397042955
Si	36.66554823629036	-1.7275362649468595	24.67975223177667	14	0.12953691401863648	0.1260751778155891	0.05467044086443666
Si	27.918068745619845	-0.831992407231737	20.266180712159485	14	-0.02900566755871854	-0.07985236059103097	0.10258478827912022
Si	30.074512412680072	7.806300020733182	21.998342962852124	14	0.05393587607447036	-0.025588411477709728	-0.05587140415947783
Si	31.235643048623754	7.49688465596436	15.999898213127016	14	-0.1239861547429688	0.0016375369784023114	0.03810249529193446
Si	34.78878614777786	8.89621084629955	17.209655910171836	14	-0.04214273019201515	-0.0005239912642461786	-0.025340042703783424
Si	25.612082204124334	-4.683022047303864	12.72582558929001	14	0.035149837942276406	-0.0037224462825103887	-0.07684519580858577
Si	34.28037454391078	9.0896972998185	13.883636226230768	14	-0.03953460095525694	-0.16199403335912183	-0.08632074735545951
Si	28.45419848069735	2.958048473324127	26.090171917048384	14	-0.018159973986737896	-0.012652152169916683	0.06490086893330586
Si	26.929870467438306	7.061002134718686	19.806248321837742	14	-0.0044073887397978375	0.0548203363046013	-0.0916161958728365
Si	37.80740940746203	0.5741265569169455	20.948247484061486	14	-0.03710824886463319	-0.0009065717358842125	-0.0008001279756300822
Si	31.51826186527995	3.836926625999857	16.836475537339034	14	-0.048099209887202204	0.042170241018940735	0.0019167590161703928
Si	28.67790661737152	6.1422511389955305	21.139051325818055	14	-0.13460481971518037	0.09204634179289728	0.027233147551008453
Si	32.79297556458821	-7.316996892077356	15.597565587792582	14	0.14662473708687265	0.04173778110409183	-0.06816437291616984
Si	35.803969890393326	-5.369253192027438	10.157265074202927	14	0.01892590626161001	-0.040366867747388874	0.03671898351916277
Si	38.87587083818371	1.1795688689019979	18.94268881869305	14	-0.04317965696763087	0.0005720709337329476	-0.02050610759137302
Si	26.558883166683135	-4.603379854498069	20.527016655595148	14	-0.056691329646073055	0.09534327014492315	-0.025016340543976782
Si	30.93904935244364	2.473244838616343	15.008698629562826	14	0.04077001706158809	-0.004322285153700936	-0.06968389616037733
Si	36.48291543611742	5.850579123672788	20.241500026845358	14	0.13968326694353683	0.002641039384856107	-0.09797582488222277
Si	32.58728018846179	2.801197001380681	18.682848382133077	14	0.06566345877126178	-0.004388619670960756	-0.01606118071390102
Si	40.47660811102849	-0.5532011995200223	23.931755306493596	14	-0.025491737917672157	0.04498534423397086	0.046531606973507916
Si	31.68346015312336	7.260285855175441	23.633704490513587	14	0.004206328303762257	0.020095244961213357	0.0761232294346882
Si	28.055051148814997	1.6836583958879952	17.469979315414072	14	-0.052016803063511835	0.17192569898978982	-0.1036003748805787
Si	33.86945361833525	-2.512171457306678	19.495316698246707	14	-0.0182885292527453	0.013573636316657754	-0.055681656586850904
Si	32.02681638845097	4.496344795104607	20.139708627430775	14	0.1614643856631713	0.19505073446026566	-0.06673766657401965
Si	33.88020706389344	0.038195594664457454	16.229990078710316	14	0.0191462499875467	-0.04845967885308696	-0.015475482921971288
Si	28.53995991956246	-1.840089323672734	22.37036683924848	14	0.040753304877007124	0.017557049789163174	-0.008611660159303975
Si	35.638771602549916	10.942830063413638	14.364165423825442	14	-0.011533721355652267	-0.030495880202276365	-0.004001411209746455
Si	31.913072335525634	5.631005790309031	12.367919511721501	14	0.4827247667472698	0.750917019802448	-0.35178042967638423
H	32.24539585768966	11.394402495830452	11.766792705615059	1	1.3233039423792416	0.2351206395431774	-3.945257241112293
H	30.37616249526839	2.441539751651308	20.49601795139669	1	-0.07896867169249608	-0.014519545963940231	0.08239106998414518
H	25.56784785818094	-1.8960266250326514	26.183432512493564	1	-4.586478566651688	-0.29967338081613526	-0.07859766119479872
H	33.237066910681776	-1.9662706415417133	26.62120419695218	1	-3.7828279196224712	-2.356526269449693	-6.409298907513554
H	33.012241703586035	6.83617528487233	11.782078500133693	1	-0.1571899230684251	-0.18664167740018936	0.10094313753220568
