233
config_type=amorph dft_energy=-23353.09253599698 dft_virial="-42.18112228211705 17.183547889046526 8.061768508569454 17.183547889046526 -61.208520500075686 14.63302364552934 8.061768508569454 14.63302364552934 -53.51227298181921" pbc="T T T" Lattice="16.44185918104405 0.09508564878519739 0.06700225121903498 0.09464170748877679 16.4854640817147 -0.0027623013999503996 0.06652542538213879 -0.0031075890749442 16.32005484312243" Properties=species:S:1:pos:R:3:Z:I:1:dft_force:R:3
Si	7.602629527818724	4.746138582811087	14.731345144800363	14	0.16396529980807936	0.11860714530268701	0.15307898277204035
Si	6.970245016429722	15.642592203649476	14.242662786835686	14	-0.04875998395448026	0.046924471866426544	-0.1184595638573105
Si	11.783604532654007	3.8409784524040074	12.998458111444098	14	-0.13303413147510193	-0.0733379510413718	0.07885631439000562
Si	10.202487874727757	4.265422504776624	3.134722109290617	14	-0.07747845904893826	0.00447115215173751	-0.045036509229841815
Si	1.2963694219480317	13.75113591611987	10.3761166042119	14	0.06717809691536103	0.015576013139989077	0.00042783192527264034
Si	0.7841844829054428	13.990918475678777	15.97486582175006	14	0.04136419950107431	-0.009895670156185928	-0.011840454220345934
Si	6.553311793101733	15.549688444124834	5.654477004055134	14	-0.5523161031161218	-0.19749919805664268	0.13252633817437265
Si	1.1325978334714486	6.147731957372944	6.348654855451836	14	0.006364256998962539	0.05832166752957895	0.07497497379871007
Si	15.0692370866412	16.546966393539194	11.01059750505622	14	0.1625720178350911	0.6611936716663045	-0.17230519413504367
Si	4.897647526144319	13.335853496723756	3.0898955479413033	14	-0.1545468267993129	0.7135809710064497	-0.008051416310043708
Si	16.422593773006422	6.283985762379545	8.465722109822394	14	-0.017989766814544093	0.056166052829166806	-0.06692432882026242
Si	16.22575020217353	9.942594774440995	13.476286926824804	14	0.045667458475406146	-0.016859766026339013	0.007290369135279877
Si	9.652880328623935	3.6680337213617555	11.956243437469835	14	0.2663554554144643	0.1589089640854761	-0.0026328118478316327
Si	14.01067221914247	13.354466146632943	5.209552459874313	14	-0.012904891822887237	0.005348670397504049	-0.10865079706094558
Si	12.761199440366692	6.887481204960732	3.033496916798626	14	0.025424889179348306	-0.061350172486181374	-0.005765446569900053
Si	4.201476871594796	12.574132443417195	16.00373515983359	14	-0.023168487150386354	-0.07686396487742286	0.005856206587701279
Si	0.8489933352747554	11.081557410721494	4.361257921084665	14	-0.06295274243222966	0.04932382735118873	-0.02519631791638715
Si	15.989632624650627	7.658339227838439	5.295732975098718	14	0.17350075810891252	-0.02779236295814066	-0.013041160404855085
Si	4.621116492603927	2.14806093376881	3.6730107965627377	14	0.004806424285484819	0.2663004337606132	0.23449508961878543
Si	10.869046000579	6.693258532003743	6.181170602355557	14	-0.005056078612071198	0.008393373317623404	-0.004814908933041307
Si	12.915284887446187	9.729243164289347	5.914791026459985	14	-0.005666201904542337	0.04718723883014568	0.028909251109212986
Si	10.407046158756225	7.211449832364201	12.998504149800764	14	0.01068834192638758	-0.032689290150894695	-0.010298048138789102
Si	8.44369768883886	0.9696286277824703	13.882850010313813	14	0.05048185318738342	-0.2394699213027399	0.03048405311780368
Si	7.332984517053923	4.858028231779317	5.353109921320546	14	-0.04370519089506914	0.12438159074120755	-0.07963278819669033
Si	14.070975889466625	14.897967822936181	1.5918830564779636	14	0.0826620644848888	-0.020481424980299597	-0.05843916704270971
Si	11.990407186569936	0.5592723125496004	12.520843045576484	14	-0.011368142173034732	-0.481824365664154	-0.13686559262318657
Si	9.875181466466014	16.42290617614094	12.261283723375549	14	0.026444846659851057	-0.003398487012171731	0.0432981849228897
Si	13.25235307154811	3.734583810149251	11.177695364801911	14	0.027012546714539745	0.2143417376773367	-0.009963804447169851
Si	15.638101819647535	8.452711341383223	8.89380319237161	14	-0.0017565791547251674	-0.014740146800408936	0.02983047814542204
Si	9.752477736362383	14.15971811039408	12.677190949040702	14	-0.030805184172290175	0.041704870955993935	-0.017407411459530554
Si	11.59935245236922	8.248398047181295	4.6513900005657645	14	0.5622418552045535	-0.6452019107960475	-0.27258704337890727
Si	9.177841766502581	3.7941837513072283	16.175882440769307	14	0.05843428194260144	-0.007892522001258558	-0.041741123541008014
Si	9.459570201665143	7.35297009652797	0.13038884721277777	14	-0.041102975200547266	-0.025164179099885293	-0.07444712587648367
Si	16.042752667107887	9.605842281927636	15.762920025703744	14	0.019839419981858623	0.007762681182591081	-0.041042040004459754
Si	8.835704430486345	12.031333641418845	9.318105841220182	14	0.03754379410586628	0.030397663979046707	-0.016443246964475022
Si	2.3738560540364224	6.38713963317043	13.792468495043652	14	0.03346344996279128	0.011872593036847784	-0.10588685884178639
Si	10.048323504751119	2.4740996429952173	9.928554719884936	14	-0.10700940342456304	0.029727376822084102	-0.15782730007728982
Si	12.326608863030328	16.373324510238856	2.246747439736086	14	0.5228676912212739	-0.1503795792964169	-0.11357806329647736
Si	1.5515698983089254	1.1923473992885902	14.211581963405173	14	0.08032235864355405	-0.12305001529590288	-0.03906948800284215
Si	5.983608504313272	12.963496912237465	0.9965018742591306	14	0.16946437986681206	0.3147349157815627	-0.27780613006827587
Si	9.530970760172789	0.7907038430547306	4.608950856854979	14	0.17660922444097155	0.023167972929322326	-0.49835605865164206
Si	11.772777297702417	11.079605713244268	11.609380592987254	14	0.07008935946936469	0.06095653626166671	0.021284124061249826
Si	8.877206364793576	11.75581051904403	15.490026022339954	14	0.03897204311120853	-0.06153580629029606	-0.06248814370087891
Si	0.8534672770064607	0.093392094950704	6.085711714035963	14	-0.07064446110798467	0.03993080828509176	0.057472431442334035
Si	5.20793289625589	2.219323377206459	13.674582350119696	14	0.9051504288632349	-1.4670120175909385	-1.4053430280450587
Si	12.947630121457989	1.9395943221048153	3.018537739336275	14	0.02206265475219067	0.016192564195760584	-0.1408250948162146
Si	1.0061666407049095	6.934364694316796	11.91479576265439	14	-0.024978802406302618	0.0781250920369555	0.036614596643164764
Si	3.9899388438503802	16.25648573792905	8.97751901128737	14	0.21530744483558434	-0.7840089450464779	0.10399066866817717
Si	0.6483400904277632	9.954517064590421	9.789934872191115	14	-0.0007623327274239054	-0.004495320541746901	-0.025897458337191523
Si	6.476935803620128	4.883405231664337	9.209323781326898	14	0.07008884524830067	0.11967106868416429	-0.047936201809904815
Si	10.090423937695006	1.7465193196104252	15.460078071328825	14	-0.09078701440708874	0.10119587718517624	-0.10704642734117319
Si	0.17083683199776575	6.112524124112743	0.8353150106639295	14	-0.01614834118425404	0.0008577207348013992	0.03368687901511215
Si	1.1458568801912106	4.016687129073233	5.282830725643118	14	0.30110085848988144	0.1860084141598369	0.1876912025918738
Si	14.269134841918543	2.6906821592485906	15.293593508263006	14	0.10957690919726293	-0.047939544246821	-0.012800504946889227
Si	10.293275514072791	7.868963065357632	8.105001719983395	14	-0.022892607549534465	0.06601338620533394	-0.11063003393639557
Si	2.9680550370251577	10.211549209855807	4.713836098701906	14	-0.09778196354108362	-0.08921041262477394	-0.1418491660652296
Si	6.930533645351388	1.7982762978649718	7.80917403809192	14	-0.3669926314135724	0.2548559297595701	0.5874451151053051
Si	6.424549086415474	9.487614137782735	0.8489653834153511	14	0.1580939236989892	0.11429848700718286	0.03382289048654798
Si	8.695440355768746	11.401343124576467	5.393562838786605	14	-0.32095956176164125	0.42528036035292544	-0.048125949382531744
Si	15.842661747903028	4.241625607061456	1.944732531554128	14	0.04983342042564209	0.21747128707302094	-0.37432979466567895
Si	15.294372871872277	7.950210899510698	12.497731790530231	14	0.0048385631019866706	-0.010576755955493152	-0.03594739481258634
Si	0.9341018144796558	5.2179692580090435	10.362900307394757	14	-0.08066868653017799	0.02655180464116921	0.009173446671756331
Si	7.4992224460661765	6.487529558334342	10.526731088044194	14	0.060106271732293735	0.12736458713364338	0.01454782812246186
Si	13.228306251325328	14.961602697210514	12.522408349703122	14	-0.062466546416189664	-0.8515781070810333	0.08838945869605065
Si	2.863309554475253	11.080518259242465	0.9617840206520158	14	-0.3394110990916838	0.12470580712207827	-0.30517143243273986
Si	2.2573494155854195	2.870496470796195	15.791738392749538	14	-0.09679260221389063	-0.008367662264421923	0.08590294274093545
Si	6.74264453489	14.628304725674118	3.5761707575431667	14	0.2799329483891023	0.006605169567460416	-0.1719969186071579
Si	13.723752959265836	1.9220685062583442	6.827297563209313	14	0.11379789280135003	0.01544257277387339	0.00041317662494779633
Si	13.730612674409047	16.165342945546875	7.335223954260312	14	-0.0019530116011844806	0.08977322757935435	-0.33463347118578474
Si	10.46390024078449	9.598925018838592	12.930979034388166	14	-0.07258615984576049	-0.005531733096298592	-0.01230608139382475
Si	3.431695817417666	11.903631461162924	12.581944166007172	14	-0.014391762029528871	0.0275239395627172	0.010144296040644245
Si	9.190448055093903	15.369334826113432	8.257673131822438	14	0.1362464704620949	-0.1714788408851481	0.7618791844454313
Si	2.0361022272655824	0.9238697897106728	9.927675058427214	14	-0.40023676609255504	-0.4750045088024612	0.4739020188411817
Si	0.8908849513866222	2.3965842041861336	7.006937586692397	14	-0.16881106200496243	-0.2556043785182651	-0.20523771084922438
Si	14.978222543966883	7.545897118590219	16.214899948043605	14	0.008004107972152985	0.046078063995033794	-0.02417353222003224
Si	14.40306864259459	10.01860574552332	2.6728866901702197	14	0.01342322665542909	0.023900737945564528	-0.06139593816088001
Si	3.2564245051367653	9.356661320700802	6.859675681761589	14	0.08125901231168399	0.07780756052991722	0.02449286350079463
Si	15.71390397389784	0.8185225200700644	14.904916326338675	14	-0.12270780117779118	-0.06910231213695986	0.03235350379608336
Si	3.825923909774277	14.344322055261955	7.529339752460754	14	0.02941370197302604	0.028933676609754395	0.05296656936877452
Si	12.33804939466179	14.805415927994629	5.922079884856401	14	0.18555255718657465	-0.08496474640961342	0.4336745050021448
Si	5.415297875813953	9.945164701279163	7.4744143487313845	14	-0.1782809571201318	-0.0063514014723618	0.03608700583147038
Si	7.653469027394002	7.5757694351582545	1.5860855119921153	14	0.009587394628300171	0.1502186281033756	-0.004177531924176599
Si	12.004355164412663	5.893853439539169	14.143277484383304	14	0.014717778184123648	0.005137582650719891	-0.025378095062521613
Si	6.016862995869222	13.65448331898101	6.949715197810805	14	-0.043901623341528445	-0.007013461092299929	0.04208513743284383
Si	12.151048166793244	1.7165845224154863	10.450363319697708	14	-0.5370429661828462	1.3046503161710354	1.1522015113129633
Si	10.071492307743203	11.760009874862764	7.360822924793542	14	-0.041460873061111875	-0.01856903684317346	-0.03328372970091293
Si	15.2756434818444	15.684906386106455	13.266246789899052	14	0.16381386170472262	0.21096947593943047	-0.05312057857745141
Si	15.898516139900835	15.9216421929903	0.47782059424558687	14	0.09934365291254155	0.03825033384784297	0.006750694128580796
Si	4.680897298734521	1.0476915941904732	1.6017993896583806	14	-0.18034015537103842	-0.9340331975876502	2.127396819523524
Si	10.496148465401888	12.863437476705332	10.851479079056936	14	0.03218226818176149	0.00847127780882389	0.03203108718893678
Si	5.35227629821949	9.261019923181564	15.030278771539757	14	-0.06206596820731059	0.047336620049246284	-0.028761669663836482
Si	5.040238182100569	16.48556931224422	13.129997917573522	14	-0.014921152614947362	-0.33333891965709017	0.13540134814336224
Si	1.228670018470914	2.706442075271522	1.632095916798551	14	0.035423660658872175	-0.10904469039599227	0.04358100650810598
Si	2.963273624840005	15.963103021621937	1.651228142447255	14	-0.22686713435497008	-0.0023667024471963065	-0.13311769239800672
Si	4.44650780381361	5.39153386263926	13.269831204810894	14	0.2793061129120502	0.5656570544013062	-0.23733153300797274
Si	10.857656439985277	5.4652905984719835	16.218004248664503	14	-0.06317822836880665	-0.031417878570081464	0.041466529492816206
Si	4.588654518473439	1.5470236105881738	7.5540491961741205	14	1.8686184114875362	-0.5952108816142804	-1.0730999134754156
Si	0.399218321373784	15.771812005448348	9.603967863120525	14	-0.14154603274798414	-0.031794802610015174	-0.1408441209955837
Si	15.13296568185589	2.434164657041649	10.66732400816655	14	0.07470243663477438	-0.13248828581563446	-0.2012653531295956
Si	15.280165106159796	14.596380413780405	3.6656939863069167	14	-0.04069674055996387	0.0675385658812458	-0.003298213904685956
Si	5.078001144155723	11.446551146595297	14.1850605815116	14	0.059206127759709896	-0.02409408506563966	0.008086383342397724
Si	2.1691760972081933	13.916157117134524	12.595704701969188	14	0.0005545874175559406	-0.023437424766873844	-0.02175489344536894
Si	16.4891011118913	11.211055086887384	6.608794589792165	14	0.032224177198479906	-0.017577875742256374	-0.04477579915037879
Si	12.276637515323607	13.870396634835704	9.624736094657893	14	-0.32655197294349525	-0.21095867729708587	-0.32533943967451345
Si	14.131471934352565	12.340297053003297	9.236409133089627	14	0.09474600237905276	0.006286609618294067	-0.04521442971799606
Si	9.608563477651991	5.882016649194977	11.251621456018084	14	-0.045241940544921644	-0.03896253002152399	0.004767600595150583
Si	0.8176938296500793	12.2865176755095	1.2261329761732216	14	0.023758298710828327	0.06882231876759572	0.021188993164404347
Si	0.8294286779187972	13.21608471185757	3.315245082685471	14	-0.47816311168826314	-0.3439742968138827	-0.022291483125683846
Si	13.12632964708347	16.12259797560967	9.63930723454263	14	0.8085192920634495	-2.0920788312933105	0.01923443890002778
Si	3.9950458129862407	6.407542846308517	0.8006958106782417	14	-1.68623551293964	1.9874230176788106	-0.29336903057113217
Si	11.991035281293021	5.020724495782347	1.8112837778500954	14	0.07221026424795483	-0.028864770987174423	0.039061003355285666
Si	15.220410607661583	13.057466130873514	7.2019790847072285	14	-0.084193671924101	0.047294453921995855	0.054344938930905924
Si	13.252162341213353	8.392008123892289	1.3702198787211104	14	0.05346639224301132	0.018523014057942804	0.05207670981747129
Si	10.083271550141564	10.42865787875679	2.0480080751447733	14	0.1124220943445388	0.0785051014032734	-0.7646955732131215
Si	9.06648484709006	0.3930162970400858	10.097939699420705	14	0.2529016326057255	-0.2058367783888189	-0.035735021513142104
Si	3.031902016585559	14.629569136255405	15.982207295411238	14	0.024318542560088592	0.017270628656498678	-0.0022276056493762955
Si	3.2834194244131854	8.344654385607425	3.2764331037891443	14	-0.09606703629254483	-0.028652397687730192	0.15127483816889245
Si	16.60364454327591	13.787213545475648	13.795771747134424	14	0.035006627375944156	0.01566420205247016	-0.045023396592709056
Si	13.179900207745245	11.382036610863242	4.2155892721398995	14	-0.09906108843785728	-0.08300916370310879	0.07429671621525501
Si	13.372340538608455	12.741684109821447	0.7679247218672824	14	-0.025378352173053634	-0.016002045291537613	-0.08611145938239947
Si	8.17597971214593	10.022627524823484	12.45066579197453	14	0.03881366302348741	-0.030476596912375253	0.039868587536344174
Si	16.108867035734082	0.2534296438562827	4.139612829825073	14	0.07749491412298722	-0.1103528687828836	-0.004930865782979986
Si	14.309454576995677	6.105891312298814	4.626468451566331	14	-0.4850421039723192	0.5940896225841638	0.03821768081027709
Si	1.8256756969892418	10.793373740263574	8.00160121513894	14	-0.016465101359696286	0.03464872951537954	0.014214869983502685
Si	11.52567463943364	9.92133163056947	7.838301519818183	14	0.016871593110811694	0.00295085757593395	-0.012265715040298426
Si	6.7715829305085276	16.3171001671607	1.9041842489206893	14	-0.007741341008433851	-0.030398692421174767	-0.025624921173255828
Si	10.859012927279895	10.481866709473334	15.083221237478451	14	0.0662386150313789	0.062179868172993154	0.15262441135143817
Si	5.343558606539407	4.780545677510707	15.592726086472277	14	3.240446310352869	3.4056138590086493	-4.189536929137434
Si	4.6179316248588655	0.5478350693721868	5.443721628374038	14	-0.15438716115893172	-0.04550033662959653	-0.18052578917515313
Si	9.655262813581391	9.552786364324303	4.168589042665149	14	-0.0676969459689669	0.01911051162359664	0.7885112075725892
Si	5.480075487869813	10.176576501060007	9.782021207525663	14	0.04546948336575475	0.027709316256299875	-0.05595856462983085
Si	13.731564681855817	3.4180881945688624	1.2814529943882997	14	-0.05631671960092748	0.005945423942310418	-0.001754779381001064
Si	4.6139427300991755	9.93682024913348	2.247595860880356	14	-0.19062997597280307	-1.869826573877474	-0.8931122566437695
Si	7.457245330149073	13.821974148985381	8.806346756976753	14	-0.02077401676573245	0.05461181966313729	-0.029517317517428004
Si	2.8751907389490867	14.428845189646392	3.466999015845246	14	-1.0360114621217476	-0.5865868801494396	-0.1301871465541019
Si	2.197655753487086	8.721792382278867	11.060695458243774	14	-0.0020679400089951	-0.017979225282731486	-0.005540474854387096
Si	2.172793396660509	9.936660759112172	13.022490133623666	14	-0.00617656631059173	-0.04837586081965013	-0.010542303144203168
Si	1.1787266226235966	4.953505206596173	15.259326172860407	14	-0.08165264853619866	0.0359641069971673	-0.02889819535633635
Si	6.871050444312099	8.36947728098543	13.507589720903526	14	0.037708087735823737	-0.04639790949686022	0.0004414587834694252
Si	6.141847268854836	5.8071599254833455	1.3748286470687658	14	1.7635234530843555	0.19345382094592167	0.4022933932381415
Si	12.887071595945146	5.43024718791416	6.355379743979096	14	0.05575339042528304	-0.04913767932601001	0.004808224059208922
Si	8.497375124257182	6.939483173041823	14.374641601580459	14	-0.07379946444633838	0.11428743125430621	0.06830886903516215
Si	15.241626068949415	11.284581630936778	0.9219493325468978	14	-0.03250622745210015	-0.022464775624261826	0.10589097261029863
Si	4.377486441809374	8.118908592150525	10.34811706222395	14	0.05827410208115621	0.10759612965862082	0.06389402408993589
Si	16.634653020717376	3.6446708995808654	11.949452779861623	14	0.052043285448309363	0.14243306408343523	-0.026746694424436435
Si	5.7099433584753285	7.035272550993198	12.005266066183838	14	-0.19293985699242408	-0.017822387858202452	-0.11152143615089093
Si	7.328456315830433	11.809806934504966	13.72340273890977	14	-0.12740572481876575	0.04008018950419236	0.010710196321608838
Si	10.88395256277659	5.918413258593372	9.303220653973902	14	0.015606866403830855	-0.08725842946571752	-0.0004170332829280184
Si	2.6276720912432934	3.424788419690766	3.4676632835628536	14	-0.1269223570185779	0.06449514851378652	-0.1750958718495324
Si	8.241189755909044	7.726094535034364	3.838819582321784	14	-0.36900812087403645	-0.4498390441499158	-0.3528569514739303
Si	7.514175046620432	3.065090739060558	13.033820502044534	14	0.0806445181401686	0.23843942229042459	0.5706719953282551
Si	2.971983095384968	15.47865783669754	5.594671534519184	14	-0.19796559656171753	0.043036960622362654	0.41650054990568375
Si	13.153704382802381	12.535185637904918	12.909117391879988	14	-0.18741840831740608	0.06706599672340256	0.3563731951097648
Si	4.636711985924481	6.416714344647162	8.628137211004358	14	-0.28340856856087854	0.011068351292705465	0.025071105087295934
Si	6.524603589266533	7.074362404256544	5.286316486933531	14	-0.11136794116327808	-0.08853292637291492	-0.043120521545267465
Si	7.794744301731228	3.9520032379577277	7.495111878506726	14	0.05678054700068219	0.0049259806828717044	-0.03739107044984948
Si	16.07811834616237	12.126889539132844	10.60001921917514	14	-0.011716269833382783	0.021985778703118238	0.02131574865668765
Si	14.346844299516434	6.474282021203747	14.165313414956003	14	0.06803684609229048	0.028140490618488712	-0.010786301039085221
Si	-0.0517520455734755	9.041584673041934	3.42190608971808	14	0.03417796013126043	-0.027659693923621022	-0.03509173096204105
Si	11.85630896319151	3.3119319652325543	6.481602119913616	14	0.01757890418438443	-0.04283152930728282	0.011750208423608735
Si	5.402124328899427	16.05743890288429	10.821996444293537	14	0.04371907486379793	0.07193232776284683	-0.04302230532203781
Si	7.8924952425219725	11.403551321469402	1.3384320376703718	14	-0.1582487042392621	-0.06523794084077729	0.01672324033383915
Si	8.564459586827407	1.1036298417664927	2.4766580602442194	14	-0.2553660370550874	0.13414330631021376	-0.010030910296025715
Si	15.103083499925713	9.279696697944681	6.750750574117236	14	-0.04791486163574759	-0.06506979055283961	0.06451160358783545
Si	15.962392715547663	15.353538737095976	7.516419416507891	14	0.07153123533290373	-0.015487824227508	0.05955734074644212
Si	2.078399967452323	2.1407523446481083	12.072049635208709	14	0.03727537071044282	0.08955802606405795	-0.10558629662986108
Si	6.349310902034325	7.845629839663171	7.458710336427261	14	0.17930374281648673	0.03572473709186152	-0.04271171579936392
Si	15.42050152686644	12.022443305901268	12.834048562882288	14	-0.030187861784922627	0.020178548773586154	-0.016459187817459944
Si	4.599823752645976	2.538671726673106	15.941502811210539	14	-1.479679853503308	-1.4920669247147174	0.5225499026037035
Si	14.61843936353144	2.0203127151562232	4.615759600960453	14	-0.26435667813858127	-0.34435764861711676	0.18389162314975896
Si	11.084954383752622	8.993502542185537	0.5236106726308362	14	-0.0275326813208057	-0.04443178525854298	-0.13389570886788352
Si	15.267789009351802	2.9354089094680056	8.28548194347563	14	-0.024476151316213668	0.13269268868858625	0.04073813535561826
Si	6.2678460299141205	3.2374534137363917	10.948457233146504	14	-0.27209364826797083	0.09911688142330449	-0.17792717302807945
Si	11.085462449902971	2.5535832215517664	4.410611039430445	14	0.19417810131460742	0.2000767311400911	0.1367722615000652
Si	1.3830053880580238	7.866500013276011	1.950890161758184	14	-0.03407280192366637	0.12358943319206994	0.006488955606989722
Si	12.26469878290394	12.425264128684153	15.06646656410613	14	-0.03544860038047762	-0.19150260911846131	-0.055950594203338394
Si	11.753120563633127	12.065247468011332	2.4240970549750442	14	0.12466904031600012	-0.02059326806172604	-0.008157088738701794
Si	3.0017699121477666	15.726311311019282	13.934674401876336	14	-0.07637931152457494	0.0079765971452274	0.03771322994646404
Si	6.31424940497924	3.900418903540678	3.3950591508737995	14	0.036118116205844174	0.08692418577409827	-0.2917129816344247
Si	10.258232103514969	13.598801570820699	14.945703021890562	14	0.11015026568365595	-0.007990738224488215	0.013851572801765761
Si	7.169130717226151	14.85703479117918	0.1586925712001267	14	0.05698880653161419	0.04550779283502496	0.07705268400792173
Si	10.212700168772452	13.80684890459363	2.6788963399421357	14	-0.0723223644399133	-0.1966093385053394	-0.1964041643007916
Si	1.7467396460316116	9.22285741395963	0.09559371493554542	14	0.02034052840875548	-0.08821385220268455	0.011837883115025786
Si	13.973747812869442	8.083852027776512	10.479066590851836	14	0.013104409595730728	0.01808001261128129	-0.028886368271863666
Si	8.294174971750353	3.3877226098936934	2.059765942591824	14	0.002615328331654626	0.05023939795569346	0.02647467148156477
Si	15.547453939599519	4.150658746970827	4.22787329223456	14	-0.9523942320104237	1.7246501404174406	0.4158873412868284
Si	2.702579785992663	2.7112284201377457	8.46515485149919	14	-7.668863863453666	11.406266008500824	-0.5041083925844094
Si	9.52519459063825	14.744702845141553	0.5377148520408209	14	-0.01679266017748315	-0.13509050151015634	-0.10967923918900481
Si	12.17952453461809	2.0174386063186556	14.353672774346192	14	0.16222363306421103	0.138488217190732	-0.07650915234324243
Si	3.1413993152341884	4.635309460273197	9.793945141902116	14	0.36931845328617835	-0.07756716218248337	0.03757901824875231
Si	6.184646498283829	13.886200944988278	10.761316245980936	14	-0.011229302485746736	-0.07735890265155138	0.07104195399047956
Si	6.394479462604584	11.46302465714655	6.003150142490897	14	0.32477173961982475	0.03947726530661764	0.1869342691856222
Si	11.01509939864733	13.915982829070003	7.624966351936775	14	-0.058265360323067714	-0.03913350852531384	-0.15903931912520763
Si	0.7372500225116428	0.46897794131169807	1.9808397569963365	14	-0.03593582483864567	-0.04990566848513824	0.005677771878483003
Si	8.285166251887064	12.794587114311568	3.450551812926375	14	0.05705925481738624	0.00031496040171813964	0.1355201332091531
Si	3.114999606140376	8.468566622573533	14.671153281913824	14	-0.021784718267082656	0.014275805179590194	-0.04491155351128262
Si	2.8289008155486086	12.748425440618947	8.89611661979407	14	-0.013956473898827801	-0.007410696864262808	0.029731490590596342
Si	13.115196585905455	5.787014855987993	9.971381901173334	14	0.04421838351697069	0.058783952266141574	0.01987438701421264
Si	4.328304323074066	6.7709778549637765	4.59897697572873	14	0.06982504984245347	0.14040009110679413	0.11833872190726355
Si	4.4946409057077465	12.168084002986628	10.49567986070011	14	-0.034382877225276234	-0.003806007205415202	-0.007217863965251701
Si	8.22966536869937	0.2701136154665784	6.544396794178798	14	-0.7623643520193433	0.04485833163115555	2.3950699664145647
Si	10.268899848445253	0.3684548337588601	1.0032152531972243	14	0.09739244108508117	-0.002545908488010628	-0.1738355160215958
Si	14.412138198857761	5.1673599502170955	8.14400936189555	14	0.02986853050416024	-0.004989744094811377	0.007273399840166901
Si	6.883081253445098	1.1253467922965787	10.066623751525789	14	-0.2081152919235341	-0.11859711799193844	0.14154114764787587
Si	4.149451884335373	5.149403346890393	2.8685957443567056	14	-0.10703922824627676	-0.0005792700286293621	1.0436504731384395
Si	12.929857671557949	10.237000199956897	9.745544031003105	14	-0.04287009588708504	0.01882383338040013	0.017632126064511495
Si	8.11534390796297	8.137633049497332	8.935416934116459	14	0.0191115400657247	-0.08446878019335687	0.08853446903610701
Si	15.606836842790358	4.405573127829584	14.098840604838626	14	-0.03845267983653863	0.04103226980424319	0.03683776858495361
Si	7.468874947888269	13.87662003412071	12.739074721534708	14	0.0187400153469633	0.015352841198200223	0.02228634091504355
Si	3.265308263746249	6.977196808286264	6.71578444222953	14	-0.06227062819079439	0.09790769059123886	-0.08832800927889911
Si	10.14719087569101	3.944760417917977	8.089307573041413	14	0.028427683082749254	0.04915053485261075	0.013689078945532403
Si	7.776656160242623	10.11428002758303	10.151342548926054	14	-0.07001762563093257	0.02240615442296245	0.0253865797100781
Si	9.354190047484058	5.800283768069897	4.62501495487731	14	0.0917776612869418	0.012152843516743925	0.05860397489373121
Si	4.077750432282375	3.534989447505573	11.835348357092364	14	-0.431906612984011	0.011410565410817175	-0.09599684511730479
Si	11.083370993128725	15.522724765161868	4.053550698946381	14	1.0201788526708078	-0.49700957079548047	0.3646902065993798
Si	4.9827905341167185	11.287082500239945	4.131067781982488	14	0.11862437170833198	-0.10058883921908925	2.008378297369614
H	13.577827810905362	14.906496428508527	10.931684473276922	1	0.10424932186338408	-0.8434603562537298	1.454138750363489
H	4.698554652742894	5.083405718382889	1.1559754532955526	1	-0.41342267972693447	-2.152665128388876	0.8662714597646156
H	3.997911700688689	4.801040967362126	16.105820283059014	1	-2.8171981516449884	0.7158353161511555	0.26147164085884306
H	7.4539502991934175	1.9205081348127773	11.878019336813502	1	-0.07634974381339325	-0.6920129969178556	-0.5412809190820462
H	4.690871179860769	1.0761712504693666	16.391894410245428	1	0.1273962117290812	-1.7485220819834195	-0.8276876535567496
H	5.077341809119188	3.800089814776646	16.670097622669005	1	1.017245992832115	-1.9261720898579868	2.482939033393817
H	12.72905809050584	1.0205552713900081	9.162014437171678	1	-0.33866059344873267	1.8931225878517395	-1.4080177489096088
H	4.993384288830934	3.310506420402937	14.676817644010747	1	-0.028544668374815986	2.9049021536626873	-0.6335321779689593
H	4.731705557996347	11.482005613909067	2.5655893672794083	1	0.10755396353137041	0.7943324471279364	-0.6729873317698237
H	3.3426263953124793	1.7357085269290715	8.512307994087152	1	5.858380457249464	-9.398491149549846	1.2090113689142952
H	4.1735496755958925	15.198532522883166	3.5633096137631597	1	1.4549342503495428	0.72324241346797	0.05322676522717352
H	9.049567395242386	-0.6943324087369372	5.746177189398368	1	0.6733570567148611	-0.411226184451932	-1.5783542477010148
H	7.68273791264431	1.1454622657055034	5.460798570243017	1	0.024665641778308583	0.6028120973827661	-1.4677224139908953
H	10.25182948348437	15.998121768774402	2.815179741035165	1	-0.9081676209564284	0.35141019051028294	-0.5777872721912327
H	9.356439350052591	8.941278603456235	5.649115179730588	1	0.311008098620008	0.3241613592168216	0.21430599931338662
H	10.642711573847588	10.828367824010684	4.398869614253632	1	0.10121078959603308	0.0998288204864535	0.6450993236937735
H	16.311448958879968	2.9440427455698743	3.981893641023025	1	1.1471235783056708	-2.218948737763357	-0.4098388160211801
