220
config_type=amorph dft_energy=-23172.483150810865 dft_virial="-23.26148867358834 -1.2795231493193655 -0.7830520219809366 -1.2795231493193655 -8.79520802008485 -2.0423934181564634 -0.7830520219809366 -2.0423934181564634 -15.971839438033847" pbc="T T T" Lattice="16.407665756555062 0.031355143326206696 -0.0298948566930134 0.0313223278962473 16.527655376201604 0.20319314230860477 -0.030026118412851 0.20312751144868602 16.213792196354927" Properties=species:S:1:pos:R:3:Z:I:1:dft_force:R:3
Si	33.77640685496006	-0.250381730590222	25.453198005576223	14	-0.057836757066199014	-0.10294037214489671	-0.03669918600819764
Si	32.18759366801627	11.06343179425657	24.720683774165007	14	-0.03193801317634742	0.025342356698571555	0.028265189226515892
Si	37.27951963398593	-1.550150047365619	21.96872439076729	14	-0.10590562791062348	-0.05640516562394057	-0.07457336714770295
Si	37.92829709199824	-0.3957836191973274	13.24286037115263	14	0.09077467310155203	-0.039711750111815144	-0.13236153032335118
Si	26.64707257064413	8.965930219797146	20.548144427824866	14	0.0017650638022816563	0.01440178934027745	-0.007043543024545663
Si	26.906383379726307	10.107643018173093	26.087178986219847	14	-0.028523071090126743	0.02014795262027639	0.004964290152141911
Si	32.72620644611189	11.788646233273317	14.778991666839593	14	-0.18278013431985896	-0.10095727861146649	-0.05529290546244452
Si	27.352075986348886	1.6253859836335354	16.169184541639616	14	0.04970075139112244	-0.009006839047010736	-0.03827424512732035
Si	40.87487330508467	11.93022020197566	23.50143139633799	14	-0.008281787346728978	-0.02556809974568056	-0.07739232702071329
Si	30.957449848985735	8.357674895470193	13.678549193952085	14	-0.020102186945577756	0.0033455222425766806	-0.03416330483093558
Si	42.39169600178352	0.9186548355414192	18.01344123924486	14	-0.12017963331648955	0.2054534265855848	-0.14115111097080937
Si	42.39972265595159	5.187397537122033	25.922407790079202	14	0.04557052780483657	-0.015513278170177466	0.05973191879768018
Si	35.089640983419294	-1.0981929751637907	21.099950649535657	14	0.01240815427503463	0.04834012245570008	0.054868158863556046
Si	39.805377423420374	9.192099085391824	15.251816070952604	14	0.050283620967200016	0.007990224003424185	0.10712973115354597
Si	39.61478868775917	2.983252378380552	13.475270731525587	14	-0.1162353006448504	0.09436882122858703	-0.050641004606700596
Si	30.93000466413919	9.534580601706098	26.026148849581354	14	0.04892196358964959	0.015307332634033602	-0.03119804906520881
Si	26.47936767506512	6.994613818160604	14.684096006483001	14	0.009439041851327629	-0.10449846196890643	0.10411408172354429
Si	41.2519882261781	4.168022302406227	14.561640307275006	14	0.07714498668891505	0.009950691810037096	0.04210442072274494
Si	30.25306992645021	-2.2716875174554163	14.101740260251505	14	-0.0039947263359140705	0.045983447319252344	0.004153620644699222
Si	36.971148116342945	2.419747455889233	16.09595362814222	14	0.030126155257239072	0.015256681859226684	-0.007708173749803942
Si	38.46052234665226	5.685627647109611	15.755598551689314	14	0.003039303598947044	-0.02606458018300115	0.05518183371261411
Si	36.25784567840146	2.7031907321635504	23.823012765311123	14	0.07218583874741344	-0.06709145066607204	-0.050478510750467234
Si	34.261614161568254	-2.307653228690919	24.4049812894691	14	0.07516780669772119	0.06146150134654378	0.10825407551004673
Si	34.19390280339002	-0.03117629923292797	17.54688950456859	14	0.0015997417301961347	0.025313560318985896	-0.035803412914658043
Si	40.25587256821752	10.478902025790264	11.663926269398123	14	0.0027109734495641344	0.03152020856182336	0.02459930726104876
Si	37.153905449644334	-3.90426828410755	22.123242405817116	14	0.36838282806017647	0.13467012579031212	0.1374008967508414
Si	34.895695229273244	11.544400988085505	21.886336331539724	14	4.386862320474435	2.1355420811777535	1.0348333816640556
Si	38.86123812497249	-0.8966192743236822	20.380861210520834	14	0.094229467320235	0.04129837920487852	-0.00687976361565223
Si	40.43964717984764	4.275791455935893	18.87320222263814	14	-0.03283224360669493	0.03581986798870699	0.007379586489889017
Si	34.10640374094628	10.234628887486982	23.734470172194673	14	-0.08551213473227294	-0.30150863579365694	0.3085552641445868
Si	37.6820501055829	3.908583513147211	14.410123263294967	14	0.013173572328842711	-0.003930705813442384	-0.07464458676507105
Si	35.37780475929327	-0.9485578960919225	27.036923160104802	14	0.06694875432080381	0.01517569204164202	0.023137376776012564
Si	35.18755074101765	2.5431187055930953	11.978357156183103	14	0.02324459186786274	0.003122864521851857	-0.12391262113081258
Si	42.70255656978892	3.945909423954531	21.887086164114297	14	-0.6419376354815874	0.7453593185424159	0.4588312278966017
Si	34.28547261992023	7.410244209397376	19.02638629046012	14	-0.06778564910251202	0.006741695259960278	-0.12694806807177939
Si	29.067925906522998	2.170087664758118	23.79548554188968	14	-0.0841257947436491	-0.16585094844987594	0.06805175850314733
Si	37.58688699947214	-1.83503720255815	18.656702423481	14	-0.01965044374082774	-0.12811637832925465	0.04417081806854795
Si	38.38812822661883	12.048788913504962	11.856492134714378	14	0.046121515674944304	0.001412051041825325	-0.019209499178422344
Si	27.39576809056833	-2.7910327158503705	24.083475395984873	14	0.0013467449666935637	0.005037052432702103	-0.09837228932258961
Si	32.281972485351005	8.640468426231314	11.680786837311263	14	-0.028984070274029293	0.02405911803328565	0.0013835117727716813
Si	33.909438967243965	-3.3012962440040607	15.901897942305808	14	-0.039436641842559295	0.15653403410125535	0.07520894438284355
Si	38.71214942280944	4.7436033031226055	20.591926774476697	14	-0.012757824598574769	-0.042179496998093265	-0.7304615629858818
Si	34.749530381919584	6.657897972890196	22.40217356047202	14	0.00817662913913492	-0.006784375608274736	-0.06904857603576875
Si	26.81585545309731	-4.4451633753568425	16.09430301201526	14	-0.02798596718874781	0.0415896854376513	-0.011952811522836405
Si	31.52627907498797	-2.8531293539625433	21.634504158945298	14	0.03807524157554089	-0.004463438835777065	0.022296111115260107
Si	39.08120651507634	-2.226069147497356	12.166455200710383	14	0.0321843250660176	-0.006851224346598586	0.015469569379734946
Si	28.17379076024724	7.195281813133833	23.743154775733426	14	0.030480196459823465	0.11194695408137542	-0.012760652814426931
Si	29.64056008162902	11.067532082229997	19.830093597168254	14	0.10378215202671319	-0.11171632593415816	-0.035895458485119346
Si	29.19226521141066	5.70005659166276	22.29589258669101	14	-0.06646847184700015	0.13650203833091762	-0.03797291158379899
Si	33.105291933774375	1.5641376243858132	18.874106287733525	14	0.0179152047602598	0.024964661327041806	0.05304833051795524
Si	36.45158797688176	-2.2073561485630084	25.35985287428521	14	-0.019950491731689016	-0.05846282121165509	8.896024407712353e-05
Si	26.370801106587443	1.6126798491532555	10.506873898287655	14	0.009414102129722192	0.011062180639937112	-0.017451634471037102
Si	27.188445126399333	-0.5076071190984769	15.175946796886471	14	0.01161188295738477	0.0494205009112263	0.08391162167048076
Si	40.397008450929896	-1.1339683569055286	24.604881403381277	14	-0.002029373429192879	-0.008608574832919798	-0.008984470430725448
Si	36.34084246385478	3.624060609227229	17.989254626593283	14	0.020895115826311424	0.0589685576281282	0.0007456205428429429
Si	31.75189500058783	4.74896698514947	12.57209985661051	14	-0.03919752904778553	0.04464775810543543	0.0054296602150887135
Si	32.62946327704858	-1.4403102402055152	16.61117884930577	14	-0.03570751068621652	-0.004499177199727124	0.0006579458514258934
Si	28.199634552111764	5.337117936311795	14.632070423825366	14	0.0008649198296978138	0.03927954730749825	-0.02375907004242437
Si	34.11783827751563	6.505816503514855	15.344570524504347	14	0.06923780938733165	-0.008359948948461478	-0.025549073566311458
Si	41.97071341392038	-0.18806358832582343	11.604883107043674	14	-0.032024145204572384	-0.05667050369297985	0.01730816679417284
Si	41.08587323818062	2.0929746858965235	22.01276105700131	14	-0.06448640675569799	-0.13096824835036291	0.04337506097196212
Si	27.25654370665108	1.060970432960843	20.06589215068452	14	-0.13521957099722778	-0.5455337843921032	-0.38254884704259634
Si	34.08095373424126	1.051401453584682	21.05127552227688	14	-0.018236850035810322	0.04222706244651601	-0.0033612059850295834
Si	38.49777114119918	11.634366130090696	24.035189131571112	14	0.02421415568409058	0.006664562100355836	-0.03388074035625131
Si	28.9589688344288	6.616214172984268	11.167499367286814	14	0.0077598529667389175	0.04866331039444269	0.013634314402213249
Si	28.245505600880513	-1.16352521466996	25.543135254465952	14	-0.28537237880440763	0.18253845041976505	0.28340085524491804
Si	34.092255368319286	10.260484164751993	11.541221172922437	14	-0.05066851543362619	-0.015178006036430157	-0.03328218703772084
Si	40.02774298068277	-2.254472542898715	16.195494312609565	14	0.022960741840518387	0.04034578468376365	0.07007727527436
Si	39.57536751174895	12.08252809781772	17.014803715491897	14	0.07613531362969289	-0.020130983325163415	0.033095781902010096
Si	37.15924616087023	4.836259310384469	24.542299096905708	14	-0.34402906135720185	-0.09022291389984827	0.07547428245188283
Si	29.977029811174734	7.501999433106855	25.395070393717635	14	-0.03287440973394535	-0.07828218657201655	0.06618719292497595
Si	36.292731761991305	11.032929852109305	18.528000307180235	14	-0.015223771711128788	-0.16349684441874837	0.0155104499543253
Si	24.556972516412053	-4.016268987330481	21.051920345475583	14	0.13195863811968397	-0.038831660760728456	0.033807720965159105
Si	27.158497765018385	-2.2094300837364425	16.84003693938562	14	0.04700649012613927	-0.023996383063474035	-0.043077841196953
Si	39.065307439261005	4.960199907798127	23.00882913258845	14	-0.3403050724114994	-0.07554035985861064	-1.3535540249129119
Si	41.015782761330335	6.2317846925528935	13.428449676059515	14	-0.11279670438968435	0.061800373027739296	-0.04252685332684527
Si	28.995321767737824	4.9072538523301334	16.806588171628004	14	-0.030564014493260287	-0.013079726984657309	0.061177908429731455
Si	41.64543046444783	-3.1434277735553793	24.864674599283855	14	0.029091028255347453	0.021835883262953607	0.07028502058422796
Si	29.455595910662865	9.567752079080558	17.938651592824392	14	0.01957099658643516	-0.03189301883324483	0.10347953293053176
Si	38.13024324796839	10.767188859526588	15.58853355699451	14	-0.04909936985673981	-0.002840557157699598	-0.042554621264302865
Si	31.070730353977083	5.923618271347165	17.180511792157876	14	0.07112885735030057	0.02242389504967147	-0.06068734153464721
Si	35.159779042643024	6.354734263981777	13.206207176659479	14	0.01897835681014103	-0.008330638347811791	-0.021218560875586052
Si	38.12499113840339	1.4369138432047173	24.338318384278075	14	-0.09464830037688712	-0.06840811370051987	-0.06339060166825088
Si	31.44094747169304	8.343688959221497	17.435461430598448	14	0.035199203164423244	-0.010186719278426688	-0.07308881093584944
Si	38.11206842208537	-4.120646666173841	18.562699342819304	14	0.02072876531209784	0.19574210468085348	-0.04265515148232066
Si	35.47182260689845	7.458671580159962	17.009801003194585	14	-0.0547560586715976	0.02680840095211999	0.0068363119357417275
Si	38.51718310879166	9.644617301445958	21.158785433909866	14	0.08483130604349773	-0.03503619508712586	0.09135497157230946
Si	42.03241954841603	11.695479946075585	10.692576416427901	14	-0.026181308364535874	0.024945635147672705	-0.026610168731936577
Si	30.773717897414553	-3.3571727173674293	12.097111274891677	14	-0.0737009911125767	-0.20156668667311695	0.5292820847739793
Si	35.92931892367743	7.598696660568219	20.62421223524225	14	0.029520145733280167	-0.010686542152663474	0.11938053378298755
Si	31.52825620464302	3.3193578566537147	27.04372908027838	14	-0.0696988085712342	-0.007399898221918186	-0.03780861795384153
Si	30.67138297908616	11.97388113153664	23.21422583101883	14	0.029585194697879916	-0.0026690644328457207	-0.036010644003461975
Si	27.316869952316942	-1.7280851532344734	11.458296581415034	14	-0.028636713945277285	0.018944932440979105	-0.0706071800808425
Si	29.115426241389226	11.555691136763034	12.382423389902183	14	-0.03980790945078868	0.0018679080150875796	-0.05021780067100421
Si	30.662079804692674	0.47027300443366743	23.475671283819864	14	0.02884754458152943	0.08561626449773894	-0.09007404690181169
Si	38.44962106081975	1.4123695423665843	26.62838910559675	14	0.13714121511350644	0.0032830443832970817	0.06516594989181314
Si	31.011262231804658	-2.839670105364695	17.6412847296183	14	0.12782918586499414	0.10799002299366753	-0.05198286447328588
Si	26.051236245785315	11.266537975675782	19.907575749616893	14	0.005157380161685032	-0.03493232243219188	-0.018169487076422446
Si	41.03190170052639	-1.8059496054421378	20.127092927558802	14	0.007954228528942111	0.06447200856590517	-0.04707179620127103
Si	41.360420251392945	10.190223047665922	13.752052475518147	14	-0.008323439252915376	0.004994372084387644	-0.022027944830368667
Si	30.94529173218578	4.9439480661107345	23.598058070624944	14	-0.04626781156766072	-0.14432231227268005	0.039564425776970655
Si	27.663386125744726	9.191414883677172	22.617272140769895	14	-0.00087006204033811	-0.01289152207522247	-0.018845430665089372
Si	42.07876478014769	6.942939360603536	16.857653902959328	14	0.023188284661351494	0.011906531627073738	0.012294768530416098
Si	36.25595058732131	9.905778900777843	20.600494883239097	14	-0.2667740313605845	0.08980125262734397	0.04066280196973791
Si	39.590800608458856	8.248310912044502	19.526176774142268	14	-0.03804670230648724	-0.02151218110314696	-0.060205259287119436
Si	35.621137735528215	2.7871785436016387	21.562812289112994	14	2.8796379585658485e-05	-0.0393811059676441	-0.011037755139395705
Si	27.07188964149804	8.050323937698955	11.348007202864487	14	0.05032450154179036	-0.02697243747154544	-0.04753870892740992
Si	26.99235488390544	8.919453726345647	13.518569050585517	14	-0.05594519488216608	0.04487607225786457	-0.04870187697424491
Si	38.83884487556819	11.888211529313132	20.860327457657625	14	-0.06850093060257721	-0.01882537604359222	0.051842482122805796
Si	32.8527673556078	-0.16902407586337956	12.987269191056354	14	-0.03473229043828435	-0.15239789697273312	-0.10089042987314265
Si	36.60859832383701	0.6847366061618282	11.622495148302884	14	-0.133834259450732	0.00019051890422297266	0.009077801553846822
Si	40.78148879527771	8.84438022645603	17.42735109708398	14	-0.010248682916642257	0.005228085557989103	-0.04728416950071526
Si	41.12210639517029	3.0856709760553374	9.666198368958758	14	-0.03424326620639219	-0.02159394225232767	-0.06460133516350862
Si	36.367480389124324	4.458901555109345	12.530949307441423	14	-0.01346436434055146	0.02006773413428777	0.10594805114840591
Si	33.40544810852702	-5.216493338095535	19.61175121161889	14	-0.4084293360846749	-0.4823334445175433	-0.28170829661266455
Si	29.088849024665112	10.88298630799582	26.452285100719628	14	-0.03697943648809377	-0.048809349176627104	0.09804370206267468
Si	31.280342194385746	0.8548025719264187	11.4497563657681	14	0.062033572280276734	0.01654609117728095	0.12810583679744209
Si	42.28239764921775	10.027104108423737	23.941422322005124	14	-0.015026310822541418	-0.045528361677586136	0.001813657692832455
Si	38.943964183128635	7.320154368758338	14.185700178574127	14	0.012650352396192579	-0.05249914242157162	-0.0450362521193098
Si	40.45670464034054	8.383841919319819	8.153119912818275	14	0.016588257304531378	0.004567825711775077	0.07164436396699025
Si	34.083869385193154	4.5786745929181585	21.58247693551617	14	0.010241740932277858	-0.026610682953000602	0.0016259670044616451
Si	42.13841502795639	-4.184449706643903	14.00781593662171	14	0.001442904305667102	-0.10366105296613419	0.09314626064885662
Si	39.65968347748663	0.8596083916439728	14.310098551235718	14	0.06529784759473672	0.02921906930029083	0.09110583146678711
Si	27.3767974905088	6.000258708017343	18.258083551135183	14	0.007786078241004429	0.006145455936217938	-0.03807267047022074
Si	37.05206604430834	5.863657917725349	17.59142988765248	14	0.03530898936159357	-0.08021617199383192	0.022814445947801968
Si	33.02863344861772	12.384221675463959	12.297915453899238	14	0.260429057651523	0.0085183290361826	-0.09230730898289231
Si	35.62481306368366	6.560908688102193	24.52170905537768	14	-0.0017612071443014342	0.12392779065220146	-0.014163704987631738
Si	31.403954637499808	-0.1834874766179851	25.65456989152208	14	0.10173529508134331	0.4611205400736616	0.021670304080336066
Si	30.60545513952623	-4.0946059817295595	15.648861443431871	14	-0.014656328766972109	-0.01616659603202709	-0.017594073705773303
Si	33.772811924608	3.2330598389464846	10.1200849884422	14	0.03274379758368182	-0.1031314052701837	0.020392978957286503
Si	31.10488137193583	5.320907113911852	19.402974523902696	14	-0.0935537808421001	-0.009079344217038912	0.06764449542043588
Si	39.95732106798989	-0.6650227366137187	10.59591692671099	14	-0.022262429635566173	0.003962330408880205	-0.0027361702817015857
Si	26.999933607454565	3.2706761663089448	14.310731889033935	14	-0.00869316419795267	-0.0026724068697619135	0.06480805203124852
Si	32.689974929893715	9.065897504853965	19.370900722660377	14	-0.005941824394862211	-0.09857772063766942	0.09949174857898208
Si	29.09179256873247	9.855269390984336	13.988628754724449	14	0.039441012721603545	-0.05877649606071315	0.03987964328922081
Si	30.428238691573487	3.2973157323499858	20.348752953077057	14	0.10064026132549224	-0.0003699820555693086	-0.12188299059108766
Si	26.31782879877548	5.676057026961952	23.71482849659247	14	-0.05281178882850162	-0.06029344819960051	0.012858354816592558
Si	27.32689670694104	0.9143264803297744	24.773081811952675	14	-0.06944915424464781	-0.020201688721467485	-0.024002039495178363
Si	32.02621394656194	3.554843022813867	22.093350830667102	14	-0.018101095674906507	0.10194021217535909	-0.0004106055196276483
Si	28.50979451068753	-0.9352413946143979	13.311851531099274	14	0.004379363691808223	-0.016340145641137088	-0.040900886322383624
Si	38.96109711911044	1.2629297151029746	16.535278400581177	14	-0.04087311838492603	-0.04306138612290406	0.034259464169909125
Si	34.195097285040546	1.8964922990146165	24.629617674484674	14	-0.12972049093849505	0.05879397957689015	0.014226182846911337
Si	41.62264014834102	6.6867230465665335	11.185690600884808	14	-0.00025402520563063026	0.007654951869676877	-0.026749265529756587
Si	28.546454268266675	3.40152933404355	21.79603319060595	14	1.1338471617640222	0.6639054164474647	0.7707685239793113
Si	42.76223471071309	-0.7163313021267386	21.27148674656243	14	-0.17797422425543816	0.16935459366964173	0.22815422967823618
Si	32.683803988289846	1.514971906449142	22.863266448374546	14	0.04417184651067601	-0.10444626853090744	0.016757693145129135
Si	32.06021237277137	6.671939695369824	24.60756406478046	14	0.010610180324655077	0.10254313637293383	-0.005118042250286766
Si	37.38488833881406	2.9198989093009344	20.059542364987372	14	0.006635765720770177	-0.013573379206125738	0.11643121887024568
Si	29.419964916812948	1.1759606218530747	12.832226129127175	14	-0.031170281127751207	0.15866985129070238	0.0822123781643949
Si	33.998257209972074	1.711216381463844	13.801104980221458	14	-0.05005350704104675	0.0346063062775971	0.1152019734166829
Si	33.83137598168505	-2.7632380466747586	22.154006871404057	14	0.0005790129180973474	-0.07900081050899795	-0.0669258714834545
Si	28.87730927774633	10.894514368540557	16.07759011353694	14	-0.005668773009862484	0.029682125368449497	-0.08512466916052662
Si	38.377893094014496	9.352064461814912	23.549100730668513	14	-0.04088340280620662	0.0009613362792033668	-0.04980565248818448
Si	30.681314568963376	1.5917764202691178	18.75845322715611	14	-0.011880563463340245	0.008851030064609761	-0.05811675043556316
Si	30.555702025393284	1.7835579968093414	14.850194586765499	14	-0.009067774243098245	0.007554421651659086	-0.013077670100401189
Si	34.59576384021583	-3.889112477780801	18.101941172302364	14	0.3069470377668342	0.34150269326962435	-0.06590385711869563
Si	41.35123029023281	7.325977466804633	20.77058381980466	14	0.011731953575835685	-0.006347544814381577	0.03257256196935997
Si	42.296362255436975	5.261619476604205	19.931188092244177	14	-0.040014369207996565	0.08004493637951007	-0.11633017443116385
Si	23.663464144848522	8.277355849101566	10.532520797572424	14	-0.01215567173259609	0.007299882224964426	0.006157025910158605
Si	38.214706883140884	-0.9425050900359112	16.672666761192197	14	0.08334212184206798	0.21758698681242758	-0.0874317219642955
Si	29.761066544297428	10.196092087314161	21.986597314694677	14	-0.07749928500203146	-0.023129406349520105	0.09288323657460547
Si	33.88213488874625	5.581797985946571	9.662933233677798	14	-0.012324336241597802	-0.046871507096831494	0.01587554690978633
Si	35.59291318422013	-2.9137739092990125	14.324176370688303	14	0.1546635549808476	-0.026166138843147002	-0.05519314657602277
Si	40.552502725021014	5.150286567380948	16.642204197560886	14	0.014576110280983491	0.0443695645097954	-0.04264332439784798
Si	41.625847856619544	11.05695730992558	17.664106220383562	14	0.03926026401759714	-0.04865791107327038	0.024224697215903184
Si	27.94453560346488	-2.3760668370702756	21.829988956756438	14	0.16590725565638717	-0.04150149652517022	0.030852492510180907
Si	29.98678091618717	6.193879589406791	13.231832745914774	14	-0.0018730502257278756	-0.052145358329519234	-0.019164247724787736
Si	40.73330754023982	6.704151321417971	23.029435581831457	14	0.21908671254566997	0.26328992654125183	-0.2988326293764468
Si	30.58689965465569	-2.3173419843864314	26.109623099540578	14	0.2264891818729083	-0.6904921881209879	1.4578660817461075
Si	40.662970947664846	-2.3906188394857715	13.951005864275995	14	0.005416804688487973	-0.017967398198258804	-0.1146116476351769
Si	37.820926645942585	4.955755057810126	10.659208046473685	14	-0.04721989186771156	-0.004077515927222839	0.06345410796965854
Si	41.61652335219659	-1.3999849990999067	17.810481086488963	14	0.053939732732450583	-0.0060294990862792604	0.08249339997588709
Si	31.43406279448756	-4.036025516937537	19.614115563347468	14	-0.09853452606829094	0.07963535930201049	0.04040620565878714
Si	36.625248872998405	-0.9918791859528243	15.018073404123298	14	-0.12877920928078884	0.03900983835941472	0.062236175379504405
Si	27.754058440265545	2.695293698943821	12.094016779846505	14	0.057835985734602975	-0.008783924215753898	0.013628143749444892
Si	39.92307652605576	2.909859028504856	23.824935749506746	14	0.18327712897824358	-0.37261615296980033	0.06593933837211369
Si	37.947925641428455	7.371887894089332	10.783895194918918	14	0.003152689343565574	0.010905857436472108	0.03862520100352056
Si	29.33735699420465	12.662832879676753	24.992428349658795	14	-0.29737841220737105	-0.24973017419332283	-0.22239186843472034
Si	31.50135083361931	-0.4355788911090918	14.863340448007236	14	0.0004154906197359296	0.0822871973292112	0.01761361410620643
Si	36.769745055738625	8.484563959265703	25.161859336853674	14	-0.04321642377370899	0.008439910323918083	-0.032140873386107105
Si	32.76317795027565	12.786067945346284	9.750839207453039	14	0.04926263504456921	-0.1337632969438959	0.011753036639460899
Si	36.95971850208809	7.888250169900976	12.885685746074035	14	-0.03736741628090412	-0.06397295702326443	-0.013997354473418155
Si	28.194833654708706	4.475909792457302	10.572278331739735	14	-0.03773097057317306	-0.009242866515400329	-0.03078590088238907
Si	39.353349798044135	3.4591236951652933	27.391822035115712	14	-0.011843539546730111	-0.047570076412315726	0.005700397605300305
Si	34.21747740827285	-2.142811479375865	12.553478740880047	14	-0.07169398629966911	0.03683185504271728	0.02982996392435801
Si	41.63702315129222	-0.2803192473421826	13.89580702954129	14	-0.005850807266528969	0.010879117941142567	0.07917641700236405
Si	28.879457047637175	-2.0927695894592775	18.40033023615169	14	-0.1378225580233457	-0.02287846647027365	-0.007301939109220544
Si	35.49506413516719	10.196464542444202	9.508846741531936	14	0.15044077160303643	0.07938467653329605	0.10273108417183664
Si	38.05747831357642	-0.9299269357324732	24.049939667337863	14	0.06310675164090654	-0.008074556257925043	0.06074930517286277
Si	29.300990934723643	-0.10489288109372413	19.66819539192056	14	0.1924122661807297	0.2146649256160793	0.08729391071913557
Si	31.459120656804554	8.643215077718917	21.393407554262087	14	0.024055518485837445	0.025048479360478628	-0.0327363413782534
Si	32.61365936598013	8.330129623562273	15.374709856150556	14	-0.06193149939906685	0.011820913819912808	0.06240921076755037
Si	36.14787953183601	9.735087801072526	16.600190602583865	14	-0.023316582816826886	0.006229531080186781	-0.04074970532955892
Si	26.99509333153555	-3.9187251217761636	12.12655327865125	14	-0.008775696678729423	0.04999899960825962	-0.016602141273260176
Si	35.65854896645343	9.897478237769613	13.262990996661223	14	0.0453887506587021	-0.016573602004206534	0.0332225373942934
Si	29.877997765871758	3.768251608468833	25.361818518539778	14	-0.043011249569161164	0.027780535873667977	0.020514335128397492
Si	28.306389708855686	7.938502078569304	19.196350528391836	14	-0.008652026512830301	-0.018437396250781876	-0.013776753636949452
Si	39.285607265207446	1.4170916827377418	20.348907185597866	14	-0.022296882446856153	0.06984613290607869	-0.02090617157918806
Si	32.89660220694758	4.66381586671932	16.202641513254722	14	-0.020638005294296616	0.039769599981518466	0.018461307530259253
Si	30.024989562060398	6.991219061931304	20.567444822955487	14	-0.09440250270828097	0.029437099031439387	-0.049944749286004494
Si	34.19776189795325	-6.528511654874776	14.957545343563183	14	0.07632480409178781	-0.020397349836330753	-0.11665053415405433
Si	37.212500681379844	-4.61309797894557	9.558875505276541	14	-0.0034234267337771677	0.02278642089981235	-0.009870473324048475
Si	40.34740792854627	1.9802192277845274	18.341848217649545	14	-0.026844653537134076	0.02112805796831684	-0.06904883314630077
Si	27.97335083251223	-3.8178685385674456	19.871979211968434	14	-0.020326644440026683	0.15034975447470317	0.05319308374747958
Si	32.33455921186094	3.291787973173325	14.371747258728945	14	0.016278696223985548	-0.028670909646035258	-0.030377609357549556
Si	37.86034289963832	6.6650271250488755	19.62298885560849	14	0.08712704598385795	0.09838128819121013	0.03659557046379566
Si	33.972654611517754	3.6161865468084713	18.045580671347093	14	0.030928854338189305	-0.04813160581423607	0.0266140253899168
Si	41.94175215620971	0.23096319991174705	23.26770677799516	14	-0.018708390751525483	0.022126161053598322	0.13814137508304405
Si	33.072484707672466	8.141660764676452	23.035150388958886	14	0.01565957406289389	-0.02742212379203934	-0.003945361113767227
Si	29.455179154702382	2.49092576424267	16.84351045264682	14	-0.0008816320142787762	0.020504050707116903	-0.025789214803213292
Si	35.27678902124925	-1.7102155108500823	18.845038379875486	14	-0.03423889532734794	0.0220372008095212	-0.008851544285673791
Si	33.40836375947891	5.304579796735553	19.511677276414705	14	0.076762149106745	0.06461264802691727	-0.04347970495849215
Si	35.29664071560319	0.8408117133632286	15.602691774250491	14	-0.006140313725577642	-0.04420861331675413	0.0034933607984851955
Si	29.973341356847296	-1.0860775184227802	21.760551506962347	14	-0.05283981387649123	-0.02673332467677167	0.017174212206993125
Si	37.003477877938955	11.75892365758759	13.756833683663231	14	-0.026580086799690844	0.026197506328052806	0.025351869788256102
Si	33.30964346076055	6.457604073818505	11.756592121288975	14	0.007748540103330265	-0.007067711414555055	0.013604489580499531
H	27.346415324680887	2.653276822423805	20.85473734916404	1	-0.1371651263929838	-1.441080877774053	-0.9856154838520572
H	33.68445309789933	10.973584787799231	21.653509215206284	1	-4.406210659340145	-1.9972114727431465	-1.2016181555662095
H	30.489531351651653	-1.7977720002962554	24.74268159763829	1	0.2746017615077753	0.37650417843492817	-1.974043499813824
H	39.27632706161493	5.089622322786503	24.4529935450427	1	0.286993974929825	0.3443823312281902	2.0004780620523945
