222
config_type=amorph dft_energy=-23200.930770327246 dft_virial="-36.03353580460973 -3.9876308188015903 9.564680581525106 -3.98763081880159 -32.14650112149939 -9.621014417512212 9.564680581525106 -9.621014417512212 -17.6687052728131" pbc="T T T" Lattice="16.33848228960137 -0.0164528681184967 0.0045584411172399 -0.0160444056527942 16.486950226634914 0.1667670554970167 0.004509425621355599 0.16714284096546297 16.271118659757715" Properties=species:S:1:pos:R:3:Z:I:1:dft_force:R:3
Si	33.621658203729346	-0.15976110728528742	24.37744351404131	14	0.008466649819247624	-0.05788303696196169	0.0018118579191083511
Si	32.0111119415126	11.129174205613028	23.6631717356668	14	-0.028780181622141552	-0.052826187018294446	0.13110297426913867
Si	37.09210072497558	-1.4801487046658748	20.92928180337422	14	-0.026273611045529187	-0.011232387812130913	-0.20299339301526712
Si	37.706032881725335	-0.2779701448595909	12.158360741944989	14	0.06511375645381413	-0.019780284559495216	-0.15787897929422479
Si	26.487088429250075	9.066731212940846	19.43960448630844	14	0.011409022747625085	0.028689935825404356	0.021659248327459434
Si	26.732580906536725	10.14465058913084	24.995231556467303	14	0.0020453142821777967	0.020359297477592565	0.0709889892208845
Si	32.475543568115526	11.858274805342402	13.614486952077968	14	-0.08759035916254863	-0.034504490506919235	-0.028353378138996976
Si	27.153009688634448	1.7266476334680194	15.083159495307465	14	0.013623001538804597	0.01139950965794054	-0.02631577717277962
Si	40.64014784700555	11.942457285673823	22.454258446726016	14	-0.06655820342267332	-0.03417693168913237	-0.06743752144216397
Si	30.72166946053364	8.429271618166622	12.526124007564892	14	-0.00472517735736814	-0.0006407194457809013	-0.03204111449968536
Si	42.14729101910478	1.0527793283509375	17.031612050751118	14	0.0012477574118678627	-0.028860400108130173	-0.02122704552314254
Si	42.15104397223965	5.206064892010664	24.919262439396224	14	0.05252073970626085	-0.027640410633719907	-0.023723331678474308
Si	34.90081723367178	-1.0102061024756972	20.022248418185384	14	0.026580858131286883	-0.015428174584080563	0.05492215207527916
Si	39.520560397764314	9.27806969269532	14.168411071066442	14	0.0562979505320904	-0.010251511132494421	0.10234233304743025
Si	39.3715859672733	3.0750818975936034	12.375873540331021	14	-0.1057619031232272	0.10763006824884679	-0.08464798623417118
Si	30.773919979146303	9.61796928275486	24.978984553431523	14	0.0711106025025275	0.04859954698250302	0.03498811541763909
Si	26.28198308672222	7.1044366814594655	13.540333042204473	14	-0.018365662412349746	-0.16469832193485356	-0.01650778170801074
Si	40.992260464789595	4.24552128996494	13.49700824539234	14	0.09837357487524968	-0.023336380327792023	0.02916841852548391
Si	30.04003056546903	-2.1657464179480694	12.999571217710796	14	-0.22282304279690915	0.08191181595246959	0.3479759651341612
Si	36.750828701031274	2.5108008043247763	15.006030344833794	14	0.030625721020943842	0.019429071572762985	-0.010703511447776452
Si	38.228131239236134	5.752417750734877	14.679139467381946	14	0.017267543330114498	-0.05128635204205777	0.07759107346196074
Si	36.08643018971903	2.7763683948757762	22.74520299334618	14	0.012932402649812822	0.010904571883812032	-0.05991215328062256
Si	34.083880865317745	-2.214270125023664	23.33582338025337	14	0.07701925963875982	0.22374709804897036	0.20163276407984476
Si	33.99525594720934	0.07947699272652962	16.444040427687934	14	-0.0023682451103883956	0.01995254861594514	-0.014466581194345181
Si	39.973220136105695	10.5379492942566	10.552147449564421	14	0.009070859569482424	0.025508964323317153	0.03969323815351007
Si	37.08732824952631	-3.808698458343784	21.261358520290628	14	-0.07502151080500474	-0.13045685550218547	0.13006373349873482
Si	34.91199603443313	11.773479631312426	21.204018559355312	14	-0.1717588342545122	0.0580064500173288	0.05488358549547694
Si	38.62211125975469	-0.8294843353004204	19.308989626725822	14	0.08896692895095593	-0.07979039695281541	0.13091759757555602
Si	40.214935152509526	4.370367025681977	17.875658889878768	14	0.18059032391868882	-0.13095744970801831	0.3416996399371477
Si	33.94323089987775	10.266517816547976	22.768142245420034	14	0.02895270278912349	0.045563585820472166	-0.007909748406903548
Si	37.43749331827388	3.99607162831056	13.311742741748589	14	0.024477693979405756	-0.018250476894007113	-0.07959807827486834
Si	35.198739953056005	-0.8750703803226821	25.965506368295927	14	0.015518677491349778	0.06885600024728966	-0.182330190888833
Si	34.94396230699901	2.634166272066108	10.838089147904661	14	0.013778553410673555	0.004079058590414928	-0.11759078736963248
Si	43.215650739747474	4.608690169770621	20.81630108536091	14	0.20514669372089112	0.3243202535256067	0.0732757302926242
Si	34.129873738955844	7.575290971873092	17.921091353013924	14	-0.17512955332922633	-0.3111911613188026	-0.13865405348388157
Si	28.8261373021464	2.0726006372692716	22.63843253866141	14	-0.1449311500124911	0.44182593730914227	-0.03143716185998257
Si	37.330892783974846	-1.7455937564771642	17.60536130397493	14	-0.06098327575699624	0.04271582956787616	0.00979642549082821
Si	38.12010598785672	12.11223062491841	10.767374491992381	14	0.03305541554848378	0.0018823062048804085	-0.02615585442186641
Si	27.28273083234211	-2.7215396611795986	23.041049089554775	14	-0.07361331642115965	-0.04563737654316042	-0.13431094237708746
Si	32.056590152443924	8.717505607864386	10.55900308358877	14	-0.032411867886850715	0.05537132417470903	-0.010797613902493872
Si	33.693222461570286	-3.1034144880645913	14.673840892276854	14	-0.06835283493613667	0.1773964968900009	0.17828687066236817
Si	38.43072862222457	4.859317837176087	19.54881101113866	14	0.11509064455632047	-0.36491646386755283	0.3250355350256719
Si	34.620097319493084	6.829990750753956	21.263454749664614	14	-0.1447300895764555	-0.09784804094781142	0.05393716162713042
Si	26.651886695662405	-4.305124132960248	14.994098339285692	14	-0.035866662105533686	0.04065765975909761	-0.02124941413942783
Si	31.409151002707652	-2.82620571724107	20.554662903729966	14	0.046169852454963085	-0.027889293628710243	0.07708790815080777
Si	38.8496460931992	-2.1266712646291057	11.115440063666247	14	0.017805418563089478	-0.037683662235282335	0.02599027523924887
Si	28.03809066706657	7.466349130720647	22.724703079117504	14	0.04720960744643097	0.04068362792283112	-0.008635314328249339
Si	29.429178215710667	11.148068045426562	18.67732366356512	14	0.049830335099257904	-0.09296448350272216	-0.03758030380141238
Si	28.826843125287137	5.990798079568719	21.113225522478963	14	-0.09729936707249182	-0.03808861132320566	0.13902017888147067
Si	32.923401421710096	1.6651544261814395	17.78745223733524	14	0.0006273496981161313	0.03387148437709878	0.0070255452873046265
Si	36.26821069160542	-2.154280059610869	24.306410257405783	14	-0.03330892653305037	-0.10705876864670989	0.017946058024101576
Si	26.164538690883713	1.7241020953817614	9.360745763453231	14	-0.022266800514610424	0.02383414631777269	-0.016427049000958094
Si	26.98775884581012	-0.3901453748905371	14.083972076306559	14	0.009787940843271722	0.018456165319618956	0.14401763629224248
Si	40.16801425214935	-1.1129556526480926	23.597174004308453	14	-0.172380270410392	0.05934445322593385	0.036398623796272324
Si	36.12058418725122	3.6956654571348624	16.910373855531166	14	9.050290726921239e-05	0.04387976894630719	-0.06506876211071153
Si	31.504280277119904	4.812511306306305	11.38472956420473	14	-0.01714567293793948	0.01408991426494349	0.0017982310609115663
Si	32.410632346915946	-1.2873005038088219	15.480598375985586	14	-0.015487567116975982	-0.06423161021847132	-0.012432579775576037
Si	27.986166918426466	5.431482256032972	13.484644903480458	14	0.01895958774130395	-0.003424969396969256	0.013339151511460248
Si	33.86077049730172	6.572327725839231	14.201846174658986	14	0.020922112432172978	0.001220760806006308	-0.00815683162816978
Si	41.70862030328878	-0.11067045430729815	10.524182475312564	14	0.004020951610179581	-0.013169715670862489	-0.0369730087247934
Si	40.94169934693508	2.1308441171787225	20.83481423815641	14	2.3842497267852534	1.9583085923650498	-1.5043760914349262
Si	27.13833935071628	0.9765831061489303	19.083555924204884	14	0.053007449943364884	-0.12371464602116115	-0.1312662394569681
Si	33.88169194479501	1.1489101527290895	19.976487551227805	14	-0.0391641046786236	-0.040611379863334955	-0.09822882164572534
Si	38.344998886073064	11.625843323859051	23.077724117425273	14	-0.006395367373336332	-0.03704962766333381	0.03929240283409899
Si	28.75634413755675	6.698491978395556	9.993673058708021	14	0.04098624701901254	0.060901000386751496	0.0483370371293159
Si	28.110769210513944	-1.1016069315010142	24.5214020254535	14	0.027476888335358492	0.09421172669352598	-0.36527101929120126
Si	33.848743728461585	10.331130043222661	10.477073682218164	14	0.22769040227848153	-0.3494268398663207	-0.11417198862543157
Si	39.816462044868246	-2.1252449136988725	15.17173376407012	14	0.042166127250428495	-0.033617973392532176	0.07791786094815158
Si	39.338570763095504	12.163249220734516	15.964175455280914	14	0.025707710764564597	-0.019327255802085126	-0.0329394586985451
Si	36.95372181084488	4.905287836916109	23.480484447106566	14	0.05170055710913362	-0.05204534233256548	0.045546359414827174
Si	29.835765021770662	7.6142844326989145	24.313329611574787	14	-0.07773891201786925	-0.05276268071688679	0.05839648669439527
Si	36.02623425922353	11.212378009876627	17.382509084237235	14	-0.2273312188652568	-0.19334943406992366	0.006840682814785978
Si	24.244941557867147	-4.086885905235128	19.962338411415868	14	0.08659919806163155	-0.06941238743856971	0.040265566197775035
Si	26.98523128007235	-2.0780380896127033	15.755371076663657	14	-0.015770131591660255	-0.02415116360374695	-0.0410011594298694
Si	38.868824222888854	5.002706134986155	21.95567609029064	14	-0.10914084973496581	0.129754429528721	0.021440190154182817
Si	40.73136568484624	6.305302741210604	12.353234916631926	14	-0.1359556784503862	0.058547410576687955	-0.03389950942508839
Si	28.74256751551353	4.956553144061498	15.662163209690073	14	-0.021870336074243588	-0.03179505972054719	0.019686696325841826
Si	41.459000721248664	-3.0860270578245674	23.8390556733983	14	0.08736461611543964	0.015724880138025654	0.015708425063976704
Si	29.23547714522523	9.658155453980534	16.771607718982988	14	0.0779047483110188	-0.003940733124190961	0.0828289292201664
Si	37.866426288907526	10.88162634519896	14.518311456136244	14	-0.023083126453757437	-0.031053295835684475	-0.02052796198659428
Si	30.81598181001448	5.8940512937922875	16.052137030345015	14	0.029434785036651253	0.02380946370669927	-0.045460484497134225
Si	34.88783302881203	6.413079647410866	12.049812658609481	14	-0.003208482329012788	0.02503253850749371	-0.026547433762124963
Si	37.953283381464374	1.5084682243379606	23.2859321408426	14	-0.17170741214810925	-0.06471677779238326	-0.023817177022659716
Si	31.099487438209273	8.264301797518698	16.199289718238997	14	0.02424423761633631	-0.06305121576599133	-0.06018828999200646
Si	37.91537969849704	-4.002713228002883	17.539469772857668	14	0.11212847411697786	-0.01102309983907086	-0.06601312909480193
Si	35.23743278550708	7.545734627854859	15.858914677869379	14	-0.04885202952494156	0.02106917965648545	0.09718623843840529
Si	38.040058781528074	9.389370813049661	20.091276941039247	14	-0.74195774620386	3.4480023868692706	1.309779928395263
Si	41.74949595915656	11.729439208260382	9.563820230601612	14	0.020848321709484727	-0.025103243903797784	0.0065324072869002246
Si	30.581576637896855	-3.2315753051532705	10.996023611043327	14	-0.9090675078184803	0.3228536950509943	-0.4492196648782921
Si	35.81595614803002	8.070030513431137	19.608191650552623	14	-0.7142756836639537	-0.1753807503190048	-0.679938315002844
Si	31.293445023123176	3.3609794819875485	25.882619530905707	14	-0.08208742244583571	0.051474556951492605	0.020946537932714383
Si	30.50557320997866	11.996253426256706	22.123000288590873	14	0.06878426640885753	0.09097753331131173	-0.035274022329239554
Si	27.10936302339934	-1.6188886996162486	10.356812529216171	14	0.04215815682393604	0.029389533583016644	0.052513797721896446
Si	28.876793183292964	11.651847678275535	11.243667868599301	14	-0.1152089154010473	-0.3595654794752607	0.07966826945010837
Si	30.52459775778122	0.48286635460500454	22.39451836034223	14	0.9376898235739648	0.5873659250614446	-0.19769280228724984
Si	38.24815406930487	1.4700809218112394	25.578267612311326	14	0.11893033324142963	-0.04072810804486967	0.05377801020781327
Si	30.854388718739557	-2.74807174910177	16.535947750170724	14	0.03828247266434482	0.08631380537109512	-0.015783758449857042
Si	25.849190962712616	11.336186250930782	18.80740262039274	14	-0.002319394109305582	-0.04079007168308524	-0.05440561701646141
Si	40.74398063963699	-1.853909833132153	19.10190895971383	14	0.003955388424515805	0.013146061501917128	-0.056636307992221885
Si	41.071538127832866	10.235618447942514	12.642777620069799	14	0.022164470522868532	-0.0012361874379271964	-0.047931573820328546
Si	30.53909817531366	5.00721556060751	22.378171692464814	14	-0.07190867359390146	0.00913333742876202	0.023004707741492922
Si	27.483450921838184	9.367388996995416	21.512958328364466	14	0.04039874945335871	-0.03937519242540776	-0.07604223961710355
Si	41.81816013349101	7.0283237856004614	15.744496171976794	14	0.013076384547741115	-0.05710862003953309	0.17613845505685244
Si	35.013670511395794	10.414502134022129	19.318552549972846	14	-0.017969197971982907	-0.21906742925576886	0.13820256738966355
Si	39.396642688769354	8.264728232332889	18.43315950621693	14	0.833756747664959	-0.021361000110322253	-1.7622705534618472
Si	35.408228914765786	2.8910385136472336	20.49278737557549	14	-0.023252305183823183	-0.001638565420530371	0.11344590848302175
Si	26.8667036417748	8.129685639622055	10.200739021071247	14	0.008568979810989518	-0.04337146142451391	-0.0478266727232665
Si	26.78037101502392	9.018633940679447	12.36494798629841	14	-0.07026008086262253	0.11384571536030479	-0.06241152476233851
Si	38.355981624850884	11.690079765065288	19.78037001679527	14	0.25685470703545316	0.34178937151282085	-0.11782552928536198
Si	32.62059839278566	-0.06245717870563786	11.854458132062877	14	-0.05292466035205611	0.10652346451905507	-0.07842308314356067
Si	36.379626181450156	0.7808642310829204	10.523409664327456	14	-0.11154071944079202	0.022580732474200504	0.06965484267025968
Si	40.52931890926156	8.921782588511794	16.32720872554798	14	0.19022219866902756	0.13700571786313465	-0.50825198591836
Si	40.856641123077196	3.1390569228217915	8.50962598826948	14	0.0880343890513382	-0.014542428801289552	-0.05839648669439527
Si	36.12859658697844	4.532577273911618	11.420638316489566	14	-0.0163542867203979	0.008672595355391485	0.08714375816843893
Si	33.0695999412842	-5.301305268213585	18.009874754559018	14	0.17909188373810653	-0.12762401166044632	0.12466081277897566
Si	28.90469607125003	10.929640291117357	25.380176387244514	14	-0.038142090313864736	-0.04894381798487085	-0.0394610673431007
Si	31.044461008679697	0.9495641309676414	10.29975522430712	14	0.11197857867681324	-0.03544962882260567	-0.009285803974246802
Si	42.03616145298603	10.072171375366727	22.88614541791162	14	-0.00558778319227782	-0.053410856368096116	0.03019377532715897
Si	38.668373718620145	7.39877636809455	13.114143305490485	14	0.046150569165061966	-0.0695129176565875	-0.04344113837868993
Si	40.18133829778056	8.442157792034605	7.015723535458472	14	0.04654729071596082	0.027185839213117728	0.041731610451323474
Si	33.90868151067877	4.717398370392685	20.490995042275987	14	0.0474201809721511	-0.03914225028340234	-0.04815680264637352
Si	41.88092610982072	-4.1012131346821095	12.951447803851591	14	0.014998799995615833	-0.04471075018577905	0.1078488693115914
Si	39.421501714432004	0.968183484004224	13.246757997305185	14	0.14182808300160435	-0.014019980200235461	0.09252585293510489
Si	27.17962510289962	6.1341177556845485	17.090005844847948	14	0.0005533018648958667	0.02528733504472039	0.002213207459583467
Si	36.78269367490566	5.936621251967802	16.47863393083321	14	0.10729248212031135	-0.11417687372553986	0.025078818403256375
Si	32.764305291318976	12.447852796037115	11.16850423951059	14	0.8628750296367	-1.1051567117175538	-0.3038084895025294
Si	35.39775593714517	6.615892698581197	23.420661034379776	14	0.037317793948225264	0.04417081806854795	0.025519248744597746
Si	31.263329902451858	-0.13395935025179187	24.577477386595003	14	0.34189401549935083	0.18831803806892589	0.2964523000710537
Si	30.433649505167903	-3.9799422624649	14.545181750980017	14	0.0188006934325188	-0.010448457800017763	-0.00038823690334235993
Si	33.524133705418215	3.319649615857906	8.96019113108673	14	0.04251219802652043	-0.06983147760575384	0.04028510659820816
Si	30.900644642205574	5.404829263220953	18.30311486023643	14	-0.021385168500331647	-0.05610254652775915	0.05178437514257044
Si	39.696140439421335	-0.5865226914512593	9.520168663816916	14	-0.031743380503612216	0.011445789553703203	-0.020374209888449422
Si	26.79357415576529	3.3671815760667747	13.18867626853215	14	-0.01974840285352538	-0.028241535057570526	0.06825307604971494
Si	32.312536001152836	8.99989041505329	18.06633570426814	14	-0.0011562260624705912	0.019344482207730117	0.015801499076566063
Si	28.87504333008989	9.947132845365877	12.83913042888258	14	0.06789749218393847	-0.03294794334610159	0.051651191886986775
Si	30.220592215357755	3.3603308435920125	19.274427166727936	14	-0.04525890984003462	-0.05091585576542442	-0.08219797997460207
Si	26.23079457052038	5.914343709088388	22.745526495619014	14	0.05634680153317321	0.06656488829650571	-0.002362331568152055
Si	27.106067548226054	0.9031235824671299	23.70824965338173	14	-0.17357403461053675	0.14946683690776433	0.1224740877041897
Si	31.824562231876683	3.6746149355024187	20.98632767133423	14	-0.10181319957254378	0.036931871039671035	0.002427894753815831
Si	28.295023361092618	-0.8305675777594633	12.215875524815626	14	0.030050564760826716	0.0054463723996696755	-0.07289649225790236
Si	38.739353058210206	1.3612844932965844	15.485174789451316	14	-0.09799356550893179	-0.05733744841302626	0.015951651627262715
Si	34.02232557173638	1.9692138856503802	23.53185432064317	14	-0.04596544958201131	0.0008682622666140062	0.1240730581027898
Si	41.333003121378354	6.741342958747474	10.105400613876556	14	0.014152906345287116	0.008364062716973717	-0.04327221675915619
Si	28.16285144259074	2.7479606473110993	20.40775039176582	14	0.07845984994963877	-0.07746688907499759	0.03761398528110632
Si	42.46633778336527	-0.7927537565345887	20.335267910301976	14	-0.034707093606146905	0.09013138255045099	-0.044540543013585246
Si	32.48407553209912	1.637434529409005	21.782538654178527	14	0.5205346702537713	0.19612494226302352	-0.13449529062854207
Si	31.791194116128516	6.680067053492648	23.38697921945795	14	0.03891085080458902	0.02091311356355246	0.06562180686507539
Si	37.159067329302566	2.9924662792806154	18.990504906818128	14	0.02577661638714457	0.14718626648879296	-0.008863628480678488
Si	29.196390554957226	1.2707463369988312	11.697165771920295	14	-0.022370158948480375	0.14327587240737977	0.07120316229405284
Si	33.78045207189585	1.7994846603520893	12.671691861091947	14	-0.03486007437269572	0.026526607809031762	0.11944275453173511
Si	33.685244372690185	-2.683034721462755	21.08625719664342	14	-0.09398392676216087	-0.10477177046443817	0.004663985050748614
Si	28.654730113039	10.985295752844117	14.925107394978678	14	0.015399378204494905	0.046180651097307714	-0.07980890891112047
Si	38.09477641343358	9.354690715861658	22.53142027419694	14	0.27826172993100606	0.3444733483565234	0.6023315577984304
Si	30.516314138976774	1.6954214948899946	17.64233042482073	14	-0.013838717275165021	-0.001029213459655276	0.0155104499543253
Si	30.326867613534095	1.895014227980727	13.705564278830447	14	-0.026533292682864147	0.02565603154762962	-0.033631343140196945
Si	34.3531360550091	-3.747808141656581	16.81496192509265	14	0.0538584858043339	0.21052518894010888	-0.1724882568338382
Si	41.14283116659658	7.386264345845151	19.7072650385337	14	0.05875875543400412	0.06300956385980494	0.18710190525249587
Si	42.130740119994506	5.3762532291204055	18.86224442488782	14	0.06237295818253627	0.16189813113068027	-0.20270080122983425
Si	23.46692676094497	8.392545940950379	9.380726113425535	14	-0.009236438752099958	-0.013790894716210266	-0.025561414871848175
Si	37.97615401184399	-0.8445516987352542	15.622161663498895	14	0.07197269411637316	0.07748720080702676	-0.08196992293270494
Si	29.585426545790916	10.289507717967576	20.83228994011837	14	-0.10596604888564695	-0.03286849619170901	0.08593585288903335
Si	33.5799509182814	5.653764262168546	8.438352555704121	14	-0.03176883444628168	0.06531867354782993	-0.007371616063396558
Si	35.40052858036236	-2.764766426999963	13.157675601235194	14	0.09114542648871739	-0.11688013385914355	-0.0855789834705968
Si	40.31343505918875	5.2121689550981225	15.600237032189847	14	-0.013482619188324512	0.09088805884617056	-0.6021605792946405
Si	41.380677226525286	11.113548065525112	16.588052856145598	14	0.016482584875873292	-0.01809698190639427	0.033922906483501734
Si	27.824304680217605	-2.316591606532003	20.78238726375856	14	0.031161539369662702	-0.03250802722582425	0.09588654469907044
Si	29.761000052048477	6.268534583897928	12.07188923795577	14	-0.006277353639141535	-0.020371638783129274	-0.04427494783401395
Si	40.543187026897094	6.732814262463607	21.95988161983751	14	0.007114248420849735	-0.004674783693093237	-0.07775562420245022
Si	30.42734447854732	-2.238924919453467	25.061743950532435	14	0.03684856722729824	-0.10234850370019861	-0.024555084249542215
Si	40.42340622575477	-2.2897882995326047	12.912179856248816	14	-0.02441290212533802	-0.013312154905598695	-0.08704939860318948
Si	37.573387146763245	5.02392004160488	9.55034096923343	14	-0.01104881089227234	-0.008944361187731138	-0.034083600566011
Si	41.407016520163644	-1.3083837024385223	16.822286474027628	14	-0.02893444794135044	0.01060169567709859	-0.027299739178800287
Si	31.2889715421988	-3.953959148096633	18.50977072628409	14	-0.0033198111893752	0.11422263940023848	-0.054667612648584496
Si	36.416714573335945	-0.8751275650678806	13.935092409107586	14	-0.11922575324271463	0.09353372622060294	0.06885342914196951
Si	27.54189536528076	2.7922085692957195	10.962560732003116	14	0.03164644983304263	-0.002717658323396519	0.006786175381998839
Si	39.77066686706354	2.929817940141029	22.672932912364505	14	-0.17576153101691874	0.46679085574671614	0.44237692517925
Si	37.70292693313613	7.422251522923404	9.705625327894618	14	-0.0008965444251356352	0.008593148200998909	0.07641016478841672
Si	29.17185013001782	12.683764377728252	23.899372508783653	14	-0.022201494439478664	0.0673894417726772	0.06090331438153964
Si	31.267769072529116	-0.30905250464968836	13.732967208729498	14	0.04837277549326596	0.051373769622942794	0.05327818733357647
Si	36.53197124420815	8.495919621770367	24.17448995178278	14	-0.043051873033219515	-0.012457262386649457	-0.028790723153954156
Si	32.53430171073176	12.894243452454887	8.62045982756306	14	-0.042435321977447996	-0.1218523944377779	0.16141990554113275
Si	36.69121932263651	7.950847701338597	11.79479156892292	14	-0.013369490554237995	-0.030446772090661538	-0.015109357524382201
Si	27.98265250737156	4.554508440620116	9.421791295877401	14	-0.04169612919790543	-0.029249922564132606	-0.04638916773877171
Si	39.15715460972853	3.507563590129273	26.334372482573226	14	-0.08218872399544953	-0.044022722402107424	0.03921295567970641
Si	33.99521019941319	-2.0261127071227385	11.408358300920685	14	0.2975051676996544	0.382977193188933	0.18932565424389194
Si	41.39015845727917	-0.17919411755354953	12.818589668407332	14	-0.01960339251346903	-0.052046370774693526	0.05726160080608189
Si	28.727540998325267	-2.019799511252841	17.288554547876345	14	-0.025382465941565867	0.01647718555470098	0.006703642901222086
Si	35.24862138936761	10.233793437645755	8.489150581788746	14	0.0019134165792542002	0.05507796105768013	0.062266771532814166
Si	37.855337349888636	-0.8532437800054035	23.007576407415385	14	0.033661682182974696	-0.010852635556345042	0.13329921243360918
Si	29.212286280272505	-0.0727422635920268	18.554775120755192	14	-0.029701151547818595	0.035611351347242984	-0.03837426112427411
Si	31.285550260586074	8.748565093756405	20.231998795873206	14	0.042408068261054435	0.03736818761250016	0.00010618664972211567
Si	32.36287328157615	8.388356749902133	14.223296989507817	14	-0.027316194252849237	-0.040113099652290256	0.050970363198211556
Si	35.88144901978076	9.83585296505975	15.5123653188682	14	0.033937561783826585	0.04286263968165661	-0.03462430401483813
Si	26.79625693724002	-3.802484927315518	11.029094366116464	14	0.027333677769026243	0.10440898750376529	-0.013925877745518041
Si	35.40034885687746	9.963208294166066	12.201677369507808	14	0.002531253187685784	-0.029908639747154544	-0.0026762635277421355
Si	29.601810792215172	3.7763939788563046	24.17137256624454	14	0.011770005934573877	0.03528816340850038	0.0781042660838623
Si	28.106844703143473	8.05861970598927	18.038287403673284	14	0.02242852303924774	-0.05839083026269094	0.05901843707133909
Si	39.029131036028325	1.4686692755297717	19.36985543566508	14	-0.20766303449772006	-0.14034661211613506	-0.5405059879385536
Si	32.670239653167414	4.713454256823861	15.070098499504162	14	0.024708322126623043	0.016233444770350942	0.02116662454811906
Si	29.82938320420653	7.128988543347912	19.393686769764027	14	-0.05913747924766194	0.14617916453489097	-0.08375838379339995
Si	33.97558439486111	-6.405111361629941	13.922895719881708	14	0.023791208858926223	-0.020526676433934205	-0.16912267996976435
Si	36.995445434791456	-4.519423148666134	8.51913826217076	14	-0.029398275341105153	0.048610602735379656	-0.014719320847315738
Si	40.072175886896645	2.067143578727486	17.35681842899441	14	0.07018191926089003	-0.0448956126582977	-0.24182094000748333
Si	27.80670811719514	-3.7057593815873027	18.79790831883995	14	-0.02532667295611865	0.08347556220818365	0.0185854919172224
Si	32.112984114308674	3.377025521490205	13.20949641733394	14	0.001401252399480703	-0.004159791297467578	-0.04010255812047765
Si	37.60680754570702	6.776905334861397	18.481970770868376	14	-0.32289457562558466	-0.1841613320978425	-0.4213442552183107
Si	33.76308424785418	3.7294077245016144	16.951308329994006	14	-0.044353109435746454	-0.07776847972905096	0.028584263396746273
Si	41.60905349264914	0.27816130529353966	22.24765159617424	14	0.534956257105014	-0.4467372626916892	0.13906054523499697
Si	32.87830389779682	8.222419690135427	21.903098801705415	14	0.009691781504298183	0.04448037914909378	0.013157631475857795
Si	29.255444424398632	2.567023211953931	15.72386391590923	14	0.002150729600303868	-0.007587588910288997	0.012187553438565925
Si	35.01510666542521	-1.629386184984803	17.756846961705083	14	-0.08923612367797543	0.016458673596395912	-0.05221503528369525
Si	33.23601081751112	5.444915769604996	18.41502377273974	14	0.03736330251239189	0.028184456519463247	-0.07200071916436278
Si	35.07511306933663	0.9464402100299486	14.491761395865582	14	-0.005266652137791325	-0.009879986413733024	0.007127875279046519
Si	29.863548638687746	-1.0549180378213556	20.65806762769735	14	0.07201100358564337	-0.16145667234721087	-0.5692653436076021
Si	36.74391751611159	11.830961737185806	12.660689516115786	14	0.014306401332899956	-0.0052764223380078875	0.00016660762474559552
Si	33.05162105739384	6.524339921518638	10.561494704629556	14	0.060409147939007174	-0.003088925931625902	0.05426883421342953
H	39.94143195317486	1.3456354793105902	21.406717241035246	1	-2.816596770110606	-2.1871565062586615	1.2410756233618618
H	36.9895962522826	8.414405218264914	20.782539211795804	1	-0.5392906264537196	-0.03010738618840199	0.3634036254971777
H	32.036157226059615	13.869130622446221	11.632765945727776	1	-0.03361925894519225	0.6258414877353323	-0.006058295465864919
H	38.503838502035734	8.117480781146863	19.74349565924151	1	0.9224100017668568	-2.922759508553244	0.9249553960338035
H	40.14318790348395	3.7572011445178757	19.533073769260074	1	-0.26735690093666203	0.089211698177434	0.12192952759738235
H	29.288113252405516	-0.2456999762192306	22.78069348006614	1	-1.4713918955038106	-1.245435960874301	0.7700784393113835
