72
config_type=amorph dft_energy=-6940.043016889507 dft_virial="-8.138855982562191 12.776155010178757 7.571613817806273 12.776155010178755 -25.40766955706055 -9.621735167145845 7.571613817806272 -9.621735167145845 6.877339593980848" pbc="T T T" Lattice="11.105996452100001 0.0 0.0 0.0 11.105996452100001 0.0 0.0 0.0 11.105996452100001" Properties=species:S:1:pos:R:3:Z:I:1:dft_force:R:3
Si	-0.8171148041660959	-3.0384806845328773	-4.744033002080456	14	1.8976222792725308	-0.6278279237056789	0.3455591261332219
Si	-0.2408968372435655	4.631517041424585	1.7526472955027081	14	0.7668005371387266	-0.032229062298588185	-0.16307518314624408
Si	-1.1440886669116623	-5.233809666817356	-3.4919418514710565	14	-0.2687383558251776	0.36270994128180173	-1.1853561715268048
Si	4.730285999672047	4.162278695926553	0.5491504323694723	14	0.42681171068160556	0.22152926259981065	0.5855291274207306
Si	1.2172527503388069	3.092074891611777	0.6631479329520528	14	-0.44769577075504036	-1.5156290480896184	-0.5578907736712669
Si	3.8125719690431836	-3.476789940511456	0.5516048575853864	14	1.342528868189585	0.3332373609969443	0.19810083670155734
Si	1.71912717701098	0.1442080321315829	3.304203866245467	14	-0.8179686183360576	-0.0692439800401	-0.290848318915259
Si	4.960613260092148	2.6484625223273204	4.51920876290237	14	-0.6651495743118843	0.39259261286522285	0.8647732766945653
Si	-1.1470017697810484	2.5132592321191	-2.6222557024993	14	-1.4976223119799614	-0.09439813182923672	-1.6799651012848633
Si	2.0355014767426622	-0.14010214524324152	-4.06580090474716	14	0.2246171600893085	-1.0041675514001176	1.4331186788186183
Si	4.140807472985709	-5.215468113676713	2.1067719877747235	14	1.906500563053534	0.18386179832804525	-2.3254061248756845
Si	1.703579892577685	-2.488186334528839	-4.397002820342042	14	-0.44000533763194544	-1.673467661030317	-0.34145564204226564
Si	-1.3095258112614345	-1.5158663405442907	-1.1018403458082289	14	-1.5732688584882941	0.1380290177805536	-0.39863239637278264
Si	4.194228426519954	-0.572001020069668	-4.481878177027926	14	1.9392150500365661	-0.4623541564062686	0.10967126876251236
Si	5.445958632244661	-1.5824001440895317	-2.6192015534749724	14	1.0101798240807518	2.9481815695167404	-0.22525607976136527
Si	-1.7733277714961635	-1.3839337662912141	-3.473340418013434	14	1.3940327357417273	0.6256286002148241	0.6385190938479185
Si	0.7337987293820869	-5.511953794961975	-2.111773017977104	14	-1.130331689459784	-1.299266678741177	0.6896208405279897
Si	0.8977954259920216	3.1092625317210465	-1.9893194116958948	14	1.8749867822550113	-0.20645821454469865	0.8863433076674156
Si	-3.9933942502780493	-4.8680958672475745	-1.263973456213501	14	-1.319470681457433	0.0409386815705898	-0.29960396097249126
Si	-1.2119252038407344	0.778429286724496	-4.397943498241535	14	0.5219811741068868	-0.0335680939493213	0.7991159885760719
Si	-0.5596611474117397	-3.381015158907482	3.95994854196255	14	0.7640911063523548	0.6351198355041507	-0.3049842559654331
Si	-0.4359181349424415	4.40368529840727	-5.326365930649512	14	0.9048737779307869	0.05627352503154899	-0.2665953395408342
Si	-2.9104951814188773	-2.690133331615245	3.5208129998479354	14	0.20387116837156566	0.30352592502784514	-0.7699915359515624
Si	-5.254974364256124	1.1911214512866608	-4.779134614466963	14	-1.2006779023506313	0.841517371963294	-0.39258207133341017
Si	5.540322952299219	-0.6183630022589595	3.21211627546359	14	0.1526161838144137	1.1239769455505058	-1.8891299184000816
Si	2.9151141653433057	-5.445327811646181	3.8821654746109777	14	-0.9249296849806019	0.7127952412206123	2.262072344635009
Si	-3.841937334262181	-1.970566936686524	-4.074373623408537	14	-1.0014797178984347	0.7505766054580604	0.025382465941565867
Si	3.74771961336079	1.2052527211723127	2.906239363578433	14	1.688332249328221	-0.5034728153492687	0.6755985463329661
Si	1.9469977910158773	0.655708025928791	-1.966542123572283	14	-0.47561154676854817	1.0704719867276922	0.9969293757028366
Si	-3.4887055641049147	4.722417401185734	-2.8893849033627257	14	0.8742236314093016	0.40483878750508806	-1.4802987185538676
Si	-4.515407180316815	-3.2980278216184544	5.303587531926255	14	1.4612751102900918	-0.29001836611791515	-0.4188538826052152
Si	4.6117883493270755	5.533901465150615	-3.7224934530194904	14	-1.2946646573286442	-0.44264894812212163	0.5828176397501025
Si	-5.103893941519981	2.737118360205499	-3.027607914006272	14	1.7219008574986066	-0.19857392008046457	0.9208760803328564
Si	-3.1857262066941097	2.6376341757865225	-1.4027839740693633	14	-0.4309429627100196	-0.34019554332486107	-0.12338888697709839
Si	0.8428140799562553	1.2794119018815653	5.29536465215312	14	-1.1025429260490913	0.7521940878149656	0.2630873234420242
Si	-2.377248535968812	3.760125011397786	2.2803065141377217	14	-0.7162706042818565	11.386370538422986	2.9278209864864877
Si	4.722345212208794	-4.0653033561061065	-1.6617236131490107	14	-0.8912520619446422	-6.1430763782441415	3.156893100764017
Si	-3.576688378598096	-3.5049680747097245	1.1400971717867776	14	-1.4056644162100773	1.7185571350297537	2.9270208585108572
Si	1.5911472268952056	-3.0035545468903133	0.5243696224859016	14	-1.263877985114659	1.0969862532311874	-0.31116802137092126
Si	3.487141839804459	2.2460567316790905	0.8592409593085564	14	-0.44564531426222226	0.29053875783471317	-0.052687347331006454
Si	4.78811048079955	-2.0344397434818413	4.777394304822918	14	-0.841101624233026	0.5002540485989755	0.8313391373324237
Si	-2.035045020288481	0.8972556745644495	1.898139180824154	14	2.796526207760466	-6.197457312649529	-0.12490918155290197
Si	-3.1244844104582947	1.1800232290320771	5.504750445663142	14	0.9058361426521183	0.5411245958785813	-0.8209115054854992
Si	-4.515552668870337	-5.364628309626287	2.2014439439310047	14	-0.8614539797262541	-0.11484844643516252	1.1389634042405847
Si	-5.470355174650989	-1.8827973573252228	1.1375849953893127	14	-0.4396824068037349	-0.05978385512514715	-0.18058235349219637
Si	1.6886656499421597	3.1334047468086217	-4.5097353479287285	14	-2.2463826886398692	-0.40100758346753546	0.3438647677272444
Si	1.3014239868496276	-2.182675920526601	2.7218198500927313	14	0.22596801882451428	-0.03621221866056159	1.2899795892142703
Si	0.00063415239741491	-4.8256609654037455	0.03882878479583202	14	0.3049937690551177	0.29048707861777817	0.199449381441975
Si	3.4256712600417307	4.262739097433669	-5.352461690513012	14	1.6623982812954836	-0.1781261765798589	-1.2781751304684066
Si	2.7602254964237383	-3.0222170633284224	4.4228020501002705	14	-0.9317130321467487	-0.8432153299167197	0.435795924001799
Si	0.39948047118274665	0.8152878677497254	1.4971893863107941	14	-0.2284478499057971	0.7665855927339624	-0.9840355396328261
Si	-2.3533539846021188	3.3491920366736343	4.781011527867368	14	0.2887538965214663	-0.4779363401990261	-0.9821846009128514
Si	-2.933936608130325	0.23290607279627953	-0.015001980007496682	14	-0.3824190062239289	-1.3078300021204625	-1.9620202400052156
Si	4.077796491515074	1.3604834547826048	-1.2338839800258266	14	-0.053970843106824366	0.08345859291307067	0.11006413365543098
Si	-2.1203601744338676	-3.922201481221153	-0.4383037029803526	14	2.202299288152206	1.642339031808752	-1.043296174825323
Si	-5.277190799558904	-0.12424389290928793	-0.5229202899489025	14	-0.24711715985645635	-1.2524725619144825	-0.7868294475826804
Si	-3.9729847605980253	4.440851515534223	0.2775477361351407	14	0.34867582000230546	-1.077293386252577	0.06259175924528088
Si	0.646527809261485	5.405477275176756	3.7804967406898737	14	-1.5445375278672353	0.5553826604314624	0.35390467689189065
Si	-4.38133670174671	4.373676895993696	4.26258361348334	14	-0.6137552358463803	-0.22461536031558438	-0.6154624497789587
Si	-4.43792841726803	-5.442103740876137	-4.974695663593411	14	-0.36755416081549275	-0.039279804418030265	0.9338989858899385
Si	0.782438551443704	-0.7208646859139712	-0.4291234863130467	14	0.28898940976879195	-0.6890492838153208	0.8878720868907757
Si	-3.2156035583495495	-0.02439876360561849	3.4947239035823072	14	-1.2986041049001753	-1.5063607276315485	1.4416326369757566
Si	2.484590212877649	-4.42335623932323	-2.884484937728059	14	1.8500802279082047	1.8623953081706497	-1.2555452898825912
Si	4.515372751727814	3.8864701588358117	-1.7532103695228294	14	-1.0262713438374305	0.4295694782479964	-0.9118425017905163
H	4.798333550533708	-2.8831511075541614	-2.204694669092534	1	-0.3789397865047045	4.457715298223883	-2.313515534101595
H	-3.255526283795913	-1.0964694859239934	0.9765469362342175	1	0.17032595725959368	0.47260978130727527	-0.1443374817940689
H	-1.459332376204521	3.8949373705308927	-3.6857392683609107	1	0.3080335868751287	-1.403522942588926	0.7787399789138985
H	-2.36539177415655	2.5435397314457506	1.992319141337607	1	-53.328348312819905	41.41364494170714	30.960124378203474
H	-4.096859934425104	-0.5854770361646462	-4.912549839246394	1	0.059279918482398136	-0.9333402847038703	0.5426834570341871
H	-2.132800001059865	2.332601319631725	1.846355251166947	1	53.1598308710425	-46.01980300558977	-33.906934005921386
H	1.5902998393659105	-0.08965870935780332	5.631393233806085	1	-0.25147826870049156	-0.5552859868714248	-1.3839591450973872
H	-1.6526400186508379	-4.0847766102852185	4.687077009875506	1	-1.2928635980518806	-1.1519809104764946	0.5719562624356691
