234
config_type=amorph dft_energy=-23364.09826715154 dft_virial="-59.85519314384463 1.6031919901569505 -1.5143501166469937 1.6031919901569505 -50.14316106241525 -5.475890021795529 -1.5143501166469935 -5.475890021795529 -61.942977171328614" pbc="T T T" Lattice="16.365758883857527 0.054416474787675 0.006186293975862001 0.054432840644754 16.44871741339098 0.03914713013296801 0.006137196404625 0.039032569133415004 16.33857519524931" Properties=species:S:1:pos:R:3:Z:I:1:dft_force:R:3
Si	7.755854952680664	3.6681973812872393	14.963869385984635	14	0.047346647359994866	-0.15122804405206575	0.0574994280481956
Si	7.050643624803722	14.54854648454802	14.455576960239345	14	0.01650341082896649	-0.027642467517976024	-0.06659856977619964
Si	11.875556872234771	2.711871615561537	13.17707947839928	14	-0.1660206414010057	0.015022968385625227	0.08974597386296079
Si	10.248777585896509	3.4530240021696708	3.4147229868476874	14	-0.02901852308531928	-0.0763592569030778	0.1412729813629844
Si	1.5336559229730453	12.691425942751371	10.635831742400566	14	-0.039738746717676694	0.03746357561987766	0.01881046363273536
Si	0.8912763935938006	13.017998437834278	16.21009503425062	14	-0.051376083617730925	-0.05691321603520184	-0.0627953907866366
Si	6.540482218180011	14.762392592656482	5.907292117550624	14	-0.004171875492472273	0.07251314045466829	0.11390973588277646
Si	1.5184356758895754	5.145533480294321	6.509845333728123	14	-0.04741709564576692	-0.1136881066041797	-0.05063354840127217
Si	15.134319787462418	15.400448262595456	11.227747151476713	14	0.04870496230062909	0.08159299889277122	-0.05105546678430847
Si	5.201128296791685	12.302252407755583	3.3930873237892487	14	-0.027796990947716926	-0.009823679207221778	0.07192024356784213
Si	16.635540218290593	5.2252810286688725	8.556125724815269	14	0.11450648942758285	0.040779530151272635	-0.02239124201210559
Si	16.396318848781146	8.854638957936228	13.589945864688337	14	0.021736381487063874	0.13083017999467098	0.11887762558236659
Si	9.775265879615509	2.644756872266266	12.096430479372954	14	0.13472746143895142	0.10510215749807719	0.014936065025804218
Si	14.165451228871373	12.289004246450133	5.410074467290694	14	0.09833552251651148	0.39051567398760717	-0.10782521514264604
Si	13.152475048866712	5.685973359099891	3.1356425724223316	14	0.0060354126285156	-0.08250728394461589	0.1426148412295697
Si	4.333340181277665	11.432359643021202	16.332539467158572	14	-0.11200737505639889	-0.025672743732210585	0.00037872381365781205
Si	1.159229661791144	9.915729121167441	4.501229326122586	14	0.004271891489426033	-0.04289940648773473	-0.014425443509222813
Si	16.21653172583979	6.583581702797558	5.414288675488536	14	0.001964838685657162	0.05474783113457312	0.0173665308849402
Si	4.753648122780542	1.3940420694035123	3.7573045633252704	14	-0.0773889845837971	0.062430808052239606	-0.02121264733334971
Si	11.011344696492513	5.8352758000601925	6.185680256221538	14	-0.048463535511067184	0.053659482252554444	0.11172121103426642
Si	13.142833922461472	8.66770159203706	5.995428804263871	14	0.01852378538953885	-0.060319416363334016	-0.09505093547002232
Si	10.527435761209226	6.15223008093777	13.27640550159744	14	-0.013307526916022428	-0.13332492348681063	-0.040981876139968294
Si	8.588034236362196	-0.1290873342963204	14.069061240433186	14	0.11439876011466862	0.022354989427091503	-0.09315243130162498
Si	7.4021560494893155	3.762189771663352	5.731576819850525	14	0.001956354038100673	0.25493769090875074	-0.14914107786370157
Si	14.088844288470282	13.80373632888273	1.7941038091139592	14	0.10218421007024114	-0.08717435432174868	0.15845927776498223
Si	12.15651936022421	-0.641117721798454	12.762887457686825	14	-0.04724637425250909	-0.16646467128979528	-0.14496303171846092
Si	9.99065365146081	15.244435820232765	12.506459026044514	14	-0.13684656644381749	0.04468478202204555	-0.024014380800715072
Si	13.422742449255026	2.633678823609491	11.389399268188829	14	-0.10563694740466802	0.30761346826581654	-0.032519854310296935
Si	15.829178074151187	7.383253484563071	9.003864479368259	14	-0.13371881682185735	-0.041835740216789465	-0.17578261408054394
Si	10.01646588124581	12.970097210749751	12.996557528475078	14	-0.7357490410767663	0.1563160043701068	-0.20989861057358883
Si	11.966554310765426	7.207286152663955	4.5235228966356	14	0.06049193753031595	0.023516614810734405	-0.021418335758961557
Si	9.311239824097497	2.6656462522419018	16.413964515883723	14	0.018351007112024902	0.041136656680241204	-0.0021910959538301933
Si	9.63532143573298	6.126033253511414	0.44022355298231314	14	0.014836820360446505	0.14685202279717371	-0.01981807980770139
Si	16.276597694491137	8.259244167645086	15.812396524302379	14	-0.18968843720456482	-0.1329976217795558	0.12399541072212135
Si	9.035200185917422	10.946859946429838	9.514929281302733	14	0.02416864711992396	-0.048476133927135914	0.1482995550924171
Si	2.5052052089536327	5.291426913225067	13.938129474044063	14	-0.08817117185437008	-0.18010669900796897	-0.027645295733828186
Si	10.240542286614355	1.3617931480293428	10.1599240746432	14	-0.1349611749125529	0.350438826920331	-0.1835902896062376
Si	12.262205155483269	15.104332627536568	2.6157974881649753	14	-0.15388451006884277	0.07088948744499478	-0.019107940518276495
Si	1.6904882947753945	0.10765788103707781	14.449326839420873	14	0.13503290875098503	-0.07199891939063867	-0.02089974381588769
Si	6.189126905722375	11.828195718433852	1.3165710117486498	14	-0.1252452250182453	0.20188293262749513	0.021529921729855985
Si	9.670175801554127	-0.1301020174352184	4.904307293292693	14	-0.47790677248784436	0.37739352376516744	-0.09286241062151226
Si	11.966248269238049	9.963630348251968	11.920268393774599	14	0.3057949254728758	-0.42973248632529376	-0.60659625019296
Si	9.215818694398388	10.719114315904182	15.951930185172225	14	-0.2749023237197006	-1.8733060507072306	-0.42181708148668595
Si	1.0105949477996659	-0.9181965919030477	6.269570003022784	14	-0.07726531441789798	-0.036272896746117084	-0.05636788459679842
Si	5.372542647251423	1.1660624071216263	13.902469908054629	14	0.32708136352891376	0.428346917668266	-0.23466735367523534
Si	12.888976566966273	0.7861568569896756	3.2532590774919807	14	0.11609157585745412	0.0778749234893051	-0.1195761948978508
Si	1.185676886830808	5.930384341889093	12.096865811171257	14	0.20215264157557866	-0.1394410688223789	0.0790383486466721
Si	4.130498475469123	15.221823115506709	9.238827452865754	14	0.0038440595641533928	0.00014603878218441088	-0.02849324626841303
Si	0.8801688863942833	8.926958043782621	9.984696479484057	14	-0.16422935232445854	-0.11211176193239691	0.19021628512679126
Si	6.635746235651162	3.8509663633883875	9.445747530258382	14	-0.27715409775908634	-0.006784889829338767	-0.36421095256770425
Si	10.181561374287346	0.5762156423802637	15.718885290124389	14	-0.11654100506741599	-0.0927760214827553	-0.0642748047878498
Si	0.09136730690064121	4.891000214901759	0.8596821065027911	14	-0.005696283836788069	0.005216515584048438	-0.1157002536277276
Si	1.3987668923422196	3.0174025281979726	5.437428360812534	14	0.060145609643692	0.06116196757674653	0.0034709921821999066
Si	14.287083915268207	1.5869382438651456	15.444285847367263	14	0.04265669414551276	-0.013043217289111205	0.017211236123603254
Si	10.591038391575342	6.815264958536421	8.26161721692154	14	0.0038219480584001197	0.06415550550099494	-0.05143367637690224
Si	3.2473575494292937	9.019672260720865	5.068057512882336	14	-0.11170861261819771	0.16643793179446573	-0.217211862546218
Si	7.100870440179174	0.7598945661350044	8.096950509335473	14	-0.15959339232169956	0.22154108968428335	-0.13915747590556657
Si	6.125890870554827	7.642017324010555	1.0127110531199806	14	-2.588084899682337	1.575509319664271	-0.44351026840437136
Si	8.841367884430868	10.810029925149442	5.542727921844528	14	0.0250983588036895	-0.002939030491461269	0.0835719786576892
Si	15.8406996375348	3.0298029381067306	2.055214512466573	14	0.02183716881561368	0.03945618224299242	0.0684137701322242
Si	15.41724617830134	6.909563390439911	12.570958505378561	14	-0.18534532609777069	-0.5426140371905431	0.6640267726185757
Si	1.0323680840575675	4.187263450747635	10.610518671256477	14	-0.029375392503755832	0.05098656116172849	-0.09449583383140235
Si	7.669623251731413	5.517707799542153	10.646299344588295	14	0.45943415209417643	0.37154091672491435	-0.015422775262908252
Si	13.019458272285725	13.747835470857991	13.715683108040585	14	3.5524874790905123	0.14784961166139118	-5.1718426291108655
Si	2.8807803533024807	9.904901470123976	1.0962309315512413	14	-0.03218021129750537	0.027972083220019008	0.019973374569038336
Si	2.3457330244044416	1.8433617657503336	15.968111108066234	14	-0.1204249167640317	0.2315673719907328	0.16888228162233052
Si	6.9298423239465	13.79456326598995	3.903720067096836	14	-0.025266766202159206	-0.015245883216882063	-0.18238238432683204
Si	13.853197222146884	0.8758368440254719	6.968187527082597	14	0.06636357074993811	-0.08333132319972335	-0.23993040626557843
Si	13.83318668869639	15.085564262638371	7.592266755076104	14	0.21947417811741632	0.013763898110348711	-0.33266683272640346
Si	10.683610225556997	8.535334539982108	13.329250854105531	14	-0.06446172414462457	0.025208916332455873	0.01452108862713232
Si	3.7136699151812405	10.850699079990756	12.830782852364765	14	-0.06408377166256281	0.012476545676550568	0.030554244293043726
Si	9.351136510484684	14.279182479470466	8.461182478142867	14	0.16238818380470052	-0.16557198352263988	-0.08805932877294365
Si	2.20961655449269	-0.120730927671783	10.170876106200469	14	-0.01235518950543958	0.09180594344546343	0.08626444014894827
Si	1.1098276856124745	1.3893712537931655	7.163890446033279	14	0.43735195694155266	-0.14107294936907686	-0.38300367557373055
Si	14.941012829988104	6.380355399347659	16.142798629941773	14	0.03299962256303656	-0.00030698997522568056	0.03540489159003509
Si	14.51075772055261	8.93286611818814	2.6437945598700208	14	0.8262002691290437	-0.6469201804815023	-0.16816674301173332
Si	3.6524763389771517	8.282930472595522	7.218446030606125	14	0.09253870846170563	0.026004416318509683	0.1600201958048441
Si	15.77481560669187	-0.2579962807504797	15.049633023421427	14	-0.07421366951341424	-0.003784667031257972	0.044053318555417185
Si	3.924881120299983	13.366571554588482	7.769495894556011	14	0.030963821370543314	0.017673263749633863	-0.043286357838417014
Si	12.47820337379762	13.713563729548856	6.198571641842666	14	-0.12196835128771659	-0.03344082423597398	0.038931419647150196
Si	5.829452828111485	9.013337037445584	7.616804084594649	14	-0.05485401778429524	-0.12480685156116007	-0.004422815371718725
Si	7.950346798207501	6.369380455590481	2.0596496597349816	14	5.724700978339006	-3.8756155110791664	5.738970098644764
Si	12.097111299027443	4.751641668702658	14.314285606319213	14	0.03489504140504973	0.019918095804655152	0.009158791371431486
Si	6.110433318543712	12.807225837685252	7.178780102803754	14	0.02777256544717552	0.11551513404467692	0.0031115516584432055
Si	12.324997675923978	0.5744563127442711	10.709887245683042	14	-0.286403392037787	0.7520912436021596	0.4807635276090608
Si	10.246690939118935	10.645397585863241	7.540856688233841	14	0.06635045811280536	0.0590778296042345	-0.02317928579273098
Si	15.227313860556714	14.566552200506337	13.491488868501072	14	0.17525168083193335	0.17345164999729767	-0.17216018379498732
Si	15.958088657191052	14.842053401988514	0.6900712734931588	14	0.02550227944948477	0.014379163613460148	-0.028791751596082223
Si	4.854669648772086	0.13510015018714502	1.7660199983663953	14	0.0361949922549166	-0.2194152998055849	0.12363622730889665
Si	10.698172565185892	11.739887190221276	11.104256940301411	14	0.1097414599377524	-0.015990732428128963	-0.020046908181194572
Si	5.466575952270234	8.146746902669747	15.139951278883304	14	0.02263241169113548	0.001219218142814219	-0.17818428356009425
Si	5.150800013102344	15.398317428003768	13.364895690823593	14	0.006132343299085183	-0.09553918837031844	0.11671095512907781
Si	1.4135174393275223	1.7052993954318896	1.8099475953521391	14	0.11385394289732925	0.05073253595609787	0.017344933600250956
Si	3.153586098123747	14.928962649420836	1.8516494357751392	14	-0.0576886613997585	0.008082269573885486	-0.021726611286847313
Si	4.6155530207479405	4.371353157515059	13.418775365499076	14	-0.12295025640948114	0.4037622657075421	0.12015032271583988
Si	11.0078407664919	4.334475971758947	16.436794886508924	14	0.04515683695882474	-0.1308584621531926	0.06890742235369263
Si	4.758399131090576	0.5805378652348275	7.795877656167359	14	0.06154660493264069	-0.0012595844963405438	-0.08039743491890237
Si	0.5727444440938078	14.701113913995583	9.900008078857354	14	-0.08385891401141773	-0.14126346827329986	-0.08672826754870298
Si	15.26491932695284	1.2986913128898423	10.760699958741919	14	0.23564925879699986	-0.30188761671784675	0.00691884441651848
Si	15.433554754880562	13.412337037324198	3.8037606852297197	14	0.05739067029315333	0.09335554862191668	-0.06242026652042701
Si	5.320495948568786	10.40348730603571	14.508438678604515	14	0.08667555988963994	-0.0218757353954159	0.03637702651158308
Si	2.3752341183750465	12.838861039418958	12.856598355321179	14	-0.05054330260453497	-0.028540554606303753	-0.08600398718001727
Si	16.73446527799032	10.123950284197852	6.713264754291553	14	-0.05261844170842648	-0.057408410919862346	-0.05071530955045287
Si	12.458204296447082	12.764702431236886	9.88509550988697	14	-0.23585571855420778	-0.39061466154243285	-0.1100749322977756
Si	14.312896145053207	11.255988074452235	9.425908838307219	14	0.02406760268084214	-0.006690787374621346	0.0025628777831236053
Si	9.762202652495052	4.899083311713077	11.433182845632277	14	-0.0006245214822639683	-0.006057009913204844	-0.02997188893803019
Si	0.8280207193977577	11.146241910051877	1.2579370555917166	14	0.10083335133503533	0.13787089480336448	0.12481867864563276
Si	1.0578022625440415	12.038933950283011	3.3979856248129936	14	-0.005324759118026672	-0.04363474260929708	-0.03923686695918379
Si	13.241276189377365	15.006453346104193	9.865392654549563	14	0.5838046870825073	-1.7815867535110559	0.3447759674527049
Si	4.909135221130999	5.508220512193456	0.9617641400330535	14	-0.30782558445472874	-0.1301118131682216	0.22890293554746333
Si	12.148082760899985	3.8757868222343985	2.0531638705745743	14	-0.037974711357523096	0.03383394623942462	-0.08545505619416566
Si	15.413989372742618	11.94962546820291	7.371622269937026	14	-0.011984436118274225	-0.12104121070927121	0.061312634348507214
Si	13.452562677438673	7.164227582689106	1.4290060864670877	14	-0.11894781675760661	0.020182405431566377	-0.14697620718413687
Si	10.950064381245905	8.703307150698132	2.92899744142863	14	-0.31698386160509623	-0.36907574094395634	-0.10884825794953296
Si	9.2387538065089	-0.7120097049075582	10.294886751630882	14	0.6395048556276633	-0.26146829842192687	0.04339048760388301
Si	3.1833817775217748	13.537948263576938	16.269169231962977	14	0.013204425592684489	0.08095305077858637	0.06952577318318823
Si	3.2098813733040914	5.144736463054575	2.6358800313866166	14	-0.15560792196493803	0.01939770408785718	0.13116468079682223
Si	16.694370564732477	12.74195061672566	13.960740542184409	14	-0.010254853569410614	0.09844762270846995	0.05856746519818511
Si	13.37454500015737	10.381890921034262	4.3009439671897844	14	2.554911470399658	2.108812870269494	5.536390139364976
Si	12.654622403352116	12.166000101230075	0.7060279841451838	14	0.24291031733163004	0.3669748907868634	0.2601063839338445
Si	8.41915168399258	8.98600769270936	12.783843937676485	14	0.07629343660688201	-0.02673229623464361	0.10462136080320951
Si	16.203663252418572	-0.847998521134093	4.2519200423096395	14	-0.005296219848973028	-0.016228816780774674	-0.03387328415082288
Si	14.567532515345368	4.966112952551536	4.826302708697056	14	0.006554004571589469	0.0704613984091901	-0.08090111445111937
Si	2.120646845654123	9.745409646546289	8.227317653655373	14	0.08646190103753564	0.047350246907443064	-0.12357297811802101
Si	11.783806604278482	8.86807369001238	7.982405875639553	14	0.09342625401822074	-0.02362280146045652	-0.05084335059539625
Si	6.882392794517355	15.305999264806838	2.0836452793842115	14	0.16767746166930914	-0.03684908144836227	0.09599298845932457
Si	11.179441687722338	9.401000003832982	15.518660484862778	14	-0.12157368662107386	0.03266820708726948	-0.2857027658380466
Si	5.487607715202456	3.9147391986681264	15.654261430276541	14	0.6609273051551371	1.6076010849387634	-1.4048149230123004
Si	4.643993607179827	-0.21303436159734304	5.605914859440839	14	0.045212629944271956	-0.11171118372351783	0.0319549824714604
Si	8.828618881766328	9.217902068004545	3.707606365133471	14	-0.12179351612594652	-0.24103855265856228	1.1047836443356005
Si	5.780198144646526	9.082045815220349	9.953336224149277	14	-0.025617464967827398	0.04695532513026832	0.024098970165747944
Si	13.752095503455655	2.163173525273904	1.4529378792737095	14	0.012864011248296883	-0.06258635992410858	0.0318143430104483
Si	4.623899607858231	8.825938154376786	2.4057351662131787	14	-0.11695109636597964	0.17280887366726067	0.40044322584976294
Si	7.630767433854451	12.742371219252592	9.017169921173487	14	-0.16681562716599552	0.10448946310028592	-0.05878163827135345
Si	3.1060040052522626	13.372027931338621	3.6444914373083073	14	-0.02229816799951623	0.0013968815204364515	0.031134799874333163
Si	2.4156168707174794	7.69697223549613	11.248818192465926	14	0.039330712303369195	-0.0785470104199918	-0.05339902928362344
Si	2.399668342993994	8.896031483660435	13.21381755437022	14	-0.006709813553990442	0.06267223484180152	-0.019039549116760555
Si	1.2355829314075104	3.86686252036922	15.369035636518023	14	0.023563923148625127	0.08255382095091056	-0.009712607457391383
Si	7.093942772877633	7.304551714455868	13.741626264682218	14	0.08746257522813727	-0.03538020897896167	0.041850652627646326
Si	6.338874497995225	4.7891440301991866	2.650113417288223	14	0.09545588455794564	0.04783849980773919	0.1569029877146966
Si	13.00933762626807	4.461167344578902	6.4879625462277914	14	-0.00990132658789025	-0.046386339522919554	-0.016726582770755342
Si	8.645895724065	5.851856049866928	14.67304483251939	14	-0.03444535508455583	0.09444158350914722	-0.011780033245322452
Si	15.268784942394898	9.92708538939456	0.661755067575073	14	0.33832300732019727	0.23337048815175263	0.21340534111973875
Si	4.605402916187545	7.087730293530444	10.600995379022207	14	0.026982979003358047	0.1888376584541278	0.01003965205411422
Si	16.70586266957335	2.517248843178069	12.091371792949836	14	-0.09552916105956986	0.19975919963305286	0.004428728913955067
Si	5.933061796107217	6.028019772050992	12.216492043490208	14	0.011196906558712869	-0.023777324890197418	-0.10327615849970805
Si	7.627274959953793	10.750337098039497	14.149510884076426	14	-0.22286083804511533	-0.039844419146334784	-0.12153332026754754
Si	11.10236504722308	4.871806337719507	9.502715442164673	14	-0.02495489112682524	-0.05756499123385937	0.05168101670870049
Si	2.8179976523760204	2.8193052843566324	3.498807487348173	14	-0.0065858862775593045	-0.013760298562900503	-0.05719835161520625
Si	8.090186500604723	7.223871312227813	4.6872780259823665	14	-1.1037415753493443	0.2197084058120818	4.123826676249346
Si	7.692674561427185	2.0162785018899236	13.239688701240704	14	0.04978148409817509	-0.10709656389491605	0.17130889082348627
Si	3.1037766121038106	14.488773464738387	5.787389302247038	14	0.00538723697730627	-0.01883694601753289	-0.038662224920130696
Si	13.337096645989204	11.350926411367515	13.332599308463895	14	0.7599922502509746	-0.797171718732976	-0.8589229836491005
Si	4.548317170110286	5.116405527865117	9.236369301132488	14	-0.4147604258250075	0.1157179942544366	0.3525011104976218
Si	5.83803672014942	5.454617420502608	6.2755975481849795	14	0.010690655921175714	-0.015954222732582856	0.4005183021251113
Si	8.024053708734193	2.8746840715405533	7.809012893058964	14	0.5150109075839652	-0.41603646539539707	0.06518600451331029
Si	16.254194472735694	11.036243711452503	10.769797738692136	14	-0.08487141528649204	0.09522011420008807	-0.07246506078518151
Si	14.393815488794614	5.35017052062443	14.114222823042686	14	-0.36507484395527395	-0.314288571897985	0.3110381805522538
Si	0.1764763100542728	7.927542612953622	3.515011322442091	14	0.10705002688862138	0.054235666954799616	0.15766429199999243
Si	12.017042979854143	2.3261709154379124	6.689689737169253	14	0.008870056243978857	-0.033334123365187825	0.1033394076905837
Si	5.54621057623094	14.926059346375022	11.075731251412714	14	-0.24233413262938486	0.06428586054072645	0.1210481526936356
Si	7.9989959449605355	10.270758568539312	1.662558323084373	14	-1.6216290355654912	-1.2043201301471531	-0.9702708701908814
Si	8.78150648899301	-0.014508332300533501	2.70144983777363	14	0.12038917840008163	-0.16883265928965166	-0.3459249944202791
Si	15.327014661881982	8.209739086566819	6.858390628525294	14	0.02169215847555733	-0.004545199984957774	0.014529573274688807
Si	16.075364752433458	14.26597032305059	7.742785179217375	14	0.0025451371564145834	-0.005649489719961374	-0.02548248193851962
Si	2.224966091847085	1.0546845667704918	12.323624580515048	14	-0.3046723808900992	-0.1785550369472596	-0.07873984331900291
Si	7.213775214995779	7.211058482720665	7.07134479742295	14	0.1085104147104655	0.03758801711737283	-0.1227342835625887
Si	15.579593843939312	10.939660605900784	12.990780380926193	14	0.37364125266094333	-0.09874689936773517	-0.01869270700907258
Si	4.695071447123386	1.6899907727201928	16.13177295202765	14	-0.6889757502031646	-1.4486460980680567	0.13055764283073526
Si	14.675687918437646	0.902807776491664	4.739709322306359	14	0.06085523471205287	-0.05055641524166772	-0.02652969313541594
Si	11.233134791627121	7.747325067971089	0.8338862425748712	14	0.11315640202397308	-0.012932659760344837	0.0036990492240970407
Si	15.410524720798996	1.904218205298595	8.385598403809214	14	0.052423037704095225	-0.14015069389073978	-0.06458436586839564
Si	6.431461061248252	2.18596461784212	11.181122461244351	14	0.335940621130548	0.2916273638272639	0.058523499297210575
Si	11.13550918097947	1.6724793056456628	4.646528678441364	14	0.365526844270556	0.2503310415066414	-0.25790628911139374
Si	1.3743097555233619	6.463978382678517	2.0066439218275165	14	-0.019778227675239096	-0.034317314039612454	-0.02787103878093719
Si	13.344137237704588	10.565834971673683	15.600198458001774	14	0.07881543381541525	-0.04245177705149695	-0.5244288663716676
Si	11.756033744815419	10.916445637634224	2.5918444197441515	14	-0.9567892794446848	1.0037304634956925	-0.6030085298292254
Si	3.1503669340363083	14.634578522040906	14.219357088918184	14	-0.14754673545467775	-0.0018175143508126772	0.07028424925263192
Si	6.719375765324852	2.748943555016888	3.6972402312596326	14	0.06699426288497044	-0.08824341991386625	-0.0951650925462369
Si	11.184145235046842	13.02449404650893	15.208450573687458	14	-4.524089153395102	1.0984307002000466	5.766729037233743
Si	7.227820393540976	13.761931383560132	0.34854856796858674	14	-0.2012468411712905	-0.06001396905130042	-0.05256753382308755
Si	9.621156786431104	11.903061331641739	2.300435605181185	14	3.4056434267198314	6.726458375612016	-1.4081715010077536
Si	2.0445308809654015	7.881682208246848	0.2928113685146364	14	0.21787315083456005	0.03835754893969314	-0.03577564497720045
Si	14.144709141609447	7.0193291938687645	10.562895663742294	14	-0.2779884214354743	-0.048743014659367284	-0.24728376748120195
Si	8.586666050710392	2.258604474487261	2.305135879334274	14	0.038502045058685465	-0.05325144783824694	0.06520991579278766
Si	15.70006291789783	2.998697990142383	4.365562917280508	14	0.008749214293931898	-0.04325216213765904	-0.008910165486973168
Si	2.8535312012659455	1.6487930006952263	8.702441396858653	14	-0.022361674300923888	-0.03341845561968868	0.21135308485319657
Si	9.549179746997664	13.428527779732452	0.5013958535721993	14	-0.6099258315825519	3.045556269975112	1.9441238043137932
Si	12.218187546283591	0.8743540973741146	14.534304915717874	14	0.15702202989101946	0.22592328159194372	-0.11759078736963248
Si	3.1854684242993474	3.454068143851311	10.1588259256332	14	-0.20441418581518092	0.3193729326685778	-0.14456965260447827
Si	6.432027319903185	12.777960412056583	11.028535392768294	14	-0.024473323100361506	-0.11456588196047823	0.11907302958669785
Si	6.548751885762029	10.702758278339427	6.167977308619184	14	-0.017613871216738446	-0.03221235011400722	0.018329924048399684
Si	11.197138088981859	12.793512886038757	7.890095895371162	14	0.012671949680881823	-0.056433962003526225	0.081432819031326
Si	0.9686001585349518	-0.5447326431173913	2.1953635295625893	14	-0.03547302588101902	-0.05701400336375164	0.052464946720813636
Si	9.096054988879974	12.86654061349667	4.32479556729672	14	-0.03145978758679988	0.23841731078467132	0.13434359541465332
Si	3.288020157927777	7.3508638168180225	14.773590112069932	14	-0.05440330302167328	-0.03052441947133001	0.08755179258274642
Si	3.0678731948439006	11.70619480025274	9.153283117913821	14	-0.034572367687371146	-0.0009230268099331603	-0.0049519488466052
Si	13.32983511520325	4.695161459337321	10.15361994649637	14	0.05903463503485601	0.03398024213214104	0.09277807836701141
Si	3.809670396220947	7.142123856118209	3.7793019118251543	14	0.002151758042431927	-0.19831963776430192	-0.0246121627876495
Si	4.760662529124602	11.067772535115198	10.713140778070345	14	-0.05475708711372566	0.030933225217233556	-0.003102295679290672
Si	8.377796799739654	-0.7212515044000696	6.782688720020672	14	-0.10924986460054009	-0.36856537653790694	0.4943690456316884
Si	10.335199130787876	-0.9447567413565569	1.217210620250625	14	0.06878503774045358	0.01957716723920352	0.13907442920372576
Si	14.577636795505942	4.1560390320266105	8.261425736393717	14	-0.07898152721909682	0.18212810201066942	-0.05465809955889995
Si	7.065657662087997	0.05775510963179101	10.334717974589754	14	-0.26806909711034305	0.33968492180827964	-0.09253022381414913
Si	5.94362759343742	6.46966551801347	4.219255428165664	14	0.05505045023075455	0.2440359472407909	-0.18315371592287646
Si	13.091810089846275	9.176957966764302	9.970873876595132	14	-0.16608877569198965	0.05284547030819556	-0.04867333770519127
Si	8.416829368873069	7.16056981363195	9.092708171107319	14	0.01936710793454742	-0.09055664337040346	0.031843396500565974
Si	15.609379703823093	3.274719625879674	14.163637891907019	14	0.02832046799089908	0.04047768238668725	0.00032421638087067273
Si	7.70775733531119	12.76185313551943	13.04585639975415	14	0.0624254087310673	0.09458427985441543	-0.04156217461072571
Si	3.688964017334782	5.880347370455759	7.17804200264949	14	-0.11800756354202847	0.16766100659526018	-0.22831415242914946
Si	10.366690312979287	2.8731211321895085	8.363555230909506	14	0.1497843684148026	-0.011894961653133073	-0.1948776990722197
Si	8.049026370051038	9.04692959568594	10.452645430943903	14	0.022337248800382483	0.12771322901505547	0.022052370330910072
Si	9.225487642760662	5.0656386392060595	4.890848012430924	14	0.026464644170816193	-0.35410856554377834	0.14740918132004982
Si	4.2555679918525495	2.4445435231046115	12.085594645400949	14	-0.31293359939426696	0.06862922875805261	0.09997640193183
Si	10.98506767636647	14.392047976230081	4.5311477494487065	14	0.40906748442513563	-0.5506214875996123	-0.24026413573613367
Si	5.176546779459027	10.17237030895178	4.306855314766719	14	0.058076641192568834	-0.027722686003964648	-0.05550142210390853
H	8.474558293133533	7.11685006303111	3.2937907591338322	1	1.314141551460362	0.127879322418737	-3.15486064200844
H	9.730397245847723	12.193666582622127	16.070108039139683	1	0.06107583554852158	-1.6517533910490063	-1.3102239582840525
H	9.097347891589214	10.795677068491159	2.726751452817764	1	-2.0564957621045887	-4.406758304773336	2.0306407270051796
H	7.224265729383418	6.654640617648868	1.1094398147997022	1	-3.742847746115232	0.9322611918010042	-7.245123338076976
H	11.897935545204597	12.861740507615401	14.207950086534119	1	3.2845487370199007	-2.1103982138098973	-5.381801660659477
H	12.857328272546901	9.860396158383342	3.1996903541009982	1	-1.438996739801541	-2.688144862537072	-4.189413258971535
H	12.947589247509002	0.0268089104811099	9.216571523824022	1	-0.279216124225845	0.8197308539224872	0.13704916954304516
H	12.551010162184967	14.210118562597087	14.861324198699037	1	-0.9624061161270802	3.1585581485693446	5.103984217727793
H	5.237853280076961	3.0258489470364442	16.934241658767966	1	-0.04631691967927555	-0.5718346491540259	0.8291207876622
H	4.0190600814467965	1.178634658529714	11.209697247704284	1	0.08572965024235747	-0.9095066526071617	-0.30580263878883623
H	8.005462095092447	3.020616782528288	9.583137263850881	1	1.0157650361677093	-0.5737838040972303	0.05581921072147883
H	5.689166337816004	4.516616504948263	10.561710775689775	1	-1.0690661063386353	0.3778514376226858	0.7468137928220238
H	16.062897242510676	7.893334698487095	11.597360214091681	1	0.5576732581611824	1.1807117268764895	-0.9399225714339815
H	11.884337154557656	11.617359291442218	13.55403917425701	1	-1.340709296954516	-1.031989739179972	0.3240459165879469
H	14.044082032773508	2.2088800909241355	9.189901723128084	1	-0.5587834614384223	0.3015407746101588	0.30276564918467735
H	7.499719469880066	-1.3988536313847384	9.755414094978681	1	0.255775099911523	-0.4237086436707188	-0.07621630344727758
H	13.34873277037237	10.053447808487228	17.08014327462725	1	0.032935087819500844	-0.5724200898354237	0.8016099607366155
H	8.836785444448747	1.1437050097660046	5.176910101486181	1	-0.36609557276737276	0.6654452514237014	0.1536443688319409
