234
config_type=amorph dft_energy=-23364.199556947213 dft_virial="-42.32926089041289 16.37991725456859 -6.212654189279036 16.37991725456859 -49.86281099639819 10.54697014837943 -6.212654189279037 10.54697014837943 -67.24046920334123" pbc="T T T" Lattice="16.488343903589495 0.0762950768154421 0.13798080890244643 0.07525626336409721 16.38606200138803 0.009530701188529401 0.1380797435168602 0.010157287079816802 16.28506624917394" Properties=species:S:1:pos:R:3:Z:I:1:dft_force:R:3
Si	8.063357401581847	3.8875730148011427	14.830364657038231	14	0.09358643387966598	0.03448597854861417	0.04824164912193841
Si	7.485843079043692	14.818363888309838	14.271497860406836	14	-0.13061652114256667	-0.0673254212502055	-0.23799616373323104
Si	12.221514937894494	2.883266308053536	13.045206612568267	14	0.07232519265576547	0.051364513643790265	0.11425092155876013
Si	10.713154508721217	3.537783089900192	3.2628569877261633	14	0.17329301279904458	-0.018582406590838225	0.135674913749426
Si	1.7692048378957397	12.885911989900608	10.44713252184443	14	0.04612948610143676	0.07769571744849077	0.20387939590859014
Si	1.2613751110199443	13.17069857531121	16.007689866382933	14	0.02436713645063939	-0.06604989590088005	-0.05162316683899716
Si	7.062360057686382	14.727141227089593	5.67597611462388	14	0.017603072574393825	0.07035366909627593	0.21678891572105363
Si	1.6516672181516647	5.306410809211852	6.38901766762702	14	0.0459878181982966	-0.1251333819368189	-0.27110068739332965
Si	15.430640536532522	15.520286839563104	11.11471856625515	14	-0.35947574789958747	0.10645378756487904	-0.09574770501178245
Si	5.305799063512726	12.385192363980684	3.2159405446608993	14	0.02730668116316469	0.6775394737391458	0.08785646856318396
Si	16.853986451540017	5.402494457820294	8.468483105234677	14	0.7611024535282146	0.3143924445529189	0.16902909173611097
Si	16.8882590508832	9.028403555509577	13.492664788818521	14	0.06374387153923924	-0.17153514809165932	-0.03256664842712363
Si	10.127860627669657	2.870795599906676	11.996651399524087	14	-0.2888667680450208	0.19854718058513504	0.36011441046111226
Si	14.61892654584378	12.477910586788816	5.379192058305363	14	0.021254556350068125	0.10291928908127149	0.028287557842801177
Si	13.441573305024994	5.999700066447275	3.0427769379626652	14	-0.06610800288111539	-0.0736557396589421	0.15027647797307894
Si	4.6589200338988155	11.732017795069575	16.022549845467886	14	-0.18339462849137433	-0.026175137711767518	-0.03218329662388955
Si	1.6007472210231222	10.027451887501092	4.369556073661333	14	-0.07712776028327006	0.07092008359830454	0.020655488810473622
Si	16.579000988597343	6.794695756210326	5.384297084409115	14	-0.08110140355555892	-0.03233113517979806	0.07235861702492738
Si	5.1596841803952245	1.5236260401773247	3.686086076906478	14	-0.057685576073374316	-0.01399864002607823	-0.009158020039835443
Si	11.335692325368852	6.109632912163409	6.10310652543258	14	0.23198029150514857	0.060065391157703374	0.3061309689382191
Si	13.508026036616503	8.855653825281642	6.007253724257769	14	-0.03559232516787389	-0.10494197763663199	0.06430334405690347
Si	10.885943812794919	6.282587107261134	13.10896007809652	14	0.049238723765091835	-0.07734013358271428	0.1402219135081079
Si	9.012122215797547	0.18302903666553003	13.806284218689786	14	0.01704257161460154	-0.005100044513045729	-0.06103624052659128
Si	7.808782149592737	4.209346305810346	5.421928513911644	14	-0.01976717192236246	-0.07302890418189	0.030514135050049414
Si	14.63536453202863	13.94676147769594	1.8105149861442218	14	0.030658374058509727	0.23164167693448506	0.06814457540520469
Si	12.695957530226112	-1.0184906326340655	13.50966670230553	14	-1.0804555886858271	0.5997619951414743	-0.737826751285978
Si	10.436094716696331	15.44805467757959	12.226608421626564	14	-0.2571023044777835	0.2349306348600185	-0.349293142389673
Si	13.256737062736171	2.690747792955482	10.937440928507542	14	-0.07374058613450699	-0.20320525209364732	0.25303584430343723
Si	16.18977242857057	7.588761460597888	8.964631951968682	14	-0.10888476764507907	0.04696458110942086	-0.04204065731080527
Si	10.300211321619457	13.194830376676977	12.64096967153492	14	0.028752156574151935	-0.038999811048666136	-0.18396232854606304
Si	12.276773217865081	7.501441769916267	4.475821743003195	14	0.1907711296548792	-0.07221052135848685	-0.07230051004469204
Si	9.667090799050024	2.8863217387286824	16.24280797753733	14	0.08995294784123271	0.02008110388195254	0.03048508155993174
Si	9.763827416113598	6.3084288285460195	0.3784331446839862	14	0.024507518801119475	-0.051454245219463436	-0.029493920459014656
Si	16.386817202278056	8.832354723587192	15.729353817832108	14	0.6011593908829749	-0.1848264770441648	-0.06680014443329925
Si	9.388528849796291	11.122522858422158	9.520753313050093	14	-0.015572670703072885	-0.015073619160432141	-0.04091682717536854
Si	2.689316538866963	5.242901382399152	13.601405472430967	14	-0.38294145482498293	0.11818162737220249	0.2502829618371547
Si	11.066769905379502	1.9320231817467706	10.034522414611196	14	0.5490484853647456	-0.7308294881571951	-1.1500497532705314
Si	12.807953162652773	15.372882508637744	2.3133072922361144	14	-0.07497574513030611	-0.09762126945857436	-0.058182056510694906
Si	1.9560527506776424	0.344442508991885	14.181485499302923	14	0.03504647950840645	-0.03660868310092842	0.028996411579566006
Si	6.312186694983503	12.147158979521562	1.0630474851455605	14	0.02094268127473416	0.3415109208066488	-0.19968643735249264
Si	10.121533759077893	-0.09342230748071112	4.657508566733178	14	-0.0672385178903845	0.019943806857856634	-0.004734690447052688
Si	12.284862771503647	10.010440080552637	11.843457744745278	14	-0.4051349788379692	-0.14216258380375565	-0.18115930952603762
Si	9.536027168605345	11.115379779261483	15.839700540018539	14	0.03138651108517566	0.25132683059713484	-0.08364037005920515
Si	1.2931858873744617	-0.702155447597141	6.148608203511726	14	0.06198215017387376	-0.10131903313001132	0.019432156899147165
Si	5.714880502831867	1.702555885985643	13.836990225183348	14	0.04582018213142294	-1.2268700093575118	0.4016570446714049
Si	13.39092867590657	1.0721758522354738	3.080175871121322	14	0.02641167940122114	0.028397344039971503	-0.003911422523541272
Si	1.4056036408226222	5.986408201000781	11.79277189287085	14	0.0840877423849109	0.18472517549455097	0.046908531013441626
Si	4.5922859221808805	15.43292097939476	9.145321185003326	14	0.24113959709764404	-0.6078704899896255	0.23207233707560987
Si	1.135996923083576	9.101418949857202	9.815113471315472	14	0.1044804642316654	-0.190802754250317	0.19684459464213297
Si	6.933715378564118	4.075054109115293	9.265093078122913	14	-0.05241635283026284	-0.2178093874226204	-0.3726727172868435
Si	10.565321461133395	0.8356825499407262	15.529672436650495	14	0.02972891948527619	-0.03330558409613419	-0.05635091530168545
Si	0.46782221771709476	5.251114604305738	0.7380917973727136	14	0.0030773559576852357	0.04652826453659173	-0.03301890585293767
Si	1.6641544154009267	3.2128026684737416	5.270467863795318	14	-0.04847356282181576	0.045786757762261016	0.022082966484219833
Si	14.74519184748939	1.8336211653405647	15.384040684233382	14	-0.04730242434848831	-0.023848287397033506	-0.04207202479571108
Si	10.848652058801877	7.050847366389096	8.192089472946844	14	0.16209713468245976	0.027216692476959507	-0.36748191275599656
Si	3.6646980621804546	8.926238725935168	4.930385073478601	14	0.014356537886642843	-0.1179718251780784	-0.26589599889375387
Si	7.551065723595989	1.0379049018025335	7.816132991443682	14	0.26966498218255897	0.2406238333704224	0.16763529554205872
Si	6.97007384936119	8.641232835462613	1.1180238014650687	14	-0.011025156723326978	-0.1553508114329232	0.06303733179726254
Si	8.87780198762841	9.660717760971536	6.322655626098723	14	-0.14505379173626218	0.1781642289385971	0.3086856191843183
Si	16.306528464860776	3.4114963524214565	2.0575134955794745	14	-0.049966603681225755	-0.06954377092042928	0.05289380708821435
Si	15.828666032690922	7.077017220811786	12.543271739801293	14	0.032795991021680834	-0.08119679156293641	0.05659182787018332
Si	1.201315204429807	4.289081009386908	10.272008360870563	14	0.22069185359703844	-0.1511501395608653	0.04119502077100857
Si	7.950083863719007	5.651222674097547	10.61065989709876	14	-0.2019292125232578	-0.29013637985211	0.05084900702710058
Si	13.63941944910923	12.746264132745289	14.840447743157236	14	-1.205322089890415	2.094785948084894	0.41457607757355286
Si	3.2746087710082827	10.109559372913344	0.8845826320249871	14	-0.24656514354422054	-0.015994074865045154	-0.26761941078984913
Si	2.6691289307958264	2.0328375538344328	15.767859169761959	14	-0.01204717108808584	0.1210517522410838	0.11778156338438746
Si	7.200800912545852	13.624374792077372	3.6722302841578256	14	-0.007799962209733228	0.5448979500464306	-0.24696212220565142
Si	14.176487652364784	1.1042916769844335	6.874761890745175	14	0.019332912233789454	0.05420429946989382	-0.08459682123830022
Si	14.09953960709421	15.27010923118469	7.512957759034033	14	0.04051573474542544	0.031414793243697295	0.09250528409254372
Si	10.921664155329022	8.634312359184367	13.220355507195737	14	0.05931102885677193	0.07519068953507049	-0.10310800821177035
Si	3.951911843464677	11.008161039800767	12.725883602176046	14	-0.09258807368385247	-0.06267146351020546	-0.027893407397222483
Si	9.795559044776585	14.447982372328894	8.289299327249363	14	-0.004348253317434432	0.13558415373162477	-0.012555735720411128
Si	2.508691613331688	0.06013080973046742	9.947187883737415	14	-0.10096190660104276	-0.19695875171834756	0.3317093531051803
Si	1.3334621689023196	1.586048835141712	6.964075113907232	14	0.03498400164912686	-0.21478653889772228	-0.22197560648338838
Si	15.428358444760043	6.7217067444265455	16.177638098112716	14	0.07013769624938347	-0.32731276300772705	0.14283158540805818
Si	14.96529003526553	9.118312035268358	2.7441114750600457	14	-0.014745289011049234	-0.2343922454059795	0.09285212620023167
Si	3.728644450206814	8.492482993781223	7.208916848748264	14	-0.5853720328856695	-0.39733681640196	-0.09459096472824782
Si	16.14446037516905	-0.06975220098220947	14.953159002628158	14	0.5099100917393234	0.2621265013838848	0.14917527356445953
Si	4.358165401721823	13.569360550822338	7.663315288199647	14	0.021195678038236732	0.04542577457531223	-0.011268897507677015
Si	12.849538678911374	13.845836628622184	5.997891211913743	14	0.002786821056508503	-0.11778542004236768	-0.032832500717226945
Si	5.865333668791413	9.216564000842704	7.658856634910065	14	-0.45616730567439623	0.041063637289149	-0.05663733643434995
Si	7.864385051803533	6.525789825323377	1.7534198201660178	14	-0.030853520952308963	0.0933576055061728	0.049589936751824056
Si	12.493956132336494	4.950425928538356	14.178418526256094	14	-0.024879814851476917	-0.014735261700300657	0.041462415724303966
Si	6.545311273657461	12.938802434766224	7.096596381004278	14	-0.03318757036193939	0.05561712184331518	0.12167190284430351
Si	12.349811696956069	0.05525333323986708	11.239395967339421	14	0.05609277632754259	-0.21805287109643842	0.4803521507578372
Si	10.569287090261149	10.677651822338825	7.5873120684967255	14	0.10117942211112728	0.06339008744718685	0.17479350986388295
Si	15.26537520988499	14.752316788637426	13.420999851957644	14	2.6017809206122333	0.7286646174776303	-2.2854879150066614
Si	16.38463899185071	15.064439008010561	0.6614718852399462	14	-0.02710793472191724	-0.006160882568138827	-0.03011124284638221
Si	5.180612149164224	0.31542003985359673	1.6603108056309503	14	0.09818151330783462	-0.0577025453684873	-0.004545457095489789
Si	11.116372423226101	11.821212296694336	10.971959215476517	14	0.13327118738561958	0.06443524175982705	0.11363668449777674
Si	6.155144483703998	8.386756518087916	15.311580972636715	14	-0.051538320363432276	0.0757825579797686	-0.15291700313687104
Si	5.56607130038183	15.798027631517206	13.18925870897524	14	0.018598861664887174	-0.021747180129408496	0.04805241577037551
Si	1.7226593996345272	1.9990184048073154	1.7035683168731441	14	-0.02005153617077084	0.010764703754395977	-0.04034321357844351
Si	3.439361286571103	15.10944931083812	1.7223625957912858	14	-0.005972420548171972	0.009362422912787214	-0.049097827193547716
Si	4.874731055050358	4.26593690525504	13.222156117178068	14	0.07296462654888629	0.8579346507640355	0.1734467648971894
Si	11.375073248636266	4.540041850129434	16.290824243732825	14	0.0171703555490129	-0.0018969615052052526	-0.009682268414613636
Si	5.178729093669881	0.7720527526804908	7.637518087491248	14	2.6237669564258836	-0.9883465119231185	-1.3721109775610807
Si	0.8109307583246337	14.886406169372927	9.691873919960683	14	0.004303001863799825	-0.09320359629749592	0.000943595652494345
Si	15.286087171412518	1.4770377302498665	10.579310815611507	14	0.006401280915572672	0.08478065526869082	0.10261332754817386
Si	15.912783539686012	13.62608306308625	3.828443093586495	14	-0.021459730554615943	-0.012503542282412123	0.06837237533656981
Si	5.6290184488026105	10.506031595625446	14.335904294390222	14	-0.00406208929530195	-0.04902172247607134	0.0213131775513675
Si	2.56147487903169	13.017470293417357	12.69788510629694	14	-0.04200003384674693	0.03676834874130962	0.029107226218864392
Si	17.136268342295715	10.325307735475759	6.641757682518754	14	0.016296693961226585	-0.014894927340681853	0.0018889910787127937
Si	12.805837610814558	12.719822208132959	9.611469758826587	14	-0.020736478628058285	-0.006401280915572672	-0.009420272782490547
Si	14.703144636363527	11.306958415522605	9.314510918022606	14	0.04270811625191571	-0.022696175103075155	-0.014677411830597323
Si	10.103321545474554	5.080919036039918	11.27229502445249	14	0.1360590368842561	-0.1025899304897605	0.01090868565232427
Si	1.3382374129580257	11.416292706821535	1.269237115045361	14	0.011466358396264389	0.1798506169180822	-0.07666393288351535
Si	1.4300751176978757	12.247473731806434	3.4013357675211595	14	-0.030407177068731254	-0.08395995845049956	-0.028984841605625335
Si	13.53288170957773	14.927666850314203	9.808328205676926	14	0.007314023304225241	0.05789563537803041	0.014590251360244303
Si	4.823901747985028	6.45583645729186	-0.30365176746907524	14	-0.07782684381981832	0.026881420343212198	0.12686193604355445
Si	12.51206116677422	4.1642205792659714	1.8963621999813163	14	0.06083646564321578	-0.023977099773572926	-0.047929259825540416
Si	15.820614403987877	12.13360658625711	7.3275592383532935	14	-0.00639793847865648	-0.03425894994884509	-0.0337259598159784
Si	13.681013209919032	7.574923805861878	1.3772357890497053	14	-0.1090382626326919	-0.3270278845382547	0.21092551003845592
Si	11.23415078386525	9.059086477259777	2.944861350077327	14	0.3599313477623177	-0.44436876047076873	0.10508184576604804
Si	10.003339873058207	-0.2601205371270032	9.980388691424446	14	-0.46850681143738293	-0.2341145660314035	0.23875026892363044
Si	3.5183193534245167	13.80079004976934	15.981285866706129	14	-0.04187584945978377	0.04603409809405926	-0.0349310368795318
Si	3.946856284668132	6.825386922511727	1.8739419674449092	14	0.07703880003919295	-0.12444715392687136	-0.1249878573756985
Si	16.945726870575694	12.986406473401663	13.913578808021551	14	0.636704150602426	-0.1346475000634948	-0.02126869742932894
Si	13.868954350190208	10.534476946179655	4.37476498111022	14	0.08191772949470592	-0.20863105565075582	0.35830743764211215
Si	13.903743058438579	11.82146293105085	0.8539046570055079	14	-0.12582963725751498	1.1408724499407947	-1.2720116767949474
Si	8.69662962389338	9.161398059845569	12.691281220784818	14	-0.04585566338484099	-0.006570716756170431	0.07958239453241542
Si	16.65202627640641	-0.588007987306979	4.2591978091032185	14	0.009638816734703133	0.029796282444664077	-0.0703690957281968
Si	14.889760052801556	5.24725450543336	4.714369587457269	14	0.21454742610294858	-0.013987841383733608	0.053449422947898347
Si	2.3209087684435747	10.06236261510724	8.106992513269054	14	-0.12625592651959555	-0.012710002039620014	-0.05280150440722103
Si	12.159712133180433	9.003162037552137	7.984725818955999	14	-0.016135228547121284	0.028395544266247397	0.03101164392949807
Si	7.246732956197699	15.3732700025442	1.9923650519879874	14	-0.10678160349319792	-0.00544123018902938	0.1012663254709483
Si	11.260030430085658	9.565018308449067	15.390085589174065	14	0.02960370665618498	-0.2387854930665165	-0.10942932775188643
Si	5.9948126964952335	4.2213751060128235	16.010206103409523	14	0.020061049260455387	-0.05297659667952311	0.2972164325722017
Si	5.137554156061097	-0.1290931827076067	5.471039656506655	14	-0.28130643285112544	0.005443029962753484	-0.15808029684079242
Si	9.24543477023889	9.44603954115503	4.0725576590115855	14	0.5786182534307047	-1.3538463595878127	1.3671227761294615
Si	6.010262985446189	9.29146409959491	9.961385000905796	14	-0.054848618463122924	-0.3000233082502074	0.7897024006674138
Si	14.221966245700568	2.5417951353145454	1.3902473397553603	14	0.007921061270312203	0.04227077123695852	-0.08273302699172488
Si	4.941335486383968	8.955574488019098	2.2724407008422545	14	-0.2810958593254053	-1.4637947935038371	-0.8285728851184764
Si	8.044132757091004	12.955070583196333	8.947809769697857	14	0.010724851621933682	0.004969432362782207	0.0802814780689637
Si	3.3652262821703625	13.59882163008453	3.573608962689669	14	-0.005449714836585868	0.02179654535155534	-0.015523048370394027
Si	2.676229138290257	7.784627263483608	11.027717115249896	14	-0.027067311257858905	-0.02148749849207354	0.025230513617145116
Si	2.7705039323651675	8.948540236934278	13.006801844163068	14	0.06920489923923376	0.031179022885839708	-0.03776850871084722
Si	1.4880458550136417	4.006945871642594	15.170125909858102	14	-0.04866202484178262	-0.06319314077966351	0.018257161767839498
Si	7.42990544805413	7.445025954957039	13.648399414277522	14	0.05579247122614929	-0.035753790581979195	0.0676483520784161
Si	6.4276763682092115	4.655308920472711	2.009475793550854	14	0.07401415174057074	0.10040037719912241	-0.19561509207803815
Si	13.334395788320284	4.727194811305778	6.371379274787279	14	-0.7010434901338115	-0.11690353091755688	-0.7636313927211121
Si	9.03158595227322	6.013908725987337	14.510782767738293	14	-0.03140373749082065	0.05787943741451348	-0.05111254532241575
Si	15.802037781221445	10.461766600226472	1.045287072948043	14	0.350925537157435	-0.2613202027554863	0.03794797186219356
Si	4.902391524330215	7.189979114639223	10.47767693513445	14	0.01666281935881567	0.12015263671062802	-0.014694638236242315
Si	16.831076492662262	2.7127887761366365	11.885899045418558	14	-0.0554384300235649	-0.02800473625758489	0.055035280709365676
Si	6.19022175124441	6.108831541786658	12.172792938116176	14	-0.14523094089282038	0.33579046857985134	-0.10004813577026213
Si	7.944502302555828	10.966282017519406	14.037126705591264	14	-0.05012446954788285	0.0012963513024186616	-0.18757935951044732
Si	11.463078885977822	5.137700909072478	9.359301915788214	14	-0.17172258166949814	-0.052482173126458635	-0.2583487763369912
Si	3.2136188790426554	2.9398552585879894	3.455479384169352	14	0.00368079437632399	-0.17949503305230574	0.001742695185996368
Si	8.522948259379712	7.168281104788036	3.8464854694350916	14	0.18358591872719338	-0.017740626709021743	0.05602387070496261
Si	7.977938904407212	2.2844975325188157	13.044632791804666	14	0.52533775210234	-0.15137613971850628	0.03818965576228747
Si	3.4709527578636696	14.678686350770194	5.7043142860124725	14	-0.023089297106525793	-0.020842922388312417	0.027667150129049453
Si	13.805289925814927	10.91512292840603	13.37810674987854	14	0.14366230953699802	-0.36092739396334306	-2.4194273326649873
Si	4.872439069816438	5.322667415270279	8.925077893126046	14	0.012365216816188157	0.05582306737945905	-0.03527530788189963
Si	6.926700914402179	6.426536971233213	5.37515552603728	14	0.07689327547807255	-0.15677546089081723	-0.05007793254158817
Si	8.321934558723994	3.240041016732101	7.543629138412552	14	-0.021729953723763504	0.013142719065000938	0.11512201204122628
Si	16.620944318378072	11.243058196982972	10.695291864088807	14	-0.20596867609174246	0.02325127674169512	-0.17075301785327024
Si	14.800143430155297	5.617705275644393	14.170457587616264	14	-0.03196115312422876	-0.04118087969174775	-0.0711450553138175
Si	0.4830400103241774	8.149634980991642	3.4273225929071844	14	0.15353278286104652	-0.13305238632287494	-0.05504916467809448
Si	12.364053334700936	2.570034372088724	6.504868452195339	14	-0.10373201547297028	-0.006187364952936352	0.13798839431649526
Si	6.121340174869043	15.258197503609269	10.922607331986432	14	-0.0895533980744817	0.03064423297924891	0.07256070590309104
Si	8.079383160206643	10.661754678712768	1.42802552226927	14	-0.7080795769529288	0.011117459404320294	-1.3713021078273622
Si	9.158543796219732	0.10806133259347307	2.528011894616463	14	-0.03376915438535689	-0.09931177120657171	0.04629532239458631
Si	15.698700576466232	8.428940588763721	6.825997019300613	14	0.03894298962109087	-0.05441024500603767	0.00022702859976907538
Si	16.391457235694062	14.472420870999343	7.692031060033252	14	-0.03461967602526187	-0.015304247307649425	-0.057974825421890974
Si	2.342046148813083	1.3014947460749806	12.020305016920187	14	-0.16725708594946492	0.07912088112744885	0.14157868578555002
Si	7.623355597437913	7.783656055352112	7.163962608868873	14	0.250583266938548	-0.21507861646209114	-0.9324586526895916
Si	16.043769671349406	11.076178587210254	12.91719676388849	14	0.22896207096982674	0.18181648404586748	0.33017980255022417
Si	5.023513874936551	1.9977190635380142	16.065047209089332	14	-0.5239110457601899	0.2721710385381073	-0.11273602630412885
Si	15.083516899490022	1.126518987022734	4.678888336908001	14	0.036455445223847596	0.024213641463026552	-0.0012418438696315222
Si	11.311756744321674	8.00603303708025	0.8579279979916691	14	0.10120898982230897	0.036272639635585066	0.12463870127322238
Si	15.729863331096338	2.123690859160866	8.289932508781611	14	0.2683953703754698	-0.9203729150217035	-0.24148258254735186
Si	6.678518487414441	2.365797051913356	10.949075639162604	14	-0.3851346076630693	0.3993232523723064	-0.07530664638500917
Si	11.571925099845645	1.7599940252938149	4.4805013502649675	14	0.011343202451429295	-0.05964244433253901	-0.08155031854445677
Si	1.668941201828314	6.9948619170025665	1.7747946436101194	14	-0.2942583759013714	-0.041537749110184305	0.12429828692883478
Si	13.557422440683073	10.012408879379473	15.517707943947386	14	-0.8355868604318404	-5.312047059102796	2.8391890725587468
Si	12.4049611488508	11.096450289703641	2.6257691871187383	14	-0.5123544415671883	-0.08961921837067749	0.3297686828095325
Si	3.508811736979351	14.877437746576318	13.911161505609375	14	0.05155914631652547	-0.006251899696472069	-0.055762903514967585
Si	7.113403723082942	2.970099570214288	3.5000428323218076	14	0.02449440616398672	-0.08287520911592908	0.07825981795573125
Si	11.490487071990923	13.617610962271948	14.630661840023496	14	0.20181376989438318	0.10757118993701541	-0.05233613434427423
Si	7.6389823197845725	13.96532490918045	0.20168150930301176	14	-0.028356977686445173	0.059114339299780605	-0.04016220776390508
Si	10.711668840594768	12.718275530327626	2.728702408865096	14	0.18976839858002142	0.29677651645192443	-0.1957601024180945
Si	1.9632502438762462	8.384512351250963	-0.027418079474544443	14	0.18769043126027776	0.030685627774903294	-0.10063897577283216
Si	14.53583630992835	7.191949562376298	10.549691440966257	14	0.04783772847614314	0.07318754138014312	0.02754219441049025
Si	8.992727733551963	2.3881381367582324	2.1956212705704186	14	-0.015879917788830578	-0.05947146582874917	-0.051146741023173715
Si	16.072658578758233	3.260401760378461	4.350545787501721	14	-0.04025862421341063	0.02192690039128685	-0.02018369098422645
Si	3.1485545298734197	1.7891714919946846	8.399571848474984	14	-13.110291770482162	13.008131728801931	0.25925483385181136
Si	10.012596855146858	13.401415745034432	0.3888443639407984	14	-0.07114942619286174	0.0009780484637843293	0.17956625266967385
Si	12.658286526877816	1.1326595287573504	14.485193329720165	14	-0.10762981113831478	0.12282015848028166	-0.06825718981822718
Si	3.388213739829409	3.6819027916270146	9.73350395679577	14	0.4325995258677909	0.09373992886727882	0.010750048454071133
Si	6.7411424494281365	13.015321763374338	10.898892704911447	14	0.05484681868939882	0.001299693739334854	-0.0687611264609762
Si	6.787989638263311	10.770520095978819	6.168452838252894	14	0.6463504235425576	0.002539994945774287	-0.16387196868495796
Si	11.503007247444991	12.864303021202392	7.6240910114050555	14	0.0005671858336246663	0.0706172073915911	0.033695620773200645
Si	1.2464871004609077	-0.2513351433670578	2.0636936111598567	14	0.03623741549269904	-0.08355012426246795	0.0513269755061161
Si	8.729711710043114	11.738476576480556	3.407692316497246	14	-0.5994760882298739	1.6156049358003843	0.994171865246978
Si	3.241274401591793	7.254893412976598	14.60287605356538	14	0.05425854979214895	0.009088085975127416	-0.05145861609850768
Si	3.372713983571247	11.956587827417218	9.018640357977175	14	0.08132534682894382	-0.04990155471662601	-0.06108560574873814
Si	13.656632423106991	4.947007737610359	10.127489622865605	14	-0.42729919225030566	0.20889073728809074	0.48419466765879854
Si	4.62598140293998	6.621518958230171	4.915615784456861	14	-0.013438653287349979	-0.03291374764534361	0.03483539176162229
Si	5.009851004686005	11.314195482566975	10.635936042171247	14	0.033269845732184125	0.06832995209878735	0.04212833200222232
Si	8.81039453700781	-0.5431230016576781	6.568903881374672	14	0.013614516891248108	-0.09966889773554029	0.036181879617783845
Si	10.733356956984515	-0.7544720716991584	0.9960753468283787	14	0.020197060731891224	0.07440701663348936	0.02355415294840857
Si	14.811562133568888	4.3457622988948135	8.190003601492952	14	-1.1713356771055055	-2.2319719004309713	-3.0124939124422645
Si	7.685404089777768	0.3922740972404768	10.08601953032382	14	0.2674679726864924	-0.310329841036553	-0.0873692441050159
Si	4.447691334304872	5.01533857796549	3.205427092969193	14	-0.09569525446325142	0.05693069955137884	0.14759327246097242
Si	13.492269050360864	9.264667659280933	9.931521587544989	14	0.06189318992979665	-0.001279639117837699	0.014094542254519756
Si	8.705362252525639	7.341109982707503	9.145472884745427	14	-0.2250012832241386	0.38800113298450234	-0.14174169386284738
Si	15.983627319247255	3.517295380165334	14.104425328136012	14	0.0020175463447201975	0.022411810854666776	0.012151815074615865
Si	8.015220764938814	12.965183349699664	12.880040220535149	14	0.05840368578929167	0.015282392912428167	0.20252442340487212
Si	3.733112996957838	6.171374707198582	7.020006149255834	14	-0.05290152040417479	-0.1925007122037428	0.09119144927394804
Si	10.689243661327643	3.229438523887422	8.1074739950592	14	-0.2487593248244349	0.3476134392840203	-0.17461636070732475
Si	8.298224878379727	9.277359321399985	10.4030373642002	14	-0.23399783784986875	0.35331640799464076	-0.08236098805189945
Si	9.773748909029063	5.2353988408061065	4.6215689191371245	14	-0.34797519380256514	-0.28202402834597873	-0.5777741595541
Si	4.351070140958114	2.649196903811926	11.596779123896631	14	-0.019109997402532615	-0.6759276478139451	-0.3631056343905725
Si	11.575931951729403	14.478620773502609	4.1013822589210465	14	0.008232936345646166	0.08101167197988575	0.1376574930617922
Si	5.427292418923113	10.287737315652116	4.24056512338862	14	0.699593386733248	-0.06863514230028894	1.3231167659119352
H	6.725794392912076	0.8700656262700022	14.746776450230252	1	0.25839531334328586	0.21332332286002606	0.06598407560468425
H	4.193365067762037	4.847469622048635	11.90490933157817	1	-0.2376161543669131	0.21923943620168676	-0.3087861494023361
H	14.485251041578572	8.66544213560967	15.787601572068233	1	-0.8405645203316472	0.6430036157473209	-0.4626781156766072
H	14.711972901789718	13.817175270826505	14.512019450418467	1	-0.18769454502879	-1.3164020672578363	1.3133612209956973
H	13.696971363223978	11.216434892244218	14.878451826374057	1	0.7747642787573534	2.172289346855438	-0.4915400584479295
H	3.9153983751050236	0.9983145669346111	8.395330851337114	1	9.997716297900476	-11.18270223026118	0.700112750007918
H	14.158221024723517	11.243036761149849	2.307506426010985	1	0.128452164684066	-0.3066179362858552	0.8256793631911818
H	5.107049316616843	10.466517110628574	2.6846418783359103	1	-0.11518886077955012	0.8763293666665027	-0.5225128786870933
H	14.095684454952554	-1.0667377462631953	14.284474783997446	1	-0.7642420302346473	1.092102695786098	1.0159696961511933
H	9.063863370225723	10.318276782211417	2.7954453486588857	1	0.31150920704690493	-0.9750896357819028	-1.2866795755358604
H	11.740489895883876	1.2584021258568097	8.62658721470889	1	0.0772917968026955	0.18250734004539126	0.5452404212750743
H	9.432221673341903	7.043819710945236	10.47659360110662	1	0.6324623410452457	-0.17772714103417192	0.821445266949962
H	8.544197765645558	4.547206365123233	3.4553144931453286	1	-0.03133766008409284	0.37049113442269793	0.18124415600160249
H	4.642406197842912	10.21333518779246	8.003117763775524	1	0.09313134823799978	0.4864940071466069	-0.03810120973927438
H	7.365180774394381	9.724832337842399	7.97469055123396	1	0.52571930413185	0.9493343595689157	0.25255401916644143
H	5.919617442810025	3.853260841612197	11.5995690800231	1	0.399507086402697	-0.34854700762576607	0.2602228550048471
H	14.274264731789943	5.645891747290884	8.131534893284636	1	-0.8652286194467637	2.98317739825034	0.31895409961192567
H	15.687728727727741	4.119518622653336	9.268700893728536	1	1.848123102538508	0.33106529122248324	2.8358142397155204
