228
config_type=amorph dft_energy=-23284.66280049332 dft_virial="-25.71087731971993 14.087426682862546 1.0955529857444422 14.087426682862546 -39.69241412291945 6.94800518096661 1.095552985744442 6.94800518096661 -34.483446581034165" pbc="T T T" Lattice="16.48100429051465 0.028925001354892503 0.12132019086801352 0.028578890227569004 16.43373539941161 0.05880592868048801 0.1214520427260415 0.05920148425457201 16.378505952380134" Properties=species:S:1:pos:R:3:Z:I:1:dft_force:R:3
Si	8.319341315616942	4.239256439314172	14.698644058877948	14	-0.020624378436099832	0.07932554111093265	0.020575270324485
Si	7.371928030497875	15.331824699648234	14.168218867365333	14	-0.04974831683954518	0.05875438455495987	-0.023561609153837
Si	12.260933944691777	3.463687328911222	12.936979624506968	14	-0.19960004821373567	-0.06877552465076901	0.4740200325753765
Si	10.822548840278523	3.967943222901731	3.067731254808462	14	-0.013962644551596159	0.018825890264656246	0.05098193317215222
Si	1.7123534876167348	13.455724389546528	10.376721449024897	14	-0.006256270575516321	-0.01256113504158344	0.08726408589742185
Si	1.1739858698061572	13.746871421702831	15.93094470919344	14	0.06189704658777687	0.03645673077650767	-0.09329461342582916
Si	6.86060322876884	15.38578342439797	5.627753745094308	14	0.022384557138273205	-0.04869339232668843	0.05222377704178375
Si	1.6068571678603065	5.8398407550287965	6.279649108963444	14	-0.04372575973763032	-0.02913293727206587	0.0032725028514844746
Si	15.520941467766022	16.167074905439335	11.00131194124466	14	-0.22637811012307793	0.3272633977855802	-0.22744691860466346
Si	5.481663534547509	12.99373525679512	3.0527034392897208	14	0.020652146373557428	0.07965849924989182	0.04814369000924077
Si	16.874646364509015	5.912771314000534	8.400672486093288	14	-0.0076775775964941775	0.09277884969860746	-0.03619422092332056
Si	16.6505295206777	9.600067857089666	13.395385683016464	14	0.04508176068347642	0.015808955281994493	-0.012481687887190864
Si	10.154991123823885	3.3293681929898735	11.828395572579149	14	0.2486672792539736	0.06569868291414782	-0.07510892838588978
Si	14.465213529425178	12.967537940753182	5.205865706813891	14	0.012874809890641506	0.00010207288120987873	-0.031541291625448574
Si	13.497399465572729	6.393738873566847	2.8791501348639152	14	-0.050341470836903345	-0.0009957890904933508	0.09096107823726278
Si	4.556554639362104	12.122113715966998	16.120175199538775	14	0.19089325715758623	0.2643744187652902	0.14145938649869513
Si	1.6549418923348926	10.50039849185516	4.114003766780473	14	-0.3722240594084777	-0.0021319605314667873	0.46219423365535534
Si	16.547215349171637	7.233737394395178	5.207319373548649	14	0.01628949486633017	0.016516780576631262	0.043920649520897546
Si	4.8547227829583965	1.8736544581352885	3.5899420755659337	14	0.06064671807058885	0.07639113860904763	0.03526373790795896
Si	11.33075040112052	6.476156173723699	5.932076074164058	14	-0.013784466952909896	-0.04628349531011363	0.08181154284498382
Si	13.428546425310506	9.299506602270165	5.777534159517665	14	-0.02365802560334255	0.03927440509685795	0.024147821166830757
Si	10.883700083883683	6.8339230052968745	12.965955718456845	14	0.027597730285405454	0.06451828846166784	0.05908811402551509
Si	9.00505008847736	0.5963049723763061	13.768994515331702	14	0.07843953821760961	-0.06386677037354231	-0.03498991519136319
Si	7.685442082220402	4.632226068832598	5.406156919899549	14	0.0003625258501408792	0.08477756994230663	-0.18972006180000264
Si	14.483079456187971	14.35743452437664	1.6527844663079096	14	-0.0034026007806839675	-0.0013817119990475774	0.01871636117801794
Si	12.49385354819469	0.16977080424862745	12.34917085623234	14	0.01876649773176083	-0.4891083070361334	-0.16761986891013783
Si	10.306833371677154	15.9707969332824	12.190454182131134	14	-0.0731924264802514	0.018448452003658508	-0.03073010789694185
Si	13.728586865290797	3.3997292888782904	11.110608890808745	14	-2.1777704291769293	0.9099193150110454	0.8119830851507529
Si	16.116559162332358	8.106501101943469	8.776028355527398	14	-0.002211150575327348	-0.035787214951141115	0.00434979598062652
Si	10.11729467761368	13.702252752946155	12.610108979566203	14	0.0037854383628540176	0.003818348510951912	-0.026075121714813757
Si	12.253860092508575	7.861076997854825	4.267626014717122	14	0.009433128309091288	-0.0032840728254251413	-0.009279376210946431
Si	10.080448675887755	3.327167915109031	15.948194228519952	14	0.042778564537687774	0.04297448276308305	-0.006285066955101979
Si	9.848140535376448	6.769648520804675	0.13443121000067276	14	0.07975928657844163	0.029041405922668594	0.018412970750240468
Si	16.526994218594815	9.244736988593559	15.675186715731853	14	-0.024529116085808718	0.1658242089545464	0.07010195788543341
Si	9.271703989856736	11.661205768451419	9.271804526898482	14	-0.022284798251851458	0.038244163195074614	-0.02903369260670815
Si	2.5706365648570992	6.179034604250503	13.598602359202118	14	-0.08758598828350439	0.054777398845754825	0.21053521625085744
Si	10.548727142267099	2.1327186369369286	9.815503904218065	14	-0.17123150055334982	-0.08831772485761853	-0.004820051143681604
Si	12.59710179377174	15.667455252406736	2.359751054978891	14	0.035449885933137686	-0.05475631578212961	0.032390013491629455
Si	2.0527224665231154	0.9063051720823876	14.166791571002179	14	0.0464426467294308	-0.0324620044405936	0.10758301702148809
Si	6.314064092056977	12.801793562619084	0.8649465405154547	14	0.0526935179837748	0.015633091678096366	0.01815148933918141
Si	9.992501838434855	0.5357421176875949	4.560515139547619	14	-0.03298882392069194	-0.019710093384255174	-0.030273993813147587
Si	12.219214368663492	10.669552888667509	11.592215931886495	14	0.033655254419674326	0.07678066106505006	0.027596187622213362
Si	9.211335616658616	11.174946004933508	15.3987691842655	14	0.576957319393889	-0.03648115627704908	0.49741786232032004
Si	1.3020156720995706	-0.19766241666622553	5.972666668657978	14	0.05438839061081642	-0.09407571522209016	0.026740266661136065
Si	5.723044731039369	1.9896824450517032	13.660109602823955	14	-0.06405368973031708	-0.12279161921122798	0.041872507022867586
Si	13.35569662560181	1.360229915567158	2.951841712342977	14	-0.3881579704090314	0.09466038457189183	-0.5547702231442031
Si	1.3133318578148236	6.723482240864397	11.698806622064554	14	0.07610985968702343	0.05186227963377093	-0.04191184493426585
Si	4.378852945853092	15.994962082562484	8.987971976566282	14	0.06370890450688522	0.003991641009529893	-0.03258284639064056
Si	1.062900679417567	9.693661250362618	9.626347580542873	14	-0.02988344291501709	0.05474500291872096	-0.030656317174253607
Si	6.910776157044944	4.616801049591547	9.2019593014046	14	0.027691575629590858	0.0716852445415806	-0.07762372649952663
Si	10.73320602127875	1.1805273701125714	15.356476052654797	14	-0.06620853309913319	-0.0216083404421205	-0.06980216700510415
Si	0.502049023516765	5.693162155565548	0.565672489459951	14	-0.017749368467110248	0.041976122567269555	-0.05207028205417091
Si	1.550968461538688	3.693340302631491	5.213752096072191	14	0.034552570176406	0.12246226061971702	-0.025553701555887726
Si	14.771858099344445	2.3111817749260517	15.201723175035557	14	0.0672246339216557	-0.023246905862650873	0.021009530013058015
Si	10.767588041407777	7.51960046334101	7.954459428154931	14	0.0692388378294597	0.08082655239683507	-0.04081166896777449
Si	3.813215067505873	9.523259205343681	4.545965287014229	14	0.01679060329322703	-0.22603332489964606	0.39571856271345884
Si	7.366235326527516	1.5578972766780594	7.758153437478168	14	0.013695763819364788	-0.04192444335033458	-0.06722951902176398
Si	6.119175508854015	8.022490042452704	1.0764781244980004	14	0.08945621029338009	0.19862534218686756	0.29411696510876323
Si	9.105545926518076	11.336225549525132	5.388932122796417	14	-0.03940398880499341	0.3900991549257432	0.3586954174349225
Si	16.253053853911165	3.7761152509532443	1.8258812336752934	14	0.005010055826840546	-0.020543388618515165	0.03577101698762418
Si	15.689327827505354	7.6653000627584	12.354326263881235	14	0.0021509867108358825	-0.01009801614488158	0.0631982829903038
Si	1.3600354340765666	4.935856175647701	10.24139529453786	14	0.0630157345125733	0.11949751907505428	-0.001836283419649758
Si	7.960437261768275	6.217741365322847	10.48391371330521	14	0.048110522750610854	-0.0025451371564145834	-0.01977359968566283
Si	13.704540382682941	14.561254422812773	12.473404973162772	14	-0.007232262155044532	-0.935191994755441	0.208043815195634
Si	3.1770067784456177	10.665907184793033	1.181542629419387	14	0.14523788287718475	-0.010912285199772477	-0.3268121688018943
Si	2.7649532406258643	2.6270164193498724	15.712464532292818	14	0.03183774006886165	-0.015553387413171778	-0.024740718053656907
Si	7.285586489416465	14.408471082322828	3.608684817184614	14	-0.032172240871012905	-0.011352201320049812	-0.04318145674135497
Si	14.2031431282605	1.5653765733246978	6.749353223557716	14	-0.07834157910491196	0.004044862889656958	0.4522219445606291
Si	14.194536498227722	15.751692108204374	7.33718012146282	14	-0.008695992413804834	0.12687864822813538	-0.3460008420272234
Si	10.928824734145541	9.214000672339008	12.980767626558066	14	-0.023563666038093116	-0.002748511587238296	-0.0415290073520958
Si	3.8853017745862313	11.603606284271887	12.596114552984757	14	-0.06493172219714764	0.11443218448383055	0.026011872523938113
Si	9.601412746041552	15.025732259384458	8.201452569354107	14	0.01985304684005541	-0.004629789349990646	-0.021478499623453023
Si	2.4916770796770313	0.6891484582067223	9.87589535149134	14	-0.0896349021131304	0.00963598851885097	0.11450983186449903
Si	1.3370355255918074	2.098283876064691	6.93427380629376	14	-0.33135299790780776	-0.2780935796430684	-0.2502279401833035
Si	15.479439447303484	7.173812373069678	16.051732548184663	14	0.044590422456796126	-0.0427425690632057	0.013363062790937625
Si	15.002987813874629	9.541344335820446	2.567625398049385	14	-0.001270126028153151	0.015899972410327735	0.045733535882133955
Si	3.7811223252618578	9.206402709020143	6.874038933101893	14	0.027789020521224464	-0.0009088857306723459	0.098639684275885
Si	16.23719537168685	0.46855535528120223	14.879742585879406	14	-0.07292220331110384	-0.09583692236639159	-0.0744805502456456
Si	4.200641974542447	14.098217067790042	7.55630966876423	14	-0.020069019686947846	-0.06369579186975247	-0.05964244433253901
Si	12.780667598666549	14.403328859859734	5.963550760823567	14	-0.020918255774192755	0.023977099773572926	-0.0973235354625012
Si	5.958204167980532	9.769274994645224	7.451180886062055	14	-0.08921015551424193	-0.0705912392278576	0.04289246450337033
Si	8.021159986834846	6.632565440309413	1.6563444664746656	14	-0.2249634879759324	-0.36239189555369944	-0.45931870946530184
Si	12.54649540251237	5.543485574480387	14.034740287038913	14	0.04326476055372777	0.03517606321654191	-0.013765440773540798
Si	6.387240225114292	13.49104420601578	6.961446826085105	14	0.07886814147447829	0.10186693567373488	0.05565671686524547
Si	12.656253833579552	1.3752906940504062	10.316300335083564	14	-0.3298561003904176	1.3372604162780695	1.091981596725519
Si	10.531533659980246	11.348229013050357	7.3303567878098725	14	0.0211429703791737	-0.005598324724090427	0.036058723672948746
Si	15.734716181483268	15.319087810162731	13.256633028368924	14	0.06377009681350475	0.2814128766113796	0.11109797510466252
Si	16.25788292821144	15.503359022497987	0.4956476158095055	14	0.027162185044172366	-0.008424483691997196	0.09937347773425527
Si	5.091357312561249	0.7221460338264547	1.551260183774575	14	-0.004279604805386477	-0.13991260953809406	-0.11083109437243115
Si	10.938753179055048	12.441999508728728	10.809586154486144	14	0.051444217908714854	0.017703345681879597	0.08283201454655058
Si	5.710902823063215	8.605913088299674	15.125115597373062	14	-0.420723590394027	1.5385699924191716	-0.48221414523068834
Si	5.450999736814872	16.21386253726057	13.110623577085166	14	0.11124632788163505	0.053308526376354234	-0.08725431569720528
Si	1.6566460775999046	2.4024710569799628	1.489294754946091	14	-0.0064066802367449835	-0.009611820128841578	0.0025978448154776192
Si	3.3595029351421726	15.529122875556657	1.615816501613309	14	0.012705631160575763	-0.02040403471016314	0.01641830724286959
Si	4.684914071300586	5.346723046745203	13.079443908957995	14	-0.3231025780459846	0.1706458027614201	-0.38485332874104505
Si	11.54951735581235	5.126017869740359	16.153278256644928	14	-0.02109489070968693	-0.08023956905224527	-0.005534047091086725
Si	5.018092179499765	1.3384842478818901	7.504333666329592	14	-0.010538703596754961	0.026491640776677743	-0.08996220382038524
Si	0.820146575453991	15.45912766857427	9.55859715144341	14	0.007100107341588921	0.04774953956366207	-0.21570776593393137
Si	15.603053860501184	2.1036832096509377	10.570377217355295	14	9.758011891792538	-12.335577885389085	3.3123470135202777
Si	15.835231797302688	14.0798929558206	3.6738163387539955	14	-0.011287409465982081	-0.07807932636225687	-0.07783430002524674
Si	5.419833253873504	10.966695884067633	14.287874428525742	14	-0.5329603080449831	-0.3138607399727123	0.44157062655085166
Si	2.593420565924338	13.608319841138783	12.598477997539907	14	0.03597439141844789	-0.027654551712980723	-0.02102109998699868
Si	17.076803281385775	10.803141894925027	6.372945835555831	14	0.0250687910925078	-0.03276976574741533	-0.028471391873191764
Si	12.737390522565308	13.461656075009563	9.611215931685935	14	-0.4113881640871013	-0.28083412080381426	-0.45610251382032857
Si	14.618662721798163	11.9405833741305	9.171887188884863	14	0.07214212995697092	0.007603272652741899	-0.020788157844993264
Si	10.074937268222184	5.565763594042443	11.172150745543314	14	-0.09519234626263047	-0.05418038819041644	0.019898041183158
Si	1.189346611266419	11.916271539658359	1.0059703434175273	14	-0.1939729271100596	0.16668938589477622	0.34004050567405614
Si	1.3628175082809575	12.709934021279203	3.160492333227611	14	0.06679654488585104	0.08012284087071056	0.06445298238653607
Si	13.580510636132452	15.71706781028622	9.625882802743323	14	0.854262855256332	-2.0419782730249048	0.2231189770192582
Si	4.880948117520166	5.793430549151165	-0.881396707952673	14	-0.30989275313212783	0.09425337859971239	1.3499346799537395
Si	12.610463331434651	4.590758659482792	1.7038622279597315	14	0.064364793474055	-0.023690421530376413	-0.0740604316363334
Si	15.751224034108374	12.615287461290253	7.1164980185331315	14	-0.014055975674717532	0.006828855730313298	0.010240198269085768
Si	13.788970071822947	7.935865019876532	1.2176090570347209	14	-0.0025451371564145834	0.08871727462436954	-0.0392283823116273
Si	11.183658116452708	9.337123937365554	2.6847131442746996	14	0.2304671960242414	0.04483596301487026	-0.06418970120175292
Si	9.52357070535827	0.07669492951843691	9.99747265348251	14	0.09552530440158964	-0.17929063017935398	0.021595484915519762
Si	3.460747032477198	14.254779612160714	15.987520693325028	14	-0.013058643921032094	-0.026034241140223405	0.14692504218826594
Si	4.179669288374868	6.569975363303522	1.3477171742403007	14	-0.021572087857106414	0.10369164911944398	0.19158899825721828
Si	17.044895131742997	13.428930443847012	13.811168980270184	14	0.052198580209646295	-0.024418815667574364	-0.09268526146495408
Si	13.732642958073384	11.00101033011942	4.152682509332987	14	-0.032467660872297924	-0.04974060352358474	0.04724046071027274
Si	13.751792792303725	12.231104109961167	0.7072302923870372	14	-0.03801224949519726	-0.007177497611725377	-0.0002889922379846441
Si	8.636866960119972	9.606401690719686	12.448374546064382	14	0.4315574568815349	-0.5151996267144642	-0.05926732006632941
Si	16.618674111778134	-0.15845956297805042	4.067153505326674	14	0.35578338354932276	-0.5377322795191779	-0.1871283876372934
Si	14.887609197359001	5.660647487375843	4.5679334547099195	14	0.0636757372482553	0.0015665744715662247	-0.04440530287374546
Si	2.255983642710855	10.604284570795423	7.879994443185392	14	-0.026905845843753603	-0.0027953057040649913	0.005485453200535927
Si	12.034638248906546	9.539193502386365	7.725088287781197	14	0.02608592035715838	-0.0004998228742367865	-0.006207419574433507
Si	7.18340624388944	16.036966788233755	1.8747224581853155	14	0.004553684632514262	-0.05699472007385053	0.011872078815783754
Si	11.284181973013254	10.029019858663935	15.196694674800016	14	0.08563606200870409	-0.014945321004956753	0.041405851407260705
Si	6.480032618349722	4.19724184475355	16.176144665123434	14	-0.017301996141404485	-0.44545556668959535	0.21156108727359654
Si	4.94418591677862	0.35344373877808216	5.395160474940014	14	-0.004352624196478683	-0.04596750646626743	-0.017326164531413873
Si	9.116687408521441	9.564522244313544	3.7387500825363347	14	0.7154241964104638	2.636389797995151	1.3700810899108238
Si	5.9723139649377535	9.933791502351436	9.753502216128624	14	0.08296519780213425	0.03293303093524473	0.03947238020650935
Si	14.177611664101603	2.845074670304804	1.1788808700354467	14	0.030317959714122114	0.06708296601851554	-0.08572039426320494
Si	7.10655309214137	9.7666857537832	2.4581257262535816	14	-0.4543636752923124	0.3051521491428388	-0.12851001455376934
Si	7.886718887944821	13.484240650141532	8.787949411641357	14	-0.012283198556475432	-0.006867679420647533	-0.01776016710945487
Si	3.3735995469135913	14.00882810063996	3.4430310872029106	14	-0.007363902747436113	0.022524682378221274	-0.0004188330566521221
Si	2.612756640904144	8.463827877940474	10.890065232329984	14	-0.00691293087428214	-0.01751616921457282	0.003784152810193943
Si	2.5384037300139295	9.680344212701788	12.840587675547372	14	0.038405114388115884	-0.0067458090284725145	-0.025900543663575706
Si	1.5647684066295435	4.61626869771476	15.069014279930375	14	0.04659048528533931	-0.004564483274858884	0.0690981983684476
Si	7.357078214987472	7.9547725763177475	13.578229598988568	14	0.16753759353989306	0.3077409950896959	-0.22020951423897864
Si	7.357157326102288	4.369781538020765	1.8631936613489921	14	-0.006730896617615657	0.058834088819884466	0.057101420944636674
Si	13.34735699558154	5.150565389408722	6.246292237030585	14	0.008637371212505457	-0.0284163702193406	0.02924863701147253
Si	9.013689681474643	6.494849470895619	14.383130803358071	14	-0.011492583670529898	-0.018717389620145998	-0.006493326486033973
Si	15.661154381741222	10.850300360096966	0.7817117588388289	14	-0.05868830714823207	-0.15388630984256685	-0.04421298419579838
Si	4.833656152341973	7.913277148448111	10.26296625851124	14	-0.16311632083136646	0.01950826161662355	0.05093539616585755
Si	17.11712522771896	3.2738321903884797	11.870148111571941	14	-0.004924438019679616	0.3531734545388405	0.04133180357404044
Si	6.14949978805223	6.854203469209806	11.921608243612042	14	0.2849059802993328	0.08582786646558713	0.1764243619684529
Si	7.6552842659929485	11.332225493782207	13.675743936889624	14	1.4990366770165746	0.4152656480204166	1.4894605952516833
Si	11.337085882898764	5.596705928825164	9.20158352360922	14	-0.04710239235458079	0.22673369398885437	0.13842753910517655
Si	2.946940119520786	3.2458054298164027	3.352501601480886	14	-0.010055335796567122	0.005947223716034521	-0.08115102588823778
Si	8.62329940392889	7.311828305460487	3.8359347907923227	14	-0.226779202553021	-2.8755046496531786	2.1173263142055685
Si	8.073701304110777	2.6928451076185764	12.953469347501594	14	-0.10446915136825675	-0.06212021852956572	0.1778808931323168
Si	3.343324712162137	15.12167920832321	5.572432001762209	14	0.0007847013437091938	-0.047605300555201756	0.034879357662596824
Si	13.569290043014268	12.141204216861226	12.915388882754883	14	-0.21517580424319271	0.07919312918694502	0.3468413363563798
Si	5.10763277628658	6.193495456779723	8.58904264306499	14	-0.14798202358537882	-0.07698095016948961	0.055932339355565346
Si	6.8174909674901345	6.843340524256525	5.222479040925419	14	-0.36651003494498063	0.12499197114421073	0.08740498246896596
Si	8.238135404405723	3.7070627847557556	7.5022141477117925	14	-0.7001446317138877	0.14823347768568929	-0.028550839027584343
Si	16.52384295918795	11.771020236558265	10.583906866137195	14	0.02308106956950132	0.007241775244729079	0.009150563834407013
Si	14.849780899290769	6.131614083510732	13.998716711277437	14	0.05370987591682934	0.04257930387537629	-0.004194758329821591
Si	0.6050483987117878	8.539571825932885	3.2172380766264115	14	-0.016414450584889367	-0.02734010553232661	-0.007502485324192094
Si	12.349952078491157	3.005671881531133	6.401994448027625	14	0.1589467593336823	0.107772764594115	-0.142741339611321
Si	5.8074084942503585	15.757938589978451	10.810823913803382	14	-0.028280358747904768	0.041264183504120554	0.08866019608626224
Si	8.154340252332478	11.363662273032533	1.1304780529533678	14	-0.1654837946101588	0.011013329638854296	-0.029333226376505404
Si	9.093415555579499	0.7819721662584344	2.365925018231052	14	0.027134417106714766	-0.024902183467762205	0.013914821992641404
Si	15.640262454836684	8.902111694766674	6.60014966101323	14	-0.008771068689153156	-0.022601044206229673	0.01938947655083271
Si	16.423332287813203	14.928887069662892	7.518342926245067	14	0.029090771144815442	-0.026690644328457205	0.08117776538356732
Si	2.535915026193651	1.8715909765571503	12.023402822454335	14	-0.15665076228279007	-0.34472943044641025	-0.0793108858106078
Si	6.807732281847838	7.627892042487631	7.394357679696663	14	0.11554624441905073	0.14471954804464293	-0.013748985699491852
Si	15.848168112723462	11.68386121395708	12.816302211446839	14	-0.050705796460768324	0.020480396538171537	0.02674103799273211
Si	5.117899091582284	2.2548991611785745	15.957038191897182	14	0.15894573089155423	0.10920512736796952	0.09392633400298955
Si	15.067478205784349	1.5646711658842478	4.5192108968721225	14	-0.014748117226901395	-0.09203965691906489	0.08128626602807756
Si	11.493079816131692	8.423130153811908	0.5615966188986604	14	-0.06838831618955472	-0.015298847986477113	-0.04359823291375098
Si	15.732992218439552	2.6011553255459052	8.198876513677886	14	0.17111065860330288	0.1192445223115517	-0.44652360383958484
Si	6.716073814591448	2.9764749357190583	10.932712715809142	14	0.28392613206182427	-0.2117150964822734	-0.02042100400527612
Si	11.603762858353296	2.2161891038097794	4.337199295753821	14	-0.04379723646553044	-0.16344670786500548	-0.14212093189756922
Si	1.9027640520914202	7.328229028450944	1.5545729617075286	14	-0.018617116512660226	-0.018895567218832263	0.02790394892903509
Si	12.644123462640977	12.0162811739726	15.080796891593403	14	-0.021301093356362807	-0.2415520023909958	-0.10079581319736117
Si	12.183901144787143	11.45257492534549	2.369361407280907	14	0.03193827028687944	0.0011382283252295547	0.07401826550908298
Si	3.4512800690707874	15.394302702574803	13.954838061073943	14	-0.0948825280715526	-0.00818357112349932	-0.036986892693522205
Si	6.18034323394143	3.826466179237687	3.7808108252472667	14	-0.032076852863635416	-0.09783544253174269	-0.013645370155089886
Si	10.575745236125261	13.082392446133147	14.852254769777018	14	-0.0231605167238939	0.03421884070585079	-0.10946738011062462
Si	7.4738050167514345	14.64783824168331	0.0408312241348209	14	-0.0028796379585658482	0.033005536105272903	-0.005502936716712934
Si	10.04296154450217	12.540049494803025	2.006968223639174	14	0.06888556795847135	0.03320299699386027	-0.21213187265466943
Si	2.1349716555609817	8.974083031471258	-0.05574202112956235	14	-0.008146290096357173	-0.3908869415958366	0.08257156157761959
Si	14.416777749378591	7.75029836303615	10.333765761827598	14	0.037033429699816885	0.0700687906268035	-0.02880229312789483
Si	9.20494739413716	3.016012363496979	1.7396122111157986	14	0.0007561620746555501	-0.05264620964588408	-0.03332383894390724
Si	16.02961275085224	3.687514098654879	4.134510027000278	14	0.011196906558712869	0.7261151094421715	-0.3221787799044554
Si	3.1336967393798707	2.485730560879969	8.41579259791265	14	0.35531569949158787	0.01009415948690136	0.1492441791870395
Si	9.787518347351623	14.21736994374172	0.34218029380604026	14	-0.033335923138911934	-0.0501357824112915	0.03748851534148309
Si	12.739747374527559	1.5792803517537504	14.20045994294963	14	0.12081932432014242	0.20531407267723276	-0.10756141973679884
Si	3.6114932617606104	4.393981298413578	9.768483883497057	14	-0.05872893061229041	-0.0554037201017429	0.0418658221490352
Si	6.606417568714236	13.58794378462878	10.74605828114003	14	0.013599090259327219	-0.04972697666538795	-0.08214938608405128
Si	6.80216318899438	11.380023440465582	5.970758113013023	14	-0.007935716570637047	-0.06278742036014415	-0.06302164805480964
Si	11.442700869327417	13.522522188971736	7.639783431933531	14	0.01710504947388114	0.012825958889558692	-0.01414287903453854
Si	1.2091458158975488	0.1408935991922701	1.8585673092804347	14	-0.00196046780661291	0.008842802527585288	-0.11495154775850046
Si	9.43086071953411	13.379924404514455	4.055239041805619	14	-0.08072679351041334	-0.0585726074088254	0.05452388786118822
Si	3.3922911959372857	8.221423181400674	14.486758123026952	14	0.3244017575642555	0.1625285661551806	0.12357169256536095
Si	3.2496456151814685	12.4790696586133	8.90527449121112	14	-0.008507530393837979	0.04108831990022242	-0.00860651794866368
Si	13.564553265014613	5.447110107003046	9.884253111142092	14	0.1937348427574139	0.12475568656528911	0.05490698255389029
Si	4.52704124909076	7.127684000538583	4.618353605219826	14	0.02848321895766445	0.0007345647899663062	-0.07710230634060058
Si	4.931463860627144	11.881414852840432	10.49750269542322	14	-0.03388279724050743	0.007309909535713004	0.022370673169544407
Si	8.663336220619094	0.043764927975943904	6.478307007157781	14	0.002903292127511211	-0.03237355841758051	0.021933328154587216
Si	10.727416076563095	-0.20698763932525582	0.9220202654110998	14	0.011913216500906125	0.07281601666138174	0.01323013664588597
Si	14.853372214273806	4.830982855920455	8.055367303251984	14	0.06010138663218545	0.011114116967404102	-0.04534761297357973
Si	7.3498576776122135	0.8755342447151031	10.00718024652982	14	-0.006180422968571952	0.06847059155979945	-0.005296219848973028
Si	4.3347105919335425	5.19873087314635	3.234820521894445	14	-0.04318351362561109	0.01922698269459935	-0.011996263202746906
Si	13.370439311477567	9.869673591940646	9.681085879403197	14	-0.06278407792322795	0.03172024055573088	0.02822816530990576
Si	8.600024254690497	7.820606718181356	8.847028932927252	14	0.003939190460998871	-0.08450297589411482	0.14276190845388217
Si	16.055956752086235	4.028840651680188	13.968792932097983	14	-0.0904162610199234	0.09353089800475077	0.0415585750632775
Si	7.821987866394199	13.461352815736099	12.757387504983479	14	0.248881966548206	0.38945432171145006	0.07985930257539538
Si	3.654917023053907	6.840985320442499	6.788948336523523	14	-0.019920924020507314	0.014219240862546936	-0.08291814657477554
Si	10.611950108191525	3.625329466112423	7.998469930216452	14	-1.2007560639523636	0.011166053294871092	-0.22877463739198795
Si	8.255625553373138	9.744162160135566	10.14428475295201	14	-0.03598750405558065	0.15854618112480323	-0.004488892778446531
Si	9.770516050258912	5.40300566049268	4.569700269607495	14	0.25398355372444387	-0.08001382600513628	-0.07850433007167734
Si	4.544224842488259	3.274723838578394	11.905965668805246	14	-0.31683345194386753	-0.5830662656345609	-0.5232117051131095
Si	11.260506323756102	15.0049754806344	4.275128385438915	14	0.07623995761622293	0.031574458884078484	-0.03313640536606844
Si	5.669306858151832	10.864149749634581	3.965655593164945	14	0.29937513259899806	0.09988487058243271	0.24328467026624362
H	14.08558236349451	14.471130381554184	10.894711362177247	1	0.20416735970444672	-0.7691736673492234	1.3578323441656384
H	3.7910013257246056	10.309356686610165	2.7164680161325183	1	-0.5474325456710326	0.28871584416272816	-1.6062890498938918
H	5.962022927418668	6.899726971342198	-1.0974293847386496	1	0.3666229064685351	-0.9168271036746873	-0.22660925249135924
H	4.8986508776086515	4.509750526058614	14.516345679968435	1	0.1347130632491586	-0.3315892824867294	-0.724733911664188
H	4.446298467530864	1.8324969006518483	11.08915988980404	1	0.06825821826035523	-0.11556732748267592	-0.22012775308979796
H	13.2498179354571	0.655176826985808	9.031804478619465	1	-0.40425874614486274	1.7447150463358763	-1.331726626297515
H	14.946972200139657	2.9760727875520727	10.30222350109085	1	-7.772769942756809	11.540502645934158	-4.233927576710855
H	8.804778653170406	8.40058018979267	2.915898895844544	1	-0.02566374486359007	-0.3825671018903694	-3.154730286968708
H	14.379822969869794	0.047437002222023704	4.794164872714362	1	0.28135476963114425	0.15119436257237182	0.22703168509545957
H	16.307876208330985	1.7128149691198329	5.6549646722948355	1	-0.1529116038156987	-0.32536875027516315	0.3265010650581563
H	12.078025750938885	3.574851630414629	8.304959574202538	1	1.90619125908352	-0.11621010381271295	0.35794388334984323
H	6.711277703255679	11.427641738992394	12.63044053607412	1	-1.9053265963643542	-0.1950427640337732	-2.097353196747062
