223
config_type=amorph dft_energy=-23214.84878930175 dft_virial="-27.524675062665935 6.12687520029819 1.6493885962720014 6.1268752002981905 -32.31192489087004 -10.539995420079617 1.6493885962720014 -10.539995420079617 -21.067922143113343" pbc="T T T" Lattice="16.383100531047617 -0.0109115377690374 -0.1376721499597917 -0.0107968519366301 16.388949508500392 0.039599379561206294 -0.1375246967466966 0.039484693728798995 16.319433510371223" Properties=species:S:1:pos:R:3:Z:I:1:dft_force:R:3
Si	33.88016257432672	1.3659443080896994	23.793874564649634	14	-0.029422700841646558	-0.07469163799242975	0.01481085219671301
Si	32.385001738863714	12.569360797341746	22.971290431708276	14	-0.0404645697495545	-0.06983302026894593	0.158993296339977
Si	37.44391996076536	0.01308729184670732	20.235748252582184	14	-0.02253625235216194	-0.021227302633674554	0.009887956840225481
Si	38.097663611236705	1.311884683430967	11.496124224198097	14	0.017241060945316973	-0.05139253869177988	-0.0279162902345718
Si	27.020499839774747	10.715934528390612	18.790375813705257	14	-0.0026443818217722994	0.004848333302203233	-0.02443784184694346
Si	27.136360382779706	11.646460966793722	24.279533020775794	14	-0.04053321826160245	0.061430648082702016	0.03403989177556847
Si	32.87538852802313	13.400631562903442	12.930976695505205	14	-0.14790489042577437	-0.06084906405928451	-0.10377546715288079
Si	27.50577655591589	3.367816641770774	14.462229162426787	14	0.02050173671232877	-0.003054473120335918	0.023682708214415975
Si	41.31124091537193	12.662154742711527	21.39944245685258	14	-0.13343805212089715	0.04005267867726678	-0.01191887293261045
Si	31.15489460741529	9.984011184336259	11.892861839351772	14	-0.02756841968475576	0.0337208176053381	0.014918324399095201
Si	42.5108743827807	2.680242309108323	16.315555490866824	14	-0.024517289001336037	-0.007540023461866255	-0.019995228964259596
Si	42.475302114306025	6.680733175568174	23.951639672447183	14	0.03370230564703303	-0.04777936438537578	-0.02432882698136918
Si	35.25155773619384	0.513553327305683	19.45310591833022	14	-0.022404354649238345	0.015101644208421758	0.044856274746899426
Si	40.001374702591335	10.787475550646285	13.334593822234284	14	-0.048740700664579154	-0.17374038512475032	0.1632944984300527
Si	39.86021446495732	4.552033056565936	11.528341112890342	14	-0.09970540743108638	0.07046731195142647	-0.07697452240618924
Si	31.088234286513067	11.101006956019432	24.337410045284653	14	0.03379563677015441	0.028974814294876763	-0.022954056966686003
Si	26.775996198558524	8.654666402105796	12.672774650792443	14	-0.07302376197124968	-0.038561437591580885	0.06606660808546101
Si	41.51949891844034	5.855016481033061	12.387285569811917	14	0.04690236036067327	0.009009153041798869	0.01426706342150169
Si	30.466597754008678	-0.48901055917052083	12.373156275259337	14	-0.2070927633377112	0.03379306566483426	0.25563008957146666
Si	37.171878612819114	4.107822060271775	14.261922164282264	14	0.04703142984774471	0.04238827075008929	0.00545254305243803
Si	38.77215229042148	7.235168725388991	13.750120253474345	14	0.05550090788284449	0.013970100757024586	0.1704221165985672
Si	36.52158700590324	4.2015728131576395	22.02731626027089	14	0.027386899649153307	-0.015421232599716162	0.0013829975517076515
Si	34.33660891056971	-0.6847219321735784	22.76385488989512	14	0.09183088316706886	-0.026873192806187725	0.0928906927800339
Si	34.34861651722275	1.7183951698747797	15.823318983067589	14	0.03359663321837495	0.05065206035957723	-0.0383063839438222
Si	40.36186995633526	12.007668911067617	9.789756321404774	14	-0.1452052298396189	0.00395461709291976	-0.2393876459324952
Si	37.49328565814057	-2.367610368335058	20.51273092153616	14	-0.008804750168847096	0.05978436934621119	0.003313640536606844
Si	35.26720088373419	12.992096052333123	20.225829566447988	14	-2.4080553338339725	6.231692608429429	2.057138538434626
Si	38.986210119871636	0.9666606674565815	18.729038553795768	14	0.039330969413901205	-0.015946766527154432	0.024440927173327638
Si	40.80229959689806	6.083657433258323	16.66261775689779	14	-0.01563566278341651	0.022111248642741464	0.002289569287591864
Si	34.307762146981204	11.679387269277857	22.028386115250346	14	-0.10437324913981522	0.03845833626824296	0.2157913268568362
Si	37.93323525657629	5.472422905753274	12.475939356631795	14	-0.007673720938513957	-0.02195543966034049	-0.13060546538969003
Si	35.41479499656625	0.6525263422787804	25.441644560558967	14	-0.055241226245509534	0.025806441208858288	-0.09415181993956653
Si	35.38824031125686	4.2295086435630225	10.166484535541445	14	-0.028414313335084478	-0.021855423663386733	-0.11539069254718175
Si	42.94929210616926	5.963912317272827	20.016819551992786	14	-0.5272750799610717	-0.17601941288052958	-0.02785792614380444
Si	34.78492565966405	8.870241361281797	17.405105304485897	14	-0.02297745402509935	-0.025050793355266762	-0.04139942364396034
Si	29.041401829790264	3.542163682565386	22.035845609463927	14	-0.045094616210077154	0.008167630270514403	-0.037877780686953515
Si	37.650850884915926	0.03382740545305033	16.98205712100895	14	0.02557658439323705	0.0456353196589043	0.03668221671308466
Si	38.492985675544666	13.60749039881649	10.053286342217369	14	-0.00032164527555052474	0.02498908682758321	-0.017243889161169135
Si	27.512267774030146	-1.584004673090871	22.26632317337674	14	-0.4665928806370648	-0.1545730520735784	-0.8362265514354932
Si	32.46262602534408	10.271590824204667	9.915769837315846	14	0.1685624361205041	0.11276225157839437	-0.12854626713878342
Si	34.045680444395	-1.5839981196147335	14.300654846624278	14	0.021527350624535837	0.11620778981792482	0.15662736522437673
Si	37.92993558134103	7.011452710481105	19.108743684467925	14	0.09995531886820477	0.0047377757734368645	0.04637656932270299
Si	34.7511981947221	8.00167476302125	20.828270967345468	14	-0.04911299671493659	-0.06807824088794487	0.030734478775986104
Si	27.0296730679983	-2.6723814144813196	14.394700505936333	14	-0.04534864141570778	-0.03220386546645073	0.03323205048397795
Si	31.88358872610286	-1.157633877212183	19.842867358135464	14	0.044642615894795123	-0.003718332513998152	0.04345682212114283
Si	39.22977825236923	-0.5519812730073006	10.483577755195354	14	0.0579074624625031	0.03357246482836555	0.013210082024388814
Si	28.43467773223689	9.017147359119413	21.99236165692218	14	-0.1535538659246717	0.2260739483637044	0.23556389810037096
Si	30.2112153424041	12.821173202820386	17.867995346141136	14	-0.011447332216895293	0.02135328679436181	-0.04910348362525204
Si	29.172946479561435	7.4302214740402235	20.454249338853607	14	0.465138663467989	0.2462445267107981	-0.016331918104112615
Si	33.23181734982371	3.2465314588929517	17.17072350716413	14	-0.011032098707691377	0.04000434189724798	0.03240492590248631
Si	36.45328995433566	-0.6553377835417936	23.811165911438586	14	0.023919764124933626	-0.05367130933702712	-0.1020530836989136
Si	26.688001036090466	3.1992776192030754	8.786750075289284	14	0.00501931180599308	-0.03824801985305484	0.113693505925352
Si	27.36462942523416	1.2387986791758636	13.47067347749265	14	0.02423138208973557	0.03393627623116651	0.09379777873698215
Si	40.35327998748796	-0.0187920928244533	22.906471637600703	14	-0.01670241438074595	0.020050250618110763	0.053426540110549016
Si	36.47896155873552	5.334803183602583	16.12598144826659	14	-0.02444941182088413	0.053207996158336435	-0.0015681171347583134
Si	31.96872657297494	6.408939221346115	10.708534015462272	14	0.010602467008694633	-0.0554821388140074	-0.01408940004387946
Si	32.802613813884555	0.3671748842971429	14.816377374531493	14	-0.03902963587037985	-0.0198147373707852	-0.08566717238307787
Si	28.4659640273176	6.9879535834208495	12.771201308902457	14	0.049521545350308116	0.009944264046736725	-0.00761355707402249
Si	34.40967361602736	8.121328130340821	13.587818501820568	14	0.005041937532810383	-0.0700093980939081	-0.08596567771074706
Si	42.11007688915981	1.4248715271496046	9.772612427828916	14	-0.03868819308386418	0.018265132194331957	-0.013089754295405884
Si	40.60967982626289	4.893316795012613	20.22935369824096	14	0.09215895620591977	0.026401652090472565	0.11561515004163068
Si	27.46379334940965	2.617248658105062	18.514194307209102	14	0.04846019307415099	0.06424909373464834	0.0015604038187978693
Si	34.16468337920792	2.613029857841508	19.35199397337284	14	-0.012452891507605207	0.06464375840129107	-0.052335620123210184
Si	38.32601293377384	13.219557378853624	22.6456662244923	14	0.05511421364269422	0.030587668662205657	-0.10469309464164164
Si	29.191967944050702	8.267593525885989	9.292363866254313	14	0.07498885776743888	0.07593322475152926	0.0636579966215463
Si	28.246932109479033	-0.02626960909740926	23.925276676314812	14	0.3298540435061615	1.2587666277382048	0.7078980569173263
Si	34.20486437977634	11.87545089162331	9.836790619644042	14	0.2907567875658617	-0.3656057772038845	-0.08758907360988857
Si	40.1533186852097	-0.5430325013414623	14.53970435732502	14	0.04587777489059426	-0.06464710083820727	0.011286381023854023
Si	39.66043338327284	13.674845388189295	15.299142470942922	14	0.08655266105533688	-0.0044151020557582805	0.01773188495093324
Si	37.47029606385001	6.293447311373894	22.804071934582293	14	0.012595073631809395	-0.03074399186567066	-0.028046131053239273
Si	30.14488105693972	9.088314833235245	23.69469098004573	14	-0.09099527393802073	-0.022813417505673908	0.10307047007409618
Si	36.78491714569364	12.182409160430481	16.871822737268086	14	0.07402186505653119	0.2094797775169367	0.06786921002541682
Si	24.798086650374437	-2.5042962201361463	19.39881528363764	14	0.03391185073062511	0.02910208400822409	0.008549696521088408
Si	27.267131722366646	-0.4286333835151806	15.149844454315097	14	-0.011246271780859712	-0.015016797732856869	-0.04988175720566086
Si	39.23121837875045	6.742476750998196	21.04411953415021	14	0.0022371187390608435	0.0455121637140692	-0.010047108259542647
Si	41.234286721826635	7.935322455497489	11.308165613465771	14	-0.05480748077800055	0.05117528029222736	-0.01856646573785331
Si	29.24501014153908	6.639983660944826	14.974914154144242	14	-0.030739363876094387	-0.00013086926079553722	0.04858257768739004
Si	40.5914906532431	-2.3598248386836365	23.085914006092267	14	-0.020354412377484286	0.010512735433021465	0.0057428208430827495
Si	29.83606323927851	11.262088122742586	16.09908434382901	14	0.06417478879089605	-0.03880594970752697	0.07180582938109555
Si	38.330718329640604	12.345294171460502	13.787247334162656	14	-0.15944555376579103	0.19732179178955248	0.0989957823627255
Si	31.328645281881386	7.578701944519886	15.455827893546807	14	0.05564206156492062	0.0885411539099394	-0.0663080348750229
Si	35.40920815815898	7.986005401576343	11.390482188860629	14	-0.023920021235465636	0.0069363279326954885	0.011382797473359577
Si	38.30790404083673	2.787730786347548	22.548918894642533	14	-0.02203565814632911	-0.04430580109785572	-0.030050564760826716
Si	31.828705001819834	9.981491372761367	15.699417324841844	14	-0.07654797603357666	-0.0007178526053853437	-0.03890133771490446
Si	38.12138719485467	-2.248746694890063	16.93766387365312	14	-0.058422454858128754	-0.07265480835780845	-0.13513035364261863
Si	35.8020366247966	9.05448906615123	15.27503714733994	14	-0.08331923900471866	0.06258841680836469	0.019622418692838123
Si	38.44005980225773	11.163137186541569	18.203864274929156	14	0.03659299935847552	0.1738802532541664	-0.17085226251862798
Si	42.049141029663744	13.132029151560372	8.639380419014937	14	0.05625192774685974	-0.003920678502693806	0.012680691438970325
Si	30.985480695783227	-1.5578186208142157	10.383266972695791	14	-0.7225777827427118	0.11652634976709117	0.18295728347641715
Si	36.244052206584676	8.666210350322109	19.23812241037563	14	-0.12269391720906236	-0.10041786071529943	-0.1737606968567795
Si	31.579173206037066	4.831407744310118	25.259321939304943	14	-0.003615745411724243	0.06202123097474002	-0.0833981719380472
Si	31.057221599061098	13.53950791410351	21.323723593559208	14	0.08184316744042162	-0.08150403864869411	-0.2172941379164627
Si	27.47118730886185	-0.07980331729610252	9.78407445759351	14	-0.13139813715989168	0.14166147537685878	0.145554128831563
Si	29.260378043081655	13.26426191632599	10.54690563348163	14	-0.09146347221681969	-0.2871220159747684	-0.018860085965414216
Si	30.816443609029076	2.024344203356768	21.79792493502788	14	0.008108494848150996	0.08298833775001559	-0.09097290532173545
Si	38.570003765482305	2.7982818829290195	24.84369065244668	14	0.08293485875935651	-0.0403794661634576	-0.026020100060962587
Si	31.09124724716731	-0.8868098374584816	15.814819124517172	14	0.06690478841982929	-0.014926037715055641	-0.06627589605852106
Si	26.38943449347744	12.903922307640322	18.02175791838767	14	0.027750453941422244	-0.014231325057551631	0.014112025770696762
Si	41.117708573184615	-0.1678640145255306	18.481181171166146	14	0.02363874231344144	-0.0004730833789072465	-0.0455538156202556
Si	41.52098655752357	11.708473234745384	11.809588456440832	14	0.22049979202962336	-0.2138591412087449	-0.12530795998805694
Si	30.853152905613616	6.4980337294362425	21.797289247842535	14	0.15749485615939468	-0.2040280057960947	0.06661579618184464
Si	28.293650202494664	10.994444157284638	20.731630131482937	14	0.012759367261766855	0.05985070386347101	-0.07583012342819133
Si	42.44700748108212	8.629833642651548	14.741908586811364	14	-0.04914590686303449	-0.01852969893177519	0.021067636993293358
Si	36.9711669375231	10.752917432603898	19.91950370808809	14	0.9105273814192604	-0.8631511663480839	0.23222223251577448
Si	40.01808442837307	9.723939760555258	17.297975630065203	14	-0.07268077652154194	-0.1595244866991196	0.01871764673067802
Si	35.69832950328875	4.332914305168548	19.818311483048028	14	-0.0036481413387581094	-0.006750179907516767	-0.010571613744852855
Si	27.32776776032942	9.711147375134741	9.360100595612133	14	-0.02875704167426022	-0.003564066194789267	-0.016514723692375142
Si	27.22745370109179	10.593726943746427	11.535641685307581	14	0.41417344248041776	-0.1993172266285194	-0.2022416018196558
Si	38.99435117560352	13.292658128430038	18.90271058654821	14	0.0546277605161222	-0.025352384009320134	0.11602344156647021
Si	33.058196106511325	1.562597743287531	11.199795693686045	14	0.0006399481141848569	0.08956445382735834	-0.040911427854196235
Si	36.84465044231847	2.4042377464678806	9.831595351435992	14	-0.050312674457317685	0.03794051565676513	0.06251076942769622
Si	41.13985276905343	10.453231883940381	15.358823339758645	14	0.13126366835164793	0.11921109794238977	0.059101740883711874
Si	41.4594215643183	4.601177574121498	7.703911021235073	14	-0.02325384784701527	-0.04394224680558679	-0.07814231844260049
Si	36.61992846882347	6.112640181476682	10.646389039618825	14	0.011136999804753418	0.018632286034049098	0.07882880356308003
Si	34.77336860449547	-3.964487706929131	17.893178716568745	14	-0.5696741493535056	0.35648606663331933	-0.5836686756110715
Si	29.271771261346807	12.510484367721908	24.7089823120701	14	0.06133526007532452	-0.10916424679337916	0.09959999211296032
Si	31.4816443741579	2.5735140351010553	9.673017612597382	14	-0.0024590051281896228	0.030560414945812082	0.15626432515317182
Si	43.505608503641554	12.43477369627371	21.971895150944583	14	0.09076618845399555	-0.17454359842676456	0.06478722607815532
Si	39.1805878604807	8.928179005444932	12.24711490707468	14	0.027431122660659852	-0.03128186709864563	-0.28964452740436564
Si	40.398487504253886	10.507753528666813	5.899622716363363	14	0.08625235595394358	-0.021743580581960287	-0.07646287244747978
Si	34.06588481132711	6.024302599880443	19.8884041870773	14	0.0534643353587552	-0.004502776747175331	0.027882608754877858
Si	42.286886398613106	-2.5236814025510492	12.214721074526722	14	0.2655458143491497	0.2333386064457828	0.08643387598954604
Si	39.87306747003211	2.51950192314432	12.542566910153333	14	0.0204138049103797	-0.014456039662532574	0.07934122485338554
Si	27.674712063789915	7.80866833729397	16.38606434063083	14	0.038018163037433605	-0.02026828034925932	0.018621230281172463
Si	37.41426220450484	7.44449494506783	15.603589120020374	14	-0.0010837208924424154	-0.07451654572012767	-0.020599438714494395
Si	33.18130151738636	13.997556575262129	10.457737398784953	14	0.7886384772859364	-1.6230655121078583	-0.5106413140923737
Si	35.767568617051104	7.904937263385691	22.867170441203754	14	0.02343999587219399	0.025701025890732213	0.02298645289371987
Si	31.52151244624074	1.4184392903205894	23.985647298494015	14	0.0708743179236059	0.27624675469160603	-0.09477197054278624
Si	30.798410081067544	-2.2993297004578204	13.918483970555364	14	-0.001022528585822891	0.009977945526430665	0.015155380309612852
Si	33.96394385163833	4.877753927554942	8.299456526866804	14	0.020136896867399754	-0.07429440222046688	0.08187247804107133
Si	31.271025481310925	6.926686773379836	17.673719184412207	14	-0.023109094617490934	-0.12755124937988613	0.12468806649536923
Si	40.12523867832929	0.8171300024258749	8.769127777955385	14	-0.027401297838946136	-0.024393618835436916	0.0026520951377327438
Si	27.256069454646443	4.944293009148623	12.47396348357632	14	-0.008629400786012998	-0.028720531978714117	0.06804275963452683
Si	33.225385112994694	10.5801956538914	17.628870470464815	14	0.030915484590524536	0.033211481641416775	-0.03258310350117257
Si	29.30111117401466	11.525141378166177	12.118494746029894	14	0.09235641709450713	0.06292703137902819	0.04828792901770107
Si	30.426257831643923	4.937677274987757	18.652892076184422	14	0.04164496420203448	0.027636296865207674	-0.02348910398380882
Si	26.479428466167448	7.616295960383	21.966198541812005	14	-0.13184165282761723	0.013079212763593277	0.09792106033890362
Si	27.48213980585675	2.1463175012290345	23.20462858795513	14	-0.2717578619131595	0.26467678075093964	-0.05045974168163015
Si	32.00571439229533	5.076168609464744	20.38739077529822	14	-0.11925917761187656	0.11717915340787674	-0.0872928822770075
Si	28.690518887171095	0.7872510663457045	11.59750322330808	14	0.017715944097948324	-0.00513963953497601	-0.08341308434890406
Si	39.159929665326075	2.977627587647555	14.751409488841794	14	-0.011127743825600887	0.0048902423189216455	0.01165636307942333
Si	34.41062550843635	3.463186103262616	22.89415110246209	14	-0.08536455328689645	0.049704093828038635	-0.05757116188662773
Si	41.79062605646541	8.40155640835192	9.041740916694641	14	-0.06290209165742275	-0.003691593018668612	-0.04849104633799277
Si	28.347269105883147	4.4598207322033625	19.852504244795746	14	0.011161682415826841	-0.32258578587663483	-0.04238107165519288
Si	42.79762992302481	0.9238451694808675	19.696877208588074	14	-0.048052672880907525	0.023445652303898317	0.1184387379042173
Si	32.8060838794994	3.1018896870608645	21.18672481327255	14	0.11685776524285825	-0.06054798762629517	0.06487567210116842
Si	32.12637371820202	8.118595330791457	22.8700785462398	14	0.0956268630617355	-0.003332409605443925	0.10985458857183893
Si	37.36843210750585	4.832967471630857	18.28751939782511	14	-0.026293665667026348	0.06600438733671343	0.027176840344497206
Si	29.641516746658905	2.87327003363305	11.063026285064202	14	-0.030320016598378234	0.13828278587565218	0.08923355257265528
Si	34.20830823148663	3.4280643862723976	12.018583725574723	14	-0.019441155767767684	0.05556981350542446	0.06486461634829178
Si	34.11210647852531	-1.2063737176162512	20.513422313268673	14	-0.17224091650203996	0.07116716681957076	-0.019674869241369148
Si	29.071927921639016	12.525559001207329	14.233817581866338	14	-0.06246963174257385	0.07469986552945423	0.17609834581385814
Si	37.994194053238836	10.947188679225727	22.011381483042413	14	-0.21881546093439436	0.1192026132948333	0.09299225144017975
Si	30.810437348149	3.303993976036112	17.02017377659403	14	0.005898372714951707	0.016883934416348403	0.01804504557892728
Si	30.740208659489873	3.522077278203765	13.076139468690227	14	-0.01807924127968525	0.032568448200847734	-0.02640422319579271
Si	34.193176255085	-2.036817106815579	16.684499813721107	14	0.039321713434748676	0.062158785109367946	-0.09822239388242497
Si	41.65506904092902	9.106500729516974	18.83963665546226	14	0.055018311414252695	-0.015341014113727541	0.026766491935401576
Si	42.56224216711593	7.059147271441232	17.95183724310701	14	-0.06182891229679295	0.07557121312245242	-0.08844010947085758
Si	23.84984288923343	10.070171373485794	8.49549229693867	14	-0.03888359708819544	-0.05485890288440352	-0.04783104360231076
Si	38.351992551552165	0.8107714922034074	14.962057872331384	14	0.07084912109146844	0.022043885683353585	0.02612243005270448
Si	30.337035530769114	11.818673212736524	19.96134273811931	14	-0.05239938353514986	-0.0040047536466626486	0.08793771549130064
Si	34.070532864277666	7.200340276455928	7.855997541959429	14	-0.02396552979963226	0.024564597339226762	-0.005917913115384833
Si	35.75585264008618	-1.20379820149419	12.718829204349145	14	0.033071099290936684	-0.12004079362920157	0.05144241813499075
Si	40.97325357542245	6.799860626427705	14.45892457208442	14	-0.003044702920119355	0.06799236597025192	0.003526528057115105
Si	41.81292262065442	12.679288806073178	15.73238458655184	14	0.006858166330962986	0.005618122235055568	0.004566540159115003
Si	28.156340132091476	-0.6901416569393404	20.170683703119458	14	0.12126798219850823	0.21928185943946923	-0.34573421840552404
Si	30.20726687303122	7.839043699191561	11.36319023748576	14	-0.04231319447474097	-0.32300796137020316	0.10138073965769487
Si	40.863127324037855	8.579637292175907	21.05401200637986	14	-0.022305109983880633	-0.014370678965903659	-0.04504396543527024
Si	30.74839231281665	-0.6937346002317577	24.500452339741972	14	-0.07724243158054866	-0.23958870636853077	0.10304398768929866
Si	40.79556426179768	-0.7476828157961516	12.27935964804051	14	-0.07776925106064701	0.01575264807548325	-0.04146524394015613
Si	38.14503705186608	6.541004872470223	8.817464579576994	14	-0.02377192556902511	-0.03123404453969088	-0.011318519840355874
Si	41.756053193101714	0.3115293184131209	16.148076493064373	14	-0.03028222135017206	0.034906097157926363	0.048028247380366124
Si	31.987841424499166	-2.0076099020395084	17.623034599964313	14	-0.05382814676155615	-0.02810192403868649	0.06902800719320758
Si	36.79116752355984	0.7472977990730699	13.289268342897884	14	-0.07673026740077517	0.08897489937744837	-0.09323162134548553
Si	28.029394384199833	4.387399905776221	10.28423575641209	14	0.05207491004374718	0.007074653398919454	-0.05374381450705529
Si	40.54468572666864	3.4837640183345546	22.073297087221047	14	0.0644360130914231	0.0038941961178962804	0.07614302694565335
Si	38.22070184898132	8.961509985080562	8.947302048814333	14	-0.01946660971043715	0.0008638913875697545	0.07978705451589922
Si	29.63862174857514	14.184163531541081	23.062288724616366	14	0.5769182385930228	-0.38190889892841146	-0.3452073989254257
Si	31.71117004566173	1.3529536800160211	13.067110416941702	14	0.037239889457024784	0.036100889800199175	0.08714401527897093
Si	36.68562706710251	9.893620726339927	23.653807119161563	14	-0.03207582442150736	0.012440035981004464	-0.07904040553092823
Si	32.99255485114849	14.438074687752774	7.909641020883426	14	0.03730159598470833	0.03878589508602981	0.2244906617075572
Si	37.197270056114085	9.52183874831808	11.034197543535075	14	-0.034118567598365006	-0.026230159365618688	-0.03635542922689383
Si	28.372531118024405	6.152359161977399	8.690114154533857	14	-0.07825647551881507	-0.11372590185238587	-0.01147072927530864
Si	39.55563510798809	4.823818818942824	25.54430804099191	14	-0.02289723553911073	-0.03363545690870918	0.0721593563626159
Si	34.42786278904716	-0.4197665303010619	10.886729585118667	14	0.3907689278616418	0.43971531695183275	0.19029496094958775
Si	41.79852954868731	1.3336848218025603	12.079170612466466	14	0.03632920395262833	-0.03922581120630715	-0.013212396019176948
Si	29.00415514816244	-0.3099220783903843	16.655610452537708	14	-0.031479070876700994	0.028512272447782122	0.09169512880616504
Si	35.51272522885884	11.74208273711686	7.853020625423942	14	-0.01933496911804557	0.03573116485516189	0.07040509120267888
Si	38.071923195337405	0.46871444357249753	22.399948551821588	14	0.023624344123648607	0.06260770009826579	0.014866645182160222
Si	29.523287122030222	1.5616392974024131	17.990946750326934	14	-0.019597478971232686	0.033194255235771776	0.012395041637901874
Si	31.898360261316927	10.167039942644102	19.544807071554064	14	0.10397267093093615	0.028703562683601143	-0.11418535837309633
Si	32.864739129299586	9.924410595603218	13.573912025456666	14	0.3926782306723837	-0.03310040989158637	0.4575382190310993
Si	36.3535411324149	11.328193036542155	14.76946759233884	14	-0.10942675664656627	-0.10780850295806507	-0.013869827649538813
Si	27.077329946470634	-2.2418213089816965	10.378061874273534	14	-0.07383417436816038	0.032958999098978224	0.04635342937482166
Si	35.86735839819773	11.507060337502649	11.462124789996436	14	-0.01873667291004711	-0.031419935454337584	-0.01394516103541915
Si	29.872438308580037	5.2369368477023315	23.54859925161821	14	-0.04712630363405817	-0.025179605731806186	0.15222460447415517
Si	28.6479425910744	9.688886855064483	17.389236062018796	14	-0.09843913806091346	0.07067557148235845	-0.03600113091377743
Si	39.319026767148586	3.446199493114061	18.622562588619797	14	0.0833495780474964	0.09235615998397512	-0.10134397285161675
Si	33.09874082500538	6.325754310363031	14.414279015897293	14	0.004795625643140197	-0.0005635862861764589	0.05442952829593879
Si	30.266708539967922	8.659969802670116	18.802924082139654	14	0.07580441237498983	0.10290797621786282	-0.18627015268142796
Si	34.43657727394108	-4.7596340736515605	13.311846706560813	14	0.058218309095709	0.01781698853703014	-0.13439321774733218
Si	37.103273547873066	-2.8773823399093685	8.108714327145051	14	-0.029452525663360273	-0.020040223307362184	0.06414753507450249
Si	40.449978166266696	3.7738929604204734	16.588420938437377	14	-0.013134234417444447	-0.031143798742953678	-0.024775942196542937
Si	28.366608413965086	-2.073129918093799	18.163406389993927	14	-0.016157597163406572	-0.10894416017797447	-0.0004337454675089809
Si	32.52368312414869	4.996468509417808	12.555403531537777	14	-0.008107466406022938	0.007166956079912771	-0.006142370609833761
Si	39.08078169564373	7.604547216037388	17.195423558726596	14	-0.0045369724479333	0.009540600511473476	-0.050385950958941904
Si	34.12658638405125	5.261666389907414	16.26692542118806	14	0.06712950302481022	-0.03445409684264433	-0.019190472999053246
Si	41.898989422769	1.5229475742862588	21.849705588359775	14	-0.018964729951944245	-0.016096919077851077	-0.031252556497995944
Si	33.21945257872116	9.616978838145107	21.37687556177289	14	-0.03717638315561712	0.027231090666752333	-0.011043668681632044
Si	29.637320883561834	4.209207612857896	15.074061694629387	14	-0.02792888865064052	-0.014097627580903932	-0.023601718396831308
Si	35.32830713360983	0.02927929301358369	17.172165271914395	14	-0.01740715434899854	-0.05508490304204453	-0.009433642530155318
Si	33.59934939857035	6.884662607647732	17.806207534747188	14	0.04392450617887777	0.040561243309592064	-0.022661465181253154
Si	35.458013533324426	2.562882658436899	13.860284187346728	14	-0.01840602876587607	-0.06876318334523232	0.011567917056410236
Si	30.223064027260808	0.5166121622928892	20.054649492996855	14	-0.03481070915054887	-0.023844944960117315	-0.04085846308460118
Si	37.17654141109099	13.367107255721752	11.999267354659265	14	-0.023893538850668115	0.004395561655325155	-0.029373078508967698
Si	33.535310468123136	8.107682154653386	9.948309484707865	14	0.061945383367795655	-0.035372238552469216	0.02197138051332541
H	30.350373493078084	8.51766762181914	21.008789744292628	1	-0.2502878469372629	-0.2392842874986252	-0.33913573371189604
H	35.71957587292672	11.817985097742081	19.833346795676626	1	2.609029380730795	-6.125533469534239	-1.8512925040666544
H	32.521669568605425	15.365144167493321	10.857905758696644	1	-0.2764285318377405	1.2405475183291035	0.1692257812931023
H	30.679451382218556	-0.12273350110422368	22.97547974132921	1	0.4070129141638053	0.062277313064626756	-0.5444981431691476
H	28.026838528506183	-1.6188413138691056	23.85985660077162	1	-0.4543472202182635	-0.8833921929809497	0.7146484939353751
H	29.9963121145322	10.02439698103397	10.753790683299227	1	-0.4383348905054453	0.1223123651795524	-0.39756435922279315
H	40.12718669911117	12.459309910932737	12.084144700854873	1	-0.5646630650845369	0.0875654194409432	0.2966284207854839
