221
config_type=amorph dft_energy=-23184.40805367005 dft_virial="-19.640922205601974 3.8484774807451294 3.6069412371837206 3.84847748074513 -18.711007667890545 -3.631094861539861 3.60694123718372 -3.631094861539861 -10.683953173533027" pbc="T T T" Lattice="16.3768639606 0.005175089011549601 -0.0077462566533638005 0.005404365106998 16.47618964052104 0.0320822764988154 -0.007697126061482 0.03213140709069721 16.248960653067716" Properties=species:S:1:pos:R:3:Z:I:1:dft_force:R:3
Si	33.78157593246797	0.06460017757898277	23.31554633602509	14	0.2659623334110137	-0.36020491336838145	0.26160122456697854
Si	32.303593438378954	11.207888432366893	22.565020863693128	14	-0.0610501244953201	-0.20582495130434617	-0.20300907675772
Si	37.19611276377957	-1.1144881723651276	19.88249873537883	14	0.4030169022752312	-0.12630143508376215	0.2927802474528182
Si	37.94844296651999	0.12082686461491075	11.2571827928883	14	-0.05807175609246056	-0.1250503352349781	0.07156208859674552
Si	26.658632547562984	9.379752209936283	18.37393572321618	14	0.20553955861380976	-0.08712473198906982	0.23763723743053836
Si	26.7305761109419	10.371970715971571	23.96576187891198	14	-0.11149495376609339	0.043502073574777436	-0.08933536834333314
Si	32.69577675038902	12.149107746342477	12.56654582026619	14	0.3551388074455617	0.38475896917579566	-0.08324082029245414
Si	27.45201463519344	2.059551136312264	14.178057074657962	14	0.2080594989380869	0.031340231189412995	-0.06326487461809564
Si	40.80436824350831	12.22735804003262	21.323934619853375	14	0.19256807516313068	0.038014563489985394	-0.12179762989445873
Si	30.92746684969288	8.727620573966002	11.405490035229096	14	0.23402997666637063	0.23303598734960135	0.3005519275040298
Si	42.54899719891742	1.3921791907402494	16.14498230609547	14	-0.406817253048942	0.3374148929211209	-0.27719574966527266
Si	42.39714764090195	5.416500363192805	23.747201165553	14	-0.2364275323774087	-0.2816913273175516	-0.31360594343548565
Si	34.99200632465988	-0.6831805323531818	19.10019559621772	14	0.06248505837449473	0.06393696154878235	-0.19510781299837293
Si	39.79010156552286	9.485268344434429	13.130640348643473	14	-0.14020442999193086	0.2677921890673631	-0.030756590281739382
Si	39.65749646034749	3.426819479282045	11.345793090719917	14	0.03992515185338743	-0.11694106905523105	-0.04229673940069202
Si	31.711723748724488	9.14101683786424	23.639113863413044	14	0.28531092938725605	0.09179231658726664	-0.07395707320246345
Si	26.528772204787405	7.354797198740787	12.46042865486069	14	0.07474640253574892	0.14750019844838305	-0.1483028975293333
Si	41.33891727161427	4.614784089492801	12.394274312891847	14	0.06349627409690897	-0.4778684630185741	0.046266526015000656
Si	30.278949587598706	-1.8690783823321098	11.911040550320026	14	-0.032993966131332236	0.048853315077601635	0.2370021744164618
Si	37.07197285958543	2.770714816114923	14.021852908515365	14	-0.08778396339315579	0.011890847884620836	-0.26400212271493284
Si	38.49082013559912	6.0434542085100595	13.588263971353706	14	-0.07869999118654061	0.11812557727622325	-0.07850073052422914
Si	36.37156550403209	2.939309717530112	21.60309300523937	14	0.07184645284515388	-0.13777242146960278	0.050919455312872626
Si	34.27687453071957	-2.064541166761059	22.362864854963483	14	0.174099311427443	0.24720586299000147	0.3046590111424344
Si	34.178156432451466	0.4409667143759078	15.498002831527195	14	-0.273712159067004	-0.05569579766611172	-0.12605820852047614
Si	40.21647158105069	10.897953006539746	9.590913856157863	14	0.028184713629995257	0.09189078992102831	-0.10359034756983014
Si	37.11516028753592	-3.4756929543996633	20.11414947610152	14	0.27027999057513835	0.006017672001806578	-0.043553238570648384
Si	34.847559109154595	11.959625792631938	19.665290750982994	14	0.041548804863060944	-0.15464144347509437	0.3022205748568059
Si	38.878673404778006	-0.36691872397805486	18.395409067241317	14	-0.18677768887162519	-0.00813960522252479	0.1258910866746665
Si	40.421410018967244	4.716045514733983	16.630620192296703	14	0.11273499786200081	-0.11041148998418299	0.1342700618024971
Si	34.24304811820895	10.517818153345488	21.479444406964046	14	-0.057886636509409894	0.210735762465829	0.11709687803763201
Si	37.688563425388416	4.255043344988676	12.286794592404824	14	0.30605974932085106	-0.17622690107986552	-0.0939705570144961
Si	35.38723082030744	-0.6065499105087423	24.951188899462807	14	-0.09993063625713136	-0.3337646946981067	-0.334273516440964
Si	35.140367610651744	2.9585934748437186	9.808495233051998	14	0.4173346164715398	0.0709663634940672	-0.06524488282514168
Si	42.78391512400025	4.5278933623770445	19.686493876752785	14	-0.032945115130249426	-0.47596404530794045	-0.014065488764402083
Si	34.26672415043679	7.851387931558873	16.876518804665114	14	0.08061366487632683	-0.046670960881859944	0.03547122610729491
Si	29.028726691355335	2.3813384985876973	21.69318049620023	14	-0.049042805539696546	0.038035903664142626	0.1695780227219626
Si	37.615198350217725	-1.3454707370382222	16.68094793293403	14	0.004637759776483105	-0.09065228848831298	-0.10977899807542657
Si	38.460029993666794	12.57778526200235	9.702504169498997	14	-0.1617387226008311	-0.45494525931573	0.018102381227566577
Si	27.531065757531255	-2.4704302762197576	22.152833212355183	14	0.052309909070008716	-0.32949820252985296	0.11194901096563155
Si	32.53337885429653	9.010378594050534	9.604642581216034	14	-0.3413887933039418	-0.09811569301163882	-0.2609265665309717
Si	34.032384328651766	-2.891448332605258	13.845195676972372	14	-0.41657639751262815	0.024578481307955563	-0.044139193473110135
Si	38.62412289517921	5.285523118295115	18.1834727953544	14	-0.15711150435616061	0.06785455472509198	0.2012185590127689
Si	34.92859183203165	6.97322281920439	20.175456266338024	14	-0.17088105889821364	-0.024265834901025556	0.10245751856577288
Si	26.923451350865076	-3.9684187473230472	14.171509604446516	14	-0.0699435777977123	-0.2093221687608116	-0.3171777229462354
Si	31.47254783901191	-2.5661071908503748	19.63848837542508	14	0.16026547925238627	0.02611471673674404	0.0581193215408833
Si	39.15326755817818	-1.7136603056596196	10.338111549733032	14	-0.006318748434795918	-0.12389976560421183	-0.3510407226757777
Si	28.079915063247615	7.712692270676551	21.808735648306225	14	-0.3126152965556326	0.5761862449083766	-0.19553127404460133
Si	29.61342822765424	11.559504614660163	17.639307272730772	14	0.12263529600776299	-0.15453397127271215	0.20629006425676097
Si	29.083356634155106	6.220375107562817	20.36066549624124	14	0.7583783674415177	0.17070956617335975	-0.21384654279267618
Si	33.09993154995429	2.0502359760914746	16.834900280282042	14	-0.3628845193330398	-1.2853971082021705	0.2096538413471107
Si	36.47773016234308	-1.9514523703675317	23.332458723437203	14	-0.40535557967443786	0.07472377680893161	0.13285801076067177
Si	26.502801773918687	2.0586012782025493	8.568786283471331	14	-0.13459067863591956	-0.1255576143146433	-0.12439058960982809
Si	27.32449618396423	-0.032211653724104145	13.122157133111882	14	-0.0737598694244081	0.057394526951133555	-0.0632815868026766
Si	40.359019080336545	-1.101534072972293	22.734185679974146	14	0.04745437667290906	0.19743594886576704	0.18690598702710057
Si	36.315699108003294	4.050856605127916	15.790405186798123	14	0.09308558256330113	0.16507987396436355	0.007011147097511798
Si	31.871850173785653	5.227770107538059	10.400317429800975	14	-0.30451374369184603	-0.16386631225325363	-0.20836751735544065
Si	32.6710968164004	-1.055269432283598	14.519763616568675	14	0.11199143420341398	0.22277316335369832	0.021337603051908904
Si	28.32050429632	5.785955863398358	12.49745510658921	14	-0.13703965645336058	-0.20442575578912162	0.16547402440994224
Si	34.06495627338301	6.915929998324628	13.163934513075374	14	0.1393312826252086	0.050661059228197754	0.08301019214523685
Si	42.02856830291829	0.18248739511296583	9.615059904381372	14	-0.025985647249672603	0.15895807219709096	-0.20093959408553283
Si	40.58535225333122	3.414163438813293	19.88404143596392	14	-0.23929457191990583	0.017912119433875624	0.2521009904090314
Si	27.42886593798513	1.2253071354137157	18.209662676200193	14	0.027414153365546878	0.2672404298656593	-0.02807801275920911
Si	34.02373734448057	1.4646730167482414	18.976974434091773	14	-0.13912096621002049	0.10043688689466852	0.08752736708220502
Si	38.458433249430634	11.979589189799912	21.874637786570077	14	-0.06749974219091155	-0.07699457702768639	-0.14537440856968462
Si	28.80444390172852	7.082205935802996	9.07524735219847	14	0.1950414784811131	0.2391001963577026	-0.10475197295347304
Si	28.435368344766854	-0.9201177247623504	23.669170321839932	14	-0.2829719948775173	-0.01722100632381982	-0.038287871985517134
Si	34.227945374264486	10.710305261592794	9.358883172191291	14	-0.0384035717249238	-0.40900757767117624	-0.1117955159780187
Si	40.15433775918417	-1.8191305849386759	14.263896407107449	14	-0.2993404226771761	0.07170581338414178	0.08796522631822623
Si	39.61437453985284	12.45394505441869	14.854305280496622	14	0.031421478117529676	-0.045245797202901866	0.4379515387022112
Si	37.42709041539347	4.974289007155892	22.282477380526483	14	-0.14297736707971057	0.21876481015958743	0.09326787393049962
Si	29.50816757223388	8.518227629052168	23.58774455422783	14	-0.5372951916147528	-0.14681474177003156	0.2741384483290846
Si	36.259958813827	11.448639796392484	16.31732914704403	14	0.17444821041938707	-0.0940176082418548	0.10548525219077926
Si	24.63638135660738	-3.588439474336414	19.015258628972465	14	-0.3301669470236235	-0.05663270844477368	0.24723028849054288
Si	27.17763010565196	-1.6983774162115877	14.79464764046095	14	0.08650535271744615	0.016678503101268574	0.396416103586815
Si	39.193978804297835	5.282508137639968	20.516309573636388	14	0.09804370206267468	-0.017725200077100857	-0.07122913045778634
Si	41.02731795640873	6.598009213630292	11.174954558942126	14	0.11278487730521168	-0.0681970259537357	0.2635784045581724
Si	28.995755151143456	5.3024093027248895	14.718993079708563	14	0.19570559498530735	0.2432404472547371	-0.16759210097268024
Si	41.75405603383792	-2.967667895164287	22.944878947886455	14	-0.11447897860065724	0.04571939480287314	-0.04130943495775516
Si	29.53229724359343	9.989354767887281	15.823967931798977	14	-0.08067974228305463	-0.08552756136419383	-0.25437513306470233
Si	38.136370755840666	11.119553265849813	13.463126716144368	14	0.06548862360949173	0.043683079389315864	-0.22208796378587886
Si	31.068535518163095	6.300813350278095	15.078406286933474	14	-0.02108100674095813	0.06428817453551458	0.06187056420297934
Si	35.27382758812586	6.678049498551329	11.138448891487553	14	-0.23622004417807274	0.06656951628608197	-0.14054407300472244
Si	38.158307565115884	1.5805622568790312	22.29437025913467	14	0.26819636682369036	-0.08247026002800575	-0.12915921864710675
Si	31.457679284222078	8.687705243434833	15.222561994260259	14	-0.1281513453616087	0.26714375630562176	0.08793180194906429
Si	38.12317264117482	-3.648542565071816	16.571709337257634	14	0.25257175979315055	-0.03275305356283436	0.00764929543797255
Si	35.38156606306346	7.901885991581382	14.83179855635557	14	0.11568431277474266	-0.056142141549689425	-0.1539356750647137
Si	38.51899161698414	9.97715236655024	19.10973020641558	14	-0.041021728272430585	0.32846461819115347	-0.4131557989947031
Si	41.98384963818747	12.142096810880943	8.649478367578	14	0.014337511707273749	-0.17046839649432988	-0.05497023174476593
Si	30.82869470777371	-3.0631974180192585	9.959268831105263	14	-0.6528419502548675	0.288765466495407	0.30619293257643476
Si	35.9842952512102	8.091348293055168	18.427226038543974	14	-0.22888853735767048	-0.15186696372412253	-0.07156851636004588
Si	31.61400300147159	3.6440798696425523	24.899785198863277	14	0.13760452829219713	-0.07742729405306731	-0.17357557727372883
Si	30.765571723323976	12.071081815688594	21.00046862902198	14	0.05868265071652774	0.1889065640767078	0.12427077610190919
Si	27.409564166121168	-1.343030584308093	9.471118733972471	14	-0.19265934940199594	-0.0634080851844279	0.06900358169266615
Si	29.236346021902236	11.70311497241706	10.046267645523159	14	-0.29000576770184644	-0.19506461842899447	0.06633940235992872
Si	30.7478126520451	0.8023402322169035	21.480184641215065	14	-0.17369024857100746	-0.03363494268764516	-0.1448339622313895
Si	38.50693005667716	1.6224100573575524	24.586436834586742	14	-0.12436899232513884	0.1808967996728505	0.04827327371737623
Si	30.961840249459783	-2.390722441637121	15.502802890354046	14	0.321025382057837	-0.04615673981783033	0.04162645224372941
Si	26.123095994560195	11.634895507902785	17.722141450643488	14	-0.2592460920937229	0.31407671281960475	-0.054975631065938245
Si	41.024922021211296	-1.3450449385752468	18.20757462604522	14	-0.021858766100302924	-0.16227608361274207	0.013273331215264458
Si	41.30658115372407	10.568466880516434	11.675983421893536	14	0.03429648808651925	0.06827210222908402	-0.03932351320847278
Si	30.870332884393537	5.511441956631591	21.699459385842726	14	0.0005630720651124293	-0.04508895977837283	-0.1854684820426058
Si	27.622094918169854	9.557257763032435	20.473375987077276	14	-0.02648984100295364	0.20981427831908792	-0.13724894442642066
Si	42.16106368310513	7.357499381294286	14.653922886133909	14	-0.16626926728546404	-0.12015443648435212	0.19719786451312132
Si	36.26575458598265	10.405251778912302	18.42974643790751	14	0.23848467374405916	-0.2987853210385561	-0.06459105074222803
Si	39.67670979714607	8.77464018808328	17.36564004983077	14	-0.46090173901091697	-0.5328433227529162	-0.1064285907327416
Si	35.6334389554047	3.141850582562832	19.372506814781783	14	0.04784852711848777	0.23737215647203114	0.18980053739652328
Si	26.873798337022933	8.464450920864746	9.158505690887766	14	-0.013877026744435228	-0.10556701333995998	0.17217432487424814
Si	26.928388975349197	9.323314261355264	11.330257997566893	14	0.06096219269337103	-0.04439321867874077	-0.106661532874747
Si	38.82037176907827	12.234637556063106	18.716729688893874	14	-0.03952611630770045	0.03252679629466133	-0.07025596709411029
Si	32.862878081811004	0.2541984070236411	10.854424939818868	14	0.03303458959539058	0.05699214896853038	0.25859431689506535
Si	36.63066059337995	1.1178961977553283	9.5686609734082	14	-0.07689687502552077	0.11345773556749443	0.0464513884875193
Si	40.84388889161802	9.203530602974643	15.245848257125838	14	-0.03189661838069304	0.15365413903215747	0.034594736303656434
Si	41.20417989875123	3.404527292058876	7.590905721833549	14	0.04151255227804686	-0.1572207763322669	0.12860385989795475
Si	36.42302979902828	4.801100395399755	10.377116326627991	14	-0.16277796337123498	-0.0656899411560593	0.26990666608265285
Si	33.42100324327465	-4.7500569858073565	17.598252112467943	14	-0.02501479788078469	-0.08166781805758755	-0.2761667933161494
Si	28.994654625885307	10.801886322546865	24.13813819821567	14	-0.09952543005867602	0.010667773083826394	-0.02249819999342375
Si	31.361008293949055	1.3568706720411958	9.299600562340315	14	0.11245757559795683	-0.18603001144452613	0.18505144875967774
Si	42.16400169249965	10.317180279904987	21.804990259518437	14	0.03622198886077815	-0.0676046432879736	-0.07545577049357775
Si	39.005654694869314	7.622496692413546	11.96675791688678	14	-0.24261515444087706	0.3083804289828167	0.3002120273807063
Si	40.38041709078746	8.777836951928391	5.982540463008607	14	0.037014917741511826	0.21395915720569864	0.01887448415520705
Si	34.060346186178094	4.935336636225605	19.40461038120375	14	0.08650201028052996	0.014331855275569422	0.14403589114001553
Si	42.25536494116306	-3.8032515235348123	12.077784866107669	14	0.052531538348605473	-0.0090513191690493	-0.11656311657316927
Si	39.742436702965534	1.3156435547067815	12.277772578048932	14	0.022917290160607888	0.20772345547274354	0.020910799568764328
Si	27.441047049399025	6.495987901901339	16.108832016588842	14	-0.10780747451593702	-0.1968921600905557	-0.23281641495526073
Si	36.98950224805264	6.3076375894904775	15.330608354240317	14	0.11552130469744527	0.11333175140680718	0.05392147788467753
Si	33.09677736595549	12.763441580291692	10.097427330849676	14	1.8471540529433441	-3.2404272841735	-1.0857091281864857
Si	35.88703633152099	6.740782713638803	22.28177153768978	14	-0.3055776670733233	0.2709387077581603	-0.07273451262273303
Si	31.41925097293853	0.013702522075834021	23.617416156351645	14	0.014659156982824271	0.22451611565022667	0.10768971789227422
Si	30.599719946622187	-3.6429203876741423	13.480813729221815	14	-0.07888639632225135	-0.08051364887937305	0.5936139680999364
Si	33.854646224087375	3.736920311435194	7.912847026630212	14	-0.3009779596555784	-0.16879589248357355	-0.10771645738760376
Si	31.092309811574697	5.681048948239545	17.316221225143266	14	-0.289997797275354	-0.0834693915554153	0.09884408714883677
Si	39.965116197610605	-0.27967753197354256	8.64156834228503	14	0.22445055246456289	-0.09071528056865662	-0.040373809731753266
Si	27.140762509503862	3.690660583805687	12.256538336237616	14	-0.2815751133570809	0.2379136312524543	-0.12497834428601395
Si	32.677013777349366	9.512164068116924	17.114831653646974	14	0.1917936582407021	-0.06725651562762554	-0.09455368370110567
Si	29.062476132605337	10.183527055436135	11.817884035052945	14	0.07583423719670356	0.0011184308142644143	-0.1780667840469635
Si	30.30345428914295	3.7279490653575773	18.37420102841234	14	0.174533828226548	0.05226311495318202	0.1323864700449566
Si	26.35915866243387	6.046913002178537	21.529442972635756	14	-0.2704735948057455	0.49066459708641913	0.5021109008611864
Si	27.446176283191487	1.0993952545390386	22.887173430034885	14	-0.01582309636125531	0.10912053800293663	0.4092040101176355
Si	31.92326370050356	4.12274284948297	20.118731722637694	14	0.4247915932315653	-0.24789800454218533	-0.03600421624016161
Si	28.634730460504823	-0.392853125746061	11.206925472766011	14	-0.4151466058440938	-0.11082980881977109	0.13088674431171424
Si	39.07006817619915	1.606645688109079	14.518682743547275	14	-0.24027364882581823	0.17487424257093565	-0.24582492232254993
Si	34.27383170939569	2.205033369619858	22.48843282169499	14	0.020148723951872435	0.005680600094335166	-0.14886416982072162
Si	41.44061268375041	7.024505331010614	8.93174671943011	14	0.1932630449311667	0.2286584234315172	-0.04921584092774252
Si	28.261503368529144	3.062429343099507	19.509183208337763	14	-0.026017014734578413	0.406660672734945	-0.12478165472902261
Si	42.577885986943926	-0.25583773110609714	19.559859776177444	14	0.2024945985831584	0.13129889249453397	-0.06517469164990164
Si	32.63999551405282	2.00774947791849	20.793689431596256	14	0.17090059929864676	0.31528873186752254	-0.055145324017068016
Si	32.335726483156044	7.195890850044689	22.470536184758846	14	0.3247840809253615	-0.13680208632177893	-0.07491918081326286
Si	37.34297556671904	3.3641255686680758	17.821855262240394	14	-0.035507221581776986	0.14455936818319767	0.13338920111981437
Si	29.5340119012501	1.7154797752456423	10.712137832669987	14	0.12449883314380633	0.01910356963923224	0.24457870757387415
Si	34.02022614484742	2.1407050479826215	11.68840527320765	14	-0.2360593500955635	-0.004611277391685579	0.04357766407118979
Si	33.76786030890097	-2.3812860926230233	20.115721655041735	14	-0.002588331725793071	-0.011073493503345761	0.09628455180262936
Si	28.921823436479727	11.240951683016949	13.916701978083541	14	-0.09864174116014114	0.19670395518112088	-0.18534764009255883
Si	38.35041473011931	9.670379313153884	21.475587655501325	14	0.02736607369606011	0.10649492525000143	-0.08471509208302705
Si	30.696045385065645	2.0365547439387894	16.775503032383345	14	0.0009708493688879145	0.17143667475789762	-0.07637416931393466
Si	30.629761665871513	2.1954365273389462	12.789307199231063	14	-0.1270575971584177	-0.015812811939974716	-0.17710339088350402
Si	34.65299868992988	-3.3697526591249383	16.11008812205462	14	-0.19112799907331574	0.0563969380869161	-0.2940205486592577
Si	41.37725714783243	7.714266087303164	18.54877676054594	14	-0.1257866997986685	0.06654431945394453	0.02512818362540322
Si	42.29196723211499	5.682318155196492	17.69593355524734	14	0.12532261528838176	0.12483539083021371	-0.05143187660317814
Si	23.561901862898	8.742094446334383	8.358571219986674	14	0.06809675284624994	-0.28317871174525727	-0.09242712249081121
Si	38.26094792230255	-0.5698804744145628	14.64127503409714	14	0.061465358004524004	0.12079001371949273	-0.054501519244902936
Si	29.74277761227425	10.4615750894456	19.69650996675109	14	0.027682576760970336	0.029990400896335253	0.221708725751157
Si	34.0727745882378	6.058481618880305	7.441237562097625	14	0.195577553940364	0.03396275861596404	-0.1140004959005777
Si	35.67923521778412	-2.4902495569848755	12.201035506588747	14	-0.17358071948436912	0.013174857881502786	0.3173463874552371
Si	40.61379886603079	5.584304262078697	14.450545163352803	14	-0.08521517206779584	0.013299813600061982	-0.08270783015958742
Si	41.6742990686634	11.378536992522742	15.501320784165612	14	-0.12213804423884636	0.41523299498285077	0.05900352466048222
Si	27.912140642716857	-1.8611519801751792	19.913229920600898	14	-0.08539077856116195	-0.13537795108494888	0.15655357450168847
Si	30.03108902692782	6.591191525163494	11.006336729917392	14	-0.09436676434433092	-0.038226165457833576	0.06737272958809622
Si	40.76444963760434	7.041791110921027	20.745322001575023	14	-0.10548473796971523	0.04602149967799054	0.3260130692683922
Si	30.616871436248122	-2.1886712448368226	24.01574898077892	14	0.09431379957473586	0.3369027287413474	-0.8570324499071955
Si	40.8013811035219	-1.975834245432073	12.028330012319449	14	0.055738735124958194	0.06964378691738303	-0.07663333673020559
Si	37.7948934900254	5.331550294456381	8.449600380625272	14	0.33210993131405936	-0.16114299749815278	-0.011039040692055777
Si	41.665794563208664	-0.8539257160063974	15.9300343289262	14	0.20133734407855974	-0.4514961215287512	-0.2821024470582433
Si	31.451343075555723	-3.533899604288428	17.508284172613994	14	0.06912776607962931	-0.12201668806773537	-0.00016969295112977324
Si	36.63614520512035	-0.5542880622376756	13.005146077799791	14	-0.18944263953595866	0.1925230808200281	-0.08534038489688706
Si	27.912106251302536	3.254862407695745	9.998108201674222	14	-0.3378434961779896	-0.11911879526139647	0.22562349071161444
Si	40.40420776106303	2.2978754490988957	21.905883205320507	14	0.05254336543307816	0.062331049165817866	-0.1487800946767528
Si	37.83602562154885	7.725148513404983	8.674349910874964	14	0.2915142351931773	0.32876080952403447	-0.22751505289564738
Si	29.36964550610954	12.656900254109614	22.745371078059236	14	-0.1595697381527542	-0.01741358211229891	0.08682288422448445
Si	31.53947680664609	-0.05442195662746986	12.754288551024112	14	0.21471917593833442	0.0482953852231295	-0.04245126283043292
Si	36.775086518962084	8.762439424432634	23.06582045054909	14	-0.0379885953262519	-0.2675636178044019	-0.11368553549885956
Si	32.819174782645746	13.096399601474651	7.563250111663284	14	-0.02273191346702521	0.21511358349444515	0.18170052719592877
Si	36.97249487482955	8.264369860798908	10.799668895166603	14	0.14316814309446554	-0.10070993827966825	-0.12897641305884422
Si	28.185537647361503	4.962941478117592	8.346226339933173	14	0.056721668688850806	0.000331929696831117	0.2209157968704233
Si	39.388382005628536	3.7037948287020885	25.272655275204613	14	0.13810435116643394	-0.06393824710144243	0.21664159138620914
Si	34.27198439914093	-1.6764242300724033	10.462054931559644	14	0.3987349834750566	0.36322210546157524	0.09386771280169018
Si	41.7122049579866	0.1576158518160026	11.90253440717889	14	0.053673109110751224	-0.05305141584433942	-0.02185259544753457
Si	28.886891585651764	-1.6383660359143652	16.372324293910122	14	0.09315911617545736	-0.050299047599120905	-0.2575339930610363
Si	35.532696676751065	10.687926276990636	7.323794157576975	14	-0.020509707138821227	-0.2703537812978266	-0.27853169598962163
Si	38.05557713517744	-0.744189263665605	22.025879762932615	14	0.0686310285317767	-0.12588003092178987	-0.012965055687378702
Si	29.49531992245679	0.21147444432322784	17.69928917467287	14	-0.14588734408105414	0.024385134187880426	-0.1971022193952118
Si	31.49362977598839	8.97653744236235	19.076467158025206	14	0.012261344161254174	0.02007956121876045	0.3626554338490146
Si	32.54258428952878	8.722119585361638	13.130589580365195	14	0.18359466048528186	-0.026894532980344953	-0.09013935297694345
Si	36.0658864251483	10.168147542490734	14.37350839528214	14	0.06686519339789901	-0.05218238224612937	0.19992812125258658
Si	27.190692292346938	-3.565760793123775	10.162476234501181	14	-0.1816146522782358	0.2788296870962268	-0.13471897679139494
Si	35.74906616571212	10.31132227566628	11.074811673509455	14	-0.055458998866126076	0.030050050539762688	0.21084220622608313
Si	29.879811021464565	4.056260970234914	23.244737689318647	14	-0.02382643300181225	-0.033375518160842214	-0.0879819385028072
Si	28.368346029008098	8.39349652006905	17.094430994211255	14	-0.16237275717277963	-0.010489595485140134	-0.26071650722631556
Si	39.25809095133079	1.9837950390033208	18.267979051077496	14	-0.02955382721297411	0.0926649497329249	-0.1100661905396871
Si	32.87059322242285	5.099262493725626	14.04222245190956	14	0.013185913634379424	-0.10112697156259627	0.14035278276890342
Si	29.951615381499817	7.325341771221251	18.486909881561985	14	0.37675820364055884	0.09804961560491102	-0.11102521282410234
Si	34.1818412268426	-6.093716441691536	12.861679836445747	14	0.13485087449431854	-0.1719431825059668	-0.017324107647157756
Si	37.27276467554715	-4.11631656806483	7.593770035340258	14	0.04019537502253499	0.0824432634221442	0.04881012050822314
Si	40.43364353634581	2.3935212476879877	16.295231844501995	14	0.029993486222719433	0.08093351037815325	0.09809075329003339
Si	27.949727183192827	-3.250760003273615	17.909957877289234	14	0.12116950886474659	-0.33046545235129265	-0.06646127275210373
Si	32.331036149317725	3.733676054684599	12.205886333693877	14	0.13364451187810505	-0.055976819477603905	0.17455542551123726
Si	37.84807735573745	7.26967353524638	17.27303707256556	14	0.2792166384469091	-0.10365462520283383	-0.035324930214578484
Si	33.97182596109826	4.023559648278388	15.843330298059595	14	0.06443729864408318	0.6314315849223984	-0.11690867312819717
Si	41.846056342509385	0.45360965335349096	21.702299134053494	14	-0.03908645729795513	-0.09834246450087589	-0.03746306139881363
Si	33.19956839029058	8.466866508298933	20.669608484112377	14	0.23551581843088415	-0.08362777164313642	0.012236147329116723
Si	29.56201470093633	2.929350946555671	14.801897678136308	14	-0.22661516603359555	-0.1326137557552577	-0.0620849943866797
Si	35.29631793540295	-1.1859060384109084	16.823917955310066	14	0.007531795924841783	-0.11365648200874187	0.07567662844057849
Si	33.41727423135082	5.718021356316996	17.326857998285675	14	0.00011569973940666355	-0.1328065886542688	0.12314771729806852
Si	35.276983409811066	1.2961829272624004	13.558801993088588	14	0.6066389305412745	-0.37235621422193327	0.36771074112948976
Si	30.01538033901681	-0.7353146410853558	19.812918353469428	14	0.13347276204271916	-0.08322899320798147	0.12219383722429358
Si	37.108958369154045	12.155737100873727	11.578598400351826	14	-0.12632740324749567	-0.11540611917910264	0.06786766736222474
Si	33.52023557507111	6.839459869747002	9.608672927436738	14	0.09032035879148187	0.0639863267709292	0.06746554649015357
H	30.09009814315065	7.4756797446931635	20.78154271159668	1	-0.30777956166949816	-0.2657201352898558	-0.12820276746801165
H	30.46776008988686	-1.5733335091268226	22.414212874225548	1	0.37402434735364537	-0.3079047744985893	0.048385888130398715
H	32.44565290711878	13.945273054949203	10.5225510670301	1	-1.4732832005773115	2.9807818994235578	0.6657926077524533
H	33.129850442723914	2.73902230897837	10.363286065013266	1	-0.010791443249725518	0.08665627659973885	-0.20787669334982434
H	32.446854968933486	0.572150307759502	17.577620539250383	1	0.22770917134731858	0.3802428226809555	-0.026967552371437154
