229
config_type=amorph dft_energy=-23294.436335690218 dft_virial="-40.77652787518147 5.901019609697004 12.646190525958291 5.901019609697003 -36.366842240414705 -8.638481703841185 12.646190525958291 -8.638481703841185 -27.72434076844702" pbc="T T T" Lattice="16.340121223214705 0.0998081552515872 -0.0660648938575912 0.09967743075224002 16.40826136849943 0.0226807006367392 -0.0660648938575912 0.022713381761576 16.3301698207019" Properties=species:S:1:pos:R:3:Z:I:1:dft_force:R:3
Si	33.9033825651339	1.4672959001915027	23.85498083975644	14	0.33779901605595103	-0.580168372828222	0.18966298326189537
Si	32.53339634820021	12.642866353077716	23.20705302902325	14	-0.061535034958700024	-0.16235553076713463	-0.23671215373634913
Si	37.419221243189334	0.260182605106974	20.361427420727225	14	0.32485478632166553	-0.03790606284547514	0.36742097755990905
Si	38.16613201077198	1.5348379808917172	11.698107323845568	14	0.3033989124250298	-0.3781165185811931	0.578346487598365
Si	26.990005978763538	10.832604924511383	18.85248759721243	14	0.39477933794000875	0.2967402638669103	0.5748307581835945
Si	27.368464842767377	11.399576686855092	24.186852760305417	14	-0.008709362161469603	0.5382534425675719	0.16759441496746835
Si	33.02031406119994	13.518970509308957	13.063531255752038	14	0.2129877936157467	0.45398083771014236	-0.13994192013874374
Si	27.5742186685149	3.452847443988738	14.670640276107855	14	0.3125998699237117	-0.09316477260716167	-0.17972720386271512
Si	40.88441561614142	13.052489937725925	21.762597966980188	14	-0.19648412567624823	-0.3726315796017212	-0.1566373925351253
Si	31.2023039379348	10.061637580936369	12.083744596919807	14	0.13667378816630352	0.19180214288825856	0.13246257476243298
Si	42.638025948859394	2.8300497841988075	16.578373159499943	14	-0.4637469241581928	0.420099840243359	-0.14082355215302253
Si	42.65622933539349	6.878561384081722	24.121800981317765	14	-0.5314222728424706	-0.09657997180391437	0.17848510288255157
Si	35.19822016956161	0.6243696218945805	19.664131502815568	14	-0.060587325537693436	0.0007129675052770623	-0.18465652698250304
Si	40.02483340257142	10.864737006450925	13.508625299241869	14	-0.12868382127341135	0.017603072574393825	-0.15248351477989405
Si	39.8545614740592	4.804728317762839	11.68232887677436	14	0.09923566648909533	-0.17185499359348574	0.07724217447001665
Si	31.417543460166208	11.102340222408154	24.61962275161929	14	-0.11236244470111136	0.07135691439219768	-0.05977151381961046
Si	26.83369706083785	8.696797007108234	12.833242075533287	14	0.03633100372635243	0.07619624882578041	-0.042069196579858914
Si	41.58873143966802	6.0716202923426	12.509499584787461	14	-0.0004766829263554538	-0.3378203562301083	0.09262612604259067
Si	30.48796154530827	-0.43447921414283763	12.460198473914906	14	-0.08835834832167686	-0.01759561636896539	0.19165019056383778
Si	37.25254587246541	4.239746835921692	14.540644565844515	14	-0.03845267983653863	-0.08294180074372091	-0.24552873098966888
Si	38.794759983232794	7.372154216829364	13.914134330273125	14	0.04719315237238202	0.1489004224057357	0.09482879197036154
Si	36.525412087577756	4.369389590036794	22.180994799590838	14	0.5351151514137992	0.060852149385668686	-0.10776325150443047
Si	34.391017628823796	-0.6619692560193188	22.89649246998035	14	0.22163982012857703	0.01740406902261436	0.0174655184397659
Si	34.35725149064242	1.8493317133087273	15.984426396715941	14	-0.42957924844821305	-0.05917990248544438	0.079002096061658
Si	40.501567677071996	12.226173841127306	9.999595733546188	14	-0.11996468891172518	-0.007573447831028182	-0.06183585428115734
Si	37.28469266091113	-2.1146060376652747	20.52555529777012	14	0.6253385795347115	-0.05354301118155174	0.04853809756535148
Si	35.29697926070594	12.975929500626997	20.326120367509787	14	1.163673011919868	0.5332292456614706	0.29254910508453696
Si	38.99153957210014	1.1954346951240982	18.84419312772885	14	-0.21838557212486562	-0.005747191722127001	0.3016014526957143
Si	40.843989064718286	6.253698277202107	16.817231330650905	14	-0.07804847309841507	-0.01150595341819467	-0.039663927552860384
Si	34.383236253000156	11.687186925981349	22.18244584153359	14	-0.07025313887825813	0.1473325623815094	0.1164263337701374
Si	37.89066117546635	5.59610012162971	12.689007199178553	14	0.24205002549150853	-0.06953580049393682	-0.025820325177587082
Si	35.49439613150759	0.8270857370885253	25.52370031665459	14	-0.08647784189052056	-0.5421592086594089	-0.1992516634428556
Si	35.34347469701125	4.328905846645208	10.291403863157733	14	0.11512946824665472	0.3138414566828112	0.11642941909652159
Si	42.90819100354777	6.065209889705862	20.142133804959816	14	-1.2445846679027999	-1.0017949354106848	-0.3266054519341543
Si	34.85775147912431	8.944737262851342	17.53907894359621	14	0.07467209759199663	0.0550946732422611	0.13421632570130598
Si	29.11014002869496	3.562806356614635	22.183697528614843	14	0.028748042805639702	0.2238743677623177	0.2033505195442357
Si	37.68037774581644	0.23573875778528944	17.12690459715449	14	0.003212596097525025	0.06437482078480358	-0.1657460473528139
Si	38.72003132318096	13.897421203031586	10.149242604173896	14	-0.06909845547897962	-0.33396112714456605	-0.03814466141918488
Si	27.539990092417078	-1.409527109873733	22.52008107844754	14	-1.0815254256095408	0.5333274618847003	0.21978399630849416
Si	32.665388875191084	10.427625327702483	10.23761073167636	14	-0.22794288482092	0.14651572222129836	-0.44605412000812583
Si	34.239494861630455	-1.4550045291403821	14.357113904986013	14	-0.5413981614846449	-0.03881314880242339	-0.21657705664267343
Si	38.02926345995546	7.179850308008423	19.382575442065328	14	-0.13654780400561625	0.20010886995659297	0.1895071742794944
Si	34.753572223425806	8.17189729082318	20.938572817232632	14	0.2156699706857252	-0.1786869346501832	0.1938101761432942
Si	27.11587242890375	-2.6014992398213725	14.657646260872744	14	-0.09073687785334585	-0.11677986075165776	-0.22113665481742403
Si	31.825121206399633	-1.2523341675212087	20.047252329277374	14	0.4482030498347056	0.12615745318583385	0.021543291477520755
Si	39.34443852836911	-0.3281756853299364	10.773610592012234	14	-0.11472914714830766	-0.016507010376414697	-0.4497613967692473
Si	28.380234884421142	9.475702595906107	22.50750864972282	14	0.27333754902185853	0.2978651224444751	0.13294439989942874
Si	30.220928976435502	12.880582318915632	18.07119628630147	14	0.045019282824196816	-0.07918901541843278	0.20393647444669744
Si	29.107693846500922	7.7170871489193695	21.02572030472244	14	1.8209745443525323	0.8763450504089558	-0.09078727151762075
Si	33.274395100299884	3.401274994940026	17.378529649722946	14	0.027551707500174803	-0.24288049250991633	-0.3921385556656846
Si	36.55485287888699	-0.5244340102561296	23.894002102811577	14	-0.33785660881512236	0.23247831460566123	0.07784072778854713
Si	26.708165592227218	3.3405534649932513	8.977869387210891	14	-0.08768317606460599	-0.09124878492258734	0.031254099161188036
Si	27.521566108290333	1.3289027749013476	13.65125063019839	14	-0.10396367206231563	0.04573456432426202	-0.13824859017489421
Si	40.440022582779335	0.1776300837692172	23.187986860793465	14	-0.13922483886495443	0.12583426524709124	-0.10889968005593592
Si	36.59443462323307	5.565696871194035	16.34007383558369	14	-0.1583212094092903	0.023632057439609055	0.043945075021438955
Si	32.098672025621106	6.539323137994529	10.988812530950078	14	-0.26678354445026903	-0.1544984900192941	-0.21406071586584452
Si	32.86293483643585	0.3699585034337852	15.001144491582414	14	0.12162382317481675	0.16083189375441487	0.08582555247079901
Si	28.576097767736808	7.093493703739663	12.979877380507281	14	-0.16849353049792412	-0.23069628150826663	-0.005548445280879554
Si	34.41869690750432	8.248171768079787	13.782112390269905	14	0.19338620087600178	0.04005087890354267	-0.005073562128248205
Si	42.16546668805672	1.613194245800429	10.031912463841058	14	-0.17570419536827944	0.18912767913424053	-0.14308483928209276
Si	40.659442020877364	5.044310375828936	20.41923706245104	14	0.018663139297890877	-0.15806769842472368	0.15413005062691693
Si	27.568929228460064	2.581759840419945	18.68764890570434	14	-0.08564146132987639	0.1897000071785055	0.032588502822344885
Si	34.19749798215893	2.760943911675152	19.517234748842878	14	-0.03276153821039085	-0.012367273700444274	0.05360523193029931
Si	38.460031732373075	13.2551602993451	22.384603109492826	14	-0.07968883829266957	0.02584115113068028	-0.04150406763049037
Si	29.27135438345865	8.245786045966701	9.503095914744312	14	0.0613977379346041	0.3112888633209682	-0.14171161193060167
Si	28.38280198677707	0.2033092776097328	24.153114401080146	14	-0.05091277043904025	0.2941601596781417	0.1503782937437568
Si	34.4078271653836	12.052485101013408	9.952843750410903	14	-0.0059575081373151135	-0.3103776635955078	-0.09715975605360777
Si	40.31853703742349	-0.3819034545616356	14.73126539673636	14	-0.351480638796055	0.13524039695032097	0.12657062981078165
Si	39.76716724407687	13.858212023508635	15.341667105875693	14	0.01408991426494349	-0.2549639161830163	0.26706559470388924
Si	37.524408711589054	6.445755443530529	22.91781526988012	14	-0.2669954035286492	0.11133991611528844	0.268606201011722
Si	30.293840565946404	9.179033148975089	23.952648381331215	14	-0.09568188471558665	0.26167810061605096	0.17952254387923133
Si	36.38280963340862	12.679121158915422	16.961283192706553	14	-0.12880029234441406	-0.025020968533553047	0.024156305814387248
Si	24.722759479435506	-2.321573967200487	19.600241537815865	14	-0.18247648678154946	-0.11388119661372281	-0.0938422588590207
Si	27.403188537906473	-0.34400152003215684	15.333607940490937	14	0.10144810261708274	-0.05162625216538134	0.2718892453950191
Si	39.37241030311693	6.931374081817991	21.3124792005467	14	-0.15578275712670808	-0.01796482709293866	-0.21676037645199997
Si	41.32617455084164	8.124490051134918	11.39317282044332	14	0.08134951521895321	-0.2345346846407157	0.24641447677245987
Si	29.250497289587805	6.655202236384612	15.205019152651824	14	0.2097266036276709	0.32578398378436707	-0.1194044450624649
Si	41.62805010095917	-1.8811092050437896	23.392843589664217	14	-0.30032412757266475	0.9992899074972644	0.8809668693324539
Si	29.96012542995663	11.313906386207904	16.316661077750606	14	-0.31696020743615083	-0.027471746124718192	0.037381557360164935
Si	38.37613601680453	12.465631710919025	13.943620875157128	14	0.06336180528866522	0.17739546844787282	-0.17306572708874346
Si	31.329917194197538	7.629872665123643	15.617788295565575	14	-0.08493389314577166	-0.022846070543239786	0.2641520181550974
Si	35.43770581830944	8.059719329820865	11.622288748280432	14	-0.18912099426040815	0.007111420204997572	-0.14588554430733008
Si	38.32230857014208	2.960177853017736	22.734606518101263	14	0.12301993336365716	-0.05722586244213184	0.02979576822360004
Si	31.85316161150961	9.97796573107295	15.859658032370247	14	0.07439956042806094	0.11865933874068603	-0.055765988841351755
Si	38.007827910175	-2.062894693836006	16.90074794517135	14	0.4645215981911534	0.022287883578235638	0.4366801271213979
Si	35.843149487091026	9.2315468144191	15.419235755675839	14	0.11317954197185441	-0.11855803719107218	0.08497168839397781
Si	38.27169858021981	11.540366972652027	18.238087352449316	14	0.08257490401453577	0.11689427493840436	-0.2248411033626934
Si	42.365566679207475	13.12609926925209	8.914525196995962	14	0.15779001905014767	-0.31822056326408743	0.16758747298310395
Si	31.018734059726498	-1.5575350220908748	10.479083392814267	14	-0.7037742610943409	0.21439393111533572	0.21790297565627378
Si	36.31989193187281	8.822098073788768	19.37703435734925	14	-0.29491889285811745	-0.09991880917265868	0.02882491885471213
Si	31.72151550444201	4.976635936573133	25.532985024220725	14	0.03518017698505415	-0.22091039754925101	-0.10125758371285977
Si	31.108188834629786	13.486511616121048	21.525994793442965	14	0.36852423885278457	-0.22262481057672573	-0.09772565633457236
Si	27.511238872841904	-0.06278207486773464	9.94764581750561	14	-0.2115999109639308	-0.09239292679005323	-0.0297307192590003
Si	29.521293089985527	13.160940616440604	10.641327203010318	14	-0.369364733181941	-0.164427841655174	0.04904126287650446
Si	30.879293504385323	2.056847051684956	21.971185246251064	14	-0.13733790467049778	-0.26130040524452125	-0.048188941462875376
Si	38.655919126532375	2.9583852933204375	25.02219538358396	14	0.20557092609871555	0.07688916170956032	-0.08084557857620418
Si	31.238851239839796	-1.039535925315111	16.013703782400988	14	0.3383284066413695	0.0974988848453353	-0.22888313803649818
Si	26.423838172090814	13.058464047346092	18.203852240126526	14	-0.22673935042055873	-0.08431914186372423	-0.08863474214359279
Si	41.08756802435193	0.07012225550607992	18.67238518634931	14	0.07979862448983989	-0.15412182308989242	0.05978668334099933
Si	41.57499883101159	11.925592463553322	12.078058081198202	14	-0.07027396483135133	0.051714955298926446	-0.044383705589056216
Si	30.82575855379016	6.5408035929496355	22.120872968284818	14	0.010175663525550051	-0.15860865898408283	-0.24653891826995505
Si	28.159908545108888	11.167472070151653	20.883508389995107	14	0.19872638662594935	0.013026505104530243	-0.2914232180648441
Si	42.45762123759153	8.770368755340838	14.973365535471132	14	-0.05950026220833483	-0.07579875594328551	-0.021984493150458168
Si	36.9651055751883	10.944505095952586	20.042993978711138	14	-0.26120116057916354	-0.10316071587083338	0.3119681493465513
Si	39.968022169211366	10.016187940625832	17.499892640860644	14	-0.6618603592758189	0.42549761875247794	-0.15272417023785992
Si	35.74781537782959	4.475782991942996	19.957423355494704	14	-0.34225242758097957	0.12471197777484659	0.20927254642813273
Si	27.468346530549844	9.767997674277721	9.603026624214039	14	-0.16456616712139796	-0.05992526591775531	0.053369718682973744
Si	27.277630924395975	10.666756386245831	11.758173597239363	14	0.27989746713568425	0.0779325162484764	-0.1702763349269148
Si	38.97908642948107	13.645482411664693	18.962167086220973	14	0.014734747479236624	-0.1990601160965046	-0.020553930150327776
Si	33.084663196003596	1.6554901575642154	11.374306007075036	14	0.04603666919937941	0.24638439484021418	0.30046528125474087
Si	36.87174213775453	2.5336025689166783	9.998464966626836	14	-0.2215405754632193	0.04157143058987825	-0.26016371958248374
Si	41.16453697551132	10.611071017636409	15.560692736419442	14	0.3516583021736773	0.029505490432955327	-0.4035259811286205
Si	41.453029605008176	4.864373004646241	7.922612206793037	14	-0.11347701885739553	-0.11399458235834134	0.03307675572264101
Si	36.60193330732688	6.201166637139433	10.815837873413862	14	0.07578024398498044	-0.04020694499647566	0.08335754847398887
Si	34.107801366931845	-3.7571724444127774	18.195343709275267	14	-0.1507858139370003	-0.35096127552138506	-0.1418352820965008
Si	29.4540042880028	12.346803141012419	24.785868365551607	14	0.03306081486965609	-0.2159517638288134	0.131525149762707
Si	31.574778887981022	2.7089139268787243	9.832266740325531	14	-0.07383391725762835	-0.10457533801797887	0.11291831767132737
Si	43.2775890256906	12.843312764151745	22.114949514408146	14	0.7062705472496726	-0.9963310794948381	-0.09271020118655951
Si	39.26394655195231	8.995376665785964	12.305175558251545	14	-0.17436799193339844	0.3673893529644712	0.6290620542593499
Si	40.397443979285704	10.654991181304585	6.250541280542871	14	0.1573148787869843	-0.03942661453181072	-0.305086071736111
Si	34.0468036814802	6.146757466454887	20.064972035163887	14	0.2088442002817961	0.08441247298684561	-0.000746648984971002
Si	42.409864309867515	-2.384756385847473	12.496482692764964	14	-0.06870147681754876	0.055156122659412644	-0.18277216389336648
Si	39.93606329723346	2.750623212451691	12.732239425168913	14	0.03922349721151902	0.2603627231342632	-0.04717669729833308
Si	27.731990066777037	7.893145270583937	16.574938373279593	14	-0.1496141612426088	-0.10587631730997378	-0.270585952108236
Si	37.53556931572082	7.698431128806282	15.848384678357792	14	-0.3164434152668011	-0.03160994013749653	-0.3525692447886057
Si	33.36113734184172	14.1436081164272	10.593919963322056	14	1.6365951825235412	-3.39475685257326	-0.9345785290260537
Si	35.79590565302694	8.054286092816746	23.006428505818864	14	-0.16164770547249788	0.09806684201055602	-0.19649800964497702
Si	31.55788438049664	1.4736866941533389	24.162627876520137	14	-0.0038587148644782373	0.18293260086534374	0.21377275206998791
Si	30.824441504459237	-2.251981145916764	13.976574887386315	14	-0.07049405144675601	-0.06211841875584162	0.6420553921052502
Si	33.981689808355355	5.041411560055912	8.435534290825405	14	-0.2955650116250706	0.35470171954113655	0.13287626560844482
Si	31.280168351914718	7.058291230121704	17.891415784517992	14	-0.2800023682327463	-0.17789863375902581	-0.10245109080247251
Si	40.15780963141987	1.0438220548374573	9.017730555174335	14	0.08748802917080675	-0.024922752310323388	0.17125644027495526
Si	27.380852623136768	5.023051304122598	12.67464384481278	14	-0.272462087660348	0.1808518053297479	-0.18564665964129207
Si	33.18688812043687	10.528377967461854	17.77326534795175	14	-0.05685536616549851	-0.1292926590132224	-0.017215864113179522
Si	29.365909047892725	11.561304135278721	12.360352735369755	14	0.022114848190189672	-0.01927840480100231	-0.21287106543421197
Si	30.385444124807712	5.046918329590913	18.78080154988291	14	0.16145435835242275	-0.08923303835159124	0.21344005104156077
Si	26.761481579285974	7.624859380573678	21.990395211430137	14	-14.879077504825267	4.41686172023939	8.504485433807327
Si	27.554082193446707	2.2938325943827693	23.40583760489933	14	-0.18804524379445817	0.06285555465112806	0.16211513241970077
Si	31.934576829703047	5.247967707418181	20.555646443463605	14	0.18130971918726627	-0.3409511911784525	-0.11268511841878993
Si	28.767999698722257	0.9058227371015856	11.69206131575076	14	-0.23703945544360394	-0.13980642288837192	0.2343004569460502
Si	39.26293670519485	3.101205076969737	14.966594006404948	14	-0.21333386439183866	0.12581215374133797	-0.1302159429336876
Si	34.4059757796616	3.592707951784065	23.028957239225107	14	0.7009946391327287	0.25463918558108156	-0.49288397519877086
Si	41.8724918422885	8.64185676814509	9.162887039249467	14	0.063027818707578	-0.10020471608425914	0.05267577735706579
Si	28.36512476635285	4.405659102380675	20.00846637032106	14	0.1900458208440654	0.5980972044466785	-0.00414230778129057
Si	42.69855792828212	1.1586945745825676	19.961483985255676	14	0.12115511067495374	0.012189867433354058	0.23325016042276972
Si	32.78789243758558	3.2309556787968003	21.327437351384503	14	0.12193929779759892	0.4490700265486595	-0.3602074844737016
Si	32.1690606322946	8.189785304502603	23.005490557536046	14	0.08775233879771796	0.13633517359564	0.14919301419116854
Si	37.460567768276604	5.049158620698475	18.501931877594252	14	-0.035738878171122326	-0.12176806218327706	-0.20419795585775646
Si	29.71562159449011	2.990550056384816	11.196751089892944	14	0.207766135821058	-0.010809698097498568	0.18485733030800658
Si	34.26184875101883	3.526866923631606	12.204192516562076	14	-0.232960911074253	-0.25526319284228155	-0.014166790314015914
Si	34.11317414385502	-1.2093388796859146	20.647488574536222	14	-0.4693663319459085	0.11805795720630337	0.12191975739716579
Si	29.237852962388445	12.576205028691854	14.460427110876347	14	-0.03991615298476691	0.19547213862223795	-0.20261004121203302
Si	38.0563495762202	10.929290398284815	22.117688192669473	14	-0.18249808406623869	0.10009775810294098	-0.15959544920595567
Si	30.84846703338301	3.3487498911023206	17.23697299154859	14	0.2280621841077749	0.2560067565008683	0.02588100326314258
Si	30.79136330395567	3.585603075244545	13.270798217579507	14	-0.1141239089559448	-0.09390345116564024	-0.07584606428117624
Si	34.555933120975254	-1.8986606031373932	16.691735811277596	14	0.3397278592671262	0.4554003449573961	-0.8503177512530968
Si	41.62260542556136	9.3297503264412	19.028635591970296	14	0.568153854777702	-0.16174720724838756	0.3567547471392748
Si	42.53067172188299	7.269790397615539	18.144393835654697	14	0.42007644318494564	-0.35791225875440547	-0.0675041130699558
Si	23.845468998372688	10.122197339315202	8.717513572142282	14	0.17320199567071132	0.10140490804770427	0.057065682580686616
Si	38.457013630494394	0.9194834472833681	15.097740092262542	14	0.06434628151574993	0.12049433660767568	-0.02723931820377681
Si	30.27339362019226	11.84386187250521	20.14800987120547	14	0.08345705024987858	-0.0564005376343643	-0.042102363838488824
Si	34.027634567707175	7.374954989227878	8.018070504328847	14	0.421731720790057	-0.025856577762601172	0.023632314550141066
Si	35.88044028458606	-1.0617721626540697	12.711416646479146	14	-0.024155791593323213	-0.0052581674902348365	0.2663981357627788
Si	40.99744328638948	6.941286266980993	14.608846805266433	14	-0.01035846911381258	0.10054024532853846	-0.08111760151907585
Si	41.88550546619851	12.81825614573937	15.933474889039127	14	-0.15419150004406842	0.36222117416044164	0.2037832365696166
Si	28.097280071527884	-0.5710340261609227	20.366267495315554	14	-0.165869460408181	-0.014658899872292259	-0.6132888373413053
Si	30.31650329196448	7.9358611348018755	11.571601957714797	14	-0.14813860389937583	-0.25067274140368917	0.001268840475493077
Si	41.01241450967723	8.76604667658117	21.278744109433916	14	-0.7979597625136013	0.0046030498546611055	1.0204688733509204
Si	30.74074350969595	-0.6654285530832941	24.617406971355354	14	0.23438838874799925	0.46191578294918334	-0.469201524094887
Si	40.96938490666085	-0.5507521200872046	12.489238921444887	14	0.04498662978663094	0.047164355992796364	0.03826216093231565
Si	38.03205279396028	6.713273327107123	8.945385983179353	14	0.18772179874518358	-0.20478313942862217	0.060392692864958235
Si	41.83776651309316	0.55721317846744	16.4047334410733	14	0.09953185782197639	-0.554992880864928	-0.25321427901265553
Si	32.126147047271395	-2.2413385376136596	17.876506655367447	14	-0.19490958077818954	0.0411399991171574	0.3253890620071923
Si	36.84651230938052	0.8903498585476026	13.459250655838431	14	-0.12311866380795085	0.21674880647805933	-0.16136642655047367
Si	28.100734466423134	4.490000915303246	10.458589059429109	14	-0.19520911454798676	-0.1071181611796053	0.1367079838670615
Si	40.56458669009479	3.7065085306345282	22.331894991356037	14	0.0931146360534188	0.07602989831156683	-0.1688992509174435
Si	38.18671131508171	9.086338040544229	9.214127774881085	14	-0.12037195199443665	0.22836351765129626	-0.40862268320475004
Si	29.715812779070408	14.1499858379391	23.273613041922122	14	1.371001802725969	-1.25861544674538	-0.8469413757466783
Si	31.741009795407162	1.377460390183865	13.257312351415601	14	0.07570671037282421	0.009527744984872737	-0.056292036989854057
Si	36.75751016805622	10.010192588274519	23.862700121442888	14	0.11259692950630885	-0.03144513228647503	-0.21555632783057466
Si	33.109125017943946	14.544933963479346	8.074971610782198	14	-0.09430660047983945	0.2277410530532884	0.1465530032484405
Si	37.171055487684846	9.620378667446136	11.274778909497046	14	0.34369353211292253	-0.11052538994986554	-0.06765529406278051
Si	28.435814039374844	6.16476966840869	8.83242857734968	14	0.19911796596620793	0.23731507793392378	0.20078095688727968
Si	39.54387509268568	5.033617111782335	25.692887231822223	14	0.23039340530155314	0.01928997477494298	0.355230595905491
Si	34.47663073750252	-0.25639322868214703	10.970663068271962	14	0.3800237645076789	0.3746912920736918	0.07042874537162425
Si	41.8871297181029	1.581400413502948	12.337582161639716	14	0.04037535239494536	-0.12583735057347542	-0.058743843023147266
Si	29.145839255410436	-0.31968512909733576	16.892680609505383	14	0.04923255311232347	0.03358634879709436	-0.07274993925465392
Si	35.692059744801774	12.014341326160137	7.932856105373133	14	0.08331795345205857	-0.21538637776891284	0.10135348594130131
Si	38.15377527747118	0.6293093739136627	22.545931848193447	14	-0.028376003865814278	-0.10849858762599282	-0.2861241700000189
Si	29.642115208507178	1.5660566253920702	18.224812279540608	14	-0.012939087523645207	-0.10666667508538731	-0.3130284731805804
Si	31.78444137625903	10.144577373603441	19.63998178561741	14	-0.11468081036828888	0.1954975925649074	0.5551211790204035
Si	32.87909075049892	10.040237980393233	13.751271212761415	14	0.2898052214868749	-0.013406257360316113	-0.0332988992223018
Si	36.32590362478654	11.542182409136709	14.932249412313954	14	-0.12304538730632662	-0.026198791880712877	0.001159054278322754
Si	27.277562294033817	-2.289118342125061	10.572608601815979	14	-0.08754176527199783	0.17559106673419292	0.09159614125133934
Si	35.985449640855414	11.65771998977225	11.601273150954128	14	0.01598173355950844	0.07271574355389596	0.15043948605037635
Si	30.00907031656846	5.162511468138675	23.815047773318355	14	-0.14425623486595224	0.1105001931177281	-0.16452682920999967
Si	28.649373751789643	9.7897191839005	17.561519437965398	14	0.049620275794601806	-0.08966806937176029	-0.1960673495038522
Si	39.37577482491887	3.6411985707606673	18.791860842527683	14	-0.01772699985082496	-0.021038583503175685	0.05837257541491788
Si	33.15284255863813	6.446534888357887	14.615685330638533	14	0.009647815603323652	-0.24507390245853466	0.1256841126963946
Si	30.057819116431276	8.650504193776907	19.080809373716008	14	0.33899226603503174	0.05557829815298095	-0.3789750106475905
Si	34.371103385404496	-4.670809238462843	13.424079229289067	14	0.047135816723742716	-0.25125741075349084	-0.06929000282533067
Si	37.340150895702934	-2.6973513449114646	8.086485171062202	14	0.1421044768235203	-0.01654017763504461	0.16872261598194932
Si	40.5547839867	3.9205355831344897	16.792292364287942	14	0.011331375366956614	0.11837574582387368	0.0627118298637318
Si	28.318666913341094	-1.992404775675512	18.40571210984975	14	0.11837677426600174	-0.008627086791224864	-0.2339361313221852
Si	32.57689655941424	5.072349146882669	12.792969125396896	14	0.08990229706642579	0.08526710839526283	-0.08753713728242157
Si	39.18344477119807	7.831670440709674	17.48801305198247	14	0.19607120616183243	-0.35493671856739806	-0.3761156844210538
Si	34.2364538829644	5.36299873061875	16.41840232153629	14	-0.19962755904066126	0.20481245002927187	0.2076139263861052
Si	41.92419174772407	1.7709770824562574	22.145521072636733	14	-0.011513666734155112	-0.03221980631943565	-0.049125080909941284
Si	33.132611308307915	9.707880745140429	21.483362266093362	14	0.37723077279840206	-0.11368193595141134	-0.11672226799248646
Si	29.707085284682737	4.273552191452878	15.295707640017701	14	-0.073324324183175	-0.24423340812937827	-0.1607059095937276
Si	35.37436653026324	0.2235013105901497	17.363607448122462	14	0.0989623579935636	0.1574688879956612	0.035648889484917144
Si	33.625963934788	6.987605225212189	17.945906658014632	14	0.0018200854561328252	-0.07861051672139946	0.2082196787995321
Si	35.49651550245326	2.7191708979087545	14.070340302655579	14	0.38319650847274167	-0.20534646860426659	0.05569759743983582
Si	30.23323668804904	0.509712797573393	20.280177242214215	14	0.34566711255666815	0.07317905673258664	-0.09282435826277408
Si	37.36804096763866	13.493397529124161	12.046099209220298	14	-0.09713378788987427	-0.11976388558622163	0.14024505345598923
Si	33.596067241787296	8.2417009053621	10.16856368517741	14	0.24080252519017262	-0.13874224239636265	-0.0852159433993919
H	27.04059962812339	8.155118801331968	20.61323712165101	1	-0.2658972844464139	1.7236525515532235	-2.198421804218891
H	33.98704297660363	12.148992462656478	20.186733736024596	1	-1.1832956877232381	-0.6411963858177888	-0.1174367781609556
H	42.195709800980694	-0.888467425757003	24.50547575284556	1	0.19366876535068606	0.22965498385360664	0.07371101842332528
H	27.692168116163394	7.3452625532574025	21.476917548275544	1	14.790636624022813	-6.424044710745667	-6.639171663987777
H	30.581914877045342	-0.013873137493221601	22.97474415528958	1	0.21944538173783065	-0.10163579330545355	-0.09211139075749701
H	28.987216513846302	-1.042333429601141	21.91676790528531	1	0.6424256312713515	-0.11919772819472502	-0.19402460632699456
H	32.75025848827977	15.364048774220176	10.96806982101616	1	-1.3454072205954908	3.001211902297454	0.6354494512061938
H	35.93730053963336	3.2546282515723366	8.77146357302287	1	0.05997643091362626	0.3131153765404014	0.2108848865743976
H	32.99499435973263	3.075643535178634	23.593473015037333	1	-0.8594672866453757	-0.3010046991509079	0.6111792454261239
H	39.139248452025015	9.604137782458489	18.843093407878094	1	-0.7292037782632653	0.6100096496159886	0.33619361789405056
H	28.828335591395955	14.572871423046083	24.38751323274713	1	-1.1249994741363287	0.20268948836642564	1.387655366105632
H	42.039516901048174	9.714900650755371	17.491248483341312	1	0.031812029015660166	0.047908948093511254	-0.6761796161353195
H	40.434020694203056	8.214153985237163	19.197237515003348	1	-0.2782589017151539	-0.5431580830762864	-0.22272688345793565
