235
config_type=amorph dft_energy=-23371.20643427328 dft_virial="-34.43535582101829 -5.6208636815887605 -5.45946056079655 -5.620863681588761 -68.02334525787748 -5.6006882914897345 -5.45946056079655 -5.6006882914897345 -74.00736596124871" pbc="T T T" Lattice="16.45622559765129 0.1241534634234136 0.13555833486461527 0.12385723299636939 16.284444864457548 -0.027203827550225698 0.1363482826700665 -0.027039255090756695 16.401686284583263" Properties=species:S:1:pos:R:3:Z:I:1:dft_force:R:3
Si	8.071502354945755	3.869447415730264	15.015586264777776	14	0.30927800185008036	-0.14113491300729247	-0.18592279635267595
Si	7.513851867484238	14.822363385839816	14.291316036451462	14	0.21038840613707702	0.057534395080549604	0.020289106302352523
Si	12.219503469848654	2.8221560096827942	13.214177769154695	14	-0.05535204088480792	0.054060831793029555	0.012416124701527089
Si	10.625048133457032	3.614323897612231	3.3325396410602197	14	-0.12351821357470184	-0.02126072700283648	0.18110428787218644
Si	1.818826844733278	12.781951244503693	10.44909548841575	14	0.3099619158652398	0.04452820170804853	0.08287443778433304
Si	1.256360967107698	13.02869637871016	16.032257319016445	14	-0.044366736293943235	-0.07763143981548706	-0.05539549256471842
Si	7.055069930773318	14.620609070602985	5.606972174036667	14	0.00510750071847416	-0.05156248875344167	0.019485121668742215
Si	1.9268258755352146	5.257255697665042	6.3643296953392205	14	0.07408511424740682	0.04379826490765849	0.020377295214833602
Si	15.525466304429226	15.46654113531635	11.12958285962493	14	-0.009257778926257188	-0.13642644783450528	0.11536395305185221
Si	5.317660373188544	12.34611400009194	3.121070613540933	14	0.053861056909654044	-0.007226862833872221	0.07656288844443353
Si	17.036139447429775	5.438359460687703	8.51099639940691	14	-0.027325964453065798	-0.11054724434508681	-0.01907091660166636
Si	16.935495159841505	9.009221417478765	13.67285931666534	14	0.015411205288967587	-0.13916081834248276	0.03521077313836391
Si	10.162920438645106	2.86624168012535	12.081455153672273	14	-0.1305201046930611	-0.05473626116063245	0.006058295465864919
Si	14.597567280552731	12.43914845715436	5.435392219243477	14	-0.05110560333805134	0.06474531706143692	-0.04477142827133454
Si	13.473525862307298	6.007794981971795	3.0789565211628167	14	-0.047391898813629464	-0.03040332041075103	0.1638778822271943
Si	4.589009225991167	11.661138737913042	15.97864619461982	14	-0.08851158619875768	0.02492018120500324	-0.04740218323491006
Si	1.4316882368029973	10.090171182936835	4.425493321711958	14	0.06593908126158167	0.13017326258537312	-0.05442901407487476
Si	16.650424391273898	6.749100105577742	5.463720076691875	14	0.04602844166235494	-0.3646470120300013	0.06400946671881053
Si	5.0668190304658935	1.5303510719792575	3.644593710082364	14	-0.022502827983000018	-0.11773965436766906	0.028648798140281984
Si	11.337029736234793	6.0736552345266945	6.177967842236525	14	0.048548381986632076	0.004572967922415373	0.06955739777862606
Si	13.534179042244599	8.807472039415718	6.070632038446249	14	0.0663129199751312	0.08420215657165751	-0.2585274681567415
Si	10.874375409552568	6.245065679686631	13.271160983245837	14	-0.010323502081458567	-0.050262795014106805	-0.022141587685519208
Si	9.052028359911247	0.2229133963507605	13.883289891965378	14	-0.08162693748299718	-0.09204762734555735	0.08266360714808088
Si	7.771759951616487	4.141126923270878	5.515627876132993	14	0.2185943458768616	-0.2852489657490405	0.062056969338690086
Si	14.565817961671971	13.857463535900905	1.788132435317715	14	0.18803907314168983	-0.22051804687739643	-0.22187507626537056
Si	13.074728941348233	-1.0966433951930337	13.844819433839904	14	-0.11484304711399021	-0.12297802434693875	0.1467754038586333
Si	10.464822032642608	15.530849469578456	12.143074373946655	14	-0.10466378404099194	-0.01984841885047914	0.2825593324736336
Si	13.129763617519261	2.330828223387284	11.092621530952787	14	-0.06449694828751061	-0.04721989186771156	-0.06617793694582343
Si	16.236973938523715	7.560957442558051	9.044267122722689	14	0.02458285218699981	-0.00341237098090053	0.01546082762164644
Si	10.387489433938125	13.30175006628734	12.718924929700849	14	-0.008229079687665942	-0.0506464039278729	-0.01054076048101108
Si	12.300841762216614	7.448748648242897	4.5432877053014895	14	0.036598912900711864	0.05600998673623381	-0.03171921211360282
Si	9.706797992879206	2.8743600395509556	16.388930273249823	14	0.011346801998877502	0.08111580174535174	-0.06995617621378102
Si	9.850979924619995	6.373952247044373	0.3777876007832523	14	-0.043065757001948306	-0.06605529522205236	-0.02900001112701421
Si	16.64803479916241	8.661297135190758	15.949172912853518	14	0.1497789690936303	-0.10622315941766178	-0.3087928342761685
Si	9.401277450497979	11.113115739330462	9.642649293902783	14	0.019537315106741223	-0.12576895917195946	0.08151920817008299
Si	3.00198762759376	5.33031270387252	13.884986634022502	14	-0.131889732497104	0.13795059906828905	0.006269897433713105
Si	10.945256767845866	1.8426717483857415	10.070404384830013	14	-0.0326234698546989	0.032257601567641826	0.04797039751066279
Si	12.75123214921921	15.272933156823234	2.3298161027615496	14	1.0082090718528585	-0.06622164573626593	-0.06934039648960556
Si	2.031663469390752	0.42215139868231066	14.289138742812689	14	-0.04708310906467968	0.12355112372279975	0.23269737277893784
Si	6.229380278574641	12.169907913463078	0.9083165469242782	14	0.09966246997223992	0.004228696920047546	0.03425894994884509
Si	10.055870990934306	-0.04077118110885006	4.706018598949031	14	-0.07676934820164141	0.041582486342754875	0.04468606757470562
Si	12.26186277519138	9.948347574540234	11.912403031856527	14	-0.1859503071796015	-0.02115068369513414	-0.03186602222738328
Si	9.51820453722611	11.09438081054451	15.81493280338925	14	-0.0655230764207817	0.26901603519975353	0.001370656246170941
Si	1.2366336663911492	-0.7565083274116938	6.171778272035896	14	0.06686827872428318	-0.05052916152527415	0.05188439113952421
Si	5.716639969577619	1.7515101259120784	13.984144832301764	14	-0.6436332794402251	0.09642827659002566	-0.7564011874503238
Si	13.304654770196969	1.0926064327622589	3.1087490735004892	14	0.48020405509139663	0.22711653157102446	0.2771985778811249
Si	1.5810179950759786	5.970789218735596	12.052842585868994	14	-0.010208059452583918	0.04387514095673093	0.0031177223112115607
Si	4.579087152409782	15.359325469421487	9.113260834905878	14	0.07669195793150496	-0.40476011168229153	-0.5776988261682198
Si	1.2266836154916532	9.000441476766094	9.899117369014679	14	0.2930823523279356	-0.6400612428189434	-0.16774251063390888
Si	6.96560834180597	4.068924048128044	9.349117855193875	14	0.016350172951885664	0.047785792148676155	-0.02913293727206587
Si	10.598680334000909	0.8275460295414877	15.645610782739974	14	0.020080589660888513	0.30529767370395916	-0.2590424605523672
Si	0.46006395617018414	5.2022193757694195	0.7890541769962833	14	-0.031271582677365045	0.25026522121044564	0.07997628786746211
Si	1.619567447981997	3.123112957762944	5.320305052612211	14	-0.09848824617252828	0.4618556190846919	0.09200417566564684
Si	14.801821451448895	1.9107372718975253	15.53331805647049	14	0.0225650487317476	0.019704179842018835	-0.00811826504836756
Si	10.889832054945895	7.02182958540977	8.271982879346297	14	-0.33494843158750287	-0.0724336933002757	0.13747005948395338
Si	3.529095112302425	9.205013272509035	4.918963841429754	14	0.22659074053305417	-0.12147855572422837	-0.16542028830875113
Si	7.429781672289095	1.0417041710484973	7.817367917309132	14	0.13269243157805422	0.06799493707557208	-0.0752567669417983
Si	6.771934534329066	8.460895605570762	0.8475695606850809	14	0.07899798229314577	0.02827007432662417	-0.020548016608091434
Si	8.892955912037701	9.612028942093982	6.405137082389154	14	0.008496988862025373	-0.10688573325866392	0.05626015528388422
Si	16.248581234090064	3.3882721044593964	2.082738532186956	14	0.13981336487273635	0.04414664967853856	0.10537443755148089
Si	15.901091423095053	7.06397988372897	12.682584039200906	14	0.029278204722654234	0.031629480537929654	0.049686867422393644
Si	1.2991349950482858	4.3444578426694225	10.429521240086508	14	-0.02927846183318625	0.0876695492064092	-0.05152366506310743
Si	8.047300329056243	5.626292980778327	10.652689723749445	14	-0.04034321357844351	-0.01599818863355739	0.09195506755403202
Si	13.604326407368665	12.412147053729282	15.035520926793254	14	0.2907657864344822	1.5535659641989352	-1.40845560814563
Si	3.310170952369193	10.146036950028181	0.9069621155828482	14	-0.067993651522912	-0.06991195320227449	0.007301167777624499
Si	2.761428772138733	2.0087895432491556	15.927016522635206	14	0.11903009212785137	0.06763806765713551	-0.0051846338780786
Si	7.251337400211452	13.4945384739323	3.6021208497426045	14	-0.0016143970305209788	0.1142126120894899	-0.018775496600381348
Si	14.126852194805714	1.1234785804340486	6.930633402719618	14	0.0030452171411833847	-0.00979591126976418	-0.06899535415564169
Si	14.04861773902334	15.215920319689388	7.6048571461214065	14	0.01825279088879524	0.058839231030524755	0.00833963721643231
Si	10.896054539638419	8.601025763359427	13.307617074467409	14	0.08034909813888359	-0.10605243802440392	-0.013773925421097288
Si	3.9585699854311063	11.014734323059892	12.728312142788962	14	-0.08450297589411482	0.029266634748713567	0.04547256869213893
Si	9.777230068358154	14.41348475601368	8.285183236320306	14	-0.011698529206673759	-0.05453031562448859	0.003929677371314324
Si	2.480314325496761	0.07595841866791694	9.994554583985346	14	-0.7007814945016884	-0.522835552404772	0.370232995448555
Si	1.2962911829486614	1.5081699958920258	7.011659007414585	14	-0.157795161260788	-0.26648529623313183	-0.02350838727370993
Si	15.426719537298636	6.697997065463429	16.322367296292988	14	-0.06333558001439972	-0.05523377004008111	-0.09062092100340718
Si	14.962967512311751	9.096564958892747	2.783119422296747	14	-0.10241123867001023	-0.2501788320716887	0.10622161675446967
Si	3.820268227667143	8.388095332400056	7.066084765485579	14	0.15211816071390102	-0.028525899305978906	-0.04428086137625029
Si	16.235050086472523	0.04383716602875753	15.108238913734228	14	-0.10633268850430007	0.04626626890446864	0.15573544878881734
Si	4.350719824752218	13.480156486699304	7.663040093442077	14	0.10997337363762974	-0.12635002897431297	-0.01761438543780247
Si	12.806683193712693	13.771719638792963	6.051956355745706	14	0.14425546353435617	-0.00039466466664273014	0.15848061793913945
Si	5.8878710307567355	9.162922220275243	7.695786721427218	14	-0.0020455713927098117	-0.03824699141092678	-0.059081686262214723
Si	7.997540200211198	6.615088751832135	1.7664039334940227	14	0.1792723753315809	0.3341974117234876	-0.14716801164101995
Si	12.523207132277342	4.922194398809132	14.313222276531382	14	0.027958199251290214	-0.022650409428376518	0.012772479898899613
Si	6.550225808381619	12.89220656372495	7.111928069795263	14	0.03933662584560554	-0.029577224271387453	0.010600924345502544
Si	12.517902961908655	-0.07893882590890053	11.772863689197356	14	0.014863559855776046	0.06089251573919501	-0.2318159978751911
Si	10.584016927862221	10.614113939249913	7.7276232637114965	14	-0.44338556979634414	0.49400754822367565	-0.15232564891323697
Si	15.52093068744626	14.841545951715522	13.451400740856286	14	0.1706599438406809	-0.08199280577005426	-0.06333300890907959
Si	16.302709116009417	14.943974204764435	0.585038636166348	14	0.019266834827061645	0.15105140911657158	-0.05475451600840551
Si	5.150061426189908	0.19956714725048816	1.710342325175908	14	0.05876621163943255	-0.17013415280271063	0.20126638157172363
Si	11.141701975540228	11.82566511709339	11.095921208765139	14	0.04266363612987715	0.009369879118215645	0.016785975303650762
Si	5.837773528369776	8.352860368827741	15.128180158648087	14	0.03331509718581874	0.06481473690508091	0.03169427239199738
Si	5.5949057213083995	15.781896527875443	13.182071328036889	14	-0.11152015059823082	-0.9473175845557914	-0.1909557350168658
Si	1.5735019708520293	1.7885915924796334	1.631039794131581	14	-0.3214390729038488	-0.2954997055499389	-0.05093436772372949
Si	3.4238625445441624	14.948170802480893	1.6892589473933344	14	-0.045682627996795025	-0.02156514587274201	-0.029245551685088356
Si	4.96995168082244	4.132820951241478	13.24550742826381	14	-0.4191858123020464	0.04293308796742867	-0.007390385132233638
Si	11.408694459435164	4.531912456902992	16.43061976868251	14	0.07262472642556271	-0.05442335764317043	0.016381026215727443
Si	5.09311770948904	0.7757814081401084	7.59098368778817	14	-0.009214841467410714	0.008031875909610584	0.00015632320346500321
Si	0.877202477737069	14.767761535237193	9.672864797461292	14	-0.4170685070709044	-0.2947268312907024	0.0999884861268347
Si	15.31428198726482	1.5007839839110568	10.632944320062354	14	0.04834500755580836	0.07368864980703999	0.045425003243716185
Si	15.813328221909428	13.60838476421917	3.829191346419552	14	0.03178426107820257	-0.04479225422442775	0.1251166697522379
Si	5.680837231020138	10.555509686433002	14.282541032912578	14	0.08675552126509656	-0.05162470950218925	0.07942170044990618
Si	2.581465496260192	13.003223853433548	12.706007637357128	14	-0.07593913829376561	-0.014115111097080938	-0.024014637911247087
Si	17.10099087080813	10.308642768606529	6.753907267118832	14	-0.008395173091347507	-0.06553721750004252	-0.028226365536181654
Si	12.825793347706234	12.699605768683785	9.710140459531022	14	-0.03976162955502601	-0.01476122986403415	0.01854409712156802
Si	14.695845016173834	11.25466122027056	9.42446900148635	14	-0.12133046005778785	-0.07892881956003378	-0.18678565929811763
Si	10.18092301998642	5.077835510902749	11.37758203597255	14	0.036973522945857436	-0.004103741201488349	-0.05612980024415271
Si	1.343191042448137	11.392015040667982	1.248728096437526	14	0.01463498859281488	0.14796762539558597	0.06033587143738295
Si	1.3522425277189323	12.221609997329857	3.381136242616821	14	-0.06440875937502953	-0.04289272161390234	-0.0864073936047485
Si	13.529663173956768	14.915452151813861	9.9503734615163	14	0.10119973384315646	-0.016488241307577613	-0.06951266054605548
Si	4.645353898939569	5.7881631604628465	0.7584288880136971	14	2.1273999048499084	0.7409215907598403	-7.269167543699406
Si	12.4673709882287	4.197647688750912	1.9726444939759789	14	0.03300167944729268	0.020170064126029664	-0.09009744396022504
Si	15.766390510744273	12.08365384173078	7.415338793246095	14	0.03786698204460889	0.018844916444025347	-0.005084360770592826
Si	13.689574941373605	7.592045180151745	1.3983326907178204	14	-0.06254445090739016	-0.010732307827362111	-0.06701071795901939
Si	11.205315814023374	8.975653572920873	3.0417614995982274	14	-0.03790991950345536	-0.323490814949327	0.03514649550536021
Si	9.820079799630097	-0.23450423467116213	10.015700499302518	14	0.13447600733864096	0.029821222166269507	-0.20418638588381582
Si	3.484124042027926	13.722542096454436	16.00049648006352	14	-0.0013374889875410307	0.05165736253975512	0.06624324302095519
Si	3.3130575533082793	4.802815182434913	2.4878616184880094	14	-9.826317675501317	-11.479737657018843	-2.041604691421887
Si	16.939028530546306	12.938489276501416	13.9537910878773	14	0.045219571928636355	0.01592876878991339	0.0013829975517076515
Si	13.86402339413534	10.491155271882244	4.423347296840483	14	0.1669092153996489	-0.0632502193177708	0.15239198343049679
Si	13.918175961923614	11.693701044743579	0.8683567080406104	14	8.156178053197399	6.877993152528775	15.304310042619237
Si	8.671490753330268	9.091659053875977	12.752410488029009	14	-0.066083834491106	0.05006224879913526	0.045739963645434326
Si	16.560213997615968	-0.5431615281298664	4.278709499386962	14	-0.02325487628914333	0.10671861141285431	-0.04582429589993518
Si	14.90585099452844	5.266175524968261	4.774670000416525	14	0.10018337591010192	0.003388202590891138	-0.0012675549228330029
Si	2.3933789237822616	9.870531132804913	8.126155223010816	14	-0.10132854621969586	0.09932334118051239	0.04046534108115054
Si	12.215826921104117	8.958617031916642	8.077117567262839	14	-0.2680585555785304	0.024018751679759323	-0.06859708994155075
Si	7.299593336776954	15.263712161919187	1.984312681352331	14	-0.0005440458857433335	-0.1318930749340202	-0.04147115748239247
Si	11.248576976443989	9.534902058963835	15.472085581475861	14	0.0027258858604209935	-0.09036149647660423	0.13372473036409369
Si	5.990162688664286	3.9219164072581707	16.22972287595951	14	1.558437694559552	0.9978871124345919	0.17340922675951526
Si	5.063654302070304	-0.13410022287371995	5.440176340640241	14	-0.023172343808366577	-0.09063094831415575	0.014892613345893717
Si	9.18239278795502	9.39246294956882	4.134581876557797	14	-0.06237424373519635	0.16751908158158801	-0.01963013200879857
Si	6.0255967849125565	9.228066582631453	10.010447346396267	14	0.015884545778406846	-0.0028223023099265463	0.06623475837339869
Si	14.156917937426105	2.578085177942699	1.4194753145858028	14	-0.11379686435922198	-0.04282278754919432	-0.06144607471462289
Si	5.042730559573417	9.15381148891904	2.226752600019088	14	0.026401909201004582	0.034465666816585	0.26615516631002484
Si	8.04741388405328	12.915210502109526	8.9696944041635	14	0.02905066190182113	0.07455151275248169	-0.15210684785049236
Si	3.346230423963446	13.473079870942138	3.5649027880336903	14	0.0378394712176833	0.015624349920007864	-0.00497380324182646
Si	2.7640240798245594	7.762948742136517	11.187594651587753	14	0.014913439298986919	-0.05016149346449297	-0.05019774604950707
Si	2.817867251389032	8.963274432519615	13.15307036922926	14	-0.05809309626661779	0.045537360546206655	0.015370067603845218
Si	1.6520705087271246	4.040877609585337	15.3414693575691	14	-0.0619132445512938	0.04682368453787674	-0.014881814703549096
Si	7.370343037102677	7.383229060679098	13.70495259198639	14	0.03653257838345204	-0.049576309893627275	-0.013534555515791503
Si	6.600813736697795	4.77788245482536	1.9578230982762008	14	0.699799846490456	0.5108068932749912	0.38605840580459844
Si	13.372509640960631	4.734183529662556	6.457836475360317	14	-0.15190013098275246	-0.029158648325267347	0.018506558983893858
Si	8.989499053936001	6.02287146498375	14.673622796971735	14	-0.033878169250931164	0.0004530287574100916	-0.035679485638226906
Si	15.841981932827574	10.360841861300905	1.0450844893659907	14	0.2970433971841558	-0.17523368309469234	-0.22318454020492198
Si	4.948075063785226	7.1303420822852495	10.554234249872115	14	-0.013620430433484447	0.025919826953476815	0.013634057291681236
Si	16.825870153140016	2.7815691497285493	11.956450850633404	14	-0.024862845556363943	0.14898295488651245	0.05401866566577913
Si	6.2727747446874265	5.982975809359275	12.200317612523758	14	0.28947766266908803	0.3128760066350956	-0.18352986863121415
Si	7.981540465701621	10.99123337584772	13.980958709486444	14	0.017977425509007383	-0.07110134652337498	0.00421558428291479
Si	11.54036888425631	5.124058977593807	9.450473095807048	14	-0.09233430558875386	-0.019029778916543994	0.08406923042660584
Si	2.9330284756270593	2.6436969260838	3.3943678683581284	14	0.1775826449151796	-1.9573817088971366	2.026519759398046
Si	8.278761618951824	7.161722758856798	4.007940077547211	14	0.23668798534633972	-0.220910140438719	0.03640222334372053
Si	7.980123496825594	2.3099620812512094	13.16693395321493	14	0.3679074306864811	0.17735947297339075	-0.33008492876391077
Si	3.467069398053154	14.558486258602628	5.678421307315133	14	-0.00037820959259378243	-0.01717344087539708	0.043395886925055326
Si	13.836205711311298	10.717774840020246	13.460476911996	14	0.20097661800214298	0.10502810966485693	-0.021211361780689636
Si	4.9320440605083515	5.330704386326056	8.945707968195894	14	0.08711830422576945	-0.05364225584690944	0.04105155309414431
Si	6.573065174306727	6.183968154108765	5.5696668889242344	14	-0.3733270635908212	1.5491788871911667	0.42021116910372147
Si	8.309808213430653	3.1956202919557954	7.619905651815252	14	-0.031445903618071085	0.022955085408814063	0.08047842473648703
Si	16.65025159019146	11.170605836596767	10.758307391062866	14	-0.5194751177513384	1.063870159597148	0.32502987859396765
Si	14.835254346590023	5.619522469795773	14.29284491459993	14	-0.02570565388030848	0.028068756780056575	-0.037266628952354316
Si	0.487420836107716	8.071217644590874	3.4988532771504017	14	-0.3799258053949812	0.5633710846611626	0.6324451146396007
Si	12.333545601362292	2.6086660323612287	6.580856034537989	14	0.042374901002424525	-0.016982921971174104	0.014904440430366398
Si	6.095003573969013	15.21981904125421	10.902676935407452	14	0.17835397651122406	0.05104826768941205	0.2107840992458478
Si	7.8926746290375505	10.551436518061143	1.1141736535756714	14	0.044503519096975114	0.000746648984971002	-0.07989375538668536
Si	9.105042086279996	0.17101382553261665	2.570118225179805	14	-0.2942576045697753	0.2005850386618844	0.29315434327689976
Si	15.727663319582028	8.372135095280752	6.899785940916749	14	-0.01525102542752236	0.17871778791402498	-0.08454797023721741
Si	16.348223275400166	14.411062249410298	7.713904503490161	14	-0.08108571981310601	0.03550439336592482	0.012775308114751775
Si	2.35099657829521	1.304890093955917	12.076779650098759	14	-0.9172773042162452	0.19303498788926954	0.8147863612813104
Si	7.618669712644639	7.689503344924692	7.190921204615788	14	0.23296451062170126	0.007664207848829409	0.00974834582134144
Si	16.052659366816815	11.016556140186216	12.985130757239524	14	0.16430031483129465	0.02720203717663466	0.17500871137917937
Si	5.103168149588812	1.7524432517572677	16.26650975782462	14	-0.39899157978600736	-0.677474167664014	1.1361701554207762
Si	14.998057652119732	1.1555142553942843	4.714265324893024	14	0.06280670365004526	0.06605478100098831	0.08712935997864608
Si	11.35397740811091	8.06959496014051	0.8905641157213571	14	-0.04278139275353993	0.03302224828985387	0.014015609321191207
Si	15.706352831805386	2.126439103074354	8.333083696373352	14	-0.1386198577831236	0.05767940542060596	-0.06542306042382795
Si	6.686723851989803	2.350789216996279	11.019990767415333	14	0.22739318250347237	0.03733707723812637	0.08877512449407286
Si	11.509748532447508	1.8266407451088662	4.539176685263954	14	0.08272197123884825	0.057064397028026535	0.0005149923956256602
Si	1.8221363968931996	6.788594204401114	2.015067982577898	14	2.8952797920020332	-4.1892921599109565	0.5438535670653865
Si	13.585820234301377	9.7921847677501	15.591966743851458	14	-0.11128386601930922	-1.515725978760188	-0.32976739725687243
Si	12.394249798762027	11.002039203536455	2.6564463545188635	14	-0.3598560143764374	-0.024746631595893246	0.20315871508735261
Si	3.5598767451215068	14.830796078663008	13.946215817567943	14	-0.22259421442341598	0.14233690474446167	-0.06965098601227945
Si	7.001728705210225	3.024117686218556	3.5206953339711275	14	-0.07237687187270045	-0.12934768066707358	0.3817631172567591
Si	11.609184858183273	13.539150776245156	14.743773453544991	14	-0.19324427586232962	0.11814280368186827	-0.011909359842925902
Si	7.635765499734279	13.958132509358094	0.10365102642276558	14	-0.02743446509757605	0.07230925180278056	-0.00984399093925095
Si	10.661894261407546	12.610193551454277	2.675085831278322	14	-0.0850807032595521	-0.17708796425158313	-0.11684413838466147
Si	2.2738729866142524	8.164599349542774	0.14548699134438006	14	-0.052524853474773085	0.30893475928984065	-0.4206446574606984
Si	14.606972596611385	7.1028008811931125	10.648802522256789	14	0.012478345450274674	0.004942949977984682	0.0803529547968638
Si	8.926892398904803	2.454415557550124	2.2192777189100066	14	-0.08273122721800077	0.2726623767647876	-0.18342625308681215
Si	16.018713005602145	3.2697108132087394	4.378728411629247	14	-0.07577253066902	-0.09094539449480986	0.0195820523393118
Si	3.104325365789963	1.7938496825596681	8.430606044405492	14	0.41327869782900617	0.5138107156205202	-0.2063180893047506
Si	10.006008827164388	13.360691692646162	0.3529157649837023	14	-0.19330109728990488	-0.8477510168119929	-0.4297635966996677
Si	12.739761448794221	1.0859379567045753	14.680241901291577	14	0.0606613733709137	-0.02645770218645179	0.049558826377450266
Si	3.4226743313867964	3.70070469013832	9.724206467641837	14	-0.23044765562380828	0.28198571887670854	-0.038069842254368574
Si	6.752467258098478	12.993155310363234	10.921507316219893	14	0.02704160020465742	-0.11886039917672159	-0.015078504260540424
Si	6.804870420642597	10.72919781443199	6.2358084788415	14	-0.0072942257932601005	0.06941418721229381	0.026955725286964476
Si	11.501164432961605	12.813330275350646	7.7220623603060385	14	0.050207516249723624	0.08753790861401761	-0.05704794195397759
Si	1.138638995400333	-0.41584169058626913	2.038335236897625	14	-0.003470220850603862	-0.07780704630885318	0.08361928699557993
Si	8.64486128366359	11.51359129937611	3.162659719773344	14	-0.05389062462083575	-0.11464455778327477	0.035679228527694895
Si	3.7067543737484	7.439157365305044	14.767491636403664	14	-0.00403586402103644	-0.18811029275905794	-0.10026179462236642
Si	3.4091728068119598	11.823909128950858	9.008003581278695	14	0.06833715119368378	0.02108434917787432	-0.04903303533947998
Si	13.725986598031124	4.818915306144766	10.249125138639563	14	-0.06445606771292026	0.08636985546707435	-0.26826398689361025
Si	3.868693673865896	7.511116673207864	3.303298406461768	14	-0.7411128809956592	1.9865552696332607	0.9289627207857863
Si	5.039677740450267	11.266345864892857	10.652618957591873	14	0.03344262400969808	-0.011812172061824304	-0.012275485240514989
Si	8.712683239935359	-0.5287795408968704	6.581251008440715	14	-0.02084472216203652	-0.035370181668213097	0.036749579672472533
Si	10.668952774194173	-0.6951293829281355	1.0240801063639622	14	-0.00930817259053209	0.36059983514555627	-0.16804230151423813
Si	14.930102392155794	4.387970800953026	8.262110177502752	14	0.05464344425857511	-0.0524608329523014	0.10863177088157648
Si	7.587264350204171	0.4138947983907509	10.054080442575284	14	-0.04250422760002797	0.11990683904202187	-0.06530350402644106
Si	5.147217614090285	5.646268785908674	3.6606395248805916	14	2.2716674525792695	-0.13896824255400367	3.1478489806898637
Si	13.531108120150906	9.189703096604633	10.037950695822728	14	0.11515029419974791	0.11691741488628568	0.45557029501905794
Si	8.728928187409544	7.324799254669225	9.184800483037053	14	0.12545014211226113	-0.057181382320093274	-0.019552998849194127
Si	16.078997543230233	3.5726722538452216	14.240068172572817	14	-0.043069613659928535	0.010402177904255098	0.009958148015465525
Si	8.089208705860026	12.999962027286871	12.876659403478913	14	-0.013896052923804324	0.1425906728395603	0.013775982305353408
Si	4.206353571856822	6.095372216278223	6.7994214265095785	14	-0.43275867728710804	-0.3324932831172935	-0.06830578370877796
Si	10.674586089481796	3.2464748276563116	8.216233958701173	14	0.07727816994449872	0.01229528275148013	-0.010657745773077817
Si	8.307953481812435	9.235105346722943	10.458846406639289	14	0.029546885228609706	-0.013734844620231038	-0.0010037595169858102
Si	9.673072158760222	5.282746325912195	4.739879382484778	14	-0.0353894649581142	-0.025371153078157214	-0.1259535645339461
Si	4.350545377945181	2.613287227023118	11.571999710966253	14	0.6952255930153804	-0.27761663960618094	-0.738991719106537
Si	11.509922979254547	14.37579766279528	4.124383321244503	14	0.0026544091325208766	-0.25697194943805185	0.6121740060744892
Si	5.493657452793881	10.32601997460186	4.268910855150178	14	0.06386008549970992	0.1263245750316435	-0.027067825478922933
H	4.72086468051773	4.341872409331165	1.2948478824791185	1	-1.5275152679846629	-1.3194598828150885	0.8735803408582006
H	5.627667160814894	3.497839510800073	2.0911926194298784	1	0.0746803251290211	-0.7908077188445454	0.23718935088376855
H	14.222429296366931	11.189878917325183	2.378516384967616	1	-0.1414781555675322	-0.30139396449637834	0.9799500532791109
H	4.149794954711111	5.952755368626982	1.9976233018741836	1	0.08534269889167519	4.048989770806327	-1.1441968891197465
H	3.96518579830176	5.701389039758626	2.731305429157527	1	5.533709247847657	9.023176107325488	6.430149028996762
H	1.0141662614055496	7.864743391216472	1.7588467661552065	1	-2.3710422158661846	3.7648412381343106	-0.5393052817540445
H	13.597592102327193	11.320947715495484	16.343850585152072	1	-8.415762759861787	-5.875536928829749	-14.986437349904966
H	5.690000625563372	7.688904301172224	5.609476966869784	1	0.3066595881920416	-0.6574802242524146	-0.3254595102929644
H	3.0720856209799856	3.3697560570445395	2.0991464063960152	1	0.14054484433631848	-0.9091978628582119	-2.1079158116232946
H	5.549819450312272	2.959883409563211	15.124832754822485	1	-0.3873498720069089	0.31635419791219194	-1.464763071767405
H	1.0525840563439928	0.4552798347734203	12.404561909072356	1	-0.31273742405833965	-0.5263340554138973	0.0324134105500428
H	13.282519774398388	7.876442847360123	8.305577055497704	1	0.6571531796556916	-0.6770522492809778	0.012518197582736966
H	4.04725808383895	2.8224933832247054	13.985739539434018	1	0.23176663265304423	-0.5794896010237028	0.21607749087896866
H	10.813473725201469	-1.779107281640435	2.269245209053984	1	-0.27387156759685327	-0.45283129652150417	-0.06406114593574552
H	3.6818940580210127	1.1840807429089133	10.199444004575062	1	0.9436758709803336	0.44020562673638497	-0.3814967507455917
H	2.5682980537780775	-0.7601470244905534	8.57790662425322	1	0.5810512903951608	0.044961175843961476	-0.3285803179305601
H	5.427364374670579	14.244200587030083	12.65346787967165	1	-0.09917370285087977	-0.3802795894870336	0.05310309506127439
H	11.544883106819546	16.21394531427022	2.6899319128470207	1	-0.9248862333006914	1.1917104012150188	-0.3234476203799485
H	15.892987875190801	12.670983326532935	11.288956475099305	1	0.07230539514480033	-0.31609323072219697	-0.17794979875489675
