72
config_type=amorph dft_energy=-6948.957531308692 dft_virial="-10.856838949386004 -11.790084373441195 -14.54328414871992 -11.790084373441195 -18.268719385986063 -14.042702371396517 -14.543284148719922 -14.042702371396517 -11.92843612094264" pbc="T T T" Lattice="11.105996452100001 0.0 0.0 0.0 11.105996452100001 0.0 0.0 0.0 11.105996452100001" Properties=species:S:1:pos:R:3:Z:I:1:dft_force:R:3
Si	-0.44182208265637785	-3.111342684856525	-4.580981425768595	14	-0.9402532155781526	1.4301904469695017	0.01631366325633956
Si	-0.15563943427972943	4.7087892329393615	1.6985910789714018	14	-0.33990012332357605	0.9933203151649447	0.4706408288531058
Si	-1.0085866253988807	-5.166240784402779	-3.7916016265423282	14	-0.23628792135852464	-1.6946983061009073	-0.7344884281382977
Si	4.580589384093836	4.039601859116656	0.27586184587371193	14	-0.040355811994512235	-0.5649883099075357	-0.2881810542561373
Si	1.1143956747973278	3.0972269633659057	0.6973643974213277	14	0.870984810037511	-2.3376510139628897	-0.2548075929795513
Si	3.6841500002686156	-3.329307860625794	0.6493487323603185	14	-0.4929626510215675	0.02514052493093993	0.634603814666397
Si	1.4245606119126413	0.32727483524941847	3.5490788714181756	14	-0.1400141681982399	-0.06866625267466273	-0.2419608081368994
Si	5.013943144455487	2.7168910088672895	4.347935417417019	14	-1.055729525932495	0.18147658392254387	0.03617159519650325
Si	-1.1250818645835385	2.1474899025670577	-2.611715001266612	14	-0.379678722173715	0.8630192686451603	0.18438244715537525
Si	2.470917620645469	-0.6083487252581009	-3.703642134641696	14	-0.47399457863270705	1.164837979740427	-0.2539509006868779
Si	4.137083632375319	-5.286308822646078	1.8120232843345703	14	-0.06112854320758461	-0.2861722496695057	0.3938102883448449
Si	1.7792828067937794	-2.757470098703972	-4.4233373591292615	14	2.124648565046818	-0.4827911012645297	-0.21406765785020893
Si	-1.4918218582254943	-1.3622904004053615	-1.1086383262365593	14	-0.8897914170122663	-0.059014837523890876	0.8957404405020247
Si	4.961911551077399	-0.4128787453025601	-4.045971148081936	14	-1.5063131621831258	0.7959445301636692	-1.1247045683561077
Si	-5.403323822464694	-1.666899007495689	-2.3293528156694854	14	0.35781995607341216	-1.1931628186103704	0.6970361653818288
Si	-1.648986145818097	-1.302854439192658	-3.3932361974033727	14	0.14046796828724606	-1.6448828834125067	-0.5402781880071885
Si	0.7071809876853388	5.254657843357238	-2.2420141489705263	14	0.03451503203873184	1.5451679628917356	1.2848816015854807
Si	1.1648113456916358	2.8380740891543783	-1.8982846693776763	14	-1.0431822748596404	-2.004853826196755	4.717814997283895
Si	-3.8289932953972587	-4.900407653325314	-1.2625307872743734	14	0.09602101350731418	-0.7340222867437548	-0.8650195885842356
Si	-1.3048635139508429	0.6402584742642746	-4.533485521341544	14	1.123439327428063	0.0002745940481918148	1.8488175580854798
Si	-0.6682755715139873	-3.0490802475467618	4.129521559391084	14	-0.21204651195804047	1.2670787541277115	0.7837268947928576
Si	-0.6736375466010612	4.391374301340118	5.212647190577879	14	1.310803999644278	0.8736011668112936	2.1386353779884235
Si	-2.672835742141099	-2.342695559807039	3.3283716251248823	14	-0.8610384891065183	-1.3597033375071101	0.6417316899454436
Si	-4.994780858177034	1.6300337628725885	-5.066755489384159	14	-0.7571390946772063	-0.6826999392272152	1.5773551161736057
Si	5.5240082435110835	-0.696985682942311	3.1055497971071095	14	-0.09253819424064161	0.6920279093287124	0.23705873873350503
Si	2.622314564280496	-5.332838505381797	3.880806100645241	14	0.12369150607327983	0.1508711746336292	-0.5938165711991641
Si	-3.554515256681478	-2.696027283932374	-3.4553387083642253	14	-0.04385200100884959	1.161034029419268	-0.8603545750913589
Si	3.824777459144041	1.1215179503220598	3.0983020238224688	14	0.004771457253130805	-0.8867114899492609	-0.5337694348892337
Si	1.8002131677074074	0.5695887976402719	-1.5950920768349917	14	1.1011391025442905	-1.1383537951691778	-1.217719702633637
Si	-3.258444939663525	5.158957471929493	-3.4667678893130813	14	0.5862562360052685	1.125159396887242	1.0859983775350024
Si	-4.120908859142481	-3.0757723994197392	5.279754063540048	14	0.6872052870797105	-1.0070682724223086	0.8101030929406607
Si	4.253713254117047	5.064837483796881	-3.800739640423116	14	-1.4726185698520533	0.19347079024103467	-0.961740199849162
Si	-4.6310961241590505	3.2915030487028463	-3.4266285969359016	14	0.639775850128407	-1.1482090989718374	1.029733594261542
Si	-3.304652548502132	2.6079856076579966	-1.4640790790881484	14	0.809865008588015	-1.4350634628827785	-0.39764740592463393
Si	0.9290910133943941	0.76848164570235	-5.122798568680746	14	1.049858149823405	0.44968323516751485	-0.44366890560262445
Si	-2.3102927045583916	3.700484699850364	1.9330308898777164	14	0.2159515067182814	-0.7477882417383598	-0.24107866190155658
Si	5.073952175085119	-3.9806279073563604	-1.6294218224680777	14	9.253568998405976	5.114223644665282	1.7864991073357306
Si	-3.716497325535002	-3.4785824483388255	1.5113250985950273	14	0.611682667847809	0.36510055500847544	0.1761428259358967
Si	1.3659331672416504	-2.6327453161483083	0.9868510797424759	14	5.663095495094534	11.566387762965814	4.125985890497206
Si	3.461039416343088	2.0273207997560454	0.9610840573739586	14	-0.4143145961624938	1.298909552212209	-0.17445643795641158
Si	5.18850830728924	-1.7787263963715292	5.167352494647635	14	-2.1524221589361217	-0.07147132857894428	-1.1881453065781016
Si	-2.3437428552724717	1.2588891310377297	1.7039030770744412	14	0.10517774799448955	-0.1267256674615866	0.6345066268852955
Si	-2.9010706328296254	1.3339867684471847	5.239321572856533	14	-0.29166952995451423	0.777588123730472	-1.0860338587884204
Si	-4.402664657333323	5.406283570519179	2.046057726370383	14	-1.2910393988272355	1.2474753616142424	1.5411529248237925
Si	5.502784684291121	-2.007575448663857	1.1047101352914515	14	0.30074887417155316	-0.38864956574624376	1.4274121105605497
Si	1.1169800401717316	3.2872128022734	-4.615115705864124	14	0.7317468585354239	-1.214178519276197	-3.48727319241868
Si	1.1761394620727779	-2.1610025684503276	3.0873093085341807	14	1.073503062789615	1.4909016997836262	2.8402082587076536
Si	-0.06511556779830752	-4.790596002805531	-0.06830632057899585	14	-5.44423169738012	-8.777735565248301	-5.1197839170306345
Si	3.3698514112738303	4.081635834488565	5.358744352705965	14	-1.3199692187790097	-0.3262118157096397	0.8534730117019825
Si	3.0325567460253278	-3.07934741967767	4.3691234374483345	14	-0.0064318770688824335	0.7659667276834027	1.6264213187717154
Si	-0.0281092770202651	0.963709514935235	1.5415256347472228	14	1.4053247731972858	0.5676141797710029	0.1615302059593671
Si	-2.526475367897099	3.548867857485585	4.285294265628239	14	-0.9089803473481274	-1.010406338459457	-0.014288403595658921
Si	-3.136558849801018	0.4733864351728913	-0.2933737810793832	14	-0.22543862823909583	-0.29714058496525736	-1.0868962075127981
Si	4.0568583564039296	1.0658535855044893	-1.1232682553629105	14	-0.24117070747201785	0.6724121755097067	0.3393697042960295
Si	-2.101310058719581	-3.738831484400175	-0.24337014265344817	14	-0.4072417425372985	1.6755741676191143	-0.2546756952766277
Si	-5.3590975233931415	-0.3810178626807756	-0.3935865188656172	14	0.9606513367460793	0.7667334312898708	-1.0049152288272167
Si	-4.113015827463974	4.252980258351209	0.09301272028633752	14	0.26043779940961154	-0.6079314251857129	-0.6933026633464416
Si	0.09487408529170946	-5.069693025445739	3.8205571804922434	14	1.729797493268377	-2.8115247506455496	-1.3990430486791
Si	-4.649590940050733	4.5828327953771595	4.303806851114245	14	0.48922863476511635	-0.5129373111432658	-1.0930252083749672
Si	-4.918046196890539	-5.315067800458791	-4.879385112641134	14	0.31270888478928605	1.4194794793162968	-0.7637614906503117
Si	0.5377456846128108	-0.7299449486132082	-0.09521726058207935	14	-0.31260861168180026	0.6169392926748517	0.23702428592221506
Si	-3.1566173899931558	-0.15464433699762126	3.517272408179006	14	-1.121239232605612	1.0690342246326656	-1.4142161696154216
Si	2.6892115339097202	-4.483387481945766	-2.7623334145503464	14	-2.127045863647324	-0.27608708905122487	-2.467323939452962
Si	4.498874793998219	3.443307582407665	-2.1603073330724265	14	-0.5562491229243524	-0.6778289801981946	1.235587599056006
H	5.5177555675085515	-4.235860364820296	-3.057955049311635	1	0.3092273510752735	-0.1272450307362565	-0.8709159044149312
H	-1.2750117060872432	3.382022472785687	-3.500829980431672	1	0.026305492751499026	0.09323367822974166	-0.11379763569081801
H	1.1116436088764976	-3.622943743221447	0.3511005294381086	1	4.719176397550915	-4.831481506603386	-6.8590921859887715
H	1.0851680239343362	3.602634207509492	-3.065933597162824	1	0.35392010352381154	1.8800487744093186	-3.255598091115033
H	-3.9121549968305835	-1.178176301822093	-4.198027787906218	1	0.37204176804127914	-0.5046359833961038	0.20043822854810395
H	3.7841528347219047	-3.7018673964086504	-0.8845559676214731	1	-1.9752382924560967	1.0997195952970367	2.240791305900143
H	0.4465088131591641	-3.849563822025838	0.6241259038179542	1	-4.083837503873486	1.1786070200614163	5.268300730522604
H	4.064574802738848	-4.557655501420249	-2.0513630608755515	1	-6.037605524243155	-4.539554866116858	-2.0656015887064254
