224
config_type=amorph dft_energy=-23223.83675925175 dft_virial="-42.08942832194631 -0.016089231009918315 -7.477470111859537 -0.016089231009918315 -39.893248289092455 -0.3861415442380395 -7.477470111859537 -0.3861415442380395 -30.360378915715863" pbc="T T T" Lattice="16.33494359494732 0.06304291466728311 -0.22366430285301192 0.0631245976352376 16.44021660404708 0.0645948910584186 -0.2228638097670578 0.06434984215455511 16.316499580783194" Properties=species:S:1:pos:R:3:Z:I:1:dft_force:R:3
Si	33.55528482005937	1.62369567065891	23.469712331506468	14	0.26946366463599136	-0.366326715135654	0.3476725747063837
Si	32.1258296135369	12.79873598187662	22.870953305168957	14	-0.033322553391247164	-0.16065525881892068	-0.32776656309673324
Si	37.21617168175646	0.3293767663203667	19.953762094488486	14	0.23838208664178526	-0.0007600187326357721	0.38627669264627906
Si	37.93076859226897	1.6587000897461317	11.334692939403498	14	-0.12218843790312124	-0.14240066815640134	0.07517603423474566
Si	26.771434282129547	10.900335589008648	18.566015845062942	14	0.14903669098770356	-0.45246362846072297	0.3149709432499523
Si	26.82224598917532	11.782000307537855	24.163909737602022	14	0.020851149925336893	0.1428961201515939	-0.09164987735253044
Si	32.77486614030976	13.643274157811145	12.746630416618444	14	-1.4703112599377526	2.5563520607105374	0.4009775015352897
Si	27.421531053826463	3.594864152358827	14.344563279184506	14	0.3271250723193563	-0.05354223984995568	-0.12840202813032311
Si	41.93984707512506	14.070850188206412	21.283238981894	14	-0.41862711111597817	0.07076556016856364	0.3072519708578037
Si	31.012685165780795	10.214329350939577	11.753561565414817	14	0.13108291964764154	0.2118516221747733	-0.010275422411971796
Si	42.46125559812838	3.014815426660973	16.09984040926196	14	-0.4294512074032696	0.21411265219331152	-0.13383734477711617
Si	42.22942626579864	6.9660182594025875	23.77120089890781	14	-0.04568159955466697	0.1324162948666703	-0.06689913198812494
Si	34.98368141531714	0.6731281013413665	19.260123399893743	14	-0.005561815028544324	-0.05461387654739341	-0.2579409990332157
Si	39.83538669265763	10.96614755628959	13.03357288108645	14	-0.055915370060452364	0.14929585840397447	0.21939036008397944
Si	39.65420733509711	4.9069360329526015	11.328359242068306	14	0.053424483226292896	-0.16622144472650927	0.034781912770963215
Si	30.88437265873979	11.29137156051915	24.204020975845754	14	-0.2581939957967183	0.04853604068109536	-0.10605629468238414
Si	26.653060958629244	8.841091630282113	12.572957723812946	14	-0.11684568104785356	-0.10079401342363709	0.1897768832275779
Si	41.40735907434839	6.145970270920181	12.147041491326513	14	0.004335912011897721	-0.27897058366777094	0.08177914691794995
Si	30.303711310782276	-0.3184998623075455	12.137241168831334	14	0.2074642880564726	-0.10301956218875727	0.011016929186302503
Si	37.064948735863574	4.3014692012866655	14.149674252282505	14	-0.037472060267434146	-0.11446766573724859	-0.25126718095370737
Si	38.58440060281895	7.469624796369903	13.569097854611664	14	0.017544194262562433	0.17869284819241957	-0.027368130580316227
Si	36.20029367858121	4.563215737459425	21.82581646287241	14	0.20572005020728415	-0.3182290479116439	0.05572870781420961
Si	33.98756742306817	-0.5278320716032608	22.537015361918012	14	0.3553570942872423	0.36004627617012835	0.1321069908966565
Si	34.22030507000157	1.878067868484737	15.670352997416558	14	-0.21207119456911394	0.009666841782692748	-0.065302475584313
Si	40.262108319208096	12.380809977315497	9.562401247101121	14	-0.10941955755166985	-0.04737698640277261	0.08079415646980122
Si	37.20627824067781	-2.0441946887105993	20.224951181756783	14	0.1363559995487332	-0.019268120379721723	0.11696009523460013
Si	35.018132023881634	13.165020380437548	19.983161428314666	14	0.10923546641074726	0.020759875686471634	-0.04429114579753088
Si	38.81759567437289	1.3081167912854177	18.472464341864654	14	-0.22764746481963502	-0.15249996985394298	0.19867547874061042
Si	40.58347525369084	6.351883231177321	16.430158163373164	14	-0.20802067524775264	0.02276148117820691	0.052876580682569355
Si	34.04733648437984	11.917123540446905	21.869343682836003	14	-0.13937781963150325	0.24625866779005892	0.061438618509194465
Si	37.68761800058073	5.70132903485986	12.327206346425037	14	0.24712924405146108	-0.024730433632376314	-0.06568402761382298
Si	35.10551973031807	0.9976757705962631	25.152084145365816	14	0.11521277205902752	-0.37687904559060575	-0.24080483918496082
Si	35.1334879785457	4.47218823797093	9.944015905087749	14	0.4677681328789044	0.010076933081256366	0.16528016306880308
Si	42.624549653025575	6.113233371023376	19.713914762024327	14	-0.22658662676454194	-0.5122526257965104	-0.033309954975178434
Si	34.63013955975712	9.19457794142393	17.190342338301075	14	-0.006545262813500966	0.12822873563174514	0.21111782871640303
Si	28.825968400923824	3.7774223184184166	21.880526081148975	14	0.19462007431914086	0.11672046821876234	0.1401928600179902
Si	37.622320635997895	0.22241455344330807	16.770385695156605	14	-0.015344870771707764	-0.032041371610217376	-0.12628883666769342
Si	38.470000338879956	14.053208300787599	9.825046295921378	14	-0.15494534812393584	-0.4793522478988315	-0.058743843023147266
Si	27.28000060891106	-1.0309550454002854	22.1250669169518	14	-0.7181071448120383	-0.980890049384157	-3.118771065071649
Si	32.35193950445046	10.523053395642327	9.80545708654653	14	-0.13908574206713445	0.03049150932323211	-0.22125878232013105
Si	34.12956346090092	-1.4423447788656885	14.002700454382614	14	-0.22573816200889307	-0.36704713884635953	-0.1191262514668249
Si	37.70211672739265	7.30181203968546	18.986710902237725	14	0.18077261528588734	0.2978823488501201	0.07492252325017905
Si	34.52102581750414	8.388520611692769	20.570367215664696	14	0.15350964291316516	-0.2678163574573725	0.20437639056697476
Si	26.962951436114388	-2.461483566121676	14.305754067449962	14	0.0009004010831158572	-0.12274302532067721	-0.25628854964395653
Si	31.462838368518685	-1.1181859205382552	19.801382517769365	14	0.35659610994102164	0.05711170536591727	-0.04507019070953575
Si	39.09690894963395	-0.19104339277070279	10.395113362935195	14	0.01795737088751023	-0.07108360589666596	-0.36117062052662907
Si	28.125362149162562	8.961168860493945	21.89059269011969	14	3.330260161396282	1.4854381009783115	0.40778527420197774
Si	29.767570447678683	12.98930071245511	17.854179818867298	14	0.00043014592006077366	-0.1500044550302073	0.00874715740967578
Si	28.959466142770584	7.408030937554132	20.350906318342624	14	-0.12472406196985131	-0.16629215012281334	-0.4348394728227039
Si	33.12791299708398	3.4925497003583796	17.004493982292278	14	-0.0010099301697541654	-0.2908879139371892	-0.33142113219879177
Si	36.1580570495113	-0.32034099640523994	23.4931439076939	14	-0.23152597719507836	-0.014396647129637154	0.29281110071666
Si	26.538737476680126	3.4965113243041728	8.753560161822069	14	0.014665584746124644	-0.12407048699746967	0.07508141755896419
Si	27.361289864960018	1.4786463234840272	13.309297006735582	14	-0.1616986133578368	0.051437533034882466	-0.07486853003845595
Si	40.033039871195214	0.3386134763366616	22.796306508074057	14	-0.09816608667591373	0.06837700332614606	0.0854663690575743
Si	36.41689240470616	5.615328305219285	15.947521277939128	14	-0.24617407842502603	0.17351567051976938	-0.01971780670021562
Si	31.873927508662014	6.634612488158231	10.62973788642834	14	-0.17414713398639775	-0.03324953400015496	-0.17753276547196875
Si	32.74692403063189	0.37780169704251254	14.691951139938839	14	0.0074022122167063205	0.14681577021215966	0.00917498933494842
Si	28.40224617295665	7.2453184653887694	12.697813407650116	14	-0.14885208562571692	-0.1983854580604977	-0.06822813632810949
Si	34.22365080436899	8.43055956798023	13.443141084366466	14	0.22702011512151887	0.08487115817596003	-0.04958736564650391
Si	41.94357181846379	1.7358937617818524	9.612477807435306	14	-0.2261263989122354	0.21480967884560362	-0.14671909665212207
Si	40.36112441296254	5.129886426665691	20.016130307840463	14	-0.09658845645147088	-0.056195877650880514	0.31422917936508954
Si	27.40287629760501	2.7994893211767558	18.354842501669534	14	-0.029284118264890573	0.22140764931816764	0.17945132426186325
Si	34.0096332600314	2.821971741276553	19.146731103779306	14	-0.18732122053630448	0.05641724981894527	0.1872325174027594
Si	38.19828848061675	13.56811929265557	22.342523314240267	14	-0.24389093690073455	-0.03721752084073949	0.18303750196240579
Si	29.125976872945834	8.421437214119074	9.16093599424219	14	-0.08802821839856986	0.23091045458143494	-0.020888688063011054
Si	28.00332616137918	0.4282278604795436	23.84611398247824	14	1.267956015262946	3.9828776541566997	1.4299467061851516
Si	34.129055392840236	12.132229101917645	9.638565713740615	14	-0.21152946267815875	-0.02349810285242934	-0.269874527266151
Si	40.16234564312654	-0.2867153858170905	14.309776136792044	14	-0.35619373195841847	0.18419835601445264	0.09057669799190063
Si	39.66842180518056	13.954672502884726	14.93708989506709	14	0.12575816052961486	-0.14608351941698147	0.4492572030159663
Si	37.19528861416921	6.618684309407104	22.57775065803692	14	-0.19929202979638191	0.20370044697830783	0.17612868485663588
Si	29.912570785072795	9.284600740406583	23.51238678128462	14	0.1998908402254444	-0.03234013404841858	0.6730778346770929
Si	36.52599307768427	12.804927550847571	16.627737827239585	14	-0.8962137809914641	1.4916390927894447	-0.33692921112614493
Si	24.81930936757854	-2.0425414254392	19.24081027895058	14	-0.19501551031737963	0.11619519140185608	-0.3242233228550372
Si	27.236816457412875	-0.19407873185989202	14.977603013513162	14	0.08122558794252206	-0.061894732592988735	0.4164301016199117
Si	39.018486765760194	6.990300972116102	20.919543933417234	14	-0.16349787286087641	-0.05653217822675589	-0.4777558486055517
Si	41.11841864448422	8.198558701417783	11.037922380231208	14	0.07618030797279549	-0.2688882512653422	0.17037917913972075
Si	29.08019520306669	6.781748018334672	14.915821283871097	14	0.1686336557378722	0.24442289859147318	-0.08395198802400711
Si	40.29801615192089	-2.0070632451378425	22.87171785774901	14	0.11813637591856789	0.4168998425619027	-0.20536060968352743
Si	29.660471007415463	11.44148851902593	16.04340237938348	14	-0.10047442503234268	-0.05810852289853867	-0.12667090291826744
Si	38.219743328979675	12.589544267285785	13.556930359705163	14	0.038517214580074344	0.1748043085062276	-0.23349441542818375
Si	31.158423917205212	7.786574315945672	15.245265030225186	14	-0.002681662848914446	0.08361131656908746	0.1440839708095023
Si	35.186550868188306	8.198555434099065	11.268761714989344	14	0.006607226451716534	-0.00895464560901173	-0.20258792970627976
Si	37.98226153526748	3.151565784291678	22.36209618702153	14	0.08836888985348948	-0.04770325966789939	0.06138333974481128
Si	31.604787030230014	10.159291367131834	15.521645886936675	14	0.022937859003169074	0.12862520007211198	0.03799528020008428
Si	38.25452720405342	-2.0661494368374096	16.736864638767436	14	0.07722314829064755	0.31064917231731537	0.22467758106433197
Si	35.665306178985134	9.383610299523593	15.081052858768176	14	-0.00581609734470697	-0.1682202220023924	0.08753302351390933
Si	38.225998610665634	11.665760543160523	18.045050043745935	14	3.3778574915249906	-0.5760229797205472	5.067448554017957
Si	41.94262429603552	13.493421852120537	8.411906445418142	14	-0.302134957049645	-0.37536055078852637	-0.20921032567938516
Si	30.8116862528758	-1.415941576304076	10.124231403626403	14	-0.1336596813994939	0.07509581574875704	0.001607197935624564
Si	36.09898229342725	9.08896513117748	19.037254689148607	14	-0.2365871980177899	-0.20318468325108616	0.049988458076447015
Si	31.38810172015904	5.16150263624216	25.130795930257516	14	0.029237324148063883	-0.20449646118542567	-0.054193243717017184
Si	30.648797345499652	13.60378534378322	21.244083434375337	14	0.2528854346422086	0.08848124715597995	0.014315914422584503
Si	27.295082552114174	0.11323873213468244	9.6419686261856	14	-0.1621138468670407	0.8104692183382499	0.5388077728745958
Si	29.228907214524654	13.372359525315174	10.377719791738963	14	0.38280570046407913	-0.02839065916613912	0.10846310637257477
Si	30.596494107459026	2.2770891669424693	21.636367521636178	14	-0.050163036127685065	-0.16375215517703906	-0.0802555099052302
Si	38.26245045194501	3.137271264899641	24.66057648961192	14	-0.03375192797971189	0.047160242224284124	-0.05282181613925019
Si	31.085525135624543	-0.9669695092828074	15.721782227700071	14	0.26935027889137286	-0.034366165040695264	0.004960433494161689
Si	26.273065257067472	13.147466710624125	17.874799867297735	14	0.09792543121794786	0.3639834097468711	0.5122513402438503
Si	40.950798659604146	0.27350398258012965	18.173409926908356	14	0.0696864672656975	-0.12873550049034635	0.07396530073948793
Si	41.382122304569165	12.025642630693177	11.590327955913901	14	-0.2419489810524267	-0.06669292934144909	0.09965269977202335
Si	30.698503065159326	6.6250098384455	21.708498483318078	14	0.3380651254565864	-0.1126478373916478	-0.3209855299253747
Si	27.747896985948024	10.912968676832492	20.684112382200695	14	-0.23204791157506846	0.1586670230748502	-0.29553930057186917
Si	42.25926832131113	8.860474998577716	14.548795203961143	14	-0.12657525780035792	-0.0787380435452788	0.03380720674409508
Si	36.76054572016562	11.210152551822631	19.78074286542662	14	-0.27087185901983646	-0.26353315310453784	-0.23758298710828327
Si	39.7758038685129	10.106455556140146	17.091252729875475	14	0.03858560598159028	-0.3023637854231382	0.2535415807199104
Si	35.52692869663278	4.5563609027886836	19.581696175455736	14	-0.19422695231569023	0.21691412855014489	0.18118810590562323
Si	27.26684311643295	9.882676897131997	9.286039994301943	14	-0.21039689078463353	-0.02540149212093496	-0.017833186500547077
Si	27.08420816838348	10.78626532426019	11.442120745197897	14	0.26657219959295286	0.2933595174814477	-0.33228605202848954
Si	39.04928777931647	13.662286685432235	18.91833572342237	14	-0.47201791286257716	0.002285969740143657	-0.4060330659262969
Si	32.89671915824493	1.7501278357776036	11.055190159656789	14	0.06037186691186503	0.11288797862854963	0.13995169033896032
Si	36.63527181953252	2.661211492045301	9.64279362416194	14	-0.09170824144329781	0.2416677021304025	-0.043393830040799206
Si	40.955593449823084	10.697747125547258	15.11029372763653	14	0.009115853912585016	-0.09377669567335693	-0.022826787253338674
Si	41.214737566636806	4.9255858881959735	7.581568036632827	14	-0.07795539908582573	-0.17058821000224877	-0.16119441960455577
Si	36.390597023662245	6.343494390368393	10.470955998680948	14	-0.15647155624197576	-0.12615539630157774	0.2694076145400121
Si	33.644580640627225	-3.426776940902057	17.810116758633924	14	-0.15894161712304203	-0.07330375534061381	-0.17711418952584862
Si	28.97238185366355	12.619843747418829	24.524672367529224	14	0.14045511276064532	-0.01224720308199336	-0.07995880435128512
Si	31.435871553478187	2.860171598070154	9.495950519010774	14	-0.19952008683827907	-0.3903333826204087	-0.05014400994831597
Si	42.305884791122764	11.822613079204832	21.757701035895153	14	0.2276664909990041	0.06250742699078002	0.19602955425564605
Si	39.03489033938481	9.065708356541474	11.91923259467949	14	-0.17891499169208033	0.30566559887527234	0.6521168985545858
Si	40.39846823225197	10.604530522517582	5.879077707766288	14	0.08403426339425182	-0.27349052978840727	-0.23511858265892133
Si	33.9280662818914	6.30960576062343	19.67083843204384	14	0.0347016942849746	0.15735447380891457	0.019900098067414117
Si	42.19870366789159	-2.2979281257270214	12.012553751908149	14	-0.5837146983963022	0.47004767485574767	0.6749331442761117
Si	39.74120296328738	2.8365978935184852	12.332411185143098	14	0.029650757883543693	0.21534112631527824	0.01653400698227625
Si	27.520491603162696	7.978248301228984	16.295585473668122	14	-0.09672343948077865	-0.11249639928829105	-0.1424225225516226
Si	37.296407227518806	7.778579187042286	15.48913769935014	14	-0.03976342932875011	-0.10980008113905178	-0.30993363370671817
Si	33.12258726757335	14.267696339020603	10.2368346422704	14	-0.05336380514073741	0.12767003444567696	0.02461319122977756
Si	35.542897716867884	8.302449634699753	22.664545346126012	14	-0.16668295813147585	0.07613222830330872	-0.2557956687540842
Si	31.230862006846625	1.6454854191904527	23.822786960489797	14	0.05273799810581337	0.035600295594366345	0.07335672011020887
Si	30.644430574032803	-2.1441893444211386	13.672247106544607	14	-0.4892252923282002	-0.08984264742299836	0.6107933225175697
Si	33.81768645363512	5.196925272125308	8.068058724494955	14	-0.18569756752663097	-0.12384731505568079	0.03872238878462216
Si	31.20273856097989	7.150487806912313	17.479918261655936	14	-0.3605880080610835	-0.13833960730322745	0.1058992001473231
Si	39.9120592273578	1.1846366486286	8.64015479643276	14	0.2015070370296895	-0.09410374027007977	-0.0181062378855468
Si	27.226099652017243	5.1703309314186825	12.381089333065901	14	-0.27967583785708755	0.22377640864962006	-0.20851201347443293
Si	32.922548946371506	10.779269994884565	17.428069180917134	14	0.13699954721036628	0.10721432051857885	-0.034508861385963485
Si	29.155923482657307	11.704372082112615	12.04522367177123	14	0.03320016877800811	0.030101215535633635	-0.028699448915088903
Si	30.258043997058273	5.160016006225388	18.40905058652286	14	0.18425826276841206	0.09592099751036043	0.24710687543517576
Si	26.200192614036546	7.570875736127584	21.768020862066525	14	-10.611469991083663	-9.681333046498166	5.01597219729274
Si	27.239097045878164	2.5344182882082493	23.138500965725843	14	-0.34679042847104086	0.15370761802281654	-0.08853344059397895
Si	31.842167537061947	5.356130277646707	20.153431208675183	14	0.09285341175289176	-0.2569714352169879	0.0031035812319507466
Si	28.61306337860978	1.0607595267475236	11.354360564427584	14	-0.2743348807755439	-0.10413850722408571	0.18833243625871873
Si	39.071915595099235	3.1628690733972222	14.569243718158871	14	-0.2048561588197144	0.09631000574529883	-0.09465215703486735
Si	34.112119246264555	3.756658507964383	22.68386990268469	14	-0.004698437862038599	0.07887328368511859	-0.18164164888409737
Si	41.66312314994816	8.686911760949277	8.817166688968241	14	0.10739558344364929	0.05298430999548356	0.15530016065811628
Si	28.199195383896637	4.640213370372055	19.7062447313334	14	-0.043590776708322544	0.06658082914949064	-0.38329035381692705
Si	42.47621828419828	1.4097630766079976	19.520806423823736	14	0.23757501668179082	-0.22731296401748374	0.11622990132367811
Si	32.575165986595245	3.3125972209765386	20.94617421462976	14	0.11811272174962252	0.489952400912738	-0.17531081625429676
Si	31.875507257262257	8.369663281710793	22.642458271591114	14	0.17109291797659384	0.02422392588430714	0.10076444571245537
Si	37.22657155723642	5.1370042804932465	18.12557474721484	14	-0.142168497345992	-0.017281941519907328	-0.1913252028513711
Si	29.592190580842935	3.145078522976732	10.89584629308987	14	0.1478485832192631	0.01592876878991339	0.10900792358991414
Si	34.077252054563495	3.6297542152909124	11.85898650483497	14	-0.21396198542155084	0.020816954224578924	0.03696349563510885
Si	33.78659791603164	-1.076504735650433	20.283006534400766	14	-0.1996440141147102	0.21880851895002995	0.24326667252900258
Si	29.019911539056913	12.714767524478752	14.159329179094726	14	-0.05274905385869001	0.09460896246548886	-0.2155049057241717
Si	37.91675016130861	11.26622300834532	21.847037697946988	14	0.21930191406096639	0.270498534527351	-0.19782392865857737
Si	30.710530065360945	3.455909988252709	16.87624518796628	14	0.061088691075122305	0.30074218929772084	-0.05929868755123521
Si	30.66993363028756	3.68088611957107	12.979549399740701	14	-0.14336971775156518	-0.03542211799568008	-0.06629517934842216
Si	34.77754464372781	-2.010578880078604	16.260164471444334	14	-0.42105192054340984	0.5197846788318842	-0.1732732152880794
Si	41.39452341276402	9.354727202054882	18.617877995076615	14	-0.059271176724309635	0.20172815208722225	-0.15940313052800859
Si	42.3039946472443	7.316959329262943	17.71919054602569	14	0.11168932932829657	0.11890205108290798	-0.022088880026456176
Si	23.7124757459266	10.243839773602177	8.484667999612652	14	0.06721872037941935	-0.04347481985838387	0.22927137493984057
Si	38.28239579906014	0.976018348472807	14.719301864928724	14	0.03488321432057705	0.07239049873089722	0.01594856630087853
Si	29.800921603494505	11.89946695009386	19.924125880055232	14	0.0929151182805753	0.11500348408596746	0.19388679508183462
Si	33.90021238981891	7.530726923718587	7.655128450253931	14	0.379782080607585	-0.008427826128913388	0.14511884070086192
Si	35.700188073620424	-0.9780244821657694	12.311505246324824	14	0.010767789080780155	0.17719337956970918	0.2742248374678416
Si	40.79221934561729	7.035554970022254	14.22951771979867	14	0.0074279232699078004	0.160608207591562	-0.07902832133592352
Si	41.75418822360192	12.881000532562956	15.453978082623806	14	-0.3442818010101724	0.27190518624800397	-0.2338939651949348
Si	27.878084933933266	-0.3010474793743871	19.989289284570617	14	0.1521076191820884	0.6461285371534289	-0.031827455647581056
Si	30.12884277932592	8.069731591678664	11.260449656170294	14	-0.1510730064012608	-0.22421015411712905	-0.05095596500841874
Si	40.61997773841035	8.78756151406281	20.84158244148274	14	-0.32236698481389026	-0.04328661494894903	0.3017058395717123
Si	30.349113971690105	-0.48557093764296166	24.235049068052952	14	0.14661111022867584	-0.04684708159629009	0.14209187840745158
Si	40.751828751623144	-0.47166849649710574	12.061176355412742	14	0.0030966392475863464	-0.01655149049845326	-0.024148849608958817
Si	37.83970351861521	6.857232882680784	8.61547347083563	14	0.19116065211088162	-0.16557198352263988	0.12873704315353843
Si	41.69133154610157	0.7254035671728873	15.911572603742352	14	0.10813914710223611	-0.47446072002724987	-0.23424903483964724
Si	31.629043604393782	-2.1598381674218623	17.701535589332007	14	0.06161962432373289	-0.1551793187080693	0.12128006639351294
Si	36.65018222850293	0.9632513005815186	13.103161868805605	14	-0.08546482639438222	0.1345618822563339	-0.024955148237357255
Si	27.985331403538805	4.675869619543553	10.155698950201195	14	-0.22397026999075922	-0.18531087328648072	0.2007827566610038
Si	40.24070084696658	3.826075961450835	21.949649475950793	14	0.029921752384287296	0.01587194736233812	-0.13846224902699852
Si	38.04237039772584	9.226107567054367	8.938163669399241	14	-0.0910551806919802	0.14603981062653892	-0.5777489627219625
Si	29.2535640352314	14.321705117432117	22.95128360317413	14	0.709299566427339	-0.5522124875717199	-0.37843713541461554
Si	31.6022956997074	1.4437807654423285	12.974025997447619	14	-0.006321833761180098	0.14374767023362695	-0.11688579029084785
Si	36.554323998289604	10.250893914714728	23.523234279428973	14	-0.025404834557851155	-0.06418841564909283	-0.20146461379190703
Si	32.8174654417574	14.660347999637244	7.765098230011075	14	-0.03184853871120628	0.146665617661463	-0.2378506391721106
Si	36.92619714551798	9.747272674813182	10.95480179204071	14	0.3146066176260873	-0.10302598995205763	-0.12218663812939717
Si	28.264835816944874	6.35235209141338	8.486427450742392	14	0.1963987649796193	0.1466036540232474	0.4081971652742655
Si	39.167280460186106	5.194460080152441	25.338793439856854	14	0.226883332318487	-0.0752480251837098	0.32347178876995786
Si	34.271856824737014	-0.16521197098477172	10.597146382214495	14	0.042501399384175804	-0.14242380810428268	-0.06471189269227498
Si	41.67937806057111	1.6499306063065367	11.910858456804796	14	0.14541143248629476	-0.02552181984991789	0.004234353351751871
Si	28.994807095685776	-0.15952356909642035	16.50879435662296	14	0.2622393729074393	0.2836322547237314	-0.3551187528240646
Si	35.47362075808632	12.106706441750584	7.653494790894842	14	0.01206156927787867	-0.10458253711287528	-0.04440530287374546
Si	37.77826322377919	0.8408934819043957	22.153276946764567	14	0.1210952039209943	-0.1222843401315628	-0.1864357318640455
Si	29.44914083272358	1.7218524595904738	17.852763436202967	14	-0.03594019571768992	-0.06662608060312523	-0.1428752941985007
Si	31.50905949276542	10.37914270904073	19.30522873479822	14	-0.015630777683308228	0.05703457220631282	0.4207852969217105
Si	32.6892721918496	10.234727221697174	13.433984423658767	14	-0.04612048723281624	0.023572150685649603	0.03977037131311452
Si	36.230720584144265	11.671880231119674	14.624389523484314	14	0.15713335875138185	-0.07526550869988681	-0.06759795841414121
Si	27.008994491490977	-2.101243707189381	10.225390858459974	14	-0.2138115757603222	0.44804389841538844	0.022597958879845496
Si	35.730201663365634	11.777140170944561	11.288935774414746	14	0.4228979741632762	-0.062354703334763235	-0.09286163928991624
Si	29.683337337464643	5.43392840364529	23.432577620614992	14	-0.049673240564196856	-0.1800077114531433	-0.057941143942197036
Si	28.44529636438739	9.860939425699947	17.285932648379507	14	-0.10934011039727728	-0.030196860653543142	-0.39007910030424603
Si	39.14716521249763	3.735141580545808	18.367090045884634	14	0.08990461106121393	0.05260712884501783	0.10383537390684025
Si	32.98126919837463	6.599879256524619	14.242977439258212	14	-0.12585457697912042	-0.2623087927510833	0.10153346331371167
Si	29.978255326923726	8.7242800851291	18.675758546169174	14	0.2759587908957495	0.013652312139454283	-0.05993349345477978
Si	34.2424705601857	-4.508734831493133	13.137540596358296	14	4.147930531515202	-5.287167501361851	6.179479887140522
Si	37.009111892629235	-2.5300662196756334	7.838044387713162	14	0.10710813386885672	-0.058571578966697346	-0.18006427577018652
Si	40.347434347533365	4.019988060056099	16.376636215450656	14	-0.017775850851907773	0.13184216704868124	-0.03413605111454201
Si	28.05632697196614	-1.747976306401682	18.03671674735522	14	-0.191011270891781	-0.8518457591448608	0.2613130036605899
Si	32.410274212844854	5.198256704502967	12.439909238289937	14	0.164636872517702	-0.051097890022090905	-0.025874318389310196
Si	38.93385340900317	7.9301974785000695	17.12531779483122	14	-0.1959457362222092	-0.11418201593618015	-0.4781736532200757
Si	34.06752851405819	5.466911986105317	16.01939575510165	14	-0.12570879530746804	0.2141992984426005	0.20356597817006405
Si	41.61863370462206	1.896441635296422	21.74182023326544	14	-0.14094413699253747	-0.18414821946070975	-0.1691147095432719
Si	32.87188426866805	9.905172386506665	21.14233912949121	14	0.2934271375513675	-0.08170278508994155	-0.09370753294024495
Si	29.557653388332415	4.402912912848718	14.968139224845954	14	-0.10218703828609331	-0.24679551458090582	-0.1854810804586745
Si	35.30671794966488	0.21541432308960742	16.977808156661542	14	0.0015820011034871132	-0.1053870359675496	-0.0347852552078794
Si	33.54251123753064	7.132548593490145	17.536501687217374	14	-0.01750459924063215	-0.07420775597117789	0.2655435003543616
Si	35.29424496045824	2.783089014870851	13.730152162527553	14	0.3997881082141892	-0.20389713653529914	-0.06238015727743269
Si	30.004986895016515	0.7335277551656418	19.927924138065116	14	0.16362359991103165	-0.017734198945721376	0.1275821026437279
Si	37.13515034584238	13.609445973462469	11.702844610611866	14	-0.09517563407804949	0.0124858016557031	0.24940981447043242
Si	33.35145477548507	8.35247065061573	9.797501165467763	14	0.2663929935521385	-0.06371250405433343	-0.07791040474272314
H	29.95496261178182	8.465864580389526	20.846720300167078	1	0.9445374483731153	0.8269708293934922	0.2823158487998156
H	27.723263036472307	-0.9111522699607795	23.50259789440495	1	-0.7305116995396247	-2.895886829968121	1.7036727492208845
H	33.74325693323498	12.610822680437934	12.310907326999395	1	-2.413861146757399	3.2198923802025408	-6.256970944605529
H	26.953332449808062	8.308593827549291	21.34643546054104	1	6.725364627408824	8.417739682742448	-5.714812507277716
H	37.62672171431129	11.652282853448032	16.867756693936446	1	-1.5072395314299754	-0.8853382625977697	-4.402416993440267
H	27.350682514741447	-2.9423364955355855	19.185564820404235	1	0.04857537859249362	-0.007330992599338217	-0.02434039695530985
H	27.807427532993266	-1.9201672701684862	8.82348404970984	1	0.2783902851970135	-0.4218584762823403	-0.3415356034177222
H	26.807745628704037	-3.659027757346446	10.635800396309925	1	0.2850509906393891	-0.8134236754616319	-0.47579075280936245
