224
config_type=amorph dft_energy=-23230.082878600086 dft_virial="-35.34846629038781 6.899814511072167 0.22140594988854684 6.899814511072168 -27.965584252286085 -3.361344875580665 0.2214059498885468 -3.361344875580665 -18.654457668791384" pbc="T T T" Lattice="16.226668737714522 0.0565027861199472 -0.1061415060340536 0.0569409180054264 16.54361658909155 0.09857967423281999 -0.10628754999588 0.0981902236679496 16.33380009726762" Properties=species:S:1:pos:R:3:Z:I:1:dft_force:R:3
Si	33.61883969007394	1.3772075417084477	23.97952117288499	14	0.7628965708206139	-0.6140884510958716	0.11577970078212017
Si	32.169103471501124	12.525317587500744	23.10366470230902	14	0.030814954372506746	0.032002290809351124	-0.11549919319169201
Si	37.042032265171784	0.016608443881035603	20.284899403890037	14	0.30157908407942896	-0.12966135551613164	0.20994309069562733
Si	37.79467793599757	1.370745907752973	11.639487937042714	14	-0.10378163780564917	-0.04190361739724138	0.07004307957360204
Si	26.611570888819607	10.693897097405323	18.830397284029626	14	0.18817739860791383	-0.19372275856240917	0.3694143555146199
Si	26.752868421886646	11.632881881836099	24.46325447408914	14	0.102129445526922	0.10872998710480614	-0.18387362541251792
Si	32.71088275668853	13.434366605178482	13.114100310446624	14	0.26978582413260593	0.3862327267453045	-0.06094702317198216
Si	27.295863117378577	3.300035324800326	14.615988827787643	14	0.3026134397497246	-0.07549099463646379	-0.16935253678538562
Si	40.5721728335151	13.553791620895991	21.742830311431998	14	0.04670849901953411	-0.018901223650536588	0.015040194791270218
Si	30.844166686441035	9.932883107566882	12.035804190829642	14	0.21034906822567873	0.1816771301375154	0.06918741572305674
Si	42.21482014397509	2.6607327500373206	16.46341898152061	14	-0.41039520321246015	0.3689664689678501	-0.13461099036794874
Si	42.1076125170197	6.754354736295435	24.13016714221961	14	-0.28037903516214796	-0.28642961731205246	-0.3460923733766207
Si	34.816007481064176	0.4456450359598248	19.5659833974034	14	-0.03709025112739216	0.10871867424139749	-0.08795674167066975
Si	39.64403424731596	10.759428645787516	13.411247846021364	14	-0.1047026077313262	0.05665379150839889	0.03178246130447846
Si	39.44433535662523	4.64642921327409	11.658923142940434	14	0.00762204172157898	-0.18939867363498414	-0.04480485264049647
Si	30.90549703685469	11.076800024653839	24.499786559784674	14	-0.13430785705070325	0.016261726928872573	-0.11630266360423827
Si	26.509612730936535	8.614435542543943	12.824316635969307	14	0.04204194286346534	0.04094742332867831	0.0732271364020734
Si	41.1827420701441	5.87939075659729	12.523599136883254	14	0.048348349992724554	-0.2662143017323882	0.04402169395997937
Si	30.166561648623027	-0.6669065062588816	12.4082860700465	14	0.1372602572898293	-0.11622681599729393	0.03314206179777277
Si	36.84070417295134	3.9993149092640596	14.432380736268806	14	-0.015195489552607163	-0.0009531087421788929	-0.2383630604624162
Si	38.3443549540984	7.213898289289072	13.883627040548854	14	0.031944440939647795	0.1397434308080283	0.027208464939935034
Si	36.101940792052496	4.2800876712966875	22.126491044571324	14	0.10497565911632593	-0.32711453078754366	0.008688021987312373
Si	34.007457804361934	-0.7061712367512528	22.876942810548343	14	0.32341496734238256	0.3356254036182978	0.2662932346657168
Si	33.95454283157085	1.6774593228273436	15.918822670580653	14	-0.20741543705538978	-0.03821870925240515	0.07411956705869681
Si	40.10943416317884	12.200533666216385	9.892764831253169	14	-0.1438093767613105	0.11074136279675798	-0.07313380527895202
Si	36.93824206692314	-2.384852460725877	20.4350796552575	14	0.09649049733877324	-0.009359080475871022	-0.04432996948786511
Si	34.72425941882345	13.301030090741667	20.305520811299925	14	0.02880846378066318	0.5853866881859945	0.8042538283373237
Si	38.643143050177656	0.9819087275222438	18.801175509978847	14	-0.2595286565684072	-0.022597444658781465	0.11464275800955069
Si	40.40969892598323	6.0820462261596635	16.772499931487253	14	-0.22161282352271544	0.036881734485928144	0.04417776005291235
Si	34.10508007928944	11.692927045385682	22.03607847322597	14	-0.6607360149193181	0.5131782237117637	0.4145891902106857
Si	37.46450661523251	5.433025237092454	12.63643270179033	14	0.27697386327614393	-0.04007864684100027	-0.048983927227865154
Si	35.29686858435241	0.6018990934285771	25.476246224820102	14	-0.16702928601809983	-0.23047105268222165	-0.2891632164884339
Si	34.956125303461796	4.133855475030599	10.197352495327623	14	0.44662696227345483	0.12184596667447753	0.19246754494511287
Si	42.537814215371725	5.872602957793736	20.02737846329086	14	-0.41909016718413683	-0.5270408522664062	0.06722411970059167
Si	34.46305979309694	8.935256804330743	17.55947080147431	14	0.2316306211816084	0.13403969076581182	0.02060252404087857
Si	28.75878710570431	3.5391109130208296	22.1093584651384	14	0.02102598508710696	0.12230388053199592	0.2240715715403731
Si	37.394202674719956	0.0845513403440508	17.036776216676248	14	0.003934562471422605	0.020815668671918846	0.035157551258236844
Si	38.307897513094474	13.859492464501699	10.1097488361814	14	-0.029259435653817153	-0.5424353453707927	0.03713036037038647
Si	27.407852872728434	-1.1025410399908502	22.64555238014128	14	-0.6338664216605785	0.3890784261136444	-0.18307812542646412
Si	32.22584155067069	10.27359393424375	10.104577257222058	14	-0.1647893390631868	0.038887453746175665	-0.3367134953897845
Si	34.025005797730714	-1.6920588508779224	14.291738778319294	14	-0.6641504427844748	0.10755627752615855	-0.5081851371800362
Si	37.57318604078096	6.891756141003085	19.300303467470187	14	0.10250534112472764	0.37436064792952073	0.05166893251369579
Si	34.35395359463781	8.087249294564378	20.876052907149568	14	0.11274656783594147	-0.32818205371646914	0.17617907852091078
Si	26.82613705482427	-2.7930145025276127	14.611271607820651	14	-0.15506644718451482	-0.08949246287839419	-0.2994815763592522
Si	31.29494111088234	-1.4408616138258277	20.045208808319178	14	0.20792734412463126	0.3305803807591033	0.033229736489189816
Si	38.93048941320316	-0.4831929385453922	10.669527228308556	14	0.10136454169417795	-0.1321206177548533	-0.33366904958019716
Si	28.013626999277474	8.908319806927208	22.23220902311608	14	-0.10382097571704742	0.3644060994615035	0.04715175757672763
Si	29.705077333647786	12.773447901354483	18.157606828819823	14	0.05367208066862316	0.01683456919420156	0.22327761421751133
Si	28.828664273306185	7.353091166595126	20.692084573858224	14	-2.329847195095176	-2.7717248116212536	-1.8306020482238268
Si	32.91232281594637	3.2528274254952856	17.326550154889443	14	-0.02061049446737103	-0.2622252318281785	-0.27094307863720457
Si	36.25287884931077	-0.6834630233979345	23.731314591628966	14	-0.4434678451665888	0.18960410495006397	0.26028070487455046
Si	26.365816223411578	3.314044186160851	9.056121164427585	14	-0.14049522200363962	-0.10340291399199135	-0.09498742916861466
Si	27.261164694759312	1.1670064674517102	13.608954047988508	14	-0.0623264211762416	0.05918401625395662	-0.06212330385594989
Si	40.084991272101156	0.19746604078547544	23.14370346579907	14	0.0732875573770969	0.11915710473066668	0.15914884821184594
Si	36.22269480782263	5.303253818034889	16.251494588514323	14	-0.18484061812342562	0.19108326184074514	0.023301156184905997
Si	31.654877813778313	6.282077772541222	10.863296734149138	14	-0.11401772230622267	0.03824673430039477	-0.07352589884027462
Si	32.57153896728858	0.08148766256707031	14.968191691549562	14	0.06832455277761505	0.19265446430188765	0.05052067687771766
Si	28.243005268432704	6.995932544395231	12.9637285792181	14	-0.19228653913057445	-0.1720822793037868	-0.06593625304572949
Si	34.03299115702124	8.158990956745567	13.74338751484971	14	0.16284506922009082	0.014721891952635886	-0.07477854135225076
Si	41.80110680891326	1.4571227976198537	9.996288904949157	14	-0.10954554171235711	0.0807486479056346	-0.21254376372695716
Si	40.25745945475401	4.855791346105669	20.293105451833995	14	-0.11142373414872529	0.09135857111975765	0.30864808104664415
Si	27.23792910043273	2.4103501137500793	18.611876572080845	14	0.03367273793585133	0.21863805466730413	0.11336954665501335
Si	33.808969455843666	2.567378204216512	19.484576870370677	14	-0.10990035424653755	0.1234881316424561	0.09808432552673303
Si	38.217311311705615	13.21856393363036	22.354309888756386	14	0.10792625958172786	-0.0600725902525998	-0.10751102607252394
Si	28.95120327083197	8.207993574070384	9.425703259646847	14	-0.014007638894698748	0.17682571150892804	-0.038210995936444704
Si	28.09914709790164	0.5697256086382212	24.139612941128405	14	-0.16343102412255256	0.19833763550154296	-0.021846424794766214
Si	34.01837702457448	11.890649474459696	9.871757218699788	14	-0.17291480320645078	0.05831729665053469	-0.07308264028308109
Si	39.95783890809235	-0.6201042846255814	14.628383092014642	14	-0.3769924313352243	0.13924155104953542	0.11155357496739275
Si	39.31813227836828	13.760263705994095	15.303484287242673	14	-0.017937830487077103	-0.22756673211258238	0.24066394261341667
Si	37.06260336855038	6.349889229438594	22.892128137156913	14	-0.12142559095463333	0.1557778720265998	0.19521554231128715
Si	29.868229534246804	9.107856426549244	23.80576455794669	14	-0.20007081759785478	-0.03416690437838379	0.3411306543297989
Si	36.07599851630007	12.356758514892773	16.987995910715547	14	1.9375834266004004	-4.0094957933151285	3.240262219211946
Si	24.405714775840224	-2.46908250435391	19.41579340977182	14	-0.32956196594179266	0.0446248752680861	0.16924043659342716
Si	27.119826593925097	-0.521373698298874	15.275499018735362	14	0.1314194773340489	-0.05371578945906569	0.3492638317890233
Si	38.8948692909137	6.664907677808825	21.237925503895077	14	-0.17690952954236486	-0.026988892545594386	-0.523393225148712
Si	40.88623388258002	7.92561270574698	11.414909646099511	14	0.028247705710338883	-0.2650105102214949	0.284476091489804
Si	28.939811841809508	6.542568273697537	15.176619143025452	14	0.22049876358749532	0.23832166566676177	-0.08404609047872452
Si	41.48594556200258	-1.6748873263885118	23.287892669310274	14	-0.3310313526322573	-0.08330946880450207	-0.03922889653269133
Si	29.58541702488067	11.22664924304116	16.345099031780922	14	-0.22670181228288455	-0.0632607608495834	-0.08896178674031563
Si	37.984082350090226	12.344198734175702	13.867356120490708	14	0.06639056735579967	0.22874918344931844	-0.24512763855972572
Si	31.019632015732707	7.531702931908813	15.56483807048445	14	0.0126611510385372	0.03181845677896054	0.14388393881559478
Si	34.98148178065624	7.915164071633644	11.558302098663418	14	-0.02436996466649155	0.0036771948288757826	-0.08671412646944218
Si	37.883643049410146	2.8759415094740164	22.67281229697152	14	0.23433131020989195	-0.12693187010826246	0.04403892036562436
Si	31.52630070978635	9.912745267941709	15.874868306202966	14	-0.07302890418189	0.13535095447908735	-0.11845416453613819
Si	37.545820647756074	-2.257839649836144	16.743774706906688	14	1.2202129034625844	0.6685909987829025	0.7269075241018412
Si	35.43744725658513	9.097073514034395	15.416527181828366	14	0.2018543933584415	-0.2565793416556653	-0.07553418920584228
Si	37.84537790870095	11.352079911011106	18.310328245123067	14	0.7411915568184558	0.12642767635498142	-0.14645015903563458
Si	41.908176505460254	13.396088482783785	8.961666420761018	14	0.05803756039170258	-0.23169926969365634	-0.1630026779762159
Si	30.75704010423678	-1.8375283731211387	10.468066073811785	14	0.05855203856626421	0.00281073233598588	-0.17136236981414538
Si	35.984792439428794	8.641768481355097	19.34936774780111	14	-0.3126253238663812	-0.3504442262415033	-0.03088488843721477
Si	31.301504975611092	4.779804672767393	25.386979287219745	14	-0.005489309858516149	-0.10165970458493093	-0.265828121713302
Si	30.58289241602292	13.352022151368699	21.555540289364448	14	0.5802174809398368	-0.5544737747007901	-0.3457966962648037
Si	27.33537287718468	-0.10104457176631224	9.904279586287837	14	-0.09248754346583468	-0.065528218631422	-0.01325044837791514
Si	29.18829590659301	13.053373608408519	10.674721525217517	14	-0.20897404110046355	0.1773430178993418	0.09009075908639264
Si	30.47302678896229	1.9247588088093606	21.966465807466076	14	-0.021969066518537278	-0.09627323893922071	-0.02412390988735338
Si	38.224100733219856	2.8952290486992234	24.96586801413607	14	-0.02498163062215478	0.11136408450529786	0.09435879391783845
Si	30.940901338622783	-1.3013555533571894	16.000091267204983	14	0.23343656555848044	0.040834037584059776	-0.015681171347583133
Si	26.069004588949035	12.94875095957746	18.2123392375803	14	-0.1464121066768964	0.08677866121297788	-0.11282627210086606
Si	40.723114136194745	-0.12837426515609257	18.558763628585954	14	0.00817611491807089	-0.05867750850588744	0.029312657533944218
Si	41.18297898590439	11.84184969597075	11.966068199057537	14	-0.07887045546926642	0.07429774465738308	-0.0376934324354989
Si	30.58176138667411	6.457934175108451	21.959582268731992	14	0.2005917235357168	-0.24179548606481385	-0.3062381840300693
Si	27.50957898298327	10.81447586042126	20.976200119905986	14	0.20881617523380644	0.05764212439346382	-0.258553436320475
Si	41.99970712446892	8.643022836716117	14.915135542928718	14	-0.015192918447287014	-0.05378006709206939	-0.00020311732029169827
Si	36.707745750104586	10.659727678470006	20.177240663363676	14	2.851383053760613	-2.225677577496717	-0.4124775414112481
Si	39.47546706115455	9.834095726366131	17.43626162443481	14	-0.15930131475733073	0.08696918011720087	0.08964981452398724
Si	35.34065094139728	4.289268968363507	19.90073238501638	14	-0.14741972285186242	0.20390202163540744	0.16822844953941687
Si	27.075734299139018	9.663962624391809	9.530702377357281	14	0.043398972251439495	0.006985693154842331	0.16432216922651588
Si	26.95227522465373	10.56650457221484	11.694191137010824	14	0.18356432144250412	-0.1740975116537189	0.014751202553285575
Si	38.50616030482724	13.517293612124888	18.857769167897263	14	0.0026965752597713053	-0.07865576817503406	-0.1254516847754532
Si	32.73784084933099	1.3902054543109974	11.241284470726852	14	-0.07241903799995086	0.13747545880512568	0.18017174797256874
Si	36.509291478510754	2.3549605071613873	9.94425344135041	14	-0.05732382155482948	0.20450083206446995	-0.03641739286510941
Si	40.709997765712046	10.48133984723112	15.513240738771183	14	-0.036671160960208025	-0.05604932464763207	-0.10857057857495696
Si	40.964566995571644	4.695474021076769	7.903623353227985	14	-0.06203742893825696	-0.04945392528038823	0.20894087384183366
Si	36.155076453497	6.03559775545612	10.777054529269275	14	-0.08416564687611139	-0.059305629535599626	0.2224018957454689
Si	33.752955105640496	-3.689135384162342	18.015304837837554	14	-1.6831257610549213	0.17001433929479173	-0.6038443961688055
Si	28.953660054812026	12.32329659781697	24.837522957772343	14	0.2359757891726587	-0.6632081326846405	0.14331880986622622
Si	31.199840528362365	2.391088537895864	9.651224345499175	14	-0.32246160148967173	0.04686713621778724	0.6570909589069441
Si	41.94728545572668	11.653156029158978	22.226573348900267	14	-0.033524642269410806	0.003316468752459007	-0.008201311750208343
Si	38.83621641313353	8.85346569486521	12.293115801750202	14	-0.1656195489710626	0.25182871035562776	0.5395778189179802
Si	40.20435137939119	10.080517325866504	6.292219714334722	14	-0.17252502363991631	0.05079501381537746	-0.09093793828938143
Si	33.71679786611365	6.021356846467359	19.988337666873285	14	0.17352261250413378	0.1533381501883113	0.04789352146159036
Si	42.03867976703764	-2.5965610332108007	12.393817981561565	14	-0.04460199243073679	0.048777724581189286	-0.11743009328712321
Si	39.58105360013367	2.5690009149034716	12.648888629023434	14	0.09508615961290834	0.18557955379243618	0.03393241957318628
Si	27.4022577662798	7.791803982500258	16.523959071829715	14	-0.14475862884550916	-0.15868013571198294	-0.13967761051183253
Si	37.06972544575544	7.487565201223501	15.811360278047413	14	-0.027620613122754767	-0.18523348301634426	-0.20960807567241208
Si	33.06235053250926	14.002928730254155	10.628389889683433	14	-0.0352974193876529	-0.03442812867891083	0.1600389648736812
Si	35.41432525200663	8.04884784615747	22.948189545970006	14	-0.16786232414182778	-0.03165030649102285	-0.15782472897196967
Si	30.39911393988195	1.1175056779459953	24.17859045182918	14	-0.6440042899379225	-0.15024999558828142	-0.2251239249479097
Si	30.544190766138925	-2.4883181168371333	13.95378493709957	14	-0.17031335884352494	0.03388151168784735	0.402910201404445
Si	33.6202254850006	4.894809424573623	8.35356532708688	14	-0.1816786728007075	-0.07898924053505726	0.02853078440608719
Si	30.9956158975657	6.8628232094545885	17.795804008633848	14	-0.2531754553223213	0.019647101303911545	0.06043228788688851
Si	39.783429963457884	0.9363154253507288	8.965869241440245	14	0.12365705326198985	-0.024217755231538785	0.0756437182924806
Si	27.10474025266843	4.901144487095514	12.646225760786134	14	-0.27898703874181985	0.19382791677000324	-0.15396215744951122
Si	32.855239099400485	10.626880768744561	17.7745302715278	14	-0.2882998393219282	-0.21093990822824876	-0.0006587171830219378
Si	29.015707643349316	11.440902225883237	12.366749544592386	14	-0.028236392846930233	-0.039056632476241415	-0.206654646991158
Si	30.091944543104542	4.862376306073353	18.711428250015153	14	0.18520185842090642	0.008088954447717872	0.28746397298234805
Si	26.236353119384535	7.29952386410789	21.990780504399485	14	-0.0900326521061573	0.5057289602676988	0.48137596489632023
Si	27.061574525684605	2.5086247183737513	23.373797350367248	14	0.025672229511146557	-0.20874469850590635	0.07908257165817865
Si	31.659083879878914	5.034427452079661	20.49001165743247	14	0.061767462879641404	-0.24952988508888327	-0.09496634610498945
Si	28.545725192506467	0.8241715124856102	11.66669754984166	14	-0.3069120707344802	-0.11511789827271403	0.2482846987823356
Si	38.88292776296836	2.9263883393102295	14.86214592544604	14	-0.21618367752869078	0.12921372607989387	-0.054031778302911886
Si	34.05881984302559	3.4597295289254335	23.039306373753497	14	-0.21858920366622134	0.11465638486774747	-0.19208136492602665
Si	41.406778375717856	8.39249415646705	9.204889657497391	14	0.137202664530658	0.16377298113013228	-0.023454136951454808
Si	28.061954568956516	4.249256168244448	19.908209835861893	14	0.07758618836185247	0.37503247774967546	-0.19486278666136284
Si	42.257885262896316	0.9930161821744851	19.911242682135818	14	0.15614502586631696	0.1066057398892998	-0.145502192504096
Si	32.45068272074518	3.0231165006492278	21.36005071019569	14	0.09772719899776446	0.42566114105083924	-0.23577807117353927
Si	31.80878056346166	8.173178316281657	22.907589324582265	14	0.2149048097424491	0.09380189250549438	0.05578450079965682
Si	37.049099170213495	4.768197423223568	18.418082725579957	14	-0.11055367210838717	0.017062369125566683	-0.14985044582153043
Si	29.48704505761578	2.915233826048066	11.166376899995404	14	0.10257244697358353	-0.04747854506291845	0.35203574043467495
Si	33.87095538137485	3.29526130995929	12.085209240404827	14	-0.2104300580432634	0.06903109251959175	0.06174663692654821
Si	33.55101362878038	-1.1941527945338641	20.640102659712145	14	-0.1934311952191044	-0.11305510047435924	-0.021814028867732344
Si	28.892144715380063	12.480981886111623	14.472722946657317	14	-0.03509018829884897	0.16368067844913894	-0.2531646566799766
Si	37.89889652986758	10.886391152645952	22.162120903124904	14	0.06550970667311694	0.037714258388592097	-0.050467197887058585
Si	30.50472644223206	3.165598612517751	17.158185807563907	14	0.237543906307417	0.2843848172509387	0.0510040446779055
Si	30.57204621779128	3.366435023400042	13.271235499818395	14	-0.2936770489884859	0.10543640118969645	-0.1915092939922937
Si	34.79438486116043	-2.0995068999773956	16.482756824777113	14	-1.3859867187528556	1.6991470896363599	0.6537420942274514
Si	41.154609134964275	9.115578906708487	18.926869057080083	14	-0.13744331998862386	0.2109975009874201	-0.03237895773875282
Si	42.113919993459916	7.0896522001206055	18.058527359695418	14	0.08730162403509602	0.04422661105399517	-0.04481282306698892
Si	23.58864099989938	9.978659776046024	8.780799087592456	14	0.10758738790053234	-0.11154123366185606	0.05360368926710723
Si	38.13836319136364	0.7325208128861094	14.993992791472225	14	-0.06527342209419533	0.1278332996335064	-0.06069711173486376
Si	29.651266624557508	11.691411433604062	20.23087774241045	14	0.052995622858892207	0.04807529860772483	0.18847050461441067
Si	33.67444024905194	7.240053140141494	7.940845090965473	14	0.3653640933037906	-0.016321890793364036	0.026530978688076013
Si	35.58490946755193	-1.2814075708823902	12.595928220333121	14	-0.05381760522974355	0.14618739207191542	0.20789211998174523
Si	40.549961169631985	6.80441536098815	14.581546793456916	14	0.03507321900373599	0.08424020893039569	-0.05454034293523718
Si	41.42756205419644	12.694347246207931	15.896125816202144	14	-0.08934436721195366	0.3231668556789883	0.21366965074664998
Si	27.740018504927775	-0.6680553854252493	20.358177773091775	14	-0.009008381710202825	-0.03248771549379508	-0.14499697030868688
Si	29.962731336523294	7.789134623420209	11.514389924763593	14	-0.1701079275284451	-0.21168450032896363	-0.11343176740376092
Si	40.507723633161106	8.4299820187572	21.130742217599998	14	-0.10811549293329076	-0.06901335189288273	0.4624747412457835
Si	30.64705277387463	-1.1435047485724685	24.535018854219945	14	0.7057367857852098	0.22759244316578384	0.44762917912724853
Si	40.568523357180126	-0.784944104339039	12.37115195868611	14	-0.029709636195375082	-0.021584686273175138	0.008400572412519819
Si	37.59030888394977	6.5618980034006045	8.918073920866526	14	0.21780321676985204	-0.1755283317643813	0.13727336992696207
Si	41.44412830759962	0.3779341871250449	16.29272117622723	14	0.14513323889065474	-0.5396312979086393	-0.236033639042362
Si	31.603953907000133	-2.4845274646723947	17.94109990083356	14	0.19435756446595373	-0.17128857909145712	0.4374823119812841
Si	36.48888913704361	0.6760699535081448	13.39223129948088	14	-0.04374941390657568	0.08736101656799142	-0.00968406818833774
Si	27.886281532696913	4.4597980117454465	10.410865522096445	14	-0.3047009201591528	-0.18601278503888113	0.20837111690288881
Si	40.09739364988159	3.6571517565223606	22.276072515695297	14	-0.008842288306521258	-0.006258584570304454	-0.21301890399012052
Si	37.79688969066389	8.927063738072283	9.223151643568439	14	-0.06466149902800007	0.27047925123744987	-0.4295422245316028
Si	29.244065227482448	14.08074095311526	23.322013406924984	14	1.0962434609041964	-1.3798857429386766	0.1825600477044543
Si	31.472931378002922	1.1138058975797265	13.196285738609086	14	0.0923595024208913	0.057317393791529114	-0.051232873051398675
Si	36.440649193741656	9.978815556271972	23.821365298491123	14	0.10018543279435803	0.06913316540080162	-0.23680805596479063
Si	32.93595597439125	14.294552558650484	8.044270179309557	14	-0.3736214551499782	0.025603838109630614	-0.10748248680347029
Si	36.74298453538261	9.461740418582854	11.252210181782155	14	0.2434556487700335	-0.12091188411166773	-0.10594907959053398
Si	28.134213875846847	6.128205854360927	8.72511252494805	14	0.08892964792381378	0.08181462817136799	0.4087036730223346
Si	39.05921093844626	4.971935240814145	25.687799017079076	14	0.1663415153449602	-0.08517634837746162	0.15878940768808922
Si	34.18779126571448	-0.49334786202438796	10.860729605842367	14	0.005341471302607635	-0.17795596940766514	-0.06302036250214957
Si	41.50088910471879	1.3343468843337731	12.28584118974056	14	0.05543997268675699	0.08247411668598599	0.008048073873127516
Si	28.8487226001077	-0.5368981714410204	16.84199251665632	14	0.030168578495021515	0.09508924493929252	-0.1872883103882066
Si	35.390760247410604	11.909979204162765	7.855128644348185	14	-0.15485715921145476	-0.3255564409635339	-0.07447926469298552
Si	37.80818051162377	0.5353452373135997	22.42072094633091	14	0.0009631360529274704	-0.0783647190527933	-0.030450885859173778
Si	29.302830072300022	1.3769365490237253	18.13888399291368	14	-0.0445744816038112	-0.032672577966313725	-0.1737262440454895
Si	31.380936663737785	10.187296557200533	19.5876238671247	14	-0.2319219274143812	0.11269077485049427	0.5703655195740933
Si	32.50007478863486	9.963110962243574	13.72926993187316	14	0.23521628466108696	-0.11307284110106826	0.02940033222536127
Si	35.969089468111086	11.384805117435029	14.893579454163142	14	0.5068245082446138	-0.4699286326794248	-0.6738052003721627
Si	27.092294061699445	-2.3311212644592576	10.571804345318453	14	-0.20872207277908902	0.23410865248916712	0.02762575533339506
Si	35.59068144946545	11.514359093260541	11.543545167676204	14	0.039465438222144954	0.15490780998626172	0.22428008818183706
Si	29.629546642012546	5.204560554053981	23.665669453498683	14	-0.03014106766809593	-0.16934096681144495	0.060376237790909275
Si	28.30553317933333	9.675951210947071	17.543224222076464	14	-0.03730493842162452	0.007753425203438546	-0.26746668713383237
Si	38.99486234615486	3.415557721315695	18.70571144026499	14	0.012676834780990104	0.002498085929055873	0.12979531010331136
Si	32.81459019669214	6.319606202598546	14.535886960147236	14	-0.0987821235106212	-0.25521485606226274	0.04429680222923521
Si	29.8479586323453	8.540540543281159	18.930416302641778	14	0.17810740751102183	-0.12785489691819563	-0.2089385598470455
Si	34.07135690579304	-4.919500590386406	13.329498927033692	14	-0.08755384946700254	-0.24319853823801865	-0.08598470389011616
Si	37.08370672103428	-2.9336548377664364	7.935800083439714	14	0.015166693173021505	0.12922812426968672	-0.13180668579526322
Si	40.13810097017467	3.751171613724823	16.696904331424538	14	0.061679016856628306	0.058252504796466965	-0.0019329569796873258
Si	27.925690684440426	-2.1271449083976988	18.38942403213756	14	0.04875689862809608	-0.23361165783078253	-0.1613512570290848
Si	32.26373995876463	4.915883568265172	12.711288345779794	14	0.14815891563140499	-0.03700977553087153	0.023074898916732967
Si	38.72620961024314	7.636314221765065	17.437423485286676	14	-0.17595076436848164	-0.28308846594852005	-0.5301369772929284
Si	33.87707786879675	5.218178342138951	16.340837793516968	14	-0.13301973328530908	0.14346484864841064	0.21144333064993376
Si	41.46387831937061	1.7691733081436358	22.024985622969915	14	-0.11021762864304381	-0.012228434013156278	0.03518917585367467
Si	32.796688452393596	9.72071530795755	21.38358488328867	14	0.38386422452438407	-0.18022522696322782	-0.011615739615364992
Si	29.419235223429094	4.141490328812747	15.233423753333176	14	-0.12625104141948723	-0.2914532999970898	-0.15382460331488332
Si	35.08744965664679	0.11342585430781704	17.268312691045136	14	0.29419384115783564	0.4025582170861167	0.15770285857979466
Si	33.34057726147404	6.880268972050096	17.862787883080873	14	-0.21297930896819026	-0.15110771632308284	0.27097084657466214
Si	35.083314989816415	2.4713981125042017	13.97424569615145	14	0.4317425764645856	-0.12772531321006014	-0.07996266100926534
Si	29.849926980408583	0.4183640238906533	20.243134076229058	14	0.08326576001405957	-0.15554467277406236	-0.048119007398167345
Si	36.949484206562396	13.378555093811181	11.984666086240784	14	0.0281610594610499	-0.07509812974354517	0.11490269675741764
Si	33.137358711303285	8.053204824351958	10.08087107679626	14	0.2759461924796807	-0.06901155211915862	-0.0431524032512373
H	29.747000064245398	8.270156375066449	21.100121666937063	1	2.8691702174759297	3.1671934628975937	1.3603489420529995
H	32.20312035563187	1.367093185996626	24.686893215544593	1	1.0649183992361724	0.07084449310189217	-0.5151492330501893
H	35.59481611629582	11.467084662817335	20.290314389452423	1	-1.9391003787392878	1.154294391043564	-0.09433076886984883
H	35.029064526129964	11.033992916731833	17.087862394523125	1	0.23100867080466458	0.743502723390737	0.24824253265508514
H	33.10141080145506	-4.007329477346955	16.45360969541794	1	0.48574530127737986	-0.1244098728997292	0.2015769710943975
H	35.517119105893485	-3.2706675067877238	16.031721143915206	1	-1.3200496943755304	0.962349037588973	-4.332184680515101
H	28.369412808236202	14.556810191744898	24.47604467972376	1	-0.8034099915712511	0.6916512423993106	0.4255721808067621
H	29.433338202009466	15.226163745719715	22.334271034483116	1	-0.07288775049981387	1.0736987239044782	-0.11323739184155775
