236
config_type=amorph dft_energy=-23384.727595989898 dft_virial="-90.0617518312787 22.905925617735374 17.245867371946986 22.905925617735374 -93.68885885791833 3.8968253071999723 17.245867371946986 3.8968253071999723 -86.37023446898286" pbc="T T T" Lattice="16.512757729281773 0.15504572451500329 0.0470471050317653 0.1544842638020935 16.328433479943563 0.0401609545234304 0.046733347574551 0.040210495174569504 16.262940739137672" Properties=species:S:1:pos:R:3:Z:I:1:dft_force:R:3
Si	8.027941968173383	3.862907502245753	14.84409483915881	14	0.12998917144445055	-0.2583914566853056	-0.2535444089357625
Si	7.490567919847413	14.701738126755568	14.310023500908782	14	-0.0986674522133426	-0.08400495279360214	5.3993211723109655e-05
Si	12.248230773671489	3.0081925562730882	13.040131476709853	14	-0.2989796966007593	0.10526799379122675	0.2826228387750413
Si	10.63452993327728	3.5522446843726088	3.2997128665460846	14	-0.05074847680908279	-0.02242929437084378	-0.05162265261793313
Si	1.7603114433752605	12.804101649777762	10.445586843897868	14	-0.028046645274303308	-0.01907940124922285	0.05329104286017722
Si	1.216933068131232	13.019091562171075	16.013363195474078	14	0.45827561203691775	0.11656903011540562	0.24794659843273614
Si	7.002742779435734	14.777875502136213	5.6970444239485	14	0.07170941293158999	-0.014099427354628036	0.12344082330456538
Si	1.8853520468503489	5.233094574675791	6.373459263761468	14	-0.006200991811133137	0.1410806626850373	-0.06427454767731779
Si	15.519885466767427	15.54897078305119	11.079588280915614	14	-0.23512321064849756	-0.18067851283116992	0.07628469484879351
Si	5.36717139291865	12.389165669387038	3.270786080345964	14	0.20200737412499034	0.5380611238896249	0.14056644162100773
Si	17.074755132578915	5.443708396218485	8.431770934578719	14	-0.025600752783246434	0.16366345204349395	-0.012463433039417812
Si	16.804933627504845	9.088861617737363	13.52457299064873	14	-0.12750136993667524	0.15218809477860903	-0.0831274345478356
Si	10.123111883438124	2.8856570583906005	11.992429272869783	14	0.18410322511760716	0.04873504423287482	0.04545894183394215
Si	14.630582889524481	12.444187167897162	5.379624261259983	14	0.07542877388771621	-0.018039389147222952	0.012377043900660837
Si	13.444691993397008	5.9578231088346465	3.0641520244447777	14	-0.1525045978435193	-0.024938693163308306	0.22609863097477784
Si	4.643473304303488	11.637794173045576	16.115816564739813	14	-0.03543111686430061	-0.059395104000740766	-0.0426800912039261
Si	1.3705239488577838	10.08295423162477	4.447237831076399	14	-0.029617847735445797	0.13920761245930946	-0.02576093264469166
Si	16.670262321448313	6.751972957434723	5.394815076254269	14	0.10525025316451773	-0.37848058709452603	0.08479453923741961
Si	5.042382884050712	1.534886618497014	3.6127585897390193	14	0.059237752355147714	-0.011038783581523763	-0.05510727165832983
Si	11.337465535000048	6.062383607128831	6.115479625664681	14	-0.7575568992917304	-0.11092082594810432	-0.33532381296424446
Si	13.530308146695601	8.76073241762761	6.003750595150668	14	-0.10761078495894567	0.025874575499842206	0.03375398486396801
Si	10.821222225739941	6.354599137872813	13.126804497232744	14	0.5632674691167606	0.0834557646972185	-0.2790554301433358
Si	8.921754396025026	0.1401884832383872	13.861233090884635	14	-0.04769683190459903	0.018224765840805627	-0.01511527106661854
Si	7.768945095373207	4.072973073915841	5.479693073850889	14	0.05632263314316382	-0.0440692594084021	0.017549850694266757
Si	14.585211909856254	13.869912612964207	1.7345717723984222	14	0.028743929037127466	0.04855866640791267	-0.031046353851320065
Si	12.494844135041928	-0.3137673653445278	12.5896054925408	14	-0.23517077609692033	0.06472551955047177	-0.019698523410314507
Si	10.430100436351784	15.434204910622352	12.3040432712448	14	0.04283024375462274	-0.02027110856511148	0.13753742244334127
Si	13.773197702455418	2.899827335971421	11.260745231290999	14	-1.0119060641926991	0.3233648307886397	0.3116562742712174
Si	16.259568672150138	7.581854826346396	8.946422337582222	14	0.032711144546115956	-0.02965590009418399	0.04459633599903246
Si	10.309577940260583	13.159306467090069	12.709647444315953	14	-0.777345154277718	0.1630299316926095	-0.14627146721588427
Si	12.256512319186909	7.450301278601553	4.473375478617388	14	-0.025389407925930262	-0.12754147917966957	0.08028327784268781
Si	9.64524771661548	2.9009535601073164	16.240690381356064	14	0.014764058079886313	-0.01682916987302925	0.045437601659784915
Si	9.889930643946533	6.374159438297567	0.35952476209163853	14	0.34736121385211377	0.16663205024613692	0.08061392198685884
Si	16.60776018461619	8.734257893658874	15.802387727178067	14	-0.05204791343788562	0.015328929918722846	-0.11760210023304113
Si	9.354840419638075	11.09072006522657	9.388357972843753	14	-0.2382075085905472	0.34482096179580746	0.26234273134130925
Si	2.824802973886368	5.433811825475931	13.794657061173838	14	0.02686547949022728	-0.006426220637178109	0.004367793717867557
Si	10.579366418233894	1.6605200584307336	10.014688865710129	14	-0.13206585321153413	0.14927117579290106	-0.138591575624602
Si	12.811967053823611	15.329489184954598	2.322584622963742	14	0.07753168092906532	0.0008703191508701248	-0.009474780215277687
Si	1.911223826230225	0.3162675168720144	14.23553417785603	14	0.13116725190214237	-0.17260369946271284	-0.12488347049970047
Si	6.417391913191622	12.009514192092622	1.1973034107948826	14	0.03071468126502097	0.011161425305294825	0.004166990392363992
Si	10.035636304366777	-0.06352762831070591	4.6738797046176295	14	-0.014383791603036414	-0.04422172595388688	0.046354972038013746
Si	12.281479156005979	10.117020034703053	11.77365775743952	14	-0.13534941181589524	-0.019187130562137056	-0.21666627399728258
Si	9.328915796896984	10.906717830120764	15.976136698853118	14	-0.828964207348203	-2.333948365191344	-0.8159736977181549
Si	1.236641990509404	-0.7392934855937513	6.138494560828869	14	0.0037311880405988926	-0.18484293211821376	0.023491675089128968
Si	5.668674144396176	1.3591477640012086	13.72724379445879	14	0.3604270568680423	0.6720478498858415	-0.14667178831423133
Si	13.333654880643904	1.085764286110237	3.0679732600026406	14	-0.03375089953758383	-0.01703562963023714	0.08128935135446173
Si	1.4638816545743798	6.049706154502336	11.964006149956244	14	0.019598507413360746	0.038593833518614756	-0.01635737204678208
Si	4.504543153604034	15.349835530377428	9.130563286511219	14	0.3268579344765929	-0.833533318612638	0.16090054226646286
Si	1.1402457915229434	9.056286988258364	9.86916485434406	14	-0.005323473565366597	-0.00748834424493128	0.00915622026611134
Si	6.958621875531251	4.050460150683196	9.289375751867832	14	0.044948577427892746	0.05243949277814418	-0.037511912399896444
Si	10.527887076280217	0.8428631708651538	15.49629090598491	14	-0.044070544961062184	-0.008398515528263699	-0.018688336130028328
Si	0.4871084523252007	5.141427856518076	0.8335396203207752	14	-0.02739358452298569	0.11908459956063852	0.08826116054057527
Si	1.6025822669235559	3.1155289823861003	5.327931894506408	14	0.22719700716754507	0.13241449509294623	-0.2685987448062936
Si	14.687921239152873	1.880675409382818	15.303744559912646	14	0.042816102675361935	-0.04348896093764468	-0.002351532925807433
Si	10.861634186229143	7.016077471367342	8.190422093069326	14	0.012865039690424943	0.055967563498451375	-0.03347347727353986
Si	3.456160591488324	9.2117472028879	4.948846831990015	14	0.23947043552380393	-0.14122644435668974	-0.23602026929469727
Si	7.431604636861657	0.9927698785019944	7.898716831032079	14	0.27373349924116125	0.049481436107313814	0.025174977742229918
Si	6.6258309001493085	8.217099733707734	0.8822777129114218	14	0.3873796968286226	0.12891239253637252	-0.15299567895966756
Si	8.846285819434758	9.949818685753552	5.886981629060771	14	-0.04638351130706739	-0.8526577142049635	0.5700945250733497
Si	16.255650006645038	3.3704387514673013	1.9952612841125181	14	0.1147957387760995	0.05123724393044293	0.021825084620608986
Si	15.838017363477308	7.132280022679214	12.533398321113415	14	-0.038894138620008054	-0.1468430239285532	-0.062058512001882164
Si	1.3160292326047738	4.3303318025183515	10.43900454271652	14	-0.11973071832759172	-0.08288986441625391	-0.08948166423604956
Si	7.988575315423216	5.67463388472821	10.541959923913797	14	-0.09757653222600376	0.058909679316296815	-0.0639081651691967
Si	13.375584436413	13.924460172578431	13.462420941084654	14	7.092418451129017	1.730768085526733	-7.004818578876783
Si	3.271601849734721	10.087417844292403	1.0494064022392515	14	-0.36917267161452594	0.018253562220391286	-0.29719894905602473
Si	2.5907349567393867	1.9853927864056096	15.799514369411998	14	-0.03270111723536737	0.15693718341545457	0.02668498789675288
Si	7.2434343816400135	13.692806436496962	3.685649401115015	14	-0.5290224031366442	0.35535118074500593	0.18909322632295053
Si	14.20128012030342	1.1379603161503928	6.861974670579019	14	-0.11903189190157547	-0.009060318037669816	-0.08228771155027524
Si	14.222419116144472	15.227929198764405	7.416339510890662	14	-0.01446118187317287	-0.12930345765556706	0.029141679030154372
Si	10.911721435885811	8.729208049952762	13.158498954476503	14	-0.053178942668218765	0.0039037092075808275	0.17067794157792193
Si	3.9100371750294167	11.005847021695063	12.681848533606766	14	0.07651352322228669	-0.00190750303701786	0.018728959594086665
Si	9.72896150891033	14.39887300737172	8.313992990560623	14	0.020548016608091434	-0.04675297914157266	-0.04786806751892089
Si	2.447560823592349	0.09089058128986881	10.008768757899006	14	-0.3937056443583149	-0.5097630245150111	0.43382028667379724
Si	1.3068526526587747	1.5242783137330946	7.049461264814942	14	-0.062072395970610955	-0.19352992566339808	-0.10532815765571821
Si	15.432565115069648	6.735203447024138	16.14851834855673	14	-0.015567785602964603	-0.0399297798429637	-0.03546994055463484
Si	14.981750143768952	9.055167369542621	2.7839022123059274	14	-0.24257633075054283	0.08234299031465843	0.06853949718237944
Si	3.8361093126895756	8.382542389541795	7.071488689666425	14	0.05437527797368366	0.12372930132148602	-0.006701328906433953
Si	16.139378098421567	0.01529319900664017	14.907898243760858	14	-0.17970046436738557	-0.1492770893351374	0.046956867793460415
Si	4.274197290712637	13.506834134830857	7.661362617359537	14	-0.016077121566885937	-0.03837708934012627	0.025675571948062748
Si	12.865938290529586	13.805608847785654	6.002533546487685	14	0.05024376883473772	0.039255893138552884	8.741758088503469e-05
Si	5.926964237240101	9.174827858304003	7.611506557408185	14	-0.0037599844201845513	-0.026899675190985246	-0.01759021704779308
Si	8.003128707372847	6.472963312929388	1.7330046364673886	14	0.12102167030883808	0.04342236930985285	-0.0689367329543423
Si	12.46087411055585	5.046803561487357	14.201661583317188	14	-0.04392090663142956	-0.0003769240399337084	-0.0012091908320656416
Si	6.463228574980555	12.966177192689404	7.084762281461628	14	-0.06423315288166341	0.12620321886053248	-0.11574730485508629
Si	12.642997103628446	0.8565727203903807	10.578393770116529	14	0.49520722596605676	0.008780067557773675	-0.3888920209779337
Si	10.568117387715242	10.697717382450165	7.4318919726382635	14	0.05099761691460514	0.006814714651052484	-0.39765769034591447
Si	15.598726110345227	14.728528059536556	13.366318683294951	14	0.2724152935435214	0.05484244781035457	-0.3233656021202358
Si	16.383099937120523	14.915504385065748	0.5795116748298501	14	0.04263381130816343	-0.06539349271264623	-0.035355269257356235
Si	5.123371940532912	0.23349334559376814	1.6562331407521635	14	-0.10141339269526076	-0.24706136687100913	0.15996337437726885
Si	11.0483132678515	11.877022674686213	10.895519991608289	14	0.02239766977540596	0.3463183735342617	0.3585313809154971
Si	5.71625959117032	8.338109379535137	15.00211300274216	14	-0.0007667036064681571	0.006109974682799895	0.03453431532863296
Si	5.526135782938757	15.478236641354783	13.211391856342681	14	0.03847402001069585	-0.19808283896431628	0.16209404935607555
Si	1.5306030035285196	1.7499161634112392	1.652010625920074	14	-0.29604477987781025	-0.33411822167962707	-0.0028986641379349443
Si	3.4320772296145696	14.993258437028565	1.7571061632465608	14	0.07439827487540086	0.002493715050011622	-0.02390793704046094
Si	4.915157537860389	4.464547334584401	13.264416866611898	14	-0.10596913421203114	-0.03515832258983289	-0.20395524351553448
Si	11.321097303863688	4.575429219963935	16.27700037593095	14	-0.051940955456567454	0.0861016891821829	0.0023142518986652857
Si	5.075385214484541	0.7815087257844164	7.622167705533319	14	1.4400694049411067	-0.5462565220975969	-0.7799951925311946
Si	0.8499095028121718	14.826701116543873	9.723054611939514	14	-0.10177309032954948	0.05955194142526981	-0.06977131374126239
Si	15.608992584616287	1.5736422698831318	10.66690805150676	14	5.2502687975808096	-10.202134597484168	4.329706392097011
Si	15.843425551226659	13.636079088232616	3.783455857303902	14	0.00614185638876973	-0.052463661168153576	0.03382751847612425
Si	5.565646103577227	10.572594211223178	14.293287017598955	14	-0.01539706420970677	-0.011385882799743754	0.07773608380201709
Si	2.5967805675333944	12.980494440868602	12.663132075606415	14	0.6195553923381024	-0.012376529679596808	-0.3144466948751741
Si	17.076480798593593	10.310666183230605	6.675597786928611	14	0.13283024282321415	-0.05145141700361127	-0.02119259271185256
Si	12.787389936793504	12.900532527220019	9.669349243394652	14	0.11308183996968878	-0.014998799995615833	-0.08727771275561863
Si	14.669373219366394	11.414512807006613	9.341393435563885	14	0.017214835671051466	-0.023705333941233274	-0.00936807934449154
Si	10.109169492852544	5.102153679650036	11.287994240772543	14	-0.04267880565126602	0.0010132726066703578	-0.003752271104224106
Si	1.2732244586655534	11.316572591059652	1.3461119673314732	14	0.011005873433425867	-0.009072916453738542	-0.009451897377928368
Si	1.3519858372015325	12.238357321899468	3.4338953715113747	14	-0.05846796342229538	0.006887991152676704	0.03515395171078864
Si	13.612572049267115	15.148494067372933	9.693396275457571	14	0.059706979076074744	0.07991072468179833	-0.034210870279358326
Si	4.753020894812343	5.592095857220393	0.7031750482032715	14	-0.08787755162680917	0.15477025585163376	-0.5720123125316482
Si	12.46927620498904	4.154221393139003	1.9378403667322253	14	-0.019922466683699406	-0.09591971195770037	0.059996999756187434
Si	15.825009639843218	12.140780404060859	7.351236489873733	14	-0.11461344740890099	0.03318319948289514	-0.01716984132794887
Si	13.799987635236405	7.486607970466361	1.408224384374639	14	0.06910591168440805	0.049401988952921236	0.02499345770662746
Si	11.187902309211104	8.962990382678173	2.9403482858931294	14	-0.031081320883674084	-0.01056107221304025	-0.05773725529030929
Si	9.594879736602357	-0.42181387412386695	10.111768725682309	14	0.029997599991231666	-0.09794625717104108	-0.07153046400130769
Si	3.4622524402233954	13.672980267911095	16.05707786603922	14	0.06998497259336668	-0.017830615395226925	0.08990203995589378
Si	3.351314408772571	4.745277691039301	2.471561617714205	14	-0.1319956620362941	0.6014830930427816	0.3079641670314847
Si	17.09066263565968	12.912227423598923	13.831393105348518	14	-0.7603167237423772	0.0983877159545105	0.43757564310440555
Si	13.89402074516353	10.462338189403036	4.422361818784419	14	0.06963710204355064	0.07488575644410093	0.037048342110673746
Si	13.87448191235427	11.683810832533647	0.9770638407358618	14	0.043398458030375474	0.17662002308331617	-0.10637871128953072
Si	8.651265743515616	9.192723592850484	12.688496888989633	14	0.015234827464005429	0.04155883217380952	-0.06948309283487378
Si	16.559778412632934	-0.545713391267718	4.184320641416082	14	0.032191781271446035	0.05855666655584049	0.02018960452646279
Si	14.925149949842531	5.250721138351082	4.72087396628818	14	0.5823792662930173	0.0829538849387256	-0.7808611408030205
Si	2.3498006053445257	9.866516080863157	8.09604880400438	14	-0.05612645780723652	-0.04052447650351394	-0.012647009959276388
Si	12.138062273668359	8.991274791768525	7.935573424124532	14	0.03224628870423318	-0.04892402047390571	0.04953054421892864
Si	7.290498000222158	15.337729446594068	1.9855496651342166	14	0.16837551676372933	-0.07440753085455339	-0.03131657702046763
Si	11.186459024907919	9.560373021728935	15.386621115203248	14	0.06032301591078222	0.1700937864491843	-0.15640702149844005
Si	5.733684689530978	3.9393834054091816	15.534668397067334	14	0.6590557975926014	2.214115316872011	-2.465594099793566
Si	5.006966272551369	-0.05118705211195609	5.444405268044508	14	-0.2730585840946224	-0.15130363454847812	-0.15653763364870354
Si	8.95290720881633	9.313627551955458	3.56306271122635	14	-0.22695326638319502	-0.10811112205424651	-0.02509398792464525
Si	6.014167342730183	9.238641171036278	9.916966628628177	14	-0.10705568332032571	-0.006655049010671287	0.04030464699864129
Si	14.157117932522986	2.541001097060844	1.347228283337141	14	-0.01486484540843612	-0.012185239443777791	-0.07182845510791286
Si	4.964045903759491	8.955328095301992	2.313601251557185	14	-0.737290418716195	-3.4622913046859933	-1.6532718858510858
Si	7.9732623001561205	12.893319408414166	8.892565044373868	14	-0.2872477430249236	0.5444626619157296	-0.1174210944185027
Si	3.3617757429381108	13.51322653018284	3.6085889182681448	14	0.05310335217180641	0.0021967523855345185	0.026418364275053525
Si	2.69118027827895	7.81038089598595	11.10824094217943	14	-0.030913427706268416	0.01001779765889296	0.046580200864058716
Si	2.655550641979709	9.02468830960681	13.06538234659545	14	-0.05577087394146004	0.026603740968636203	-0.008838688759073052
Si	1.5489545120654802	4.047669360669026	15.241141690423204	14	0.002856240900152501	0.12273993999429302	-0.04551293504566525
Si	7.334296889894236	7.474221156326548	13.601405586500361	14	-0.03055527273517179	0.1405031924301321	-0.31545971037131243
Si	6.450242318961958	4.815526334354545	2.1166623010839207	14	0.22970023530724124	0.3733100942957083	0.4815636555846909
Si	13.374101519588903	4.71581421445184	6.382718411459366	14	-3.4377197653624028	0.11016954897355706	-0.14432642604119225
Si	8.930693180845557	6.05353399548035	14.518914959146873	14	-0.10052687558087371	-0.028583234954618206	0.007845470773899849
Si	15.80227213232541	10.332687002661935	1.054992936332704	14	0.07451063217789133	-0.035982104734408334	-0.009521317221572366
Si	4.88034862501502	7.193594835239041	10.438806380111963	14	-0.10547908153801093	-0.01105729553982883	-0.05361294524625976
Si	17.089221002711533	2.800376130164716	11.963545421900651	14	0.0857425057689582	0.049514860476475735	0.07968858118213754
Si	6.215231378088296	6.142986246532147	12.07771020109567	14	0.1610211271059778	0.025693569685303782	-0.028340265501864217
Si	7.864294335265594	10.950832128605093	14.057511499342711	14	-0.04618476486581995	0.06636562763419424	-0.09995891841565298
Si	11.461123954308354	5.090665202650878	9.375667309376954	14	-0.0643352257628733	-0.020694055390275842	-0.0018200854561328252
Si	2.905607078604316	2.625449742347592	3.3956648510273313	14	0.42143013013600367	-0.8770503045982724	0.48648809360437056
Si	8.294112327258501	7.022682891519221	3.978442906122286	14	0.13979922379347554	-0.010952651553298802	-0.13552810363564555
Si	8.006066467985395	2.259540841679161	13.071969601841912	14	-0.14464421465876257	-0.2869620932238552	0.09502856685373703
Si	3.4748142979972334	14.632993867879916	5.700201814781099	14	0.0057595330276637114	-0.006959467880576819	-0.04501825438206876
Si	13.660177312301713	11.553667541991231	13.07909024476564	14	0.7764457816367303	-2.1033343590533224	0.3604270568680423
Si	4.904369235397331	5.287648739710168	8.93302654551421	14	-0.008956445382735833	-0.003936105134614695	-0.022264743630354304
Si	6.6635445465064675	6.161818299385157	5.6146137345181515	14	2.4676003332748775	0.7749812800463739	-0.31338791370433705
Si	8.310634134413393	3.138060070524163	7.592776888567529	14	-0.0577112871265758	0.057408668030394364	0.020338214413967347
Si	16.613890014517136	11.253074687139629	10.681274840337098	14	-0.09448220697320556	-0.08579984141759751	-0.0011425992042738064
Si	14.80018365734415	5.654706983485026	14.135138396967607	14	0.0319063885809096	-0.00022162927859676443	-0.032414181881638846
Si	0.4702002280914259	8.027877565326902	3.5228505646967427	14	-0.3850055381759978	0.6194137244349622	0.443955326735289
Si	12.356376363753109	2.5703555842157986	6.538063031236242	14	-0.39585020330585036	-0.40709081865500585	0.30786260837133894
Si	5.963964498220857	15.073147691055478	10.923173583074133	14	0.061815028328064146	-0.017637011164619777	-0.10530167527092069
Si	7.899164348247369	10.161053416790523	1.475705356646245	14	-0.04115619708067433	0.016623738557949422	0.2912201007445524
Si	9.110144281466718	0.14582951204809272	2.5220551007102143	14	-0.06279024857599631	-0.06942575718623448	0.015109100413850187
Si	15.72512247630649	8.367695056395407	6.816344428169832	14	-0.004426672029698948	0.14730170911766763	-0.08529744743804059
Si	16.49033563057622	14.452614705727415	7.628376800476086	14	0.003023362745962126	0.01657180223048243	-0.04738238572394492
Si	2.49091880146929	1.2736950948513748	12.13328655489855	14	-0.023817177022659716	0.1314917253935451	-0.1008690896989854
Si	7.718340971589654	7.824871536444136	6.9681931293313255	14	0.09409859805943947	0.4419953731497401	-0.1261757080336069
Si	15.924436075324355	11.140415943739239	12.903838540006035	14	0.322901517609949	-0.3363527693133677	-0.4276056680044673
Si	4.931066692296192	1.7399089518811413	15.950385468391016	14	-0.6316946089966495	-1.712031669727218	0.001488155759301708
Si	15.047637558428917	1.1952986657787872	4.642938265271186	14	0.05877778161337323	-0.009774571095606952	-0.01567088692630254
Si	11.525244419077692	8.001995877816798	0.8340812647732294	14	0.022481487808842786	-0.13360131730872657	0.11820913819912808
Si	15.76339593202152	2.142803251334986	8.294862042445741	14	0.38980579180871433	-0.2108794872532253	-0.46405288569129044
Si	6.749841058080704	2.376569070510019	11.007422414401288	14	-0.05905340410369309	-0.14694432547816705	-0.05986664471645593
Si	11.520268886348287	1.7747393323420044	4.502487216581762	14	0.10752131049380452	0.02147412874440877	-0.015906400173628106
Si	1.8292439567252423	6.759547722993892	2.0449373463647316	14	1.1027529853537474	-1.4506158218538219	-0.042992737610856105
Si	12.768704854538875	11.270730975205604	15.233520686922972	14	0.42609051563930406	-0.0700495073369024	0.5160866580499153
Si	12.356843697228854	11.019729963499277	2.745760864993934	14	-0.03663516548572594	-0.36533452559260887	0.040944852223358155
Si	3.4682286941058087	14.742098895238593	13.999502699568902	14	-0.06884854404186123	0.0204485148322017	0.17509304363368022
Si	6.975688629848672	2.981962432849973	3.4698172976523365	14	-0.04426389208113732	-0.07281678799297778	0.07205111282863769
Si	11.450386843851474	13.12043852356137	14.804161771630621	14	-6.8362358310242515	0.10569119772692312	7.223976768150355
Si	7.676323894003545	13.826026201475116	0.26633714594395347	14	-0.11416633219372724	0.18249679851357864	0.09961259052902904
Si	10.681750430588034	12.673675977523851	2.796748103146296	14	20.415605455435404	-2.7561858223978746	-7.51782479564263
Si	2.2600560644510077	8.154985665309528	0.2037491386498525	14	-0.005927683315601396	0.2610378953913341	-0.3044970315072651
Si	14.570166414105309	7.217222423122315	10.498874419618122	14	0.006263983891476765	0.030024853707625233	0.0011662533732191688
Si	8.910561511577665	2.414936653462214	2.19221014271601	14	0.07914350685426616	0.1546072477743364	-0.04140070919662041
Si	16.06289228712791	3.2885331929390276	4.292015411572333	14	0.10623961449171071	-0.2123434746225176	-0.3135956590142051
Si	3.1140014789759785	1.8208187433215193	8.505858978357242	14	-9.579643774202054	14.174844044320748	-0.8839375244193531
Si	10.01907321333594	13.371446140687848	0.5161343198275994	14	1.9103363950806629	10.119815518448988	5.237744172234772
Si	12.60294678989256	1.167993510225953	14.384332826262394	14	0.034418358478694275	0.11383697360221627	0.09538723604589767
Si	3.4732108322553645	3.665786902718312	9.891106408733569	14	0.2606560862512921	0.11218529554455314	0.16671201162159352
Si	6.736181049206617	12.89498397429244	10.880197068210965	14	0.004910039829886787	-0.15156254485421702	0.1069111872013334
Si	6.698038050539585	10.822432668982774	6.173580901320617	14	0.11650552381399797	0.2562409841955338	0.18266546302258035
Si	11.508468303246955	12.895902127693551	7.662500400980698	14	0.008486447330212765	0.04553478944088651	0.05613674222851711
Si	1.0985441227490869	-0.45804460365692873	2.0430250772307623	14	-0.01759638770056144	-0.09720063662819813	0.02112754374725281
Si	8.923115112576312	12.062902500470193	4.16802011583628	14	-2.259820827706155	-0.8320988989545275	1.6090982395666857
Si	3.5499212278341847	7.511148757685634	14.665715467957291	14	-0.10731356518393656	-0.134060259608373	-0.14933108254686053
Si	3.3391719951783774	11.833210574173831	8.990272419260476	14	-0.0024901155025634143	0.002031173202916982	0.02178214716176251
Si	13.704349408212373	4.936070298061241	10.011079003597125	14	-0.12652743524140317	0.0981272629855795	0.07249334294370316
Si	3.724685782857588	7.4048213095008215	3.4596449506184412	14	-0.4669515498292253	0.6476028089440018	0.2404883361200506
Si	4.9947511993355045	11.235874173064134	10.6026604323995	14	-0.06424472285560408	-0.03242858007143168	-0.048507244301509704
Si	8.697023140262726	-0.5214120505289516	6.5848921574029955	14	-0.012049485082873972	-0.03940681702084558	-0.03513981063152783
Si	10.681804925304286	-0.7284738073849719	1.0067188745077271	14	0.1019281279803544	0.10553564585505418	-0.048597232987714886
Si	14.981626292141105	4.394254104683132	8.13216724139486	14	0.8546690898969155	-0.3142443488864784	0.7175911239742846
Si	7.406348812910943	0.2765243551731904	10.13782215411636	14	-0.04345836478433492	0.12082703763610286	-0.028475505641704004
Si	5.057463058257454	5.622010153733219	3.9087887506207113	14	0.34317159773293243	-0.3897173457857012	-1.2709665224823075
Si	13.466970424214262	9.322890002363431	9.880001046103219	14	0.14535898193776373	0.008112094395599205	-0.05268503333621832
Si	8.683250839246057	7.363136154277345	9.04311247776544	14	0.14837771669414962	0.022882580238785886	-0.020343356624607643
Si	16.036767850427225	3.579087460514811	14.084747297983952	14	-0.12604843832025958	-0.01199214943423467	0.0020247454396166123
Si	8.023638536944434	12.905939063614332	12.877426767528744	14	0.01105626709770077	0.10151675112913071	-0.021613225542228783
Si	4.127071464959738	6.054422424490778	6.794492046952375	14	-1.3708385375381393	0.20402234936439037	1.6551809315512958
Si	10.677727729715539	3.141810297815393	8.190138060002797	14	-0.09833012319533918	-0.045434002112336704	-0.08518740413033823
Si	8.301541773574328	9.26175849021282	10.367915359686949	14	-0.20690970063891667	-0.10069014076870308	0.05005324993051474
Si	9.69165574724755	5.201073149134515	4.710856846627854	14	-0.026880649011616152	0.041390938996403843	0.024977002632578512
Si	4.525743249581493	2.6238215062801533	11.834095700474183	14	-0.15429460136740636	-0.09118553573171169	0.11765609344476421
Si	11.598336695768321	14.462516230535083	4.134159080782705	14	0.18942515601978166	0.15852252695585786	0.1251130702047897
Si	5.422082250641229	10.284081018474327	4.24386024731009	14	0.5701729437856143	0.3941098221146422	3.7111547592758947
H	9.69800851007862	12.85750647170571	3.1383226359752006	1	-18.72967924646578	3.755406824272559	5.842989563692526
H	10.075397630971018	11.102178817835044	4.371473661934337	1	0.9538379076476867	0.2538354580580033	-0.04053733203011469
H	9.816407363590994	12.340130332889558	16.257203931735766	1	-1.389895055950013	-8.278147175816711	-4.177713701322734
H	5.1311911066377	5.693264472266587	5.617827271422042	1	-1.246169754332671	-0.6426084368596141	0.23220963409970574
H	4.844373855512843	4.0110984519981425	1.1879105033389092	1	-0.5606498267903178	0.08748083007591033	0.7876647997011964
H	3.728622613268109	0.8852897845006791	8.55312241089898	1	7.749039669093971	-12.134757590590405	1.011068140968863
H	12.625494391581002	13.992187196750695	14.41477555638737	1	-3.7128506603450644	3.870804458804105	9.120850855774721
H	5.474813319713688	3.029679988027154	16.747956924629765	1	0.12127878084085288	-1.1986521284688867	1.19954070246753
H	13.563396347591404	12.904170462368668	12.249624517323536	1	-0.05970646485501071	-0.11488727012549675	-1.3064328634894942
H	12.136916233272007	12.979150237867694	13.807725884944333	1	3.747927993117312	-3.2282752119883513	-9.314421147791645
H	5.147083747523123	10.261239475589125	2.8371105229843585	1	0.03228099862605518	2.3448889325496385	-1.9029357255271488
H	3.04752287921242	3.257301115105901	1.951667162465148	1	0.3948371878097121	-0.18349978669896838	-1.4774226801427501
H	0.8799212292722386	8.015860654715594	1.7788495550315118	1	-0.4006833670866648	0.7841241305648203	0.2179603113049131
H	15.13604450174168	2.5625991696024535	10.23609098971588	1	-4.832849334633705	9.70169234397576	-4.321784816605635
H	0.7536850447496598	3.4348069194923343	6.586768096726129	1	-0.8317985938531341	0.09223480381286411	1.130457159399407
H	15.681049461698107	12.75631143497891	14.614242731423765	1	-0.21767826105129282	0.04130712096296703	0.3309899578366029
H	14.011189339172615	6.058853010057652	6.285473415983389	1	1.0085880527770483	1.0207295834303833	0.40850775479693935
H	14.609338206960995	3.8991085073881315	6.544800559791159	1	2.1035809280535247	-0.48376940683884606	0.065788671600353
H	7.665487702244386	5.8520521672976304	15.450561582273446	1	-0.6402869858660524	-0.07188013432484783	0.6574213459405832
H	10.261244429654239	9.908100503429317	9.713630328737818	1	0.7572807625803465	-0.9977048210673933	0.18850110076772045
