238
config_type=amorph dft_energy=-23415.196023026616 dft_virial="-47.88427086102931 12.512776939416188 1.5656102716844504 12.512776939416188 -69.42351733074992 2.1950824427740745 1.5656102716844502 2.1950824427740745 -68.81018547173952" pbc="T T T" Lattice="16.45622559765129 0.1241534634234136 0.13555833486461527 0.12385723299636939 16.284444864457548 -0.027203827550225698 0.1363482826700665 -0.027039255090756695 16.401686284583263" Properties=species:S:1:pos:R:3:Z:I:1:dft_force:R:3
Si	8.092460657659133	3.8228372037594536	14.97856075284644	14	0.38824384532672435	0.021606026447332366	-0.11696292345045231
Si	7.613584423647047	14.795926465950716	14.318016272275713	14	-0.13697615015195294	-0.253118891005278	0.022806218410777488
Si	12.27200043869467	3.017748732037106	13.115360235866534	14	-0.3322351441431506	-0.31666838698231403	0.20822302123644829
Si	10.618814128692348	3.60984258954089	3.334907838751979	14	0.027702117161403462	-0.02112548686299669	0.06194486914673162
Si	1.8065266991125652	12.778957671465951	10.48836083152046	14	0.1109725051650393	0.04863374268326099	-0.01785606933789639
Si	1.227481791920078	13.090389656591302	16.088297532914826	14	-0.338197537380574	0.37562845996288574	-0.013492132278009059
Si	7.0016842706461695	14.614807891406704	5.658712109569126	14	0.13202651530013584	-0.06565934500274954	0.2219365256825221
Si	1.884390866861133	5.346124825778302	6.322577662371936	14	0.32865976508495265	-0.09842756808697278	0.009150563834407013
Si	15.536872821595022	15.483227136981911	11.134470661671159	14	-0.2397871956992462	0.1838731111914539	0.15592468214038024
Si	5.306694910214124	12.39200503041487	3.0802928495337047	14	0.5065175182693882	-0.31678974315342506	0.1755974944974933
Si	17.045365379507608	5.42061690383235	8.481236761561131	14	0.11026082321242231	0.2415514881699318	-0.031121687237200407
Si	16.93005768578065	8.971590278896585	13.676784369823677	14	-0.07761061386239386	0.25895787118733427	0.25414193381216493
Si	10.15639514062716	2.8655142698544966	12.06915171660237	14	0.2634714465768543	0.08790223423788261	-0.13729265321686318
Si	14.559370012709975	12.424960665423537	5.402005404391001	14	0.2015553738097083	-0.10735418864799491	-0.2461355118452238
Si	13.44765836312796	6.064741990121853	3.143261563975733	14	0.20004304966039718	-0.27430248484851005	-0.16300139242355582
Si	4.454046643429829	11.602058870688266	16.022327016812085	14	0.38634122738981475	0.18408599871196216	0.19182913949412012
Si	1.5418349382010044	10.049827890222604	4.460733222458056	14	0.02717041258119684	0.20232773384788075	-0.0635348406767112
Si	16.595679362631536	6.823597120805575	5.440768801494329	14	0.16065988680849697	-0.012462404597289754	0.20501890978647977
Si	5.0868869961735435	1.4572183624404234	3.7067971625878617	14	0.06553284662099826	0.01945323996277238	-0.022510541298960463
Si	11.380547631692181	6.027046668280478	6.172815078530551	14	-0.5296901191882868	0.09456602500664239	0.24244186194229908
Si	13.45236019829499	8.807982214040072	6.096738167691816	14	0.35335754567976313	0.2584359368073442	-0.16246685962749705
Si	10.871536534626728	6.270307803519986	13.314195035672386	14	-0.14525793749868193	0.09619096356897597	-0.12138625304323505
Si	9.129430079048708	0.19087936711511963	13.837604577216783	14	-0.3988954204470338	-0.1397516583450528	-0.02129697958785057
Si	7.851319215697586	4.106056532158035	5.712035232161676	14	-0.23410762404703908	0.33055004171632557	-0.14187744822375123
Si	14.669049328323092	13.934848797792421	1.7940652724815724	14	0.593381797289527	-0.06282778671367047	0.12843673805214512
Si	12.935005277534456	-0.8823503042692594	13.730426762987596	14	2.9757638731702247	1.1694145472102908	-3.042098133319513
Si	10.322134418833796	15.295451606452378	12.086099388478488	14	-0.007279313382403241	0.4529025161388723	-0.21920344072720466
Si	13.375615123270812	2.7574378899966097	11.065177427611737	14	-0.31543348509704694	-0.04519000421745465	-0.11820476732008382
Si	16.205927344044888	7.549178991633854	8.995879528189613	14	0.09152954962354752	-0.10702971515659222	0.02082158221415519
Si	10.360088119436536	13.099549759685347	12.717539229592122	14	0.025457027995850156	0.08774411126069348	-0.14972189055552304
Si	12.24548287830043	7.47649556490937	4.564481346631907	14	0.024759744233026	-0.08825756099312707	0.14911382414730798
Si	9.776127432879711	2.8514647189896283	16.33376393911122	14	-0.16354338142504302	0.06607149318556929	0.02877658207469334
Si	9.864520946585104	6.354465222118649	0.37772012607487	14	-0.011370456167822864	-0.06769617463737086	-0.10086523304100518
Si	16.5695024672284	8.651881944784536	15.966105773208284	14	0.005088731649637078	-0.06950391878796697	-0.31548053632440565
Si	9.419484101689035	11.027062445998716	9.605867349211463	14	-0.1960380389032025	0.13876306834945584	-0.23611051509143446
Si	2.9227640913299777	5.351628128822945	13.820301428828213	14	-0.4352030271149729	-0.07573884918932607	0.13422301057513839
Si	11.125437279370905	1.699518394516632	10.194388338620174	14	0.04833652290825187	0.21836114662432418	0.46998416855434005
Si	12.797583982428653	15.25997307564005	2.324087335447434	14	-1.34078000235082	0.7470518771746694	-0.042636382413483574
Si	1.9908478537178451	0.3957852449507821	14.262787400602512	14	0.10079555608682916	-0.04517637735925787	0.19731073603667582
Si	6.167110997085355	12.184487387647437	0.8585103377905801	14	0.182746452840165	-0.040574098836192805	0.04042600316975228
Si	10.050840010848338	-0.07908200394863857	4.672340490843295	14	-0.3015047791356767	0.23116422267653358	0.2058979706954384
Si	12.328065338461975	9.887768452209695	11.93117745803275	14	-0.51346104529698	0.3015598007895279	0.0005854406813977176
Si	9.441321221335977	11.056611431096375	15.87996525647302	14	0.36039029006196416	0.05955194142526981	-0.2835615493274273
Si	1.2352660692529618	-0.6729055180014418	6.296660791454757	14	0.18196072305432776	-0.3260146119315843	-0.30048970675528225
Si	5.699086671050655	1.5793772076550725	13.81202672556611	14	0.031895332828032974	-0.5666235328911499	0.2306232621171744
Si	13.358664159945505	1.045082843641396	3.1905086713646886	14	-0.05805427257628355	0.5898005046890927	0.18420401244615695
Si	1.5341164898519082	5.971580812265642	12.01166655650985	14	0.036204762455133155	0.04925415039701272	-0.22903303347666282
Si	4.4515467877704955	15.296936050036788	9.211392101038053	14	0.36609248744098855	-0.7548495253896145	0.26817502664953313
Si	1.1908627739636308	8.969814542058913	9.881605213602581	14	0.11554110220841042	0.24815280107941198	-1.3626858196784819e-05
Si	6.986848063425039	4.026140145839888	9.39984896154979	14	0.1779181741594589	0.149617760790057	-0.13074327663484997
Si	10.585308821669052	0.7653080168195012	15.616481457413961	14	-0.04585592049537301	0.12751371124221197	0.036874278280499724
Si	0.42908812784892897	5.11493672616544	0.7592320016159058	14	-0.05521525808177604	0.2583706307322125	0.13521442878658746
Si	1.7189675677766783	3.2486471841213023	5.22321059297469	14	-0.2789687838940468	-0.25002405153141577	0.4068370505599072
Si	14.70251513795611	1.999040270750212	15.5052354119867	14	0.21612274233260326	-0.46440641267281074	0.3129240863045824
Si	10.942228634591636	7.059459078267356	8.266117516890821	14	-0.15936970615884666	0.0555983527744781	-0.2690836552696734
Si	3.6412775750240636	9.078412616613317	4.8606903792563765	14	0.09746906002362159	0.1657185365258883	-0.01028519261218836
Si	7.396967569595571	0.9696609311913479	7.7998047444346	14	0.7030386678622464	0.12216015574459962	0.2668974444159516
Si	6.778718211108378	8.427085839497451	0.9088267215486321	14	0.2765043794446848	0.009040006305640644	-0.02298208201467562
Si	8.839267438585129	9.757458333077548	6.252540560795713	14	0.08087566050844991	-0.07116125327733443	0.3957291042452714
Si	16.25284366079031	3.2834772994433212	2.0602250197315968	14	0.05819105537931543	0.10274496814056544	0.12892550517350526
Si	15.874037356482946	7.079365762964727	12.660161041598254	14	0.11067785649535032	-0.16030224605846438	-0.13329407022296888
Si	1.336147341182864	4.31163386562833	10.381387087141015	14	-0.06628258093235345	-0.14129483575820564	0.3033266643655336
Si	8.055726438981058	5.7065582607105485	10.563549051078061	14	0.06463038865362629	-0.14458302235214304	0.07010710009607372
Si	13.57615160230757	12.661943361334304	14.992098483362359	14	0.430933192509803	3.2503098416925527	0.8052334194643002
Si	3.2003155442244466	10.087934643212652	0.9849595870235862	14	0.649622155062446	-0.4589793235630422	0.3558088374919923
Si	2.712535940155088	1.9976677364382405	15.91049344770452	14	-0.1419244994511099	0.13241269531922212	-0.13991260953809406
Si	7.2401135584756675	13.562237000859469	3.614916358466319	14	-0.2093710197618944	-0.10261178488498178	-0.03987372974698447
Si	14.191167111966198	1.1467705206226964	7.0016957907183315	14	0.06450260471921494	-0.06603601193215125	-0.10672066829711041
Si	14.101684128579118	15.218168379485734	7.648539614038263	14	0.21694292492973047	0.010646175799137151	-0.09686562160498283
Si	10.9218776042537	8.630724509395202	13.366344756628921	14	0.001209962163661686	-0.24586734556033235	0.08242860812181935
Si	3.9975572010793123	11.032216855429285	12.80816270012332	14	-0.25888870845422235	-0.11707450942134673	-0.10726445707232174
Si	9.820015616370902	14.369237804560845	8.286712114468772	14	-0.44890958957668226	0.23276550706992177	-0.11093393858523708
Si	2.381802896983212	0.17433325204010636	9.993356496480411	14	0.101521893339771	-0.4497925071436211	0.28866030828781297
Si	1.396295283669594	1.6363340901526988	6.960944358304618	14	0.05287606646150532	-0.21816985638850517	0.032431665397815855
Si	15.373557695716364	6.643452815221618	16.313151238562725	14	0.29592650903308343	0.14406314485640911	0.1612216733209493
Si	14.983343228518608	9.124538985553288	2.807693381944658	14	-0.237978423106522	0.1520495122018531	-0.2401921447871695
Si	3.8877857248888943	8.31294825595732	7.078350350889803	14	0.08705788325074598	0.2603606662500071	-0.025086274608684806
Si	16.17785128245948	0.12474263282831262	15.097015071998442	14	-0.12015700758967225	-0.09458762229133164	-0.11139879442711985
Si	4.270265286491608	13.473479782018646	7.7075882124957396	14	0.047206522120046786	-0.1683575190264883	0.22670644027246087
Si	12.853838140524347	13.846823926396235	6.0955943890985065	14	-0.4078796337672272	0.05476942841926237	-0.7526391461458831
Si	5.918377827568503	9.216683105609983	7.73965351049868	14	0.06799956506514833	-0.2110877467841573	-0.4058865129230484
Si	7.978556767011448	6.509941761752797	1.742715373678055	14	0.2903060728032397	0.29541743017969413	0.1204043479214705
Si	12.523406264953298	4.989420602777623	14.36647463296636	14	0.12551236286100872	0.06506541967379534	-0.22120453199787596
Si	6.49646821449607	12.936542384305898	7.239234741542102	14	0.009253150936680922	0.18645964314352287	-0.4080848079717751
Si	12.272020187389806	-0.14993209347463773	11.43751932571116	14	-0.567964364315607	0.7401338040897469	-0.46865670687754757
Si	10.552079996377667	10.635106802179777	7.603647538544309	14	0.36690315694843123	0.2206900538233143	0.6083394596000204
Si	15.450719139062999	14.867505611472163	13.462929041642088	14	-0.07381463396772725	0.0774427206849882	0.357072278646313
Si	16.353486302653984	15.105691332061646	0.6149941152388954	14	0.12772994119963643	-0.07365959631692232	-0.12183542514266493
Si	5.175774227257345	0.3171064435278426	1.6121271270894035	14	0.06313451957836415	-0.05752642465405715	0.19815482991328043
Si	11.1742527622986	11.713030080108213	11.031603000155467	14	0.15161833783966425	0.12108234839439355	0.11980630882400407
Si	5.83663797839944	8.303414573380282	15.195236852983324	14	0.05595110842440242	0.7610857413436336	0.10923649485287532
Si	5.623006468762732	15.589527780002127	13.274822720469023	14	-0.08051313465830903	0.1291396782466736	-0.07854803886211986
Si	1.702490573134642	1.8146960760006061	1.7044835456188117	14	-0.23342653824773182	0.12656523048960935	-0.36698311832388786
Si	3.493595187070367	15.00982622869636	1.6506782257200168	14	-0.12084195004695972	0.20085346205730784	-0.32888705079525377
Si	5.034595742901864	4.464834368148023	13.211778302695638	14	0.0535442967342118	0.1517116689627856	0.4058497461169703
Si	11.4505238414584	4.518758180217635	16.443043343647826	14	-0.07883960220542464	0.013928191740306173	0.21911499470419163
Si	5.109606224203239	0.6247894680264904	7.642484993254399	14	1.6487963628203042	-0.8089080431878559	-1.248801794848907
Si	0.8929602907312257	14.762909939132046	9.674610911256257	14	-0.34040585974004917	-0.08105023855968797	-0.021871107405839633
Si	15.367414205804387	1.5573031036664955	10.715795033332833	14	0.05238164290844084	-0.22162002261761188	-0.05184479611759392
Si	15.863221654446644	13.569813916893422	3.8374611125078695	14	0.06575678989438316	-0.06020654483977951	0.1604313155455358
Si	5.67012850108249	10.525511418520992	14.38935349628174	14	0.1482666449443192	0.09442641398775835	-0.28210347550037135
Si	2.546874011004403	12.956292725166772	12.744394163528272	14	0.07302427619231372	0.10870247627788056	0.050741534824718375
Si	17.104618047814824	10.314771446997153	6.757058829717664	14	0.3170203713006423	-0.1718179696768756	-0.10514663762011577
Si	12.825599152204061	12.625000135632702	9.62068874491124	14	0.030581498009437293	-0.058873683841814746	0.36246054406574735
Si	14.680743847292959	11.194276293442194	9.351711517155108	14	0.2971254154438685	0.0028521271316402637	0.2377439383013245
Si	10.150378371508975	5.107111305717689	11.405570874154442	14	-0.022246488782581255	-0.009730348084100405	0.33132265886503004
Si	1.2538495913762011	11.411632077836686	1.2846608472379875	14	-1.5701891885358206	0.7148518683661989	0.8007085312113716
Si	1.4268415778716352	12.213815845649407	3.4412018988738162	14	-0.462274709251876	-0.5173500992042359	0.3101598909748912
Si	13.616794416898037	14.808175594108993	9.916771056741918	14	-0.15389787981650752	-0.04651335212573487	0.20262212540703775
Si	4.631006471923061	5.841673895659192	0.16998031048715134	14	0.03381363450739545	-0.24060069342254106	-0.3504082307670212
Si	12.506052099102293	4.223516833654845	2.0138221690597176	14	-0.1773828700318041	-0.19058523874023248	0.055537931799454626
Si	15.752726059434561	12.074396640885649	7.369500426110195	14	-0.008765926478512862	-0.037608328849402	-0.055183376375806205
Si	13.730071286475143	7.611341301024485	1.4442599269818341	14	-0.08753842283508165	-0.32931848226797467	-0.017481459292750818
Si	11.184917057672191	8.99985395308579	3.073548670144665	14	0.04394687479516305	0.05610743162786742	-0.6800735551426837
Si	9.659437330493216	-0.25795251869630526	9.99161861130842	14	0.2738569122965284	-0.042516311795032666	0.2043961880779399
Si	3.4721925387164236	13.72130780300842	16.040810149735044	14	-0.15198626301097745	-0.04281738822802201	-0.26410239582241857
Si	3.4578204258309957	4.93443694406903	2.1262449075721808	14	-4.591070303642939	-7.936443422111052	-7.583224973229109
Si	16.91297506448777	12.964666171904556	13.994219958270456	14	-0.05443724161189924	-0.01579224309741353	0.04665579136047108
Si	13.79984671784081	10.461795545112974	4.406205429462191	14	-0.02144198992790692	0.3218435077707081	0.09406414524814947
Si	13.855806291234053	11.861964864478468	0.86551783311477	14	0.08337683176388996	-0.5989492687497757	-0.27487866955075524
Si	8.694614829610257	9.104867639472959	12.78639634663395	14	-0.12762478299204236	-0.018215509861653094	0.06158954239148716
Si	16.594677116353374	-0.5781595073605439	4.367042121282354	14	0.25798522204472224	-0.09100658680142938	-0.11205082673630941
Si	14.936338042645072	5.27446668547631	4.774628857301658	14	-0.18846253418791822	-0.27398186801508756	-0.1367460362257997
Si	2.4110671717259895	9.8423629106422	8.126318149745691	14	-0.0793368539743413	-0.4012932332686039	-0.2036253707029595
Si	12.190778992772934	9.034991818907017	8.087717679377237	14	-0.046736781178055735	-0.14353915359216293	-0.18963598665603382
Si	7.280728395748021	15.309909297016729	1.9765152382226898	14	0.07081312561698638	-0.1303884641006695	-0.18156297306130084
Si	11.238217140120417	9.528355366526158	15.55975497635959	14	-0.18176994703957275	0.15850941431872512	-0.29097276041275416
Si	6.171398109654523	3.9375030648944795	16.333299844775517	14	-0.06803273232377824	-0.15586323272322872	-0.0910850055136939
Si	4.985383640346849	-0.1852592176242533	5.4634008061205055	14	-0.18610148817242625	-0.4322609112971274	-0.30283969701789765
Si	9.084264813272036	9.41837323758762	3.994813778179964	14	0.004758601726530065	-0.17520925759415093	0.11865419653004572
Si	5.976898148431085	9.273003092689462	10.06487639591645	14	0.1920222295036632	0.013134491527976461	-0.3689641549730619
Si	14.116809983328915	2.5052404702079354	1.4852006177239374	14	0.24231047846043952	0.337259855270316	-0.4072204023631412
Si	4.926734952965881	9.006971711957824	2.225607175701184	14	0.8447906461463744	0.2079139743769665	0.6281002037590825
Si	8.093173256408633	12.875774003646969	8.990033914429276	14	-0.06951857408829182	0.044885071126485085	0.08207842357721519
Si	3.3475947296524438	13.56513676759531	3.557602353731645	14	-0.19135554189414886	-0.295519760171436	0.677974761869847
Si	2.7313910068364513	7.81045093683765	11.2225712363987	14	-0.06856623667770897	-0.13018251856452567	0.1605873816384688
Si	2.83860831845591	8.969830999304861	13.22918019455989	14	0.0750693333639595	-0.06601698575278216	-0.2074123517290056
Si	1.5685631513433647	4.017890128446707	15.265329909195767	14	0.6075776410936606	-0.09089011573042668	0.3015184059938735
Si	7.351142368256427	7.389851456448132	13.689217819136559	14	0.21396301386367889	-0.15092079696630806	-0.17616622299431003
Si	6.940797397816423	4.382151518786202	2.095634430110947	14	-0.15447663562407285	0.09084383583466402	-0.4457126772216101
Si	13.390747560918985	4.682395868116852	6.446678462608318	14	-0.03344442378342219	0.07325876099751122	-0.21504570631399322
Si	8.958495248296636	5.990396381556732	14.673209720098468	14	0.09040726215130288	0.09293285890728434	-0.03370641941554527
Si	15.712553922078179	10.397753818235207	1.0073299214392073	14	0.3382363610709082	0.15047419597219835	0.18672086744404992
Si	4.866544221639688	7.208415257057343	10.455056302897717	14	0.12512618284192245	0.07600701547421751	0.150138666727919
Si	16.84898106362325	2.8210665400011097	12.061699875637615	14	0.14248705729515831	0.07377272495100884	-0.5802869007834808
Si	6.248475621046829	6.16955160665928	12.035968971599637	14	0.28913827676682846	0.30161867910135925	0.28694280993395405
Si	7.951315087795545	10.95986915652212	14.019680963474906	14	0.03366708150414701	0.2113466570898962	0.09366099593395028
Si	11.479612023669546	5.134088023273847	9.467912839336979	14	0.7578896003201575	0.1333745458194895	0.0788856249906553
Si	3.128552077548394	2.8455697334914487	3.322074478362586	14	0.5747759936402754	-1.5260651645840997	0.19389759372417925
Si	8.30875494969005	7.116386337722278	3.9620655044702278	14	-0.1522114918370224	-0.18379932046876565	0.07374675678727532
Si	8.045090120925575	2.2719573631860337	13.17667170564171	14	-0.1797356885102716	-0.08939038999718431	-0.11311577855991473
Si	3.383586726538314	14.518060679658662	5.743797716839194	14	-0.2672769395612054	0.22594282199237686	0.59277475932344
Si	13.843659198000648	11.010180603106386	13.329269872959747	14	3.488080519489207	-2.606373686045614	-11.609179440140633
Si	4.956652580372751	5.303492330152857	8.97962799781705	14	-0.05814940347312903	-0.24755090532396531	-0.013800922026958843
Si	6.482831740504468	6.0720309043517355	5.58317170494826	14	0.42415910132280876	0.3680115604519471	0.6491501001256668
Si	8.404443960523706	3.068667450996814	7.746976984945051	14	-0.35192955378495283	0.3165575723430156	-0.1669876341119134
Si	16.65314806547811	11.18417977305377	10.708499536204572	14	-0.4316847265948822	-0.20157722820492954	0.18791771697057885
Si	14.819162451503145	5.6442906249458575	14.240563535675818	14	-0.03806007205415201	0.007029916166348878	0.19850295757362849
Si	0.5225932621454307	8.133246650289335	3.4985767954184936	14	0.024941521379160468	-0.2634598766029136	-0.013960073446276009
Si	12.35020527143434	2.566777404252584	6.649932032950913	14	0.5743839000789527	-0.00824990564075914	-0.31870418817480733
Si	6.0045529045202555	15.150507704224246	10.95600993234757	14	0.061780832627306166	-0.1423528455974466	0.13231113665907626
Si	7.808681782898357	10.545515200969449	1.1576915490330593	14	-0.027489486751427216	0.2616819572740312	0.1779035188591341
Si	9.139980819425263	0.183875163240119	2.4880196080490995	14	0.12016369246350465	0.22213064413419328	0.1794353834088783
Si	15.665288711718683	8.426914684139604	6.879660374848284	14	0.08629760740757818	-0.10609229015686623	0.09052810410134983
Si	16.354016225973474	14.371917044201002	7.71024770344076	14	0.22512598183216578	0.39272065391016614	0.18567494179981367
Si	2.3527031946999033	1.3401579720201235	12.095298988962805	14	0.023879654881939313	0.21849638676416397	0.3369698345902033
Si	7.65577421935652	7.785750256395947	7.043735825489688	14	-0.2794210413198609	-0.11529119077129205	0.38697500485123126
Si	16.104340056263865	11.023790745504472	12.982347836949906	14	0.1648813846336481	-0.0049720034681023555	0.03982976384600993
Si	5.058939301106518	1.8525790104457753	16.113758538119274	14	0.17326730174584307	0.09745928982340503	-0.06768229066864206
Si	15.068606574044903	1.1350628358560717	4.797443537357845	14	-0.10232587797338132	0.29420463980018025	-0.15448871981907755
Si	11.411358887553966	8.032028004817521	0.9156548328920009	14	-0.12723243232018777	0.19300593439915187	0.24784272577780214
Si	15.822304003848865	2.1156365668348087	8.392331427506788	14	-0.19749868383557867	0.10506847601838326	-0.020390664962498372
Si	6.75267461939741	2.347173560061745	11.083061516782234	14	-0.22046199678141717	0.3309727314309579	0.0863675414722862
Si	11.501603841428388	1.8084143452226744	4.5815195333607335	14	-0.00819256999211984	-0.05717444033572888	-0.08139656644631192
Si	1.771250592425385	6.701351052187407	2.0739223855332014	14	-0.4556780243319721	0.42380120346224426	-0.7998832064036041
Si	13.491750616468895	10.163343389865942	15.485420887866633	14	-0.15937973346959525	-2.690601553670473	2.138213973826451
Si	12.334867118211829	11.068658135129505	2.611412746709766	14	0.10959696381876008	-0.3678752918699792	0.26739186796901604
Si	3.5084725374063646	14.772307026567725	13.956225114552849	14	0.10709399278959593	0.09643496146385802	0.004103484090956334
Si	7.112897401581535	2.716465930487207	3.9214819359651725	14	-0.056473814135988516	-0.008809378158423364	-0.5843448763102704
Si	11.5022818799614	13.725999763827879	14.730956550401546	14	-0.6739198716694415	-1.422067553931558	-0.14217183978290818
Si	7.663627617122381	13.925775918101895	0.13183406010683182	14	-0.4552656190386204	0.3540975097909017	-0.1709322238940846
Si	10.640577190732527	12.692257608368493	2.6878220939166284	14	0.38564754317443883	-0.18390679267114785	0.6143941555184372
Si	2.138008546975025	8.124033884008261	0.2512856883632161	14	-0.128365261324245	-0.028779153180013492	-0.06732722102392961
Si	14.612888976529295	7.0862399545967465	10.627493680204742	14	-0.007381129153081105	0.20562286242618252	-0.06441287314354177
Si	8.877836640186285	2.5397266290896647	2.1821518177783945	14	0.38483250278795184	0.10051684827012512	0.09784058474238298
Si	16.063603435371505	3.2615776422617815	4.372667207947004	14	-0.005792186065229593	0.10315917320764131	-0.08349664527180886
Si	3.222007840107055	1.7716291090821634	8.423399416405346	14	-10.58619628289714	14.261092029395646	-1.1853021783150817
Si	9.996944176096836	13.300366011903206	0.34889361407428	14	1.3365919288948311	0.6229705915348551	-2.515558389480004
Si	12.642813458645627	1.2729844312386618	14.595850789800469	14	0.1321350159446461	0.14994609093943992	-0.38940907025781546
Si	3.5207973688959977	3.6322112782319165	9.856978590767643	14	0.1957369624702132	-0.13864171217834487	0.13255924832247054
Si	6.732275863046227	12.958713586045562	10.881662678057854	14	0.24715392666253447	0.04233067799091797	0.27004807687526106
Si	6.7229775190862275	10.833623977138853	6.244891232879594	14	0.02740515449692636	-0.13909859759373516	0.0015809726613590536
Si	11.516094446484635	12.805960720615625	7.6701265835468115	14	-0.30211284554389173	-0.00978614106954762	0.06948232150327774
Si	1.211072271986424	-0.40282894621605536	2.137361777209312	14	0.04475985829739387	0.2080301883374372	0.14682785440716434
Si	8.607980595496587	11.60153388454256	3.1447361332125756	14	-0.1124830295406263	-0.23102564009977758	0.28946840668993545
Si	3.659798559612705	7.344411354664146	14.908034871065594	14	-0.5239611823139327	-0.4060654618533307	-0.26387305322786136
Si	3.3606403885145517	11.801296873019815	9.037524589058245	14	0.10866622369286646	0.02710382095340501	-0.01711199145824554
Si	13.721854183573855	4.889108751557483	10.07187730834226	14	0.6149052912560825	0.0005301619170145339	0.26707819311995795
Si	3.849915956240483	7.201076971089621	3.2981703286247135	14	-0.5093650174114521	2.743133092019079	2.0867918674234893
Si	4.989272487564101	11.297856553707387	10.686359603232209	14	0.08123252992688647	-0.1246132473305529	0.001473243348444849
Si	8.724677280781458	-0.5681255245067189	6.579532871963859	14	-0.04603049854661106	-0.21975802814476064	-0.06406114593574552
Si	10.738603130490642	-0.7768708778217932	0.9506001489356484	14	-0.661271833268037	0.48908208176186796	0.10654634735640439
Si	14.993029963482954	4.338729075355307	8.187583539232214	14	-0.15493969169223154	0.0454478860810655	0.0801668067716851
Si	7.425988277098334	0.3785627370673513	10.063699702831247	14	0.20345079265172147	-0.10647358507584417	-0.09628789423954556
Si	5.315328381437868	5.332417585629129	3.605873101818498	14	1.2323883727061458	-0.25110314443428194	0.7943699852656106
Si	13.524594342205123	9.151163518046184	10.03594784899099	14	0.23378340766616842	0.009729062531440331	-0.03407768702377466
Si	8.754376026817235	7.399681369452215	9.09169196836787	14	-0.03088643110040686	-0.09152672140769534	-0.10992297997335485
Si	16.0361132517418	3.5934100294629103	14.236284651729624	14	-0.297533192747644	0.1355676986575758	-0.07599750238453297
Si	8.035143361475269	12.956272976471636	12.885342246440496	14	0.11974023141727626	-0.05992835124413948	0.030275279365807657
Si	4.217972387495333	5.970251066793132	6.821219048766248	14	-0.11942295702077	0.491982288562995	-0.03908311486103893
Si	10.76447392111917	3.1205768961625266	8.343247691470157	14	0.4761360522538584	-0.31579883916303997	-0.9061539312696886
Si	8.265474038574299	9.220338259934788	10.498686107627544	14	0.08786469610020844	0.016702671491277965	-0.2271517557139105
Si	9.643827632712581	5.262405169921827	4.736016866861041	14	0.39009144160978276	-0.05798176740625538	0.2511067439817301
Si	4.472577502366039	2.613446862308803	11.875234341885452	14	-0.08029381937450039	-0.5172994484294291	-0.5658362604421205
Si	11.562862648016534	14.36868154964784	4.159338511635719	14	-0.5591030498297166	0.23832680787740207	-0.351637219110052
Si	5.535648115827397	10.331253378812972	4.184899906040443	14	-0.20401746426428208	0.054155448468811006	0.1555451869951264
H	4.251999389215144	4.912315114067208	11.958267730585941	1	-0.3977286528527506	0.24529013241595915	-0.5983725698264664
H	5.612858930911873	6.859658238124422	0.8731177892930485	1	-0.5389093315347417	-0.7244950559799462	0.10234516126328241
H	3.1234091881899877	5.9826762874830415	4.021808598706664	1	-0.07477674157852666	0.40694118032537324	1.41342221229256
H	4.057818698563076	5.808747883693229	2.68441544400562	1	5.221144344956301	5.4460335279884795	2.9182564746955366
H	2.7344602832055482	4.375055154333899	3.3324343146861595	1	-1.6076476219450582	0.6258399450721404	1.2361385869261137
H	12.706456920171478	-1.4872692935394627	12.273767946909368	1	0.31489381009034784	-0.951754283896239	0.24286275188320736
H	13.526019539704125	11.254460441870007	14.437589684152105	1	-3.7484080184805837	1.7606386729151493	8.913697414351455
H	3.8734037376558987	0.8679057795016653	8.518020351977047	1	7.886806691242401	-11.71189509768055	1.941191201585632
H	12.523001416703007	15.0000818933712	14.928194997350547	1	-1.3065639898608217	-0.6819016110253091	3.285982899567479
H	6.222968535553728	2.910337224915474	2.339752987864288	1	-0.49245125817338997	-0.011963095944116996	0.22472566073381875
H	9.202528228371053	13.037682034997166	1.5208634696908696	1	-1.4301845334272654	-0.29666595892315806	2.1896664192721906
H	4.205749590930571	8.82055061276972	15.713765175379871	1	0.46586114406295054	-0.17245174713829212	0.35219746295931226
H	10.919425474607612	1.288144846204946	3.1624967930384704	1	-0.11562517735237927	-0.09385639993828153	-0.6705954324904899
H	9.767635493971111	3.4687118311986542	9.407717170837003	1	-1.0676951929819323	-0.2124334633087228	1.2106003120021467
H	14.06381929710449	15.09795478074201	3.2406242767221882	1	0.8975016476463262	-0.6663335683118125	0.17468655188256482
H	12.336786033089238	13.867657154040417	1.7595001188192985	1	0.011139570910073567	-1.0642406558737814	-0.05280844639158542
H	7.655413805670284	9.150850830373193	5.318688951060224	1	-0.694313879068856	-0.18369364804010754	-0.5401257214617038
H	2.024920935726307	10.823881287538288	0.14029473024813313	1	-0.025379894836245715	-0.1363418584694724	-1.7550205506800938
H	10.015122849969783	5.294093596992583	9.07344088261276	1	-1.0712600305083178	0.21102938269338992	-0.501549114348734
H	13.725695304777863	13.494388712994184	7.403239426025935	1	0.6302236796429929	-0.10924857904788	0.9666139870940347
H	4.688809256862358	14.508731066931364	3.63888304573879	1	0.25470269188248923	-0.09630537775572257	-0.770260987789114
H	3.322818345879386	12.909152589876474	2.0526448122484546	1	0.5961282519925092	0.4595182272381452	-0.3017330932881059
