222
config_type=amorph dft_energy=-23202.56047865715 dft_virial="-36.21625364516827 4.091006015399612 5.553801879452126 4.091006015399612 -30.561985016811445 -1.1332649276450792 5.553801879452126 -1.1332649276450792 -31.10852413085305" pbc="T T T" Lattice="16.238802244926422 0.05513145033037949 -0.0614809045510506 0.0549203431568022 16.511422801081476 0.10505017737473489 -0.062227899165247194 0.1047903531611013 16.325047644839426" Properties=species:S:1:pos:R:3:Z:I:1:dft_force:R:3
Si	33.51973830001985	1.2623072248987892	24.15522544389639	14	1.8930140872072294	-0.2812028173067235	-0.601004096121638
Si	32.20917847084664	12.458825996240746	23.18345527858403	14	-0.21700540278901012	0.0017138988064107094	0.05190136043463718
Si	37.17852116815747	-0.05742277511436081	20.468829757454866	14	-0.13684219556477323	-0.03038583689457403	-0.06063052010707192
Si	37.84065719418134	1.2306443966648646	11.725460785950565	14	0.02044774350060566	-0.08998045866815829	-0.14821573705898028
Si	26.70602205492156	10.593141991231331	18.95644497473641	14	0.002068968451123159	0.03255019335307468	-0.06437610633746364
Si	26.90031210627143	11.51627793545549	24.474174281243656	14	-0.02850044536330944	0.05190984508219367	0.07419901421308939
Si	32.76190089660806	13.349141270578977	13.248933566985837	14	-0.17633103084533153	0.031158454043278525	0.12735404560183078
Si	27.344299722528522	3.230040437615473	14.640854100855748	14	0.03252113986295701	-0.018564923074661215	-0.04008044661472437
Si	40.67966219027824	13.465279446270523	21.879621648741253	14	0.05643447622459026	0.058561037434884736	-0.04486167406807174
Si	30.94177381965662	9.864836857501661	12.08875512095974	14	0.003087640378965828	-0.009777142200927099	-0.03162125300090518
Si	42.205744580759195	2.638979325231078	16.535649785101473	14	0.08307292711504846	0.16145281568923064	-0.03203545806798103
Si	42.19987904913642	6.648274800968433	24.255048282873087	14	0.03414427865156649	-0.0467048994720859	0.012846013511055849
Si	34.948406097204234	0.41446346608164264	19.69543050754775	14	0.04478196980314715	0.026354086642049825	0.019315942938676472
Si	39.70159128778527	10.774569120104996	13.564365034041032	14	-0.00597602009562018	0.06479879605209599	0.05769997426316715
Si	39.5397467851129	4.493080042016442	11.771803682254788	14	-0.1726895743804058	0.04619479217656852	-0.09833655095863955
Si	30.918569893477805	10.996879588993911	24.531309625821685	14	0.11035261167235158	0.012821845121046454	0.010063563333591596
Si	26.56474426265963	8.538231259235234	12.90889349909687	14	-0.0037561277622043285	-0.07131320560175518	0.002062540687822789
Si	41.19407353573939	5.756442802783117	12.682748999155525	14	0.10800982050463268	-0.010482396390243717	0.023155631623785616
Si	30.24764044172378	-0.733841013381399	12.549171747025156	14	0.036268011646008805	-0.0786423984273693	-0.008927134782086146
Si	36.860244625962984	4.016763797977985	14.479046947914089	14	0.005009798716308532	0.0022031801488348888	-0.020982790517728472
Si	38.439105433739606	7.179201223008666	13.984651810310739	14	-0.010492937922056324	0.02260927174325415	0.09898472660984887
Si	36.223001383506556	4.134915611325194	22.261844177713634	14	0.13382860301902766	-0.14771411441101936	-0.014277862063846312
Si	34.12600075280315	-0.7247260551868652	23.01084755786189	14	-0.0656878842718032	0.07822896469188947	0.0007687604907242756
Si	34.073019347840585	1.6280520270227967	16.009879249800534	14	-0.04199206342025447	-0.00876695492064092	-0.021881391827120227
Si	40.13880236377053	12.043069904696276	9.96875030394175	14	-0.015664973384066198	0.014238009931384016	0.04657017355331014
Si	37.068216046062	-2.453437230373989	20.593839306140666	14	0.05104004015238757	0.048331123587079555	0.07117899390404346
Si	34.911767635279226	13.087082568708126	20.478397784121924	14	-0.7350268175923368	2.077668300194944	0.7612958006482897
Si	38.70610566737349	0.9561774646916761	18.97669664828781	14	0.0028639542161129454	-0.03597259164472379	0.028751385242555896
Si	40.45456997840211	6.035718106609863	16.91059885999345	14	0.08841671241244423	0.008656654502406567	0.09688516200541596
Si	34.10775622130206	11.63815497846567	22.202972882608265	14	-0.10952574420139197	0.0623264211762416	0.36412173521309504
Si	37.61297161187288	5.4032653730923	12.717752192435976	14	-0.0029958519190365416	-0.03941195923148587	-0.1085348402110069
Si	35.28020324191567	0.5634694047978418	25.5993495339893	14	-0.13809869473472958	-0.07811892138418715	0.15472449017693515
Si	35.08052670983692	4.106984508359583	10.361906560604101	14	-0.050224485544836606	-0.03743117969284379	-0.13313286191939558
Si	42.56936531993675	5.86971479261802	20.241262719943876	14	-0.48831306416061165	-0.1857011670740792	-0.05028259252507195
Si	34.491337955692025	8.854323654133859	17.67354992870983	14	0.09853272629456684	0.06570459645638416	-0.13233170550163748
Si	28.842288619910345	3.534549544290046	22.171880043743002	14	0.048589262561222424	0.008829175669388503	0.040543759793415055
Si	37.453027073762705	0.08809015182980165	17.19989850676245	14	-0.018318354074459017	0.012088308773208208	0.0761407129508652
Si	38.30274481472068	13.623296413495803	10.231411473207961	14	0.023541040311275813	-0.021010815565718086	0.008971357793592693
Si	27.478195259320593	-1.1986762749799205	22.712676538098638	14	-0.0269942918667667	0.04803698913845462	-0.1157475619656183
Si	32.25646647772795	10.169904586235548	10.088974215392689	14	0.017596130590029423	-0.021763120982393414	0.04463824501575088
Si	33.963596004170135	-1.6939515671069536	14.39225754105379	14	-0.013673395203079497	-0.04376278365424045	0.021446875028015202
Si	37.61082156650506	6.931177900378037	19.311652281096237	14	0.18991495158326988	0.03468241099507348	0.007043800135077678
Si	34.49333048263033	7.945620944977048	21.00231544799939	14	-0.02220303710267075	-0.026913044938650012	0.09463878728720258
Si	26.808839367960385	-2.8430550060269186	14.594103605316386	14	-0.0652034880294873	0.0019522402695884365	-0.02457462464997534
Si	31.53624187704229	-1.403136820392206	20.13822293242213	14	-0.0676658355945931	0.013588805838046628	-0.045224199918212624
Si	38.95285422745599	-0.6436625244345172	10.693638749262137	14	-0.0005610151808563108	0.013867770765282693	0.016419849906061677
Si	28.20318925822777	8.855073896550726	22.218386954082078	14	-0.2958799720267888	0.27270737110789023	0.24388579469009422
Si	29.831251028658574	12.66347004250391	18.273682153952702	14	0.053311354592206386	0.02881154910704736	-0.09469895115169405
Si	28.95445635683731	7.306461498945068	20.658319556457847	14	-1.890815535047971	-2.128485425516075	-1.1506552485734265
Si	32.98863974443809	3.156183780988787	17.386539982823475	14	-0.0024230096537075497	0.014137222602834211	0.026280553029893593
Si	36.30088531544457	-0.7171424359514345	23.95006986871264	14	4.3708790442517345e-06	-0.061493640163045635	-0.13701574517388324
Si	26.3560940518025	3.1916595295577843	9.050395125248452	14	0.04340617134633591	0.017029458977468787	0.027144701527995356
Si	27.235037145090256	1.0766303462308777	13.70217417305096	14	-0.0511498263495579	0.04056818529395647	0.045239369439601496
Si	40.2027239920284	0.16250055881179426	23.27899264193711	14	-0.022105592211037143	0.056076835474557656	-0.03292480339822026
Si	36.17704984742412	5.252992791334637	16.333652698014703	14	0.018889396566063907	0.05004707927774639	0.010515563648873629
Si	31.705423165947135	6.2221484754973115	10.877427030677199	14	-0.009231553651991678	0.004292717442519233	0.0977158861343558
Si	32.610447738579694	0.1306087604896051	15.064716707865585	14	0.015327387255530758	-0.05825019080167884	0.025258024444070697
Si	28.255488624629542	6.878686913618709	12.982686823571482	14	0.04092325493866891	0.03358994834454256	-0.0027040314651997346
Si	34.119695143918534	8.044274574992391	13.842651381954635	14	0.03770603085156762	-0.016041126092403865	-0.016445560959263156
Si	41.82328333829054	1.3851537370060905	10.094083008993257	14	0.005449200615521839	-0.011078635713986058	-0.0402354842655293
Si	40.253550479919134	4.849271432585409	20.436622922273646	14	0.19459076371849116	-0.02559612479367017	0.022826530142806663
Si	27.301821711402102	2.5009753180609264	18.64562863527588	14	0.016890876400712806	-0.08409545570087135	-0.11418921503107655
Si	33.90095725796708	2.5312708213706046	19.57791201572127	14	0.010619179193275596	0.007414296411711015	-0.03718203958732144
Si	38.335843171734936	13.134935693254095	22.493925660936508	14	0.019146507098078712	-0.031503496377242396	-0.007569591173047959
Si	28.95838132636451	8.148649209411678	9.501170649086724	14	0.03230979500564084	-0.046143884291229585	0.0589667578544041
Si	28.275090737646863	0.49113596762358275	24.16897176869895	14	-0.09887571174427459	-0.1419566382676118	0.1309016567225711
Si	34.02110159825259	11.828339807240125	9.951575923420569	14	0.18489435422461672	-0.8783060324366327	0.6669691455469531
Si	39.90042339116971	-0.6397050768806105	14.760530757556719	14	-0.26153797537610285	-0.2662374416802695	-0.33137793762941326
Si	39.32332783026812	13.701393076508724	15.518174916709627	14	0.0912654971071683	-0.04546382693405042	0.017961998877086497
Si	37.16589046357221	6.240930518340351	23.019994994083127	14	-0.032122875648866074	-0.04781124609134562	0.09703068656653634
Si	29.9626538769011	8.989615746074211	23.88557500328344	14	-0.0752063732775234	-0.07893576154439819	0.10897732743660438
Si	36.148241837737494	12.297220207064655	17.14442116544767	14	0.38259769804367916	0.14340777011030334	-0.07878535188316953
Si	24.495942678642145	-2.4680393511801975	19.534360605812278	14	-0.05348721819610452	-0.0632864719027849	0.01097502016958409
Si	27.19810313312224	-0.6158450945623699	15.355086505614485	14	0.06978468348892715	-0.17594459371571328	-0.08058846804418937
Si	38.87444415148537	6.6317873307120445	21.252240359093552	14	-0.014298173795875481	0.06988958458598919	0.024820936539645524
Si	40.91695964458981	7.822576316906851	11.626617159479004	14	-0.11877580981168873	0.1294314987005104	0.007672178275321867
Si	29.01173947643684	6.507232474400103	15.183371930626711	14	-0.042878066313577504	-0.022837585895683295	0.07766512129518101
Si	41.56078293525651	-1.7203480833107923	23.401421811401256	14	0.037240917899152834	-0.111609882173904	0.06764578097309595
Si	29.566813311331646	11.18163896340743	16.380015081134946	14	0.016893961727096982	-0.005169207246157713	0.09633417413530823
Si	38.01747569106568	12.32283725062759	14.032059985890859	14	0.01103389848141548	0.005688570520827625	-0.056586428549011004
Si	31.067762580847553	7.4823202701403	15.662391970388292	14	0.051625223723253275	0.06489495539106953	-0.003558152652552927
Si	35.08185668503046	7.889588229405627	11.64748104383378	14	0.021864165421475235	-0.03469680918486631	-0.03080312728803406
Si	38.02068776790672	2.75904896605517	22.808889444407164	14	0.014835020586722399	-0.08702908687116032	-0.07594967982557821
Si	31.5366251177574	9.887376608034376	15.944080391599158	14	-0.04601610035681823	0.0055990960556864715	-0.10499648506941911
Si	37.72411629095866	-2.232416139145232	17.06399258011739	14	0.0011284581250129919	-0.12250879762601173	-0.10662759428452105
Si	35.490012918326144	9.018064873565756	15.534204446789484	14	-0.001977951322789917	0.010842608245596465	-0.03135745759505799
Si	37.97912726103469	11.249824956571562	18.450744236037323	14	-0.03411805337730098	0.4387102718821869	-0.3902994440301827
Si	41.934155201952	13.211512384617258	9.010482878231658	14	0.0267981165308394	0.038429025667593264	-0.09196098109626835
Si	30.786769189408158	-1.8672056005605084	10.576686999001648	14	-0.057296053617371875	0.027381757438513014	-0.08246126115938524
Si	36.00985296595089	8.625056391924907	19.443124957096174	14	-0.2868361090631679	-0.06072667944604547	-0.09235127488386682
Si	31.404493137815365	4.686051485482116	25.423243929791116	14	-0.04206611125347474	0.07491018194464234	-0.04964315863195112
Si	30.705812836143934	13.450826724387156	21.69507013369864	14	0.0971409869847707	0.07650092480621795	-0.09356252260018859
Si	27.344876207502523	-0.1556850449079179	9.92207450786381	14	0.09376486858888425	-0.06268920413691449	-0.03505213594011078
Si	29.12966394359712	13.066342100854824	10.727907939139074	14	0.0026125001158024633	-0.08974623097349281	0.05374175762279917
Si	30.5521885220304	1.8949499548725712	21.976053781730027	14	0.12041771766913527	0.07440290286497712	-0.02534852735133991
Si	38.299117019137825	2.836140434141594	25.102450340527056	14	0.0776440382315558	0.025052078907926836	0.037573876038112006
Si	31.074656042015523	-1.3268881570987556	16.128365586822795	14	-0.00439041944468486	0.009579424201807714	-0.028875055408455013
Si	26.140970970223226	12.874694136977347	18.321171524599585	14	0.005833066639819947	0.03904891916028097	-0.027130817559266558
Si	40.8058133416027	-0.14414722592125084	18.662237898132407	14	-0.1424361494098194	0.0033100409891586367	0.1422348318632518
Si	41.2346369671916	11.761837799760603	12.051868202130445	14	-0.0040039823150666036	-0.028765526321816712	-0.04851110095948992
Si	30.68893075786309	6.440155605847918	21.967175913130436	14	0.17640379312589172	-0.3166388192711323	0.13443615520617863
Si	27.673829900976013	10.800049755955778	21.03930954431681	14	0.0519831215838179	0.010387779714462269	-0.037884208450253885
Si	42.06680520641997	8.580087316150271	15.036123053155208	14	-0.009935522288648222	0.0038980527758765027	0.08786778142659261
Si	36.62865356094335	10.710887829244738	20.218477760309547	14	4.868951509986564	-4.117868653890967	-0.4830764939550661
Si	39.55280132794665	9.753393380570206	17.517028574614272	14	-0.009989258389839316	-0.2145366274606039	0.08796754031301435
Si	35.43547419198311	4.249470483214913	20.039905449983177	14	-0.06703977144913706	-0.0629360302476487	0.026517094719347215
Si	27.09753005172868	9.593937636761929	9.628523487399233	14	0.036384739827543526	-0.043129263303355966	-0.0477675373009031
Si	27.0302550672136	10.479002838083426	11.786988783640336	14	-0.06302396204959777	0.07602989831156683	0.04052036273500171
Si	38.63980502365954	13.372311094829753	19.080705904906676	14	0.10720146499197811	0.03304204580081901	-0.011479985254461172
Si	32.797342543249016	1.3641372059258028	11.35007650550075	14	0.06235033245571898	-0.17005676253257415	0.0372419463412809
Si	36.535935290308196	2.282596314304556	10.07778553519309	14	-0.07851050072444568	0.04469969443290241	0.0007296796898580248
Si	40.80019789078554	10.449257837326384	15.631276396904333	14	-0.003773097057317306	0.16009012986955215	-0.08092656839378884
Si	40.99849573063071	4.600564447492656	7.98828570475702	14	-0.0011757664629037164	-0.045860548484949276	-0.09194324046955935
Si	36.26454077966123	6.001560965925055	10.901628032275832	14	0.03235350379608336	0.12278236323207549	0.10409299865991907
Si	33.901421693748944	-3.85294138347933	18.159598213450195	14	-0.04911685337291681	0.5082928664929504	0.7143607872500506
Si	29.050776440633953	12.318131184558153	24.886776756395147	14	-0.052586045781392615	0.015661888057682025	0.06120876169357322
Si	31.180777994271494	2.3357173747819457	9.827401060021066	14	-0.4399508301991583	0.4701998842907005	0.7006220859718394
Si	42.06090232506648	11.561625380241228	22.30756674370781	14	-0.012489144092619295	-0.04705097024817784	0.03282607295392657
Si	38.87927363405629	8.880804613207129	12.499348830159578	14	0.047492943252711285	-0.018928991587994187	-0.07738975591539315
Si	40.22261028777938	10.036580662713472	6.393284941609753	14	0.0614635582307999	0.0012297596746268262	-0.04388234005162733
Si	33.82528670354896	5.9455266264523	20.109233045785963	14	-0.03064269031605682	-0.031035812319507465	0.01664636428476672
Si	41.997648120257374	-2.6102963559472636	12.44836644774066	14	0.013813263332495553	-0.07413062281157344	0.07503153811575335
Si	39.59531181709978	2.457472625191986	12.776115206423423	14	0.04883583156142463	0.035117699125774546	0.05820956733762049
Si	27.434176165827058	7.679559326314906	16.585774747615403	14	0.02298491023052778	-0.033163659082462014	0.017670949754845733
Si	37.07696075475211	7.378069052222488	15.83251836987023	14	-0.029493663348482642	-0.05797431120082695	0.018074870400640992
Si	33.03296413138264	13.877081338063757	10.856285459194101	14	-0.3349628297772957	-0.24117559257212612	2.1336304643722235
Si	35.54993325369406	7.935638823469512	23.034324299465023	14	-0.01800339367274088	-0.005925626431345278	0.04451483196038376
Si	30.698152893545746	1.14481309159234	24.22708794968344	14	-3.2799261467648066	-0.37439355807761865	-1.139988246821196
Si	30.592834772450704	-2.527017823773689	14.12146874560485	14	0.09140382257339227	-0.02265426608635674	0.1532134515802841
Si	33.702656170319244	4.747347265280953	8.463544789026255	14	0.024212355910366475	-0.07025545287304627	0.09806015713672363
Si	31.03514327472719	6.861389116596052	17.88926898207912	14	-0.053803464150482726	-0.12136362731641775	0.0649864867404668
Si	39.817295881820314	0.8707992280916752	9.09656264020847	14	-0.02635460086311385	-0.06963967314887079	-0.003883140365019643
Si	27.08189025796927	4.823251661491339	12.681946791895932	14	0.007156671658632178	-0.022593588000801246	0.07792326026932388
Si	32.84202256458598	10.494941429688511	17.921045483406512	14	-0.19202917148802764	-0.38623041275051634	0.022607986190594072
Si	29.09545646197092	11.398645770535547	12.373769292105118	14	0.05418810150637689	-0.028600204249731184	-0.016428334553618168
Si	30.235172127272033	4.837373107502325	18.819649150159652	14	2.0568842561184633e-06	0.009718263889095708	-0.046531864084039934
Si	26.328841739595006	7.380415589651867	22.149486444330456	14	-0.13070599560770782	-0.029374106951095758	0.0824103532740463
Si	27.184498087735847	2.391425310086325	23.40466636626901	14	-0.05509775856864528	0.09346070682951073	-0.06406577392532177
Si	31.779114184637628	4.950779881148051	20.58824334213953	14	0.02018009143677824	0.1036489687711295	-0.08805418656230334
Si	28.50219171547465	0.6165466199391807	11.806823114548592	14	0.05417344620605204	0.07395758742352748	-0.04170384251386587
Si	38.87544122690519	2.942169824021461	14.967781165462895	14	-0.04764103891915182	-0.056168366823954936	0.004519488931756293
Si	34.17191169135221	3.2853570126980665	23.150670334527476	14	-0.4346587241186975	0.24676980352770436	-0.01992966577859582
Si	41.49030236950573	8.263835778920793	9.399165286715506	14	-0.01980728116535677	0.0017486087282327083	-0.09284338444214317
Si	28.160797313872113	4.374088671678929	19.973895484608228	14	0.1104276879476999	-0.18585517628275605	0.15279898940267622
Si	42.43125575917981	0.9633275022706057	19.948572367186962	14	-0.021043211492751953	-0.07870127673920069	0.11648495497143677
Si	32.562789482193956	2.981213283823915	21.443776273778898	14	0.03867713733098756	0.004328712917001306	0.006536521055412461
Si	31.95316717754811	8.05431353304666	23.05639799031453	14	0.07253010974978126	0.06442161490163027	0.06595347945137449
Si	37.07593769691092	4.762002974831224	18.489430437546034	14	-0.08316445846444573	0.0675665909292354	0.02525751022300667
Si	29.40436146955991	2.7352182139609633	11.299631634423788	14	0.06442598578067452	0.09903486316359177	0.04552707612492607
Si	33.92108876281968	3.255378170148754	12.193603934568909	14	-0.07880206406775049	0.016581829541231007	0.07815491685866921
Si	33.76787042403994	-1.2773591663748507	20.776833499802812	14	-0.10891613512998487	-0.047162299108540244	-0.16795694081760923
Si	28.895999156572415	12.436412910012178	14.483761133490203	14	0.011455045532855736	0.0601769771285978	-0.028886882492927698
Si	37.99253743826086	10.82964860559265	22.116686885161883	14	-0.3149174642592932	0.21086997416354075	0.3460689763182074
Si	30.595590533016555	3.1858167325536986	17.20032559281361	14	-0.009966118441957984	-0.03711827617538177	0.0905741268865805
Si	30.558200204773343	3.3219288946683303	13.298002993631878	14	-0.08311612168442695	0.027509541372924374	-0.032161956449732326
Si	34.791230310870596	-2.124730369903451	16.575297336200627	14	0.21168758565534787	0.0023299356411181893	-0.0481043520978425
Si	41.18150129160219	9.085719850993273	19.104705542739744	14	-0.014272719853206016	-0.02907585873395858	-0.008874170012491094
Si	42.16281674896292	7.048006234137049	18.22669944052241	14	-0.05179517378491507	0.05872841639122637	-0.08945183941433585
Si	23.686397008914593	9.836486787991566	8.832659186420821	14	-0.1027861058256878	0.07429877309951112	0.02276148117820691
Si	38.12919198342145	0.754178753703569	15.152058241179857	14	0.11789392068687793	0.1023569883477551	-0.0009312543469576343
Si	29.8046450291825	11.734101564955218	20.420034770134478	14	-0.07628572329092156	0.004796139864204227	0.030086560235308795
Si	33.82090379384523	7.087333876673166	8.043202800111152	14	-0.022347533221663073	0.006844539472766201	0.056989063642146204
Si	35.58970422129469	-1.319793332165223	12.767610835130927	14	-0.013282072973352963	-0.00923386764677981	-0.03866633868864293
Si	40.62718094692693	6.729931055708132	14.718213512662482	14	-0.07138082567167507	0.1474523758894283	0.01689164773230885
Si	41.46530078454883	12.695520983156952	16.066202643710955	14	0.014863559855776046	-0.04982930665712985	-0.01755859245235526
Si	27.872821146691308	-0.7387289564003809	20.420578777081772	14	0.05182217039077663	0.0056623452465621145	-0.01955788394930241
Si	29.99566616714458	7.705023723152334	11.559577640657528	14	-0.014845047897470976	0.024378192203516027	-0.024365336676915286
Si	40.541692285036135	8.349201024310112	21.328830041667395	14	-6.684873832385006e-05	-0.05716312747232023	-0.13574433359307
Si	30.795658425317097	-1.1015409927129993	24.671561112439765	14	-0.28127403692409153	-0.09645784430120734	0.10183376841510497
Si	40.51507816605338	-0.8298525559243549	12.49384867633722	14	-0.03403140712801199	-0.05466632709592443	-0.019030550248140037
Si	37.724002617865196	6.483630692394161	9.046762457961586	14	-0.018127835170236042	0.007187782033005969	-0.03861105992425975
Si	41.51716494539277	0.2624630533033162	16.36232754779184	14	0.18062014874040255	0.06834666428336832	0.35555815472327784
Si	31.753615685872163	-2.550872934387924	18.053286264738002	14	-0.1308463779581879	0.1380675843603558	0.4518830728794336
Si	36.5508508240721	0.6162673089095245	13.499012748706843	14	-0.10304681590515083	0.02531690275590209	0.03177243399372989
Si	27.81725773860577	4.284804952367748	10.488540010625114	14	0.09442358577190618	-0.021993492019078683	0.03805518695404374
Si	40.19551874180408	3.5660824604171544	22.34280053097786	14	0.04919218675879715	0.007794048667496887	0.06524308305141759
Si	37.85689783143477	8.88514042977214	9.209756682779282	14	0.005865462566853813	-0.025172406636909766	0.10552716120749767
Si	29.37724556506457	14.116686356172659	23.47764936397735	14	0.0027027459125396605	0.05353838319197546	0.008065557389304524
Si	31.509587160526152	1.100565028010538	13.272169971191358	14	-0.06454708484125349	0.12389128095665533	0.05972831925023196
Si	36.57701674628634	9.905664984871512	23.792790152693545	14	-0.06645613054146345	-0.016783918419394646	-0.06703977144913706
Si	32.92350668578415	14.228899562337006	8.087463854903636	14	-0.31707924961247375	0.557650889544897	-1.697742237689431
Si	36.86938231877621	9.420545571694882	11.290211382778235	14	-0.008146290096357173	0.04823419291650998	-0.016269697355365032
Si	28.183109718217896	6.017166657756424	8.876010856465589	14	-0.03356423729134108	0.015091616897673181	-0.0182450775728348
Si	39.20583044915901	4.884133346449698	25.81763435146823	14	-0.011003816549169747	-0.06606712230652505	0.05163525103400185
Si	34.200190309203556	-0.5966099832468075	10.996757796393771	14	-0.09129095104983777	0.12348736031086006	0.215545272077698
Si	41.521180853394746	1.2586047298545104	12.38592906530317	14	0.03298213904685955	-0.017573504863212117	0.06905706068332523
Si	28.943577841792735	-0.5749276526190836	16.89198732679061	14	0.054892327253565444	0.011455045532855736	0.0681952261800116
Si	35.41043363339417	11.753888802724752	7.944274730770159	14	-0.026662105059403564	0.05359031951944246	0.09122667341683406
Si	37.90097538537638	0.42125786926816133	22.608982318338807	14	0.09652160771314701	0.032454034014101144	0.06729868175487597
Si	29.34314688482783	1.3954963646100431	18.13316759531832	14	0.05971417817097115	0.05534201357405935	0.04410371221969209
Si	31.467890245941962	10.143724048909293	19.86984563045598	14	0.010630492056684248	0.1715210070123985	0.044139193473110135
Si	32.586785872224354	9.834533234685308	13.815874872838359	14	-0.07307672674084474	-0.001943241400967918	0.005761332801387816
Si	36.015203720850415	11.31226233900905	15.025095139187798	14	0.013145290170321084	-0.005250968395338422	0.047034258063596866
Si	27.003535394644054	-2.354494545920979	10.578369360784926	14	0.026897104085665098	0.04598293309818832	-0.016442218522346962
Si	35.60956940632831	11.444491753031196	11.654374505001746	14	-0.018838745791256988	-0.1338314312348798	-0.08885765697484962
Si	29.734239162893132	5.174212465859594	23.71246062534471	14	-0.11816028719804528	-0.015751362522823175	0.17375195509869099
Si	28.357034422922894	9.581141294240474	17.583171699898713	14	-0.08317217178040617	0.07203337220192865	-0.07963535930201049
Si	39.00638288716851	3.3929193654383707	18.857753994990354	14	0.13800253539575608	0.09671804015960633	-0.07442167193381422
Si	32.827524373465224	6.214740237606083	14.624527396831548	14	0.001760178702173375	0.0439216779630256	0.008495189088301268
Si	29.974532715168163	8.5733643646225	19.004306218789054	14	-0.022268857398866544	0.0017738055603701598	-0.4030570115182255
Si	34.1158059002207	-5.00293147252832	13.438798487197255	14	0.09861937254385585	0.06035489761675206	-0.008817605695447837
Si	37.08175938319765	-3.0230125041922205	8.041194034159497	14	-0.05706465413855855	0.04163519400181792	-0.025996960113081256
Si	40.13922295421635	3.717080926071656	16.827606134454875	14	-0.1444590950757119	-0.05821162422187661	0.010088760165729047
Si	28.05575200820138	-2.2088046137312785	18.43545195716365	14	-0.02688270589587227	-0.004102455648828275	0.07594479472546993
Si	32.287491112737136	4.853191530408606	12.759741409260501	14	-0.04277830742715575	0.05524996800359805	-0.015237398569325575
Si	38.7442982028763	7.573094730877203	17.405796204856397	14	-0.08362365787462418	-0.003357863548113391	-0.021399052469060445
Si	33.84396156890387	5.1868025729114775	16.493324420700564	14	0.059030521266343776	0.0017414096333362942	-0.004169818608216155
Si	41.577207073360825	1.6923601437984477	22.082560598602445	14	-0.0022569162500259837	-0.03762478392345094	0.009606935028733297
Si	32.987504637404776	9.583802868528883	21.55469198277641	14	0.024696495042150355	0.0013855686570278	-0.003170687080806611
Si	29.449153540089007	4.080849440270713	15.265341598324106	14	0.00850007418840955	0.04410936865139642	0.00614339905196182
Si	35.161897157941624	0.06377385323636711	17.396879362624755	14	0.0001858909146467061	0.07272217131719633	0.05879397957689015
Si	33.35318285957404	6.828035807072173	18.035293437943874	14	-0.03211593366450167	0.021724040181527165	-0.006273239870629298
Si	35.18470485219465	2.4249978462904562	14.040255815929665	14	0.07035546887000002	-0.04477991291889103	0.01875312798409606
Si	29.970654838779677	0.38454633178306885	20.221382919798234	14	-0.018874227044675035	-0.10530321793411279	0.02655617552021346
Si	36.95391450278057	13.301021826214033	12.153935272752399	14	-0.010449743352677838	-0.029382334488120235	0.02154843368816105
Si	33.2605019386696	7.969581609178072	10.143995240432272	14	-0.028939590151990734	-0.02889459580888814	-0.012244374866141198
H	32.06577012003291	1.256243577313115	24.806562526041116	1	2.79173752410169	0.1509529357828099	0.523026328419527
H	29.91026844372856	8.244058284559271	21.10290801620897	1	2.210212121885494	2.266119521519454	1.0417349996749292
H	35.594145591446484	11.523697540656062	20.315423046120248	1	-3.079786937765436	1.7656021917356952	-0.1751100129287932
H	33.61116719299485	13.847701715107139	9.379983764144006	1	0.7819433190322708	0.3696210723823598	-1.3100270116165291
H	33.322385570751784	-4.1126941454541805	16.817963408326396	1	-0.4503090422024389	-0.5645064847705399	-1.6962900774046115
H	42.70323000260345	0.9243067770868446	17.537426399285845	1	0.02107509319872179	0.20253522204721672	-0.16151015133786994
