237
config_type=amorph dft_energy=-23407.035055701283 dft_virial="-50.51288433076258 -5.43791221409319 9.239171237536974 -5.43791221409319 -45.034360374965935 -4.040868299494193 9.239171237536974 -4.040868299494193 -60.43839400308802" pbc="T T T" Lattice="16.35257382087671 0.0668501908322248 0.051871038483321204 0.06665395739533961 16.55719623718875 -0.012558939960652802 0.05200186077457801 -0.0125262343878386 16.337104084935593" Properties=species:S:1:pos:R:3:Z:I:1:dft_force:R:3
Si	7.859396074327008	3.525018084864961	14.82679016739137	14	0.10759098744798054	0.5122518544649143	0.4068249663649025
Si	7.026363876127005	14.538436578839054	14.41067062336174	14	-0.01850527343123378	0.026462330176028056	-0.06143501896174626
Si	11.88863270471121	2.6419463602592317	13.194173760308447	14	-0.4160027839157031	0.0484151987310484	0.037983710226143615
Si	10.127171058248104	3.304806557271031	3.4645945390907267	14	-0.009277576437222329	-0.021196449369832778	-0.08965752783994768
Si	1.464331517446099	12.634198754255557	10.623049682699722	14	0.03012255570979086	0.0062367301750831956	0.04600324483021749
Si	0.8895032754996418	12.869651078780905	16.186002703255348	14	-0.006049296597244401	0.0009191701519529383	-0.03376889727482487
Si	6.623957778778369	14.589668223373858	5.80219755624878	14	-0.10662913694771316	-0.12707302379033858	0.05063483395393224
Si	1.4989372840408037	5.009211696681124	6.539763822682774	14	-0.043986726927625355	-0.04699800547858278	-0.0642676056929534
Si	15.067607841136887	15.365954617462581	11.281447204301024	14	-0.07855575217808031	0.02422186900005102	-0.05391479301084515
Si	5.200488604006331	12.212174219054324	3.3320633816543848	14	0.06896501511286394	0.13557695463672836	0.09814731760707665
Si	16.58729027001374	5.085266870981905	8.628640958588836	14	0.03895250271077541	0.14413513580537327	0.05742512310444332
Si	16.352909052998054	8.756877874314673	13.700258158756736	14	0.03298573859430776	0.009380163539496236	-0.07303867438210655
Si	9.813279323163819	2.531046668682202	12.075190197879328	14	0.1240352628545836	0.2820212001301266	-0.00102407124901498
Si	14.179486376088645	12.284803484602817	5.557200110297608	14	-0.02097739119655616	-0.05118093672393169	-0.010983761927672591
Si	13.068551655129102	5.603700893724838	3.22460758689469	14	-0.06069891150858786	0.008177914691794994	-0.04834295067155224
Si	4.313853607242495	11.375982662520467	16.298452638983772	14	-0.0613470871597972	0.11323456362570558	0.03911499656700877
Si	1.072037983211614	9.9355409307365	4.574160531827995	14	0.07470706462435064	0.0817210399377146	-0.21844367910510093
Si	16.215045251914358	6.499174571541711	5.469501752074971	14	-0.01592876878991339	-0.31753716346999206	-0.014780770264467277
Si	4.670849652017255	1.1266579250899689	3.8288626679807236	14	-0.06599256025224075	0.07838323101109837	-0.01774191226168182
Si	10.8727109433342	5.752843211593511	6.250339126620793	14	-0.011873621478975844	-0.05670701338852596	0.004685582335437859
Si	13.142803117089182	8.417152007264454	6.179541373149894	14	-0.05606166595316879	-0.010280307512080079	-0.08241369571096249
Si	10.581232337299486	6.07572734392306	13.221451843314128	14	-0.011813200503952364	-0.030483281786207638	-0.030669429811386362
Si	8.59080551667873	-0.2508795432218061	14.071100107782387	14	0.018791951674430298	-0.2721823514015159	-0.03182899831077315
Si	7.222293151185033	3.725652056572312	5.717823719502706	14	0.1573943259413769	0.03455694105545026	-0.04032007363056218
Si	14.001447049359985	13.749148084278042	1.9676392127624633	14	0.40422069378612446	0.0942883456320664	0.09002313901647276
Si	12.11699773160772	-0.6987398456676167	12.733491238040829	14	-0.03983053517760598	-0.09682114148294427	0.1574745444273655
Si	9.964195918357664	15.31145241564636	12.384035463078382	14	0.07844879419676214	0.016048325187300278	0.2673617860367703
Si	13.403131300297009	2.550663471256159	11.420077951067215	14	0.004696123867250466	0.13602818362041436	0.09175323578640039
Si	15.81588191211025	7.250732282025621	9.120150118512479	14	0.10917993053583205	-0.09383403132199623	-0.06631394841725925
Si	9.903700420323238	13.03729003335465	12.751593772593488	14	-0.9698234978651755	0.06603832592693938	-0.7211814154433395
Si	11.876466231624326	7.103305371451051	4.61892301406015	14	0.02131574865668765	-0.0477675373009031	-0.02021300158487614
Si	9.278173634678849	2.6098016880187958	16.430437613354115	14	0.002712001891692194	-0.03130834948344315	0.15091385498194365
Si	9.685240276153507	6.181732646528445	0.3005445908188095	14	-0.0786771083491913	-0.19103621061338646	-0.22142821816072883
Si	16.255551103844745	8.241052121003674	15.96453037582943	14	-0.15828624237693625	0.01079581412876977	-0.13330384042318544
Si	8.980863625011365	10.873315996431263	9.445521509654547	14	-0.04659614171704363	0.018369519070329965	-0.011581801025139038
Si	2.5137977495799926	5.171259633582281	13.976340616389164	14	-0.46023762250672273	-0.03133046098919644	0.23332369403492595
Si	10.236811585271788	1.328096453888549	10.083983349346953	14	-0.1382200509058406	0.131768376325993	0.08337297510590974
Si	12.227967740166301	15.180692264977905	2.577639027713311	14	0.5424374022550489	-1.0404851853788053	0.35347093142438163
Si	1.685126839514763	-0.039930233848856786	14.51488856641283	14	-0.08216841226342038	0.04647041466688839	0.030206630853759707
Si	6.169737877698838	11.719870313711297	1.2423865944930155	14	0.09235281754705893	-0.1390332915186034	0.02847319164691587
Si	9.606186000825664	-0.32329785782564846	4.8566156703232695	14	0.1415992546281112	0.020418175789423957	0.019446555088939995
Si	11.901515429842723	9.951404768830031	11.969611702999169	14	0.012268800366682604	0.05201217507393556	-0.041044353999247885
Si	9.170281220522085	10.414000567107278	16.264919615177373	14	-0.3599280053254015	-0.0017882037501629887	0.21297031009956974
Si	0.9948446549768986	-1.0754393627842909	6.321329842971295	14	-0.36429142816422483	0.18315345881234446	0.1402447963454572
Si	5.37720989615058	1.0521889710706762	13.934748939441347	14	0.007348476115515225	0.24697317795852802	0.07417793114946417
Si	12.87578991479813	0.7253687230529383	3.303351159280799	14	-0.41588271329725207	0.15169547099926867	-0.17687276273628674
Si	1.178681044486876	5.796061990788836	12.119470272912475	14	0.02934479635044607	0.07492072347645494	-0.07599004617910454
Si	4.121371499559084	15.166601068930907	9.222989521669449	14	-0.032611642770226226	0.013920478424345729	-0.0036147169695961846
Si	0.8638424830696204	8.83405321448434	10.00528065892686	14	-0.1503708375383284	-0.14298148084822282	0.30268980157773295
Si	6.6036541591753135	3.774422606752847	9.462922509670342	14	-0.013223708882585599	0.13237875672899616	-0.09986095930295534
Si	10.177653745165461	0.5646028446060974	15.699808198914013	14	-0.5113643089083992	0.6149232889933236	-0.7268039085574391
Si	0.19742064917835547	4.869647205811089	0.9987971234514946	14	-0.1623102793135	-0.07797185415987468	-0.19631340428299038
Si	1.3102964458844204	2.836049029075587	5.55531790458215	14	0.1255594140883674	-0.06430025873051928	-0.03017860580577009
Si	14.298492143887675	1.453442196977611	15.537011304395412	14	-0.43321916224994667	-0.38177134479378355	0.6675674417549515
Si	10.50113638947751	6.756127539635115	8.331669451599979	14	0.08311997834240717	-0.0366760460603163	-0.021335289057120777
Si	3.164013972141822	9.052181397090008	5.100394833687114	14	-1.3469506551191754	0.9627239047446507	1.9711949722296318
Si	7.052893001515243	0.656029638129553	8.060980142924612	14	0.10600872923396142	0.07727328484439043	-0.2456405740710953
Si	6.047360165342664	7.875804460207893	0.9594441429628084	14	0.5035612613722819	-0.37061686147285317	0.3307071362513866
Si	8.810030971252312	10.705057271252688	5.418302813112982	14	-0.004507918957815627	-0.015205516863355738	-0.048771296817888915
Si	15.81912630493342	2.986906754238366	2.1642961868156076	14	0.06544774303490136	-0.03291400475587563	-0.02742829444480769
Si	15.394289090470165	6.789984348612374	12.683621780613736	14	-0.00287758107430973	-0.008058615404940125	0.12919032902148053
Si	1.002918025626084	4.036910993045053	10.639996075253402	14	-0.08093299615708922	0.09493163618316744	-0.19488592660924417
Si	7.669697210890085	5.412927652220969	10.680624573081841	14	-0.0119648957178411	0.03327910171133666	0.004243866441436419
Si	12.912335121860718	13.764604737990034	13.645705263302649	14	1.5107447193129333	0.7379427081359167	-0.2554398277777757
Si	2.847438744808132	9.901671039530116	1.1221968849581119	14	-0.09098524662727217	0.07834877819980839	0.060918483902928505
Si	2.368308644194665	1.6827802146653443	16.064615969755444	14	-0.02073596440699426	-0.05059472471093793	-0.01742798030209174
Si	7.040232674278866	13.618723165730936	3.7603722926718666	14	0.022269371619930572	0.009440584514519717	-0.11304430183201461
Si	13.780565057523363	0.7524963604236765	7.060199426481935	14	-0.19912207973472013	-0.032305938347660615	0.6354389096743811
Si	13.779188152907885	15.060749482517748	7.576167449034677	14	0.0059675354480636916	-0.07041537562395947	-0.1379248880150876
Si	10.672358239553052	8.469325572296306	13.360849535762812	14	0.004921866914359467	0.009577367317551594	-0.11526805082341068
Si	3.67216699807061	10.789027194174507	12.822919721065336	14	-0.017334649178970363	0.010315788765498123	0.016086891767102502
Si	9.311520236720206	14.257199722931107	8.441918302278006	14	0.014255493447561024	-0.01625812738142436	-0.049780969877111066
Si	2.2124584133417984	-0.266561865386215	10.236285025549478	14	-0.0936165158119117	-0.03114714117986988	0.11761161332272568
Si	1.0340733542888907	1.2151837343048046	7.259157237582558	14	-0.09518694694145814	-0.19387831043427814	-0.16516883420844064
Si	15.038292200944879	6.266255293630823	16.293190312317968	14	0.0007353361215623506	0.06525645279908235	-0.02191790152266633
Si	14.53813241701188	8.87089931281682	2.6658426870359273	14	-0.4251669746083068	0.18422792372563435	0.03928674640239466
Si	3.6401302542204603	8.246013556399587	7.230005125254621	14	-0.04264846660848827	-0.2080656695908552	-0.1330690985074559
Si	15.739867619775486	-0.44304931268484177	15.173528109252954	14	-0.059661727622440125	-0.14042631638105962	0.053110551266702825
Si	3.902541782416553	13.303717805892326	7.757689919268049	14	0.0014279918948102432	-0.016538377861320504	0.20946049422703555
Si	12.403526349197003	13.678613610668297	6.155098863307202	14	0.05514121024855578	0.0064164504369615466	0.06108252042235396
Si	5.853658139793284	8.914255455417964	7.603363768108324	14	0.08024599681554566	0.32727831019643716	-0.06844950849617425
Si	7.972796106945683	6.244286960371524	1.8020410859323246	14	9.137323413339846	18.088256603379815	0.04010307234154168
Si	12.106788687053767	4.673686860458886	14.34724143544588	14	0.05476505754021811	-0.02961759062491378	0.11596122081772262
Si	6.092145541475789	12.735600747487343	7.1635065193301495	14	-0.0795453706158053	0.10804581597911474	-0.08599704519565286
Si	12.296654348912043	0.5060762220550866	10.68078973622455	14	0.21049253590254302	-0.39082806328400516	0.06615891076645433
Si	10.213952025153302	10.577906180544282	7.465006112875133	14	0.014863045634712016	0.015275450928063764	0.05537363816949717
Si	15.167027876656132	14.514080738764317	13.548906579444463	14	0.3269713202212114	0.1014887260811411	0.03361977316625628
Si	15.84280186909362	14.701339766469301	0.7095163319098956	14	-0.011231102259470837	-0.005452285941906016	0.012208122281127108
Si	4.809540904093152	-0.04888174912810333	1.7974230590509594	14	-0.039114225235412727	-0.14497151636601743	-0.08754202238252985
Si	10.637667438469029	11.674927950828664	11.009932079912097	14	0.12371438891062914	-0.03598107629228028	0.03658040094240679
Si	5.411316902759869	8.089394744585588	15.081834765311063	14	-0.15228913921769086	0.04547205447107489	-0.11812300617090313
Si	5.119902072592143	15.392061840961517	13.32666894161469	14	0.11456202530249802	0.09545459900528556	0.012171355475048993
Si	1.2806619263574737	1.4614272625801978	1.8566086988941766	14	0.06025745272511844	-0.06383694555182859	0.09809435283748161
Si	3.08521643556057	14.876456850267013	1.8395723660152599	14	0.008543268757788037	0.01999805718011176	0.002717658323396519
Si	4.634899686379886	4.2985555755586535	13.41163147867142	14	-0.4624917105408965	1.2134465255915508	0.38333329127577354
Si	10.999131064490209	4.24386858725603	16.456582448261788	14	0.10351578551554584	-0.02489395593073773	-0.012911319586187608
Si	4.722947994231635	0.386213568248325	7.777563460588598	14	0.3670790205523294	-0.2663721675990453	-0.16829786938306088
Si	0.5426328760681587	14.680090955811917	9.921987741362297	14	0.03966855554243666	-0.00575516214861946	-0.07150372450597817
Si	15.225444935538217	1.1696297772105462	10.881799822019266	14	-0.08335831980558489	-0.32610434350725753	-0.18036483798211184
Si	15.398267723403011	13.411327316844249	3.915089275426721	14	-0.051577915385362556	-0.11593936642250134	0.025060306444951313
Si	5.324177809832355	10.353356258716548	14.47327072500676	14	0.01313757685436064	0.11494511999520009	-0.14844096588502526
Si	2.3242149909265604	12.778660904654519	12.834322519027006	14	-0.01008310373402472	0.02012866933037528	-0.05030187581497306
Si	16.637076328230155	10.068533236749523	6.827940801141894	14	0.07006364841616321	-0.18559626597701712	-0.049166218595063656
Si	12.407007857423077	12.721771196022859	9.847796784711926	14	0.03789166465568231	-0.05864742657364171	-0.03491972401612315
Si	14.259879944623231	11.196860781331658	9.50568668140355	14	0.012898206949054853	-0.062576589723892	0.017302767473000528
Si	9.769870851646171	4.784187544047584	11.430373665389123	14	0.01999959984330385	0.010362582882324818	-0.0024577195755295486
Si	0.7794343054720924	11.087887447993385	1.2959893930568487	14	-0.11586506147874906	0.16559923723903344	-0.04194861174034397
Si	1.0199396409972343	12.02333060634649	3.4128559581773033	14	0.05081918220538686	-0.02125378501847208	-0.0550789894998082
Si	13.196124647726812	14.977852302384237	9.863461118811287	14	-0.012892293406818512	0.06569019826659132	-0.004555741516770382
Si	6.075089585253183	5.373180569579871	0.868130183665562	14	-1.208592021636579	0.45552324379169923	-0.9731232544330535
Si	12.027649377236607	3.8234449898440515	2.106162031138367	14	0.027015889151455943	-0.030563500272196262	0.047129388960442345
Si	15.396923524360348	11.938855382324695	7.515032557051733	14	-0.04604001163629561	0.05727497055374666	-0.035540388840406896
Si	13.464522931026545	7.075795078878387	1.519072469943866	14	0.07477956979437882	-0.043342922155460276	0.0764546449104553
Si	10.815356815568578	8.531289550550088	3.002943931867809	14	0.022614413953894446	0.02395010316771137	0.003892139233640162
Si	9.209989056475806	-0.7319212845662633	10.247885692226674	14	0.32547056604584096	-0.24724134424341954	-0.2057938409299724
Si	3.160257737104111	13.4696707881875	16.232727519856354	14	-0.01605963805070893	0.021562831877953877	0.024032635648488124
Si	3.0460318887718763	4.431444859017311	2.508988395097665	14	0.08063629060314413	0.7478072679177289	3.7028269491439345
Si	16.635822069512727	12.663565088085427	13.993187256945758	14	-0.02358834864916654	0.026652591969719017	0.061919158093530144
Si	13.615562172118441	10.182302842341	4.7290279602177945	14	0.289841216961357	0.11705522613144562	0.09469586582530988
Si	12.478121219671632	11.96505581670615	1.3045255475613546	14	-0.682698653674555	3.4490850793195844	1.6600722023123453
Si	8.410148108846291	8.98223725906956	12.858848428080375	14	-0.00036046896588476065	-0.035540645950938914	0.04907905812471064
Si	16.141140469026112	-0.9594245196191199	4.373914121158492	14	0.3799610295378673	-0.5779950175011007	0.057663464567621045
Si	14.508352357685911	4.90634122322998	4.894858296614914	14	-0.00970977924153922	0.02094730926431043	0.002599387478669708
Si	2.08592382268094	9.673719738129705	8.24249280148614	14	0.083047730282911	0.2073164495005641	-0.23498000008216532
Si	11.720503166545251	8.789547470998778	8.061799417523607	14	-0.01377881052120557	-0.022603872422081835	0.022493829114379502
Si	6.8621606419773915	15.22367883460625	2.024600873654315	14	-0.013547153931860227	-0.0843862477125801	0.10384000189641651
Si	11.14504207176484	9.345365598746982	15.545675010633893	14	-0.546485607581622	-1.1354870127372128	-0.07931217136326786
Si	5.649222145246282	3.7272284651819563	15.545153356747505	14	0.2911679073065534	-0.5108472596285175	0.3337140439232998
Si	4.682571329313864	-0.5056216145929692	5.6092837350042215	14	0.08688947585227627	0.20004047855507706	0.025539817587158932
Si	8.650303494742323	9.110668772953643	3.636176150467224	14	0.044193186684833234	0.07400900952993043	0.026661847948871553
Si	5.743994718868629	9.040413931991457	9.941303652666365	14	-0.08593533866796932	0.011108460535699775	0.08351669989330603
Si	13.702769946748864	2.1495917612783426	1.5298227917278937	14	-0.17967321065099204	0.03407048792887824	0.014837848802574565
Si	4.446651315097273	8.71070905245151	2.470533182582728	14	0.6196919180306023	0.37905368647038706	-2.2735764982794797
Si	7.592435200952459	12.706715185577842	9.015639460584703	14	-0.0077703944985515255	-0.020477054101255346	0.015701483079612305
Si	3.0999257669337563	13.304069390800079	3.6297413290160296	14	-0.14388368170506277	-0.027837614411775267	-0.09793083053912019
Si	2.3932515493014144	7.587221932645876	11.271869377302385	14	0.011344745114621385	0.0062634696704127356	0.01857829282232599
Si	2.3553343434592717	8.824338024079884	13.214006419662976	14	-0.009841676944462816	0.015355669414052385	-0.02917947427836055
Si	1.306464988029237	3.743177337764801	15.47675292176389	14	0.3331221754786017	0.47388427821447265	0.14931231347802343
Si	7.104714981639343	7.243803606424932	13.750214285951786	14	0.20889407972500695	-0.05274391164804971	-0.04745411956237705
Si	5.322269439658647	4.580659129146176	2.8755132085118413	14	-0.5231877938336322	-0.10863717020274881	0.3376676325740915
Si	12.927407485092141	4.370013981600399	6.5363935134042705	14	-0.01936967903986757	0.029247351458812458	0.04441173063704582
Si	8.687018770783542	5.757006631012759	14.57947226104903	14	0.08317525710679036	0.021569516751786266	0.08437390640704338
Si	15.151564681829578	10.02720320438422	0.7214653129375636	14	-0.009021237236803564	0.13094922217099383	-0.030518248818561657
Si	4.594029167312621	7.019731185960285	10.611491533267186	14	0.047426608735451466	0.11940213106767678	0.006931185722055192
Si	16.69131361490658	2.391348084963628	12.20025794359947	14	0.4853953738433076	0.2145571963031651	-0.5155485257064082
Si	5.93896245008592	5.970412128904055	12.2213317794423	14	-0.33389273574305006	0.5697898490929122	-0.12709127863811165
Si	7.670169806417251	10.759559473068911	14.27835205214869	14	-0.1228278717962421	0.0006098661819391244	-0.049316371145760304
Si	11.07216751442024	4.793341833878278	9.498218363851427	14	-0.03955028469770984	-0.023586034654378404	0.0023844430739053285
Si	2.626300014224919	2.3704050714120553	3.6445962001882393	14	-0.056484612778333144	-0.06337620347845807	-0.17139836528862742
Si	7.917430478007165	6.931772818433776	4.1312747470072235	14	-0.036018871540486455	-0.04008378905164057	-0.6671198123187138
Si	7.753690027712873	1.8647752804258824	13.166907124253246	14	-0.021167395879715105	0.7152123373320837	1.2524435084243646
Si	3.0831576197519155	14.39869220731854	5.774649652267379	14	0.5185898861896114	-0.37186590443738105	-0.27908808318090167
Si	13.267550348195744	11.354228550763104	13.3713251307352	14	0.6700508723836825	-0.2761799059532822	-0.6949448283144204
Si	4.503207426886228	5.023278363548512	9.270306309138393	14	-0.03532595865670655	0.20323404847323295	-0.09096107823726278
Si	5.778394440354606	5.490650810735274	6.359422023627994	14	-0.17983030518605306	-0.3484354216548716	-0.32222531691075007
Si	7.926481745283495	2.8038863687701028	7.76595788807548	14	0.043683336499847875	-0.06855003871419203	0.06916736110155959
Si	16.193058930590013	10.956355445806516	10.855723668814504	14	-0.024874929751368634	0.08498402969951452	-0.060592210637801715
Si	14.425000570090281	5.238999415995052	14.264493065668674	14	-0.054665298653796365	0.7398342703199496	0.2865268050931541
Si	0.23707125037965085	7.911422464281197	3.5525202010444223	14	-0.17850232928819657	0.2691299351654361	-0.07697169419033707
Si	11.953173882102751	2.2155458194154587	6.691615797259105	14	0.07526987957893105	0.02984796166159905	-0.16012792511775834
Si	5.562468978077976	14.910998840994731	11.044462623689329	14	-0.018238135588470396	-0.012908491370335446	0.04643159097655416
Si	7.556064968704428	9.696136137736557	1.5298849323162407	14	-0.1781292619062431	0.13095873526067836	-0.022359360306135754
Si	8.678852189251838	-0.07554006152895774	2.6689235519950247	14	-0.6476822560983942	0.019791083201839837	0.3494008717025872
Si	15.332372535296962	8.06510268037784	6.984317591717069	14	0.020328958434814817	0.14557624033731628	-0.10256216255230292
Si	16.03855289877981	14.265613231537559	7.803425392291427	14	0.01610720349913167	-0.04120273408696901	0.014664813414528596
Si	2.2391477960368262	0.9335838465386205	12.389319048366515	14	-0.3120776784331897	-0.2792631754532038	-0.16673618001160292
Si	7.298768592096477	7.175542170125774	6.996415383101042	14	0.5616178479433536	0.4236189120950457	-0.40014163519570956
Si	15.513760912681796	10.834669456315362	13.078749252732571	14	0.02739821251256196	-0.000578241586501303	0.11047165384867444
Si	4.728105663064434	1.53621673121307	16.195240392296718	14	-0.16937824783858707	-0.17379026456796118	0.07074010622589416
Si	14.627207679849995	0.8061040648234318	4.840289048374422	14	-1.2563880982065359	-0.14686667809749857	3.1620980463741244
Si	11.303696805486522	7.732071644082687	0.8516285869021575	14	0.07168035944147233	-0.017152872032835893	0.2274003815983688
Si	15.330982548452358	1.7651982581571282	8.50720189617243	14	-0.024384619966816394	0.08737850008416845	-0.05240452574579016
Si	6.4241627050137025	2.083369517444151	11.171175459722026	14	-0.05942235771713434	0.275205199926414	-0.3898564425835212
Si	11.065688540445747	1.5219865364816114	4.6568565726886995	14	-0.09279427633052834	-0.029227811058379332	0.08072705062094536
Si	1.6415303109534345	6.427385839214542	2.100037912628908	14	0.8916477550534132	-0.843080861108476	0.49557258003204974
Si	13.059891219447902	10.770440617144196	15.688753715302814	14	2.444462185167269	-0.2332272775854204	-3.082555246863639
Si	12.307731726424214	10.304767224465131	2.9104182310977964	14	-0.25429799990509794	-0.29478802359732187	0.452324017441839
Si	3.1276797160238865	14.578926077983033	14.182676804716671	14	-0.05484553313673875	-0.013203654261088446	0.05802958996521013
Si	6.468212205758508	2.6960528246444038	3.6831086474556005	14	0.05876286920251637	-0.06590257156603556	-0.045333986115382946
Si	11.052735498332682	12.7600497984446	14.801737698615693	14	-5.530289163550798	0.6880326687717342	9.717053926932048
Si	7.233591291313698	13.709659375662177	0.2668235099687286	14	-0.13207253808536654	0.05337897466212628	-0.07665570534649088
Si	10.05631934058206	11.98355081813258	1.6138564905166992	14	0.012983053424619742	-0.21403011971253477	-0.15543128702944384
Si	2.0486149404931413	7.8695511546858175	0.29673602686459594	14	0.0349464635114527	0.0407962423358536	-0.10227985518815066
Si	14.106222622427556	6.928117970671789	10.663856425899999	14	-0.03398898389022954	0.06592494018232084	-0.0501514661537444
Si	8.396192640926472	2.220541595662828	2.307854028126257	14	0.1734552495447459	-0.016158882716066646	-0.019742232200757024
Si	15.632192697677937	2.9157966625470912	4.472639163255437	14	0.0159028006261799	0.5238765929489	0.0903990346142784
Si	2.833005775525226	1.4856441039704724	8.729462427903172	14	-0.041895646970748913	-0.4408874838672883	0.23201962941654683
Si	9.603383133235486	13.7404418607949	0.16870842680476927	14	-0.054016608781523014	-0.8494680009447879	-0.04267674876700991
Si	12.230572739040952	0.8065308725486571	14.539456992710855	14	0.35928317211110833	-0.26892270407663227	0.025383751494225937
Si	3.160589698668175	3.324984260418751	10.17191228185793	14	0.09877903818423704	0.4495608505542758	0.21670638324027688
Si	6.376096959927314	12.726510233523637	11.028049331972525	14	0.01206156927787867	-0.034162533499339544	-0.07028142103677976
Si	6.524297357298939	10.636306886639959	6.151811953239375	14	0.01999934273277183	0.1632561889607825	-0.0016660762474559553
Si	11.138517309988407	12.748599577402347	7.85658993617955	14	-0.0008021848598862006	0.008361234501121553	-0.006279410523397653
Si	0.8349225803086641	-0.7846148682058617	2.2131190659126454	14	-0.008145775875293143	0.008978813999021121	-0.06951420320924757
Si	9.247386243710201	12.56441814409918	3.8433610484092586	14	-0.02810192403868649	0.12148884014550897	0.08252039658174865
Si	3.2510729364159405	7.274828112796482	14.74760670505091	14	0.16331146772516567	-0.04965035772684754	-0.16347653268671922
Si	3.0066576496608612	11.654475520869305	9.13947911204567	14	-0.05016920678045342	0.20401309338523785	0.21708973504351098
Si	13.283947287126143	4.608009164412051	10.201631835874192	14	0.13108909030040988	0.1284989588008927	0.04806707107070035
Si	3.421037257216775	7.0947594052747	3.7923697898346393	14	-0.7526823407152616	-0.7244634313845084	-0.1741725879290672
Si	4.695718969585172	11.018904853813675	10.697160510696701	14	-0.04343779594177374	-0.0008824033458748206	-0.06343713867454556
Si	8.335690601777483	-0.8566766920660293	6.788182271550312	14	0.009573510659571374	-0.03143201964934229	0.028296042490357665
Si	10.32936181522141	-0.8799614246310989	1.1833873764148395	14	1.9834761139018513	-2.319201533517103	1.270419648380712
Si	14.517904020226299	4.03072963978317	8.316973202455918	14	0.046943498045795645	-0.07118799277266397	-0.01577244558644839
Si	7.019335448529233	-0.03432286338986219	10.297848360536287	14	-0.2456266901023665	-0.056462244162047856	0.014182474056468818
Si	5.620352936123187	6.396047359343976	4.260774097843689	14	0.205683283401206	0.12609086155804203	-0.10838751587616241
Si	13.046540804625147	9.108946824544974	10.047758656897944	14	0.07238329963600082	0.02380843526457121	-0.011507496081386757
Si	8.316948673276308	7.0923996981961555	9.143344910752308	14	0.4025309633697231	-0.0677923339763444	0.25160373864011476
Si	15.648463720153002	3.1587745393769873	14.312019168803628	14	0.4367811715604798	1.3266898309753448	0.5334950979515739
Si	7.64939359128703	12.71721694500848	13.042733875949573	14	-0.03335237821296089	0.021307778230195192	0.048847144424833275
Si	3.627734842123879	5.832625185916471	7.232333762038992	14	0.05700680426885522	-0.5317228350543959	0.17495806060437244
Si	10.289760272379334	2.8438787432073065	8.30663497088935	14	-0.0018167430192166326	0.04320716779455645	-0.008060672289196243
Si	8.010134424149015	9.020524037884503	10.498725988761105	14	-0.036874535391031735	0.03531258890904178	-0.10111077359907931
Si	9.103498076114128	4.951883733373754	4.893572967603316	14	0.0998879559088169	-0.11314637471322449	0.14498385767155414
Si	4.265989001428914	2.3427868504491043	12.114898033833049	14	-0.26683573788826803	0.35435127788600035	0.6080473820356516
Si	10.940686205871234	14.294577286821815	4.387518004170559	14	0.04591428458614037	-0.006212561785073804	0.027854069485824216
Si	5.123015643124054	10.103068686362679	4.31080217729893	14	0.7713534504396449	1.2341017572914923	0.07979013984228339
H	6.327915110057434	6.795846822539319	8.100159783877382	1	-0.8781941893552062	-0.4483542308275303	0.9438244808678382
H	11.365260140473334	11.056614379268446	15.135769525438961	1	-0.6908241178178189	1.1752483851817068	-0.17044371388325644
H	3.074099811361023	3.9611436277850367	1.255782797117712	1	0.06917198909113585	-1.4076212844692417	-3.856996594792782
H	7.685337015809835	0.7912099469638451	12.09357400035819	1	-0.02475768734876988	-1.2812512008734318	-1.037285444807881
H	4.039705684242027	1.1431611571320142	11.319509949942189	1	-0.1703997479822819	-1.7976312220403758	-1.0650567247023965
H	5.725246249252889	5.44418600343814	-0.8353673760989372	1	-0.38114450931673144	0.4786626774519679	-0.005343528186863752
H	12.732889455501045	10.65464326603824	17.09304107161932	1	-0.5854159987866442	-3.0023100213796896	1.7674310189499165
H	4.805248297661288	8.928307404777586	0.41587752279080437	1	-0.2727953029098392	0.10308358271122894	0.08714838615801518
H	11.640493888491232	12.722861926876213	13.75494351178072	1	4.3512028894577055	-1.0037579743226182	-9.09356242945933
H	0.6496831217249573	7.8368995460667605	1.811241163564959	1	-0.45106314739283837	0.5350488168965394	0.5016529870036679
H	4.1882478548495605	8.63820243280107	4.030564476640458	1	0.4572787945042963	-0.9656253970984376	0.4735374361067846
H	7.519052071950599	5.27308189342473	1.8347139531737104	1	-7.090224526959335	-18.15082342290349	1.22118221016828
H	3.648676220396811	9.91022191154239	7.228399281629444	1	-0.055244311571893724	0.558448703525739	-0.004275491036874241
H	1.565684452318664	2.222880044119043	9.367768916124708	1	-0.5191455020492954	0.647832665759623	0.11992123723181469
H	16.409013827882177	1.8656305311549737	14.341562112726695	1	0.4269896311697598	-1.3647630156666295	-0.2309510780454933
H	14.41131819370346	2.7580413320777977	13.56341150098756	1	-1.0613101100298765	-0.7717221469425541	-1.1733372825972408
H	9.204005571929446	-0.5749427114513068	0.31919494371610707	1	-1.9471687643444442	1.5211898346760346	-1.3492505088280482
H	10.825142322954587	0.33148242742240197	1.8102027616281082	1	0.22723814485266744	2.313745648027749	0.27724691466114365
H	5.948137998538944	3.7582382540457404	13.06200236417306	1	1.3911304720563442	-1.0301966503297006	-0.5496514095623204
H	15.116241027911602	0.8370697011639163	3.558034360620896	1	1.5262549121567264	-0.08498120148366237	-3.60906079500239
H	4.569737103104874	13.60229352122772	5.381899875292137	1	0.046678931308352406	-0.08243606432724779	-0.10624167137596684
