221
config_type=amorph dft_energy=-23187.723584174066 dft_virial="-16.506007921583695 1.7402371365466178 2.071326336539246 1.740237136546618 -14.378154160655466 -1.1790005658274068 2.071326336539246 -1.1790005658274068 -8.68099731687988" pbc="T T T" Lattice="16.52427614850733 -0.005601735216079201 -0.016226855404689603 -0.005634783801424801 16.41303461023404 0.15833577239076962 -0.0161442339413256 0.1585010153174976 16.216031992988917" Properties=species:S:1:pos:R:3:Z:I:1:dft_force:R:3
Si	32.25561263152987	-1.254228514880133	26.06362141903192	14	0.5873147600655736	-0.5393207083859654	0.2863781952056495
Si	30.75836464916941	9.771091865543543	25.237395218387054	14	0.006113317119716088	-0.08499482834185915	-0.12491278110035017
Si	35.69086601200021	-2.5643124438528644	22.45145896120659	14	0.46642653012285107	-0.12317651367765416	0.36319845129262984
Si	36.47539481251454	-1.3636160275155345	13.849174932000409	14	-0.10564234672584032	-0.0922813408191588	0.0646409301854389
Si	25.047745911381323	7.7880148067393495	21.091516283952224	14	0.15894084579144596	-0.05745494792615703	0.18439478846091192
Si	25.047294798191356	9.008147096118426	26.64609282117252	14	-0.060271593804379256	0.11330012681136935	-0.06290517698380693
Si	31.0947595896852	10.591630404650436	15.278281688666052	14	0.5326931702022197	0.47005538817170817	-0.11838165936611003
Si	25.85740650862171	0.5477373389423708	16.727752983621652	14	0.15409996869467116	0.037949771635917666	-0.0829729111180947
Si	39.31088577099145	10.80018019761531	24.00293471483139	14	0.3186573940579806	0.09088625907244646	0.00719472401737037
Si	29.361511659371804	7.2210250144039	14.1489156865094	14	0.26527661962213017	0.20226834131498536	0.253032758977053
Si	40.99537547091522	-0.20417746512365137	18.554711830111767	14	-0.34821533503946694	0.18039234880903743	-0.24247477209039695
Si	40.9040837111858	4.101897877056905	26.393996559727015	14	-0.13315497342514887	-0.20731542105843603	-0.08086460475557328
Si	33.489950855319755	-2.1303514696797907	21.67125291565547	14	0.0435414114861757	0.08539026434009793	-0.20234933113257
Si	38.31869618445805	7.91700178291396	15.788541931826511	14	-0.13211598976527703	0.33409559595280974	-0.05950000509780281
Si	38.15851464857573	1.9445754568765696	14.027900029120147	14	0.011445018222107159	-0.16553881626400999	0.03007164782445193
Si	30.10717201866117	7.7481532555247545	26.356207154813585	14	0.1818884749948316	0.025915198963900547	-0.0993027723379512
Si	24.90677717058967	5.841993474253911	15.18543664542539	14	0.037137302354750865	0.059060088977525474	-0.14379652123470976
Si	39.86128517348341	3.09432582647439	15.078714501198112	14	-0.02490141213616616	-0.4565210897664487	-0.35654263095036254
Si	28.67380034205668	-3.329030269881772	14.470640359990279	14	-0.02136279988404636	-0.018559523753488908	0.37105986291951465
Si	35.543665960441636	1.244756790320084	16.727052353612326	14	-0.14058238247399266	0.002084137972512033	-0.2828544953643866
Si	37.02959810717977	4.492515631549224	16.346344217435885	14	-0.6116872958373852	0.23400477983423315	-0.4237394969345606
Si	34.76213301418888	1.6426881967493845	24.337202978880192	14	-0.005426574888704535	-0.3071252153655204	0.06300956385980494
Si	32.725523856841896	-3.3183291379468667	24.94838368711051	14	0.24499368397254606	0.1183189243962984	0.4031655121627358
Si	32.61111295923396	-1.0558857774992472	18.09105174471787	14	-0.2766342202633524	-0.09218955235922953	-0.08668455875826046
Si	38.73081369614695	9.451140248666455	12.255519268899024	14	0.030219486380360445	0.02195055456023221	-0.12237895680734424
Si	35.58738428156607	-4.921896071793397	22.652073788829988	14	0.5151410055131648	0.04838948767784692	0.18793314360249974
Si	33.27276381457481	10.510163989344266	22.341407172005745	14	1.911462282100356	0.6864318985994101	0.9031994741463065
Si	37.397237180281294	-1.9999599286279934	20.936682009178817	14	-0.09693529855915885	0.048116693403379214	-0.01717781175444133
Si	38.964493633408615	3.132184633417042	19.36500696019079	14	-0.12063883272666803	0.03937390687274769	0.42493737490321765
Si	32.69846532759018	9.071309552430938	24.15452031366532	14	-0.16328061446132391	-0.003956416866643864	0.302187407598176
Si	36.19397123643334	2.73552394509428	15.0175217405722	14	0.272548476799105	-0.17817117092296153	-0.027717543793324348
Si	33.974152288935215	-1.9940822377242784	27.544523571080454	14	-0.14486712949001943	-0.18091016942051524	-0.37128586307715566
Si	33.64160585618291	1.4465878058841979	12.497699302311581	14	0.333909190817099	0.009425672103662857	0.1653153872116891
Si	41.26967046713737	2.8884926272249243	22.4013754825446	14	0.1257118806338522	-0.3161281977545509	0.10665176267453046
Si	32.85735962107329	6.402502439003089	19.577408565777695	14	0.00884177408545723	-0.11234341852174226	0.052537966111905844
Si	27.46939091715577	1.1673718753040943	24.40174686606015	14	0.19196695073928005	-0.06220506500513061	0.11489318366773311
Si	36.080959946414794	-2.8797264899620036	19.222179236473444	14	0.05443981271721938	-0.14377415261842447	-0.1673897549839846
Si	36.9214466116363	11.078495554244748	12.401830313511798	14	-0.10708396547884734	-0.4688675375137997	0.06283575714016293
Si	26.01405515073059	-3.7287793485050806	24.71081062649513	14	-0.06939876058037292	-0.32945115130249425	0.03299782278931246
Si	30.97054648166376	7.510626462928858	12.351510537464586	14	-0.41754339022353576	-0.13159894048539522	-0.3208533751119191
Si	32.43954783812934	-4.3619406708487585	16.41532487719849	14	-0.4931295157568451	-0.010833866487507962	-0.007486030250143147
Si	37.26456032955285	3.662756537130908	21.084769415253916	14	-0.2322446011320598	-0.010822810734631323	0.20289851922895363
Si	33.434404445500135	5.5747774850127945	22.885044833935993	14	-0.22889213690511873	-0.02904089170160457	0.0789414179761025
Si	25.318161003683894	-5.461767847423515	16.71014800220805	14	-0.04053270404053842	-0.20521945600145128	-0.27298119382448593
Si	29.918251432962315	-3.9639018565170847	22.21659092730175	14	0.11342353986673645	0.054697694580830236	0.0029207756436882178
Si	37.67311850860003	-3.1616110938087645	12.860057211474878	14	0.02041637601569985	-0.21376632430668754	-0.38691329832354765
Si	26.4638315254208	6.131033096827994	24.439038889764124	14	0.0240426629592367	0.414334136562927	-0.4178688921570666
Si	28.022574662963095	10.013599079951023	20.34437700046864	14	0.13165421924977844	-0.17128549376507293	0.16281601572997317
Si	27.77379978434482	4.766020766581607	23.109317491379038	14	0.047825644281138446	0.06125632714199598	-0.08775542412410214
Si	31.576462550248525	0.5462501526018188	19.48473041789303	14	-0.10915139126677843	-0.11841225551941979	-0.2356824260556298
Si	34.996675519528075	-3.26452604100423	25.82290874280871	14	-0.44069233697348903	0.19717755278109214	0.22856020720828757
Si	24.77060377953166	0.6794210796811813	11.14162165711338	14	-0.18819591056621884	-0.1532448190651899	-0.18147221304349961
Si	25.729767914729205	-1.5339533936745586	15.651325857900849	14	-0.1052443396222814	0.036171338085971234	-0.018536383805607577
Si	38.92156352104468	-2.235482324522679	25.148454865504974	14	-0.10314297524412436	0.12257333236954744	0.11039143536268584
Si	34.891929680704465	2.4961596511531683	18.573344622529614	14	0.03084477919422046	0.17916875978717894	-0.10627252463980862
Si	30.2833622892849	3.7230057606452043	13.148113638634928	14	-0.25511766828116117	-0.416313373438377	-0.166494496111509
Si	31.076650617345077	-2.528315924694437	17.106712849633315	14	0.08902632148385134	0.2349530034763038	0.008150918085933441
Si	26.711614946478708	4.287997765996513	15.199890444226288	14	-0.14134291542769242	-0.22757958763918312	0.10823222111482549
Si	32.548393353965075	5.4000644861540135	15.914415731261567	14	0.06859066217825038	-0.009654757587688053	0.08037558052368111
Si	40.54837848225257	-1.2683898337007224	12.153458627634741	14	-0.0294165301888782	0.09059418150807763	-0.023699420398996935
Si	39.630411061117584	0.9999543516603538	22.52389980785488	14	-0.20588151562138945	0.21288160696602462	0.17493183533010692
Si	25.71869498620916	-0.3015419024103236	20.566273464625333	14	-0.045666430033278096	-0.2987539535536503	-0.20945638045852333
Si	32.52466612211621	0.010038507798726	21.637457432281057	14	-0.1841903855879602	0.17986295822361895	0.22308683820275638
Si	36.952786585119526	10.55742511881774	24.553595201147576	14	0.006460930559000108	-0.017831643837354985	-0.2389125056693318
Si	27.22046897233271	5.6325249306164284	11.778362141249984	14	0.11682948308433662	0.1738979938808754	-0.11484150445079813
Si	26.668926088787796	-1.9604916555790106	26.116127358999744	14	-0.16771757091230344	0.12158757058980264	-0.17407822836381778
Si	32.677494347759136	9.196459587846924	12.07615468165285	14	-0.016572316451546457	-0.3813849076641653	-0.06221097854736695
Si	38.62537383703108	-3.3710416315730987	16.748563677813777	14	-0.22777730563830248	0.10937019232952302	0.07392107772798137
Si	38.11426424522724	10.853585059104534	17.508712536918658	14	0.041559603505405565	-0.05406006046143351	0.4682360740471714
Si	35.73542046233388	3.6921268149275432	25.10420611458575	14	-0.1640187787987384	0.2709963005173316	-0.0018527384936987057
Si	27.867028191175493	7.17078455496152	26.215737447660647	14	-0.39854009369178933	-0.3320076013223175	0.1816192802678121
Si	34.706231332076804	9.933795008487733	18.96799265200483	14	0.2755224743229203	-0.12233781912222186	0.007540537682930286
Si	22.931610290687942	-5.183868902969434	21.527899719431126	14	-0.08264946606882008	0.011013329638854296	0.19910048245003087
Si	25.596002113113624	-3.1981677864888	17.32853495447298	14	-0.022040286135905376	-0.004298630984755573	0.38251156601545416
Si	37.59839565713363	3.8304434067452156	23.529873959335937	14	-0.10487410045618005	-0.13155780280027288	-0.2645227715422628
Si	39.548022590280276	5.086248339146333	13.88881505769319	14	0.061603426360215964	-0.11276919356275877	0.12870104767905635
Si	27.4111907059329	3.8013061214752675	17.407025344668778	14	0.2168079419004227	0.1859971012964282	-0.15071202321431204
Si	40.2965383473435	-4.172365723160061	25.376148051531285	14	-0.07781835917226183	-0.027406697160118447	-0.11445532443171189
Si	27.931416750004328	8.44648308331142	18.533091445578677	14	-0.00483959154411473	-0.08981102282756054	-0.24925246282483937
Si	36.645039810810566	9.531689565729284	16.122767232714367	14	0.015853949625097088	0.12624949875629515	-0.15927946036210947
Si	29.502495272026867	4.784009111585218	17.76609987687799	14	0.13405023229762444	-0.003964130182604307	0.0849871150258987
Si	33.72638373974072	5.174027034253514	13.883558680193971	14	-0.22029307516188348	0.015885574220534906	-0.08362597186941231
Si	36.61319254154228	0.35597787976232864	24.89161943692091	14	0.11345285046738615	0.05390322303690447	-0.028944475252099013
Si	29.892680090051158	7.182865465334603	17.944421781256512	14	-0.030012255291556513	0.2549466897773713	0.004266749278785737
Si	36.61687084909124	-5.167853558510956	19.08024382456043	14	0.15491038109158184	-0.025631091826024185	-0.08617136613635891
Si	33.94725074046389	6.3548992566712865	17.529420780496206	14	0.051576372722170465	0.040741477792534446	-0.15378475118242102
Si	36.956499593683105	8.384545077085964	21.8271463975892	14	0.10001291162737609	0.17088928643523812	-0.33587917171339643
Si	40.481587291269115	10.713891993707216	11.270286409580867	14	0.03447158035882134	-0.1113111197357028	0.0019668955699132804
Si	29.262638554164102	-4.577067132297407	12.578879847354512	14	-0.3749574014743271	0.3598169335755711	-0.27162519287863984
Si	34.580412062807575	6.604305363269658	21.14056534189289	14	-0.20623195727652563	-0.25313508896879494	0.029236295705935823
Si	30.02565437804771	2.1947747295232363	27.643717247566006	14	0.08990872482972616	-0.011754065081588959	-0.25308752352037217
Si	29.17316116177016	10.607967972816034	23.70518679001874	14	-0.11733881904825795	0.22655860171655232	0.15429048759889413
Si	25.820297904566406	-2.7480691880914696	11.986419510293208	14	-0.1911290275154438	-0.009748860042405471	-0.007173640953745155
Si	27.618314452440114	10.158626187023119	12.74801754986549	14	-0.2934667325732978	-0.20000833973857518	0.13279553290139215
Si	29.089078950933885	-0.5375253260705803	24.045934229224546	14	0.0006983122049522183	-0.06140493702950053	0.037882151565997765
Si	37.022446393310986	0.29682091199370464	27.177765242778392	14	-0.137272598595366	0.1783778877907014	0.0421453012973353
Si	29.355179550419585	-3.8487044025779267	18.08967361870896	14	0.456371194326284	-0.11804330190597852	-0.01404337725864881
Si	24.483738753873318	10.025977427592217	20.405264061680107	14	-0.22402786274993056	0.3310809749649361	-0.044302201550407524
Si	39.540366885484964	-2.9825720351282436	20.668899236699023	14	0.03661999596433708	0.02064520438919303	0.08341951211220441
Si	39.821387268824935	9.048334175898676	14.333606053284015	14	0.08466135598183594	0.04682908385904905	-0.020525647991806145
Si	29.516797047335174	4.05755824252798	24.463035467583563	14	-0.17312152007419068	0.1494665797972323	-0.3451564910400868
Si	25.997380486994466	8.04315153803665	23.18403373312837	14	0.12167421683909163	0.07405143276771288	-0.15785738200953556
Si	40.708669078466535	5.803022582414378	17.378631652569105	14	-0.1523421039872859	0.34777336203493353	0.25911213750654316
Si	34.72201203157933	8.939748091457906	21.100612907068598	14	-0.33956973628993703	-0.018345607790852588	-0.11398455504759279
Si	38.19272489169622	7.227753706380264	20.0726928424888	14	-0.5260448060653808	-0.6190774238590869	-0.16955591121620933
Si	34.138015437225036	1.6779031168643885	22.072699039136275	14	-0.025589697030369802	0.15277739211798697	0.15535878185941565
Si	25.264913122975067	6.987814367054139	11.881688543333002	14	-0.08540800496680695	-0.17056584138596348	0.16585120556040794
Si	25.311339775668564	7.8118725805003395	14.057987461218781	14	0.05850678711262961	0.03144333251275093	-0.04867847991583156
Si	37.22334048148055	10.626884983067855	21.36485452362861	14	-0.04354578236521996	0.2810544645297509	0.005470797900211082
Si	31.30387781831802	-1.2738957280192995	13.419630901258774	14	0.019053433085489353	0.35291711533842174	0.31562143289594974
Si	35.15713301109803	-0.35122714561889856	12.182389359246281	14	-0.022688976008178735	0.11635999925287757	0.061732238736755374
Si	39.34557356617019	7.636022710305668	17.920387197563922	14	-0.00024759744233026	0.2927308822306714	0.10588223085221013
Si	39.597726010210785	2.060369437781216	10.229186569165241	14	0.056852537949646335	-0.23608737514355313	0.08173209569059124
Si	34.874291650705516	3.291366449592659	13.151501118632853	14	-0.07294097237994092	0.04198152188844186	0.1366923001246086
Si	31.85483408947305	-6.185270782667925	20.162125619292524	14	-0.6164417837954032	-0.25533646934390575	-0.37965223978891754
Si	27.311887969115705	9.413289703870138	26.800523903204702	14	-0.0161701955794753	0.10435319451831808	-0.11832252394374661
Si	29.719685617630343	-0.2885818996670465	11.867044715166367	14	-0.21034135490971828	0.24117533546159414	0.44841079514457355
Si	40.67243626192288	8.882874780936662	24.46357250709543	14	0.03034315654625957	-0.09487738586091232	0.05824736258582667
Si	37.49120422299444	6.042651265038256	14.676582619571386	14	-0.08582683802345907	0.3474311479168218	0.3590126918314288
Si	38.878717682573374	7.247746448085085	8.7224024175033	14	0.07823050735508157	0.07931679935284414	-0.15869787633869198
Si	32.6402502445039	3.5160059463330384	22.109556473942956	14	0.1241789876419799	0.06495434792396494	-0.028129949086676105
Si	40.813510758187654	-5.273070339675743	14.597150344693237	14	0.041614882269788746	0.04666916110813585	-0.11016569231557684
Si	38.267505578186984	-0.1926583807014425	14.88301730307414	14	0.041068265278725265	0.19578195681331578	0.12067354264849
Si	25.831792202549604	4.929503856139954	18.85223171968553	14	0.061261726463168284	-0.18988564098262017	-0.25686807678311796
Si	35.545833947640304	4.767177467068704	18.10284347996918	14	0.15783501339325026	-0.17922609543581827	0.20932808230304795
Si	31.547194723066465	11.23347028550587	12.813754490976425	14	0.7788482224478767	-1.4335233707960098	-0.1513571135391372
Si	34.2578082969565	5.467447246815157	25.051888551554395	14	-0.2709219955735793	0.0828322716570826	0.03708973690632813
Si	28.98156364065831	-1.4584406810183972	26.230034265681155	14	-0.6355990895358264	-0.048701105642648866	-0.24807875324619172
Si	29.00485463118062	-5.100778149693527	16.05711126063753	14	-0.09532630084981018	-0.0820802233509393	0.6018168225133368
Si	32.26854123811707	2.2259180639236624	10.684832372612831	14	-0.23458636385765066	-0.044985858455034895	-0.06138616796066345
Si	29.68619087638258	4.269269132681162	20.00944941714219	14	-0.2973563007016178	-0.12542674505384777	0.0542179263280906
Si	38.496160478046846	-1.7241760936360304	11.160204876653209	14	0.2496026473694435	0.03506781968256368	-0.04547925356597131
Si	25.520783532867036	2.205703896697026	14.879137399154569	14	-0.18263975196937887	0.22168712846646774	-0.08671001270092994
Si	31.18597533766832	7.989196417601423	19.798037616686386	14	0.09648664068079302	-0.0885254701674865	-0.09331903892637058
Si	27.463650377881237	8.656050772704939	14.532199959913529	14	0.019971831905846248	0.012712058923876132	-0.13855686570277997
Si	28.928218266622707	2.2941270392184463	21.02641552810919	14	-0.10335226321718442	0.06484379039519858	-0.04318119963082295
Si	24.600373821275006	4.6010157896680965	24.15396014014371	14	0.1319992615837423	0.2153735222423121	0.37011703859861633
Si	25.623252324160337	0.0044417298704486395	25.324003993572997	14	0.007511998413876644	-0.08192055771055809	0.09114259827286522
Si	30.52812176478368	2.6794504103384003	22.80447403529269	14	0.20550819112890395	-0.19619950431730782	0.13773539755299266
Si	27.04131920089128	-1.8477017910822795	13.738457213804848	14	-0.41968203562883494	-0.14668772916721626	0.20958159328761453
Si	37.5522631368497	0.07252677297018649	17.114841149199062	14	-0.25492534960321406	0.1329541700996453	-0.268675363744834
Si	32.703857204289314	0.8714498848317901	25.208560327673016	14	-0.16088357297134986	-0.08750551268698374	-0.07073650667844597
Si	39.97057849765058	5.554393117571629	11.652238824995571	14	0.21418335758961557	0.2290060368708013	-0.045475654018523104
Si	27.07718683056686	2.5675098944850516	22.532277624239992	14	0.011486927238825573	0.20658779825283413	-0.07637339798233861
Si	41.2052736461622	-1.903881081311265	21.93359919584591	14	0.02723366177207248	0.217211862546218	0.021292094487742285
Si	31.134976413192263	0.530476062816364	23.49256375891002	14	0.049418186916438164	0.2518667627143659	-0.19334583452247547
Si	30.837540797511128	5.833537993693239	25.205333133314017	14	0.267530450545772	-0.08030281824312092	-0.11318905506153897
Si	35.956340340793616	1.7933418254765694	20.624420798111647	14	-0.16005901949517837	0.23184093759679653	-0.07975491569939736
Si	27.93495129620704	0.26375910721396634	13.294185081003945	14	0.10529858994453653	0.061894732592988735	0.3766808133704224
Si	32.454285854764215	0.6157546324421501	14.311116490956335	14	-0.14560066583785763	-0.037493914662655406	0.08472126273579539
Si	32.21575769003235	-3.7691977683827496	22.711896685593327	14	0.05374972804929164	-0.08795597033907368	-0.05478536927224728
Si	27.321192798319764	9.709991640956599	16.62731668032711	14	-0.0627830494810999	0.13931842709860784	-0.20244034826090324
Si	36.82338980648663	8.244191039981736	24.211575391405965	14	0.028947046357419164	0.07969089517692568	-0.10044948531073723
Si	29.13935906867868	0.5788393626111149	19.361979709773134	14	0.2323489880080578	0.27080989538162087	0.18131306162418245
Si	29.053902036692026	0.707251293400711	15.367291443577356	14	-0.15374747015527887	0.061233444304646646	-0.05821239555347266
Si	33.09482362135703	-4.833917432744876	18.667267049652544	14	0.14104955231066355	0.09686227916806665	-0.12430060092362291
Si	39.867397509343085	6.131043011403597	21.25269092982418	14	-0.041791002984218895	0.24287175075182788	0.0034928465774211655
Si	40.820462528115094	4.0898929784301155	20.428105591441717	14	-0.13353446857040274	0.17001639617904785	-0.0548378198207783
Si	21.919826197903134	7.271595959699738	11.100115938777838	14	0.05645684484087554	-0.27234844480519754	-0.015300647760201219
Si	36.74891647183959	-2.110761920716186	17.18493058900001	14	0.1114101072905285	0.12508581648839615	0.03292300362449615
Si	28.15631567813967	8.950409565090398	22.423663448501678	14	0.07416764672818357	0.1910058715706087	0.17343365226005664
Si	32.51235882893351	4.552982975726802	10.2495511074552	14	0.19238192713795194	0.16433682452684076	-0.08807706939965267
Si	34.126917722265986	-3.9751532473979942	14.810079075216402	14	-0.012919804233744099	0.0620415427067692	0.353181682075865
Si	39.16282315135536	4.025213592050242	17.178619961628268	14	-0.028498645589585335	-0.07516163604495282	-0.08992980789335137
Si	40.19572198531748	9.810150336134242	18.16380159563914	14	-0.11682305532103626	0.4303246118805239	0.0230304187946944
Si	26.42106335112506	-3.366081038912724	22.424636729340104	14	-0.044384734031184266	-0.3036398249935277	0.10017874792052565
Si	28.435135025695622	5.09984617958678	13.722101468917309	14	-0.11667521676512774	-0.05406957355111806	-0.0336963921047967
Si	39.15936792175748	5.598703008373742	23.460326516334657	14	0.06484507594785865	0.14722688995285133	0.5392546309792375
Si	29.212591428945995	-3.7459530458799217	26.563826630100984	14	0.3894373524163371	-0.012015289382116002	-0.0897287474573158
Si	39.329802781243274	-3.4704567335804657	14.53467695138518	14	0.04046225575476636	0.09637788292575075	-0.08188096268862782
Si	36.22543183725308	3.8721755078903715	11.256643953550205	14	0.26674754897578695	-0.11216935469156822	-0.0665839144758748
Si	40.150770951959665	-2.461870091427841	18.382251092344287	14	0.22339845616755832	-0.2760734621930281	-0.26049230684239866
Si	29.860365183300228	-4.989135071108288	20.100075247876894	14	0.03176446356723743	-0.09793417297603638	-0.01002473964325736
Si	35.11009661200491	-2.0368818081760978	15.571149989852422	14	-0.15275939438074596	0.17919549928250852	-0.0019764086595978284
Si	26.26969752538368	1.787371598533887	12.603595231905219	14	-0.375544899039981	-0.10886676990783803	0.11140085131137598
Si	38.458303323533464	1.781594705815476	24.367596110393272	14	0.018577521490729942	-0.04498071624439459	0.08413942160184588
Si	36.331340986280864	6.264018951829421	11.463518183238056	14	0.31052935880939647	0.23116447978706556	-0.3174278914938858
Si	27.788339509467622	11.270492963239278	25.452762934508723	14	-0.10056338527641981	0.12708896464332348	0.1148810994727284
Si	29.963387538398067	-1.541055534665328	15.317472353598133	14	0.19576087374969056	0.002773708419375748	0.04925132218116055
Si	35.243555061776775	7.42406726062093	25.834911989006233	14	-0.1083715750231775	-0.2517662324963481	-0.1320931069279277
Si	31.36799207388848	11.529927663060773	10.263981772246357	14	-0.21164284842277728	0.14623932839938245	0.1391924429379206
Si	35.43392648037231	6.762675836675042	13.574997258256241	14	0.10845025084597404	-0.1756545730356006	-0.14595727814576218
Si	26.58535778345364	3.5291229298567073	11.005661429430846	14	-0.00010670087078614528	0.08980202395894	0.27750993873539476
Si	37.83698826660692	2.3807292046873236	27.94836902185735	14	0.10339571489709493	-0.036903331770617394	0.07188219120910394
Si	32.7703542628632	-3.1678671910146865	13.043855266445165	14	0.17674497880187537	0.27422920834688586	0.08417901662377618
Si	40.24306738868358	-1.3360815986348478	14.44904310946693	14	0.013765440773540798	0.024643273162023294	0.0008052701862703783
Si	27.270539231560562	-3.111830009702687	18.946096311784103	14	0.040736849802958185	-0.03759264510694909	-0.26249468366573
Si	33.97831971554729	9.210972874101444	10.038449963701646	14	0.06278973435493228	-0.24229839426543484	-0.22661773713891573
Si	36.57039462351973	-1.9809057667469876	24.543936752080324	14	0.14884694341507662	-0.16880771956804624	-0.14071299462425615
Si	27.869239141535115	-1.2052323346760137	20.22808068106674	14	-0.07521588636720795	0.04248982941023514	0.030859691605077316
Si	29.97825279208652	7.536971142737103	21.761447462351416	14	-0.17887282556482992	0.004063631958494038	0.4695175129387331
Si	31.00045049411373	7.186400011537315	15.86157765301102	14	0.1494408687440308	0.04197020902503321	-0.022111505753273482
Si	34.57403038097734	8.612866186233845	17.039282168523417	14	0.007180068717045525	0.038143890087588846	0.22845607744282156
Si	25.599412727121287	-4.9895283492739	12.679730910395145	14	-0.2391189654265397	0.22284849673957863	-0.19454885470177274
Si	34.210980103951044	8.812884486891752	13.786105011726866	14	-0.08565894484605341	0.0032573333300956013	0.299686236342736
Si	28.36103018277519	2.711381953499319	26.006652267613177	14	0.0632155093959488	-0.1257036530968277	-0.12894838801085462
Si	26.781192133206797	6.831872964671658	19.812493067916552	14	-0.028415855998276566	0.03660148400603201	-0.1525426502022575
Si	37.854085952235465	0.2960508799551521	20.860804109654588	14	0.09134751536688103	0.17984547470744194	0.08710570580970071
Si	31.355344380276723	3.574868781692087	16.77500254609026	14	0.006696186695793658	-0.25663744863590066	0.026666475938447818
Si	28.471918101185278	5.869526250705331	21.172990961404732	14	0.2694932323471731	-0.11463453047252621	0.0849418635722641
Si	32.64366746822864	-7.560594271542139	15.447963040405966	14	0.20179988592565437	-0.1244201573210098	-0.041407136959920786
Si	35.767188414997335	-5.570851313073738	10.163130709205724	14	-0.035289448961160444	0.20381229005973428	-0.08549490832662794
Si	38.93722028835216	0.8395546951147516	18.862595756049913	14	-0.030829095451767558	0.04190310317617735	0.14104672409481137
Si	26.328986687493686	-4.778427205520345	20.439599889424915	14	0.3074900552104495	-0.2807019659903586	0.14745520410528046
Si	30.81126551973211	2.2229486485303602	14.915842810468659	14	0.15213281601422587	-0.041807972279331876	0.13059518096840944
Si	36.436177708714176	5.616121265280141	20.083301438384733	14	0.3576106681003521	-0.03492460911623143	0.046477099540720775
Si	32.52508914400863	2.5230446753318136	18.567780893186686	14	-0.16946720808266422	0.165939137362357	0.15529039045789972
Si	40.41867930906376	-0.8032227328150662	23.867035627031747	14	-0.03366039663031462	0.03683391192697339	-0.0689020230325203
Si	31.671579683731697	7.031088184705668	23.34483658241519	14	0.2980337869534768	-0.1314942964988652	0.08373910050349882
Si	27.967500847913918	1.427988062051694	17.385223192916285	14	-0.16999042801531436	-0.11430054389143897	0.03830047040158586
Si	33.7611855525389	-2.669770479690674	19.399630310628112	14	0.07744246357445618	-0.08858589114250998	0.03687556383315979
Si	32.008141519603484	4.268641209559594	20.014935482309557	14	-0.07871850314484567	-0.07296951164899457	0.21309809403398108
Si	33.738813312689196	-0.20276629052939427	16.17137839689921	14	0.3599601441419034	-0.20914913337276564	-0.09201008920788319
Si	28.447571208361175	-2.1157621716789756	22.34934544220576	14	-0.01461236286599758	-0.0668842195772681	-0.06407143035702609
Si	35.58752473805378	10.643164716209098	14.296355340311724	14	-0.13565485912792885	-0.16439236040175592	0.0008368947817081997
Si	31.939352541635888	5.333228679580339	12.397203511563413	14	0.088655825207218	0.07871696048165358	-0.06499497138802328
H	30.817548055806306	-1.30626351250678	26.781810141752757	1	1.3090217094363512	0.01724028961372093	-0.6358585140626293
H	25.78934294710245	1.043709026228661	21.23859570817428	1	0.025800784777153956	0.07777953548192759	-0.11364619758746129
H	31.878496876580503	9.917804450468267	22.058198972315893	1	-1.601724823729565	-0.7679017415473461	-0.649154213894179
H	30.819382252292986	12.545122369853251	13.28870232069511	1	-0.5827924429179651	0.9090924475400859	-0.06304401667109494
H	40.58528879479581	3.7136100478314504	17.733593288332056	1	0.5177925864298335	-0.4520818193206809	0.07334926390478046
