236
config_type=amorph dft_energy=-23394.682564394137 dft_virial="-49.39003689115711 11.793668505703115 1.2312071516942815 11.793668505703117 -42.630547627414494 -0.6034535052712102 1.2312071516942813 -0.6034535052712102 -46.81017190553455" pbc="T T T" Lattice="16.423376783026235 0.06730387300719061 0.05051896373111721 0.06712321351400391 16.441524850296357 -0.028429234791470703 0.0501740683350335 -0.028921942500161703 16.3360525534559" Properties=species:S:1:pos:R:3:Z:I:1:dft_force:R:3
Si	7.512674111039022	4.639089431180111	14.789011115450233	14	-0.4451110385766955	0.7359634712604668	-0.22749396983202216
Si	6.972988364683364	15.616546559377346	14.200545663575136	14	-0.17190924391574086	-0.07626232623250821	0.08395095958187902
Si	11.690881466791515	3.885387879759372	12.918607250589691	14	-0.4575400188048233	-0.32428425805112465	0.32226979703278863
Si	10.227112558631712	4.228016820383093	3.1621093869912738	14	-0.09587163228821358	0.07041820383981162	-0.3107237343715997
Si	1.2795438535212085	13.67190806640736	10.385008955676888	14	-0.005906857362508197	-0.041491212103889626	-0.07059458166477378
Si	0.714707020995904	13.981790010352448	15.937338694351883	14	-0.7344835430381894	-0.23201063054792634	-0.024189987294081183
Si	6.478097960842863	15.515142385851652	5.644196733319462	14	0.07884191620021279	-0.18968020966754037	-0.14885877049954932
Si	1.098040187793618	6.14875406240448	6.228511943928351	14	0.09764158119060352	-0.09428963118472648	0.33464092739121315
Si	15.115375774610063	16.452650190358597	10.910603261563983	14	-0.6013807630510396	-0.2646094177915518	0.19027799165447476
Si	4.87488948640545	13.399583588736757	2.979786184108227	14	0.16358709021548556	-0.08688021987312373	0.2550230516053797
Si	16.422532610485344	6.254474355458308	8.34954800840486	14	-0.2580965509050847	0.160834207749203	-0.034548456407893766
Si	16.255677144937138	9.787122932411618	13.464134868011394	14	0.003191770144431825	0.1907402763910374	0.45278810195212565
Si	9.59179224601913	3.6942649171991047	11.873784422411786	14	-0.16845496391812192	0.09456602500664239	-0.3304618528038445
Si	13.982507721248108	13.218616974411638	5.214194292354536	14	0.0867910025185146	0.16429157307320616	-0.027892636065626437
Si	12.741938689843387	6.9248853110838615	3.0100433644989417	14	0.1408052973052495	-0.14835354830414021	-0.1681544017061966
Si	4.038772716551968	12.50418915445066	16.025991592376652	14	0.2101549497740076	-0.5457487287968675	0.056975693894481434
Si	0.8607472282109454	11.15346710297292	4.373767972409036	14	-0.18858980390126556	0.3557083072739745	0.08659431296152327
Si	16.02569596775144	7.694286172462525	5.1539722714802645	14	-0.014629332161110554	-0.14791311796279885	0.13543425829146014
Si	4.636663666894322	2.2131034269225096	3.5611369366698256	14	0.001971780670021562	-0.037154271649863846	-0.19919509912581235
Si	10.815517243222736	6.593123860154835	6.152515064580822	14	-0.22487915572143158	0.1592174967238939	0.2709374222055002
Si	12.858094532167291	9.633150131086653	5.921045910114876	14	0.2178808641505205	0.11140573641148425	-0.04416773274216377
Si	10.339707766580808	7.144618167928788	13.159470698701343	14	-0.12009067307241245	0.21584326318430316	-0.14796351162707372
Si	8.47313881005291	0.9360493896892199	13.785434491925882	14	-0.004098084769784023	-0.254871613502023	-0.000331929696831117
Si	7.201047981805168	4.84411496292061	5.3827890161144225	14	0.2651750609619844	-0.018444338235146275	-0.2182521317587499
Si	14.12690392707515	14.768153155782315	1.6165542839068234	14	-0.16129340715938145	-0.06956151154713829	-0.19130309134561782
Si	12.05070590644855	0.42489963146191567	12.509193422411931	14	-0.30984184524678887	0.02371381858878976	-0.20149109617670458
Si	9.874736217171053	16.334101430929483	12.131076387890229	14	0.020795871160953706	0.04089651544333938	0.19934628011863706
Si	13.11205579353498	3.6488306970216784	11.044762643563455	14	-1.1263125376233283	0.5305938627083188	0.34533929662834933
Si	15.59096517514211	8.401637067367673	8.81884553149692	14	0.08924897920457617	-0.18213427266343774	-0.07249231450157508
Si	9.800537720960246	14.064914727885707	12.637239944105579	14	-0.42613576709293866	0.13165550480243848	-0.16373492877139406
Si	11.54427136099342	8.18907639240226	4.636361472832992	14	0.08162539481980509	-0.07203054398607649	0.02854261149055987
Si	9.155711434287987	3.6388960672554385	16.187926550274067	14	0.24277893384977048	-0.43984361510730813	0.3857406171870281
Si	9.260950516146327	7.1752695144864544	0.2991951137435808	14	0.06597713362031986	0.027373272790956527	-0.1062460422550111
Si	16.012056176015843	9.479078788219947	15.78184506856609	14	0.3999817124447964	-0.38823870311608405	-0.039994314586499415
Si	8.876477552182509	11.91890495201468	9.360487327456083	14	-0.1538593132367053	0.3312614665584105	0.04178303255772643
Si	2.2884811369161167	6.233358545422841	13.77427630468306	14	-0.19192067084351738	-1.05553489325976	-0.7007115604369805
Si	10.114018073537808	2.4777679420819965	9.864627497347744	14	-0.19747631521929335	-0.06895010270200708	0.8240449115391636
Si	12.32847316194116	16.18428379794781	2.151398355845078	14	-0.006044668607668134	0.11342328275620445	0.18142799003199309
Si	1.4559529215409341	1.1192019838818963	14.094753106724033	14	-0.01067394373659475	0.06821322391725264	0.24410151042645467
Si	5.91976487007228	12.914627814662495	0.8972601541430063	14	0.15554261588980625	0.11473840312746017	0.1612036755837083
Si	9.617258665122339	0.6000539371835083	4.60708970785966	14	-0.1392585203446484	0.35016371865107515	-0.22136985406996146
Si	11.779417757325229	10.91754387082041	11.705018893312888	14	-0.1750493348432377	0.1699932562311665	-0.12850872900110927
Si	8.810822607640402	11.909904824535923	15.769913330220623	14	0.4261339673192145	0.09380292094762244	-0.3984879002537904
Si	0.8427042719186809	0.1140569074848796	6.1792099682377	14	0.06785249784083587	-0.5081874511748243	-0.4253132705010233
Si	5.168901315053602	2.3007594130166966	13.597863951945277	14	-0.005172292572541891	-0.2081325183291791	0.21702005808933494
Si	12.952576162385878	1.82051556699655	2.9805548081337854	14	-0.37762749434930093	-0.034297516528647314	0.18003316539581277
Si	0.9891649230451386	6.869674127606977	11.894754062493675	14	0.20198937638774928	-0.05173398147829555	-0.7368633581225186
Si	3.9406171291855756	16.19023406470977	8.987737522241051	14	0.0917882028187544	0.34345724753400086	-0.3196130739054796
Si	0.5904756993265552	9.8937645888807	9.80821739177971	14	0.018110351654059036	0.1792944868373342	-0.0779741681546628
Si	6.422193701855753	4.8623550022963515	9.238604579198162	14	0.44705248020393934	-0.13856972122938072	-0.018436367808653816
Si	10.050460421475698	1.5514150400998152	15.458505634737621	14	-0.009121253233757327	0.2806885962426938	-0.015591182661377951
Si	0.16773248526967716	5.960858335336138	0.7335662297255665	14	-0.6464987763195301	-0.14905186050909242	-0.20011169817244515
Si	1.164504815337005	4.000546810152691	5.192582489892319	14	-0.007823616378678589	0.15007156087906315	-0.128781523275577
Si	14.111812289957946	2.6582517028525965	15.244663919729613	14	0.08474003180463247	-0.35778858858850626	0.1369008167660726
Si	10.285419588878204	7.853898834692974	8.069208818672884	14	-0.11271700012475976	-0.2618609062043135	0.07108720544411416
Si	2.9702999183568966	10.377844985592521	4.835972146854977	14	0.02263883945443585	-0.26204782556108824	0.025486595707031864
Si	6.941873872879528	1.804750562677467	7.679005664056988	14	0.41158356809143254	0.1891166233813639	0.14161905213907633
Si	6.263191997184081	9.370771779695492	0.9909550943867159	14	-0.32109608745414103	-0.24103006801100577	-0.3406074343971488
Si	8.656179723831617	11.304307925629644	5.428073781620212	14	-0.9973487229805528	-0.03789243598727836	0.0822365465544043
Si	15.812884011854594	4.130608506374883	1.925728371110426	14	0.10766734927598894	-0.0640194940295591	-0.05357849243496977
Si	15.266433388658609	7.8412280347844705	12.476760116307833	14	-0.034113939608788744	0.09431354246420384	-0.13561320722174244
Si	0.9460924151513714	5.2217622827600305	10.243470454560253	14	-0.22398595373321212	-0.0173508471424873	0.2672607415976884
Si	7.478283112972391	6.503093022904757	10.50468930047696	14	0.04298965228447192	-0.19686979147427042	0.25927488847330854
Si	12.957228965514949	14.713531579196829	13.099997593544282	14	1.0425083881552297	1.1169971659378999	-0.5808702845806223
Si	2.763106472698157	11.023871836714957	1.001019470516244	14	-0.24095807706204164	-0.1962951494352173	-0.17987632797128372
Si	2.125936863818956	2.7372508145050825	15.726049205274892	14	-0.041855280617222594	0.10988184228823249	0.025338757151123346
Si	6.79196919486932	14.582267676165431	3.5634953642354263	14	-0.32026587754626523	-0.0890967697696234	-0.03866839557289905
Si	13.778112855374733	1.948719755156977	6.8019514530473995	14	-0.3106987946499942	-0.42691892577345575	0.24318799670620603
Si	13.707915145758498	16.14914059944591	7.350722729551319	14	0.1731881117019825	0.09374275708313097	-0.21811046385560975
Si	10.41603476009316	9.523471752773007	13.07105922745383	14	-0.04221934913055556	0.215771272235339	-0.041749351078032494
Si	3.4927655302938043	11.908886561937962	12.657319425593766	14	-0.29019860060085756	0.11395473022587906	-6.941984364399813e-06
Si	9.233672575034165	15.311049714039607	8.247376853212636	14	-0.3213398282384911	0.11575938905009098	-0.23251431008014334
Si	1.9668661800680667	0.9671408884666508	9.84605570144815	14	0.3539949226886278	-0.040193061027746856	0.023993040626557844
Si	0.941408407200749	2.4121179246169784	6.926619642218455	14	0.22232939057544074	0.04676249223125721	0.1467057269044573
Si	14.910373235895971	7.413053539418788	16.210617382618317	14	0.25550410541077934	0.32152289093728564	0.05697852211033359
Si	14.552982772319867	9.958966242330808	2.711235847486198	14	0.03953640072898104	-0.21406380119222868	-0.3101928011229891
Si	3.2506161150624675	9.386935877258615	6.928570764744871	14	-0.028075184543356946	0.3673690412324421	-0.14046951095043814
Si	15.596779126104664	0.7911325560499939	14.849734055828339	14	-0.042657465477108795	-0.27667638639060277	-0.06087966021259427
Si	3.8182531697321656	14.304413375644286	7.534727708080031	14	0.013788580721422134	-0.17926029113657624	0.0005710424916048883
Si	12.390155239992188	14.747342824526234	5.9525660645988685	14	-0.04087697504290625	-0.23532761352144932	-0.3648105343283627
Si	5.427983451873619	9.9115431253693	7.559151229199844	14	-0.17333954980533922	0.10853972531111519	0.0931562879596052
Si	7.303388299977375	7.335029989029511	1.693827276219862	14	-0.020521791333825923	-0.034318599592272535	0.09258113169948808
Si	11.93438911293981	5.817723461243344	14.243345539870095	14	-0.0939828983200328	0.4536638204241681	-0.08200360441239887
Si	6.01216563140116	13.59796906292313	6.996337782998231	14	0.12071648010733649	0.31306215466027437	-0.177155327210971
Si	12.18201579553276	1.5435366438378462	10.407433725858443	14	-0.03282890116977873	-0.271159308594629	0.18185607906779774
Si	10.034613299205166	11.682140832039334	7.329531371000519	14	-0.170036193690013	0.1936170861337511	0.7942275460308743
Si	15.12337242072212	15.614349082996585	13.159784389275876	14	0.2639617563614065	-0.06459645006340034	0.4304418542831227
Si	15.831762928892603	15.910867151522943	0.4219466699278276	14	0.26538357760344833	-0.032469460646022026	-0.011960524838796848
Si	4.722913793659711	1.0945649560883173	1.4602575445558645	14	0.16554293003252218	-0.20790883216632622	0.2949420328059988
Si	10.569605183456028	12.740033553369782	10.848047448509543	14	-0.04335320657674087	-0.05811006556173076	0.0985368400630791
Si	5.371162756548343	9.276715520465409	15.120031862457193	14	0.36501905096982673	-0.04699132060475039	0.029681611147385465
Si	5.024390144094531	16.469786564466872	13.131499682078955	14	0.12154360468882813	0.17314028914302776	0.19004119285448914
Si	1.2503213593187454	2.659765957877307	1.619167277121915	14	-0.2908244076357816	-0.12955028376630126	-0.11117639381692705
Si	2.9799290693437475	15.986143035256754	1.551277081941382	14	-0.49922509224985206	0.1874482331391198	0.5618615887277036
Si	4.428397760789665	5.390724894942405	13.124317646045268	14	1.552394311504544	-0.07701411742811952	0.9810327457294251
Si	10.80061611975289	5.354684968410687	16.29380943687176	14	-0.16724191642807604	-0.10614988291603754	0.11905117519147658
Si	4.660037720594623	1.4435678921034714	7.518649013186415	14	-0.2756823970738335	0.051148026575833797	-0.17628475094956886
Si	0.4479879146911759	15.681027217213739	9.537241290871892	14	-0.27220343446514117	0.16784226952033063	-0.10391816349814902
Si	15.061297818863169	2.382271333983507	10.5776708086473	14	9.888736399358551	-12.78281857050246	5.08637368894797
Si	15.278501442803481	14.500851012022302	3.6960715121309717	14	-0.0021044497045412027	-0.03367325215691536	0.13686379284946246
Si	5.123759434783332	11.453540878797002	14.285813659641201	14	0.6172786785771113	0.30727588213728113	0.06436222236873486
Si	2.1161106297486287	13.847331719009702	12.589631240573794	14	0.3549752851472003	0.24623989872122182	0.15836620375239288
Si	16.461936088308395	11.20022342216867	6.60017943454329	14	0.1376207262557141	-0.14923749431320713	-0.011252699544160083
Si	12.274728605077147	13.723129959802876	9.519388848226988	14	-0.13459144996751557	-0.003997040330702204	0.35904457353739866
Si	14.053298322473802	12.159080251693194	9.232407958581858	14	0.3061476811228001	0.119648700067879	0.08950017619435463
Si	9.594134249994442	5.952561137521782	11.289153878869335	14	0.08339945749070726	-0.13318711224165072	-0.1080054496255884
Si	0.7929407933408898	12.318646927870832	1.2063307727277839	14	0.013393144723183358	0.06718761000504557	0.1612054753574324
Si	0.8920850808427219	13.271190529287999	3.3123655298336816	14	-0.22970023530724124	-0.27599375792810343	-0.2828812348597161
Si	13.18977222278584	15.923546163226591	9.618730218812296	14	-0.22893301747970904	0.2782792134471831	-0.03991332476891475
Si	3.579437743329638	6.318912311959945	-0.6055509128534708	14	0.18823653403027718	0.37921566610555635	0.19468872283118882
Si	12.03935392084031	4.980650838435001	1.8432491006755527	14	0.08953720011096476	-0.13583252250555106	-0.07513592499175134
Si	15.13199809034227	12.950920664484675	7.2337703430983655	14	0.09755004984120624	-0.02698117922963394	-0.14223226075793166
Si	13.245857141266136	8.437243411115741	1.320965790590861	14	-0.1009940454175446	-0.25080361066448464	0.28482061960270383
Si	10.020341199243417	10.288761789502157	2.0521538844424785	14	0.1950864728242157	0.07476105783607376	0.10369987665646845
Si	9.017616960055102	0.43150848419449095	10.046316749645607	14	0.3429060025533612	-0.2921837510185439	-0.004403532081817615
Si	2.9711161707942946	14.59534413875409	15.948063298811057	14	0.16383674454207195	0.03325159088441108	0.05839237292588302
Si	2.841524189254388	8.380742975801116	3.299073918212227	14	0.3800191365181026	0.8000989221399645	1.0403311761701282
Si	16.501487378444047	13.728776390144475	13.74828597304961	14	0.16149960980605732	0.18822033606676028	0.10950774646415093
Si	13.19262500041916	11.239904458667612	4.20702090255674	14	-0.07755533509801069	0.1624246935002466	0.15647669845261603
Si	13.374044905836273	12.62062255545046	0.8144442001071941	14	-0.020290134744480583	0.007080566941155795	-0.06459979250031651
Si	8.164404875069073	10.003766511923052	12.573531195012803	14	-0.02667264659121617	-0.11279850416340846	0.020484510306683777
Si	16.121831453512197	0.19616828949726373	4.18434977852084	14	0.11389508058245162	-0.06339317277357104	-0.10117505123208301
Si	14.308885519280171	6.123307351609619	4.608689365553876	14	-0.0756092654811906	-0.0645838516473316	-0.28046799540622513
Si	1.7897574671019998	10.812579062919907	8.069159547902014	14	0.10800673517824849	-0.34972225986760574	-0.2522478005228118
Si	11.49259289178785	9.891828247585545	7.844862575315581	14	0.03338066037148251	-0.13620687544016463	-0.15011167012205745
Si	6.778743277609024	16.203893564753713	1.8191491242844469	14	0.0395392289448332	-0.05868959270089214	-0.18262586800065006
Si	10.64472340072306	10.487979939716219	15.209834411802245	14	0.1770594249825295	-0.12828889949623662	0.034385191220064365
Si	5.417767978713425	4.782723582417711	15.94936568952103	14	0.5618590176223834	-0.4421388408266043	0.7681519100949966
Si	4.569159426085597	0.5895510511932451	5.35241687059168	14	0.1663744254930581	-0.288226819930836	0.19670395518112088
Si	9.589284363781893	9.45955935116064	4.208272380136816	14	-0.26848664461433513	-0.050200574265359225	-0.31367356350540554
Si	5.465882528826131	10.164049256637322	9.895114608002512	14	0.18049313613758722	0.056459158835663686	-0.5495907314767648
Si	13.69946192383639	3.3072019530465995	1.273991037644261	14	0.16977188406310176	0.367089562084142	-0.26487372741846305
Si	4.400331487343597	9.949711549202563	2.3490628344177336	14	0.0052401697529937995	0.125482795149827	0.12085043469451619
Si	7.513646387584172	13.764105175216647	8.81242226533462	14	0.1641887288604002	-0.21633383007938742	-0.11103086925580666
Si	2.8833567160812827	14.532348173479887	3.4216924433151275	14	0.05329489951815744	-0.23353246778692194	0.014151106571563012
Si	2.1659151673021437	8.70016702570452	11.073845537248456	14	-0.136786402579326	-0.03080312728803406	0.15163967801382144
Si	2.198072557089376	9.927912517811043	13.028922864206576	14	-0.012317137146701388	-0.40906671309353965	-0.18606446425581613
Si	0.9648465129031798	4.752678266341734	15.118356656247645	14	0.5264610680167128	-0.17890470727079974	0.24973094552491887
Si	6.860490055916976	8.315460846758587	13.589013279138157	14	-0.017186553512529835	-0.027791591626544616	-0.24506567492151018
Si	5.823524273333667	5.426871574811006	1.8619227228349415	14	-0.14905340317228452	0.2218442230015288	-0.1516090818605117
Si	12.866603594296384	5.408097768750849	6.315065907114098	14	0.2868361090631679	0.07626952532740462	-0.14031190219431305
Si	8.418032737553881	6.815624091963575	14.484248404598443	14	0.035328529762026696	0.14382403206163533	0.1956749988319976
Si	15.243865733241531	11.215773277454955	0.8940444151642831	14	0.17492900711425477	-0.045579012452393056	0.011377912373251295
Si	4.326922965825726	8.13159382638831	10.360158421209542	14	0.09907908617509831	0.22379543482898917	0.2893640198139375
Si	16.448802143153717	3.725868831993574	11.886607961709984	14	0.2557421897634251	-0.21717226752428773	-0.26773305364499966
Si	5.6896670853955245	7.0706709526494125	11.988063048365577	14	0.3644220403144883	0.6622863914273674	-0.27306141231047454
Si	7.385346942600065	11.842108243820043	13.849947996942854	14	-0.03038557978404201	0.21535501028400705	0.01022580007929294
Si	10.910120408009465	5.964926458650896	9.346545341659157	14	0.15222640424787925	0.3954239140437699	0.5616106488484571
Si	2.654502197189458	3.5258771306768684	3.3454048664194707	14	0.11176903359322118	-0.049205813616993936	0.184048460574288
Si	8.068955895382421	7.703941601193839	3.8591791143750687	14	0.07218326764209328	-0.19817205631892543	0.24189807316708778
Si	7.512491809186807	3.05127971499832	13.018306655443313	14	-0.09820285348199184	-0.36135368322542366	0.4556014053934317
Si	2.919247187941364	15.434729203075223	5.612845741815453	14	0.19116322321620177	0.33182736683937514	-0.07217169766815262
Si	13.19404399862019	12.287828060692211	13.028646947889708	14	0.3997359147761902	-0.4132231619540909	-0.3406490863033352
Si	4.492116364036614	6.343357183747135	8.726945689671876	14	0.7648549817429707	-0.4538473973440266	0.18218569476984073
Si	6.363740501655681	7.06163469327202	5.356187726922196	14	-0.039039920291660445	-0.19002010979086392	-0.34925843246785104
Si	7.78170565885654	3.975062325100163	7.505227655201672	14	-0.6057043337574006	-0.15386342700521755	0.1854360861155719
Si	16.031524699945255	12.052584765177691	10.579784524717585	14	-0.25951451548914634	-0.16668887167371219	0.11967801066852866
Si	14.249972458551989	6.429211501986542	14.129058702121158	14	0.15261207004590147	0.08676040636520484	0.3040049219489887
Si	0.27931107297984104	9.074268492400394	3.337403293230329	14	-0.4821357265184239	0.33695003707923815	-0.20901466456452192
Si	11.842405510804285	3.2904613874643083	6.508716460219951	14	0.7189316982882098	-0.35775619266147246	-0.38301087466862693
Si	5.3867421742971535	16.020634217224156	10.808987223723552	14	-0.3210737188378558	-0.18709290638387535	0.40940224233781886
Si	7.740871686319259	11.263469026015274	1.4573308607662399	14	0.12852209874877404	0.009572996438507342	-0.39734272994419634
Si	8.701638579394478	0.8244560207477952	2.4285957127546345	14	0.005504993600969052	0.24051584694697611	0.0014747860116369382
Si	15.082320014433984	9.26091109952963	6.666197340430798	14	0.1379721963529783	-0.07433219746867305	0.08025293879991005
Si	15.895509452243045	15.223048832549336	7.49493006409003	14	0.045864148032397474	0.27289429046466496	-0.011818085604060644
Si	1.8931439679756614	2.145484220981757	11.962094067399503	14	-0.28042814327376286	0.15414650570096586	0.3293915016590668
Si	6.271886645883448	7.755907483229479	7.555199713376143	14	-0.21002228073948792	0.1971868087602447	-0.21966135458472305
Si	15.449181962530158	11.868722671884502	12.845233218611426	14	0.02896632964732027	-0.022851212753880083	-0.26237898392632336
Si	4.476546800441978	2.6118895498238026	15.869364738860872	14	0.0966378216736177	0.009177303329736552	-0.018800950543050813
Si	14.624287431921628	1.9344197350917354	4.6068762011858935	14	-0.15018906039219393	0.40603717969480907	-0.27810180718009286
Si	10.960235351419456	8.829581632469298	0.4665301481282472	14	-0.11512664003080256	0.3242078962231163	0.49617319023483636
Si	15.366405425111042	2.9249790209524695	8.236218665969814	14	0.05881763374583552	-0.16597359017364702	-0.5659159647070451
Si	6.219455976242609	3.1801326349751906	10.934788640624596	14	-0.07926177769899297	0.4618934143328981	0.009388648187052727
Si	11.090362742002807	2.457704884184099	4.4335711917309215	14	0.29155922953627994	-0.42054284169002054	0.1658136674227338
Si	2.2600880340232834	6.976596627470011	1.3074721688088433	14	-2.365087793055254	-1.5371677115775628	-0.8548459819429416
Si	12.260105040283197	12.189918827180165	15.159512531154604	14	-0.03864756961980585	-0.1107742729448559	0.01994303552626059
Si	11.763526291360915	11.875717478988884	2.4111982035607555	14	-0.052891235982894184	-0.058421940637064726	0.13724585910003648
Si	2.947832446840587	15.663894127823523	13.863392347954003	14	-0.3227752763387297	0.4363034601919963	-0.31684013681769996
Si	6.519324457188068	3.727126879009765	3.364469370027755	14	0.1044997475215665	-0.02215058655413973	0.10189598916385255
Si	11.135524330581424	14.205843913802594	14.679235837953877	14	-4.7968877987418574	2.4129730869798194	6.3037342081683825
Si	7.244283083242802	14.73098985567478	0.0618019702601411	14	-0.28588608564737317	0.25749696914442616	0.0372280623725521
Si	10.254178635429136	13.637999921895245	2.6164290301798756	14	-0.13399161109632507	-0.13122021667173744	0.18099141634863194
Si	1.7958588308946233	9.066092829154181	0.1270545368401482	14	-0.6165042616546826	0.09920995543589385	-0.15235418818229063
Si	13.96800897574036	7.9674269025705255	10.449146360476224	14	0.17201825878131513	0.18101558473864132	-0.11046445475377804
Si	8.440978135547619	3.1188315842188854	2.0823929988838747	14	0.10944166905742314	-0.29942449782114494	-0.052374958034608454
Si	15.49251724786856	4.1115554992798025	4.21180673676716	14	0.027073224800095243	-0.024089457076063397	-0.1376490084142357
Si	2.809861149534875	2.635578936457666	8.33622026488477	14	-0.19906988629672112	0.32943032534940103	0.2409799314572629
Si	9.604113223454464	14.207542113038548	0.2979731986260271	14	-0.6031982774018523	0.0293106006496881	0.4825723002017851
Si	12.041610522146115	2.0064076160495485	14.251031780125674	14	-0.038195055083459786	-0.4305398133958203	0.19362274256545545
Si	3.1340020545694816	4.560957485094921	9.700915506980984	14	-0.15839654279517063	-0.1273648442441754	0.028101152707090446
Si	6.189977274031627	13.855893336627725	10.719130476530545	14	0.5476839997713431	-0.269596333670511	0.14490081096971336
Si	6.350946524820006	11.426111840654174	6.009971439738457	14	-0.5680841778235259	0.01746217600284971	0.2745742506808497
Si	10.986432620290557	13.843459036419391	7.551507690279018	14	0.08689641783664066	-0.11455096954962138	0.16928928759450998
Si	0.7430229330143757	0.4238452369653169	2.019144110319211	14	0.06302370493906576	0.22067077053341322	-0.026189793012092365
Si	8.28184175743557	12.709881483956922	3.478545985820982	14	0.29060740634676113	0.6487695765382849	-0.08425794955710472
Si	3.1857889194709634	8.431470519128913	14.618792098610696	14	-0.2791503039296493	-0.026463615728688137	0.001620567683289334
Si	2.842171278711802	12.723990990374803	8.928619166634247	14	-0.07012381228065469	0.07533415721193476	-0.06263983891476765
Si	13.179059114839868	5.722575033258996	9.880108373554814	14	-0.15134451512306848	0.02324639164158684	0.04316268767251789
Si	4.1099821193300485	6.902219114125047	4.6968824030505365	14	1.031241033310745	0.022991852214892184	-0.4491085931284617
Si	4.487542394140934	12.174037215370024	10.54672055274636	14	0.36841573820827433	0.05295757050015402	-0.21940578671590033
Si	8.26287086829194	0.21127635020475874	6.530223151704313	14	-0.058166115657709995	-0.1722540291391727	-0.0010112157224142395
Si	10.294262049890179	0.010340292446395121	0.8822834821578289	14	-0.14084977742728805	0.13256181942779072	0.02456382600763072
Si	14.447323246550111	5.09140988898971	8.025086843359604	14	0.021430677064498267	0.33341708125882263	0.3086840765211262
Si	6.821815785502792	1.159287040701967	9.947908238988752	14	0.5237269546192672	-0.011250899770435979	-0.1100435648128698
Si	3.654986258662258	5.607517929125474	2.8049160064986465	14	-0.11198989154022189	-0.5376510325910613	0.1386946769479399
Si	12.86155498264133	10.082307405406455	9.782834732986977	14	0.07743423603743171	0.09350158740410108	0.08056481387524402
Si	8.104790527035519	8.129792158533528	8.927362761977086	14	0.0799341217402117	-0.07605663780689637	0.20509861405140434
Si	15.395263315609073	4.330802217852152	14.009772523488039	14	-0.26906899996934863	0.05961750461093359	-0.12403551996511564
Si	7.472148901999187	13.8523261328168	12.729310591269638	14	0.24241846488388574	-0.036757550098964996	-0.03614614125383379
Si	3.1693554750270896	7.018534265274761	6.8143019929452535	14	-0.613593770432275	0.3460566350126706	-0.7805299824377856
Si	10.154311709954559	4.021992734352981	8.093919752622766	14	0.13789480608284185	-0.1954878223646908	0.5674144048876274
Si	7.770964630807076	10.055660130161417	10.254498895439786	14	-0.14298379484301094	0.13425129273366002	-0.11239844017559342
Si	9.228970501134224	5.772491251226482	4.614513170670604	14	-0.14631620444845486	0.24500988193606302	0.04287652365038541
Si	3.9732672266814992	3.4908669632563147	11.779153337521564	14	-0.3810563204042504	-1.00792856426243	-0.6221558082589002
Si	11.173666476670222	15.31745491425259	4.029895766000385	14	-0.14519186009195412	0.3054036032431493	-0.06702434481721617
Si	4.930250124553971	11.399996689734522	4.136015152298252	14	0.20413933465645714	-0.12698689176211364	0.06081152592161035
H	3.6885790702408103	5.816018692571274	11.914968217422238	1	-0.5456327719469289	0.5053306960536078	-1.1811310741542054
H	3.781104650855893	9.889799934184765	15.17908288134381	1	0.09805064404703907	0.007940087449681298	0.49676917244804664
H	0.981316089245691	6.748080434538155	14.171303461064324	1	-1.525292804545927	1.171208407392158	1.2012587150424525
H	3.6614982122121242	2.1894485298282547	10.85770287724086	1	0.43154305869174203	-0.45259064106353836	-0.12967781059018063
H	11.797005780166467	13.83668430542489	13.689336780422789	1	3.326772971250564	-2.8125976728956474	-6.4226360021407585
H	3.495061548216304	7.576115155610076	1.6462087185339058	1	2.6025288551498647	1.6129800943790453	0.32467300917553105
H	1.8438419922850109	7.376557037077017	3.9071080779175005	1	-0.07273425551220102	-0.18480256576468743	0.28750871021491864
H	14.445721946496864	3.2337014594231053	10.21968252638465	1	-8.726846706088738	12.315273095344281	-5.536225074403423
H	7.085862773667386	10.82968587456566	2.7570100359826206	1	-0.35352723863089286	-0.3403207561539523	0.9364826896261553
H	7.512363705182547	1.9395291140308608	11.778496393909975	1	-0.058149146362597014	-0.3995479669772874	-0.44406125627447907
H	3.1956447160038124	7.33817346421096	8.38325578511544	1	-0.48635902411729914	0.4520008295030963	0.5730615806128007
H	13.084068353322301	4.012238764079928	13.61206543046878	1	0.8886313342918154	-0.03704397123162949	0.04997843076569843
H	10.092127070040668	11.228435865568315	5.0656051439265335	1	1.9555605949988755	0.1710173274801815	-0.6736565904846582
H	4.366336297802947	14.947265546763724	11.41320289868647	1	-0.43239846543175536	-0.3144711203757155	0.1192859171072061
H	10.181197127258798	5.052361160716919	6.912431302567183	1	-0.22737441343463527	0.45966889400990596	-0.9067244595402295
H	9.667076341548087	2.769465686858329	7.286407949976855	1	-0.30271962639944666	-0.37651292019301674	-0.6018916416781531
H	2.375256818570776	12.220877294876248	11.541522051978923	1	-0.7639052154377081	-0.4099879401297486	-0.4663979908537975
H	4.4210695548024015	14.989608847248627	15.954954637296614	1	1.0714348656700876	0.37305426931635355	-0.12077175887171966
H	6.19419813673608	5.441707003919692	13.666432441404773	1	-0.20537989297342857	-0.540076356239557	-0.268328521637146
H	9.640613010514292	5.430778746940926	2.2982695967287783	1	-0.17186219268838215	0.3402433658838158	-0.07837860302152211
