220
config_type=amorph dft_energy=-23173.623723549168 dft_virial="-27.018526811752928 0.872733003594877 1.65296435243085 0.8727330035948772 -19.976335616846796 -6.052825670093502 1.65296435243085 -6.052825670093502 -10.89910801724478" pbc="T T T" Lattice="16.327955014345896 0.06727231828851601 -0.0679581040574766 0.06723966182332741 16.45338849713531 0.0855762670267263 -0.06802341698785382 0.08560892349191492 16.305797602715433" Properties=species:S:1:pos:R:3:Z:I:1:dft_force:R:3
Si	34.15035314970836	0.644767615860459	23.49570459753586	14	-0.007056141440614388	0.010804041665794243	-0.03584815014722862
Si	32.585102648046615	11.903018676699933	22.699995533927172	14	-0.06553284662099826	-0.0566365651027539	0.14732844861299715
Si	37.61083630399985	-0.6203601737784994	19.98446349940173	14	0.013549982147712391	0.00198772152300648	-0.1509385375930171
Si	38.278259342584896	0.6141521797461464	11.251566282415366	14	0.04229365407430784	-0.047023202310720234	-0.1014334473167579
Si	27.119347616025884	9.969726546716142	18.504173690397906	14	-0.045179205575110036	0.044578595372323435	-0.07643227629417002
Si	27.34237657785469	10.91365187605307	24.020257233744044	14	0.011390767899852034	0.011957182401880657	0.0787969218571102
Si	33.1432375602315	12.719283352321584	12.640522489579718	14	-0.121437160928574	-0.13564277493292412	-0.13236821519718356
Si	27.742628910615508	2.648161746841357	14.204006276474765	14	0.0015331501024042997	0.0012639553753847955	-0.025689455916791545
Si	41.16604769968716	12.818136105270735	21.40387839164749	14	-0.07975568703099342	-0.006667647426740013	-0.07222209133242752
Si	31.410560627194315	9.288638410272922	11.607100484570173	14	-0.007273656950698915	0.0055278764383183705	-0.035130040431311266
Si	42.68432514182163	2.0801498867601835	16.085998365293783	14	0.0029611419972145423	0.025369867525497136	-0.010722280516613534
Si	42.70776105406423	6.027020066393937	23.802876207569607	14	0.03809786730235819	-0.04127241104114503	0.060318387921205946
Si	35.402055866508285	-0.18605531194227024	19.15107377343518	14	0.06114139873418534	-0.005746163279998942	0.02731362314752909
Si	40.182653766523295	10.139378516194178	13.128357829153101	14	0.0539348476323423	-0.009114825470456955	0.09157325841399003
Si	40.0033730382844	3.9063549360975163	11.3210755685693	14	-0.1200099403653598	0.07200714692766315	-0.0761975343784405
Si	31.337821616633228	10.385894007786623	24.032176843537883	14	0.11631011980966671	0.023400143739731698	-0.013824319085372192
Si	26.963313392531497	7.963463545268426	12.503030607019417	14	-0.027728342435668973	-0.12660893928005185	0.04725331623687348
Si	41.66899481852657	5.168607323976619	12.238947569978764	14	0.09896929997792799	-0.023752642279124	0.02184565346317017
Si	30.658000551039322	-1.2821287454161436	12.128049479844798	14	-0.1486852208904393	-0.0004795111422076167	0.2128263282016414
Si	37.325074272543745	3.419255999814137	14.029416649460211	14	0.026842853763409977	0.018065100200424435	-0.037504199083936
Si	38.88156631024191	6.609781218977542	13.506655220367623	14	0.04728854037975951	0.0025770188623844194	0.07027447905241535
Si	36.717322759974564	3.5142487585779962	21.749623818362014	14	0.02159908446296797	-0.0009711064794199294	0.00669901491164582
Si	34.580231427688275	-1.416910141365793	22.462191154423785	14	0.13987224318456776	0.022494343335443527	0.15715727003085925
Si	34.583740364872796	0.9299744874083565	15.561515940485753	14	0.028165430340094142	0.032880066165649674	-0.05347153445365161
Si	40.626270619408054	11.413650116085945	9.552314874321976	14	0.01295477126609811	0.0031254356271720046	0.03322022339950527
Si	37.4715270891518	-3.0004172398912283	20.059908098103698	14	0.27181956844084304	-0.07158857098154303	0.15608974710193374
Si	35.26710465693966	12.384113721858387	19.791986293580123	14	0.3223140200442952	0.1244672085483685	0.318490529322703
Si	39.11323943840613	0.35076472541401205	18.45440197180396	14	0.10496640313717338	0.010189547494278852	0.029945920774296687
Si	40.89943215377114	5.4509371609414	16.464596195988037	14	0.005790386291505489	0.018479819488564315	0.09077621576474411
Si	34.490292256912355	11.091293249739497	21.67992512470999	14	-0.10861583002859157	-0.182780905651455	0.05961210528976127
Si	38.06979353140695	4.8128020731607455	12.257886686964893	14	-0.023165658934534192	-0.03930782946601987	-0.09469072361466957
Si	35.72105074976357	-0.07972912693470748	25.102098979688726	14	-0.01641830724286959	0.018216538303781154	-0.16253679369220506
Si	35.5466995149449	3.5113390675296916	9.901899068519421	14	-0.02313120612324421	-0.0071057637732932465	-0.1207321638497894
Si	43.03447102722032	5.179080252362603	19.790898833289344	14	-0.39299576217942195	-0.06700866107476325	-0.08558669678655724
Si	34.785914908032154	8.23315043173544	17.03031557221297	14	-0.07936513613286293	0.04240164049775406	-0.17140350749926772
Si	29.320804841198903	2.941122896048288	21.775211791660546	14	0.014907525756750578	-0.006349344588105681	-0.07334077925722395
Si	37.94754078832691	-0.7888381433330056	16.739261560573055	14	-0.02442010122023444	-0.05117142363424714	0.11192972767573041
Si	38.77993285928195	12.984938798161066	9.722108899423583	14	0.035699026038660035	-0.01965044374082774	-0.03258078950638445
Si	27.74582271291095	-1.9401140655616884	22.19643447354222	14	-0.07423552390863548	-0.009999799921651925	-0.13912559419959672
Si	32.71150276220561	9.587992062540522	9.593393441882716	14	-0.05423798094958776	0.024239352516228028	0.025741135133726525
Si	34.30346951803815	-2.344221494038019	13.917086573327726	14	-0.0004784827000795575	0.15516054963923223	0.14186202159183034
Si	38.00600075948428	6.471205141772977	18.84381235812216	14	0.04326270366947165	0.043120778655799476	0.030219229269828434
Si	34.96828657070115	7.506695933852218	20.431383553740318	14	0.023041988768635068	-0.06459645006340034	-0.004231268025367694
Si	27.23128418175285	-3.4162842614819744	14.157607970734801	14	-0.020441315737305284	0.058188741384527294	-0.018269503073376204
Si	31.893508926752222	-1.9134484289119371	19.70581078041719	14	0.043052901475347564	-0.04691701566099812	-0.02015797993102497
Si	39.42452576305365	-1.2297134859651813	10.219306847566537	14	0.03131014925716726	-0.00794548677085361	-0.0020897944042163586
Si	28.606018498327565	8.198714189194064	21.74574749594413	14	-0.23949357547168526	0.2929172873663821	0.2820571956046087
Si	30.04221391521049	12.050508336077725	17.801262871092405	14	0.07539612085015034	-0.14293340117873604	-0.10846567747789491
Si	29.36679983959379	6.630527871311858	20.20742878112342	14	-0.6801388612178156	-0.921787022947785	-0.6745137969983956
Si	33.46189608189533	2.5096542482136885	16.861117527601056	14	-0.0325314242842376	0.030482510454611596	0.025335414714207156
Si	36.74537303074831	-1.3948849884193415	23.44164508506265	14	-0.0038126920792475863	-0.08520103098853503	-0.024139593629806284
Si	26.845681539275642	2.5665842639769747	8.59558657780786	14	0.0013300327821126013	0.011931985569743205	0.01031630298656215
Si	27.601461542898225	0.5056331131011692	13.237809237879214	14	0.007487315802803222	0.026249442655519796	0.10126761102360836
Si	40.68020113884376	-0.41800438723733946	22.800564384121987	14	-0.002022431444828479	0.0021257898786984316	-0.04689927503428909
Si	36.634876615136164	4.697710892896563	15.85601031073329	14	-2.6482384797525215e-05	0.0628283009347345	0.041498411198786035
Si	32.15886556593523	5.6817612210107225	10.439293859663021	14	-0.026534835346056232	0.020591725398533947	0.014084000722707147
Si	33.03363429894225	-0.4732787202155638	14.614756029970456	14	-0.07803870289819853	-0.03524394039699383	0.021639450816494293
Si	28.662341103838344	6.302111597849665	12.545771388658256	14	0.04489509843723367	0.034689610089969895	-0.06795791315896194
Si	34.577687489050085	7.4530397287240895	13.303902657774419	14	0.06573750660448205	0.03125049961373983	-0.02430388725976375
Si	42.30499254066063	0.8141730290263216	9.620047648769653	14	-0.026845939089794154	-0.0316893872918891	-0.020420232673680073
Si	40.68794725238651	4.221821288289171	19.94740494270571	14	0.1433445209194277	0.018066385753084505	0.0992282102836669
Si	27.719753056750893	1.9363193843067732	18.19475368273592	14	-0.008917878802933613	0.054570424867482904	0.05605035308976014
Si	34.3735780503283	1.9429045605120543	19.044866784525553	14	-0.04056818529395647	0.05424620848661223	-0.008034961235994762
Si	38.79687013495202	12.488459292252262	21.908363629997282	14	0.0561313429073448	0.0004985373215767125	-0.015347698987559926
Si	29.385340547704615	7.5569574994239925	9.066110725184764	14	0.03538303719481384	0.01735161847408334	0.05826278921774755
Si	28.630321439720923	-0.3987909559436267	23.735117307949782	14	0.006038497954899779	-0.010494737695780429	0.06757558979785591
Si	34.51721914528361	11.194456656093543	9.421796779902698	14	0.19355075161649124	-0.3894041851577072	-0.1743114276163552
Si	40.38140427930764	-1.1872927376851898	14.268768945413536	14	0.07616770955672676	-0.029056832554589487	0.10520731570567125
Si	39.95378909436529	13.060105816908926	14.935863786523441	14	0.04145058863983129	-0.022741940777773785	-0.03212904630163442
Si	37.629432528101496	5.618162755055924	22.515413028564907	14	-0.018692964119604593	-0.0455502160728074	-0.01009210260264524
Si	30.366420770309873	8.369840598075363	23.416594310616475	14	-0.0812399861323149	-0.050422460654488	0.14231607879136848
Si	36.713560735184835	11.899315433547546	16.498782616570725	14	-0.0724666034483736	-0.25892547526030046	0.08385042936386125
Si	24.90944216330858	-2.9662063269596515	19.143871390037834	14	0.11396758575247978	-0.03995291979084503	-0.04046045598104226
Si	27.548754008083826	-1.1751380013419928	14.91295201054712	14	0.03302559072677006	-0.0571158191344295	-0.030033852576245756
Si	39.32694334660034	6.057005232730108	20.75293217257335	14	-0.024685182178741705	0.04356198032873689	0.05491958096995902
Si	41.42241727965027	7.2452760315476965	11.186127624647192	14	-0.1025547063468745	0.08174880787517219	0.0016737895634163994
Si	29.43683162919074	5.899828032954118	14.729012837549071	14	-0.041301721641794714	-0.05561455073799504	0.1157179942544366
Si	41.95755061057956	-2.3467686983227303	22.991970457885404	14	0.08795262790215749	0.002335592072822515	0.09022934166314862
Si	29.92678800617812	10.554176038549999	15.89705622182884	14	0.038966900900568244	-0.01410868333378057	0.07874781374549537
Si	38.53245726761296	11.737726345324573	13.48044840705377	14	-0.020172892341881826	0.006339574387889118	-0.020488624075196013
Si	31.49075184311144	6.896988299018241	15.168681523792527	14	0.0715392057593962	0.09095233647917426	-0.0786598819435463
Si	35.561339408288944	7.305909290463371	11.113555162058566	14	-0.0010932339821269632	0.01629643685069457	-0.019311572059632222
Si	38.51722302660248	2.1345555577643913	22.332427424350364	14	-0.04817685726787068	-2.5196832137451174e-05	-0.10891536379838881
Si	31.9143094622541	9.295963255414726	15.422177334819034	14	0.03617879429139966	-0.0318212849948127	-0.05333475165061974
Si	38.46369418168858	-3.1096416861842795	16.619466216498456	14	0.03344390956235815	0.12388536741441898	-0.11959444974562387
Si	35.93781130309942	8.441562359745827	14.976434546050498	14	-0.015454656968878088	-0.0013976528520324957	-0.00018691935677476535
Si	38.88264723923965	10.399518285063307	18.986927683987943	14	-0.12987347170504387	-0.7665920204972627	0.19999779820676256
Si	42.42579207103979	12.579254062416126	8.596176027004514	14	-0.000852578524161103	-0.015574213366264975	-0.05466169910634816
Si	31.169616328563045	-2.3401329045964063	10.110951063247503	14	-0.914357299904153	0.3700537894077407	-0.26306624037839893
Si	36.35272475590666	8.236698556678183	18.7428712242242	14	0.0107060825530966	-0.1223244493745571	0.10208830784179963
Si	31.863757254142147	4.140206250489821	24.98816220546896	14	-0.014713407305079397	0.08455208400572965	0.007421752617139445
Si	31.109128390917462	12.839330151178137	21.178754517576838	14	0.034323227581848796	0.05018591896503438	-0.06732876368712169
Si	27.70731747480707	-0.7813385861024437	9.541858274168586	14	0.02214570145403145	-0.033003479221016783	-0.06343868133773767
Si	29.56421796859843	12.491259584142185	10.296705935710039	14	-0.0609755624410358	-0.3550025388635938	0.07481607948992493
Si	31.03275145013436	1.3516837506213426	21.54478940611304	14	0.06785712583041212	0.012766309246131258	0.001335946324348942
Si	38.759640131813754	2.2400147136211963	24.630895577835894	14	0.08152229349646715	-0.044276233386674024	-0.017425666307303606
Si	31.42849229222937	-1.8707843899662906	15.67395868142314	14	0.05379729349771438	0.04623592986169089	-0.04696818065686906
Si	26.471547847372666	12.259276219558666	17.87274297492047	14	0.014424929288158781	-0.027960513246078345	-0.04562632079028378
Si	41.26598301445732	-0.6573076984928814	18.219969372331295	14	0.02308878288546176	0.02882723284950026	-0.04329792781235768
Si	41.73116946259915	11.120470168562251	11.63037474731009	14	-0.0025880746152610566	0.009904669024806445	-0.0334377389095898
Si	31.120118924276685	5.819440878245859	21.52659975500299	14	0.1400367939250572	-0.23369753274847546	0.0921404442476147
Si	28.097296083619554	10.158476017036472	20.584480328190992	14	0.04927574768170197	0.012113762715877675	-0.05674095197875191
Si	42.50901054127989	7.983145596837595	14.629600026221935	14	-0.005461799031590564	0.032134188512274724	0.000928940352169501
Si	36.61963584283264	10.612822151558944	18.538405830031856	14	-0.47228325093161644	0.4135494352192178	-0.10023196980065271
Si	40.072150819618116	9.143286116541724	17.2917191462849	14	0.1742659190521886	0.14598453186215576	-0.4691382749040113
Si	35.883928135538234	3.680303618415508	19.54366326663949	14	0.01704462849885766	0.008148861201677323	-0.012758853040702827
Si	27.518685567761423	8.993497442014652	9.183239668876716	14	0.016424735006169956	-0.05802521908616588	-0.048220051837249166
Si	27.4628838328704	9.877021373338744	11.34457516091902	14	-0.050503193361540646	0.10835949082817281	-0.005896572941227605
Si	39.23649473496747	12.670502757446112	18.74738924618304	14	0.15422081064471813	0.503320091693252	0.10522685610610437
Si	33.25418136941673	0.8178664752391521	10.96303498271127	14	-0.08559672409730582	0.06824279162843434	-0.057410467804118466
Si	36.98582911522501	1.6684237049553525	9.591140145784703	14	-0.1071595559752597	0.021430934175030284	0.09895233068281502
Si	41.218732374975936	9.84624265489849	15.268892785693525	14	0.037137045244218854	-0.03087280424221007	-0.13520851524435115
Si	41.541445196792935	3.9784963333456527	7.552721955889032	14	-0.03381312028633141	-0.04725100224208535	-0.0860718643604692
Si	36.75617089096292	5.412108623832155	10.408415539003942	14	0.024190244404613204	0.022306395536540704	0.06390276584802437
Si	33.79611540922154	-4.263502367632641	17.662374924645285	14	-0.4429628800817118	-0.7418698144019109	0.49391833086906656
Si	29.494396813201945	11.728989108063363	24.444348786092537	14	-0.05327664467038439	-0.012820302457854366	-0.018840031343917065
Si	31.692492055283797	1.822580181701398	9.414073525885595	14	0.06451057514570739	-0.08042006064571967	-0.07810580874705439
Si	42.607556323456265	10.96011059625363	21.842771486842718	14	0.03219023860825395	-0.06022659946127666	0.07595173670983434
Si	39.347621420357754	8.28855375775116	11.992481063084103	14	0.04397335717996058	-0.05227597047978276	-0.06524256883035355
Si	40.81918378903993	9.447020633614374	5.9850303834544345	14	0.11521688582753975	0.02593731046965382	0.01781904542128626
Si	34.316621909392865	5.438263186801705	19.593844823871553	14	-0.012021974255948387	-0.0303940644315985	0.056836854207193435
Si	42.45362844196654	-3.1894557199284774	12.041782528579333	14	0.0462881232996899	-0.09619816266387239	0.11181942725749608
Si	40.02485119543894	1.852266541381095	12.308806280310217	14	0.020851149925336893	0.03029739087156093	0.09419732850373315
Si	27.832406431888746	7.0349324736214065	16.128621583657942	14	0.015862948493717603	-0.07153072111183971	0.0010536389601966828
Si	37.53498513230629	6.830795276904208	15.369446940479001	14	-0.004313286285080418	-0.040691084128259544	-0.04071679518146103
Si	33.45330743155073	13.323795343544056	10.14625433493964	14	1.2397329921636806	-2.2648450246122565	-0.636565310915138
Si	36.0070772985877	7.305976236217008	22.463634570185125	14	0.01834200824340438	0.010797099681429844	0.03392933424680211
Si	31.788312655440187	0.6912524612331716	23.714060419196173	14	-0.023045331205551262	0.06759487308775702	-0.0064233924213259455
Si	31.015239420676977	-3.1032981678213942	13.669700786938005	14	0.0074286946015038454	0.027567905463691735	0.038686907531204115
Si	34.163218164169415	4.174072637713659	8.007446905407692	14	0.035247282833910015	-0.08314080429550037	0.04115516863854627
Si	31.42139930799041	6.238715601979036	17.387769974520868	14	-0.09398546942535296	-0.09641002174225259	0.12179737278392674
Si	40.291675742732174	0.2977730793524709	8.6356348338919	14	-0.018671623945447365	-0.05915984786394723	0.008829432779920519
Si	27.481654769060807	4.235863568320268	12.254622673269292	14	0.006300493587022868	-0.010390865040846447	0.09958970769167971
Si	33.18984160170215	9.922600001802474	17.374713919738465	14	-0.04553067567237427	-0.13237155763409972	-0.048440395563185856
Si	29.549093126746328	10.792947049422965	11.900984178918682	14	0.05729708205949994	-0.04429037446593484	0.039284946628670554
Si	30.684520866418985	4.223834559368048	18.36281691518253	14	0.005973191879768016	0.012278827677431181	-0.02578664369789314
Si	26.745318424811515	6.696253905973695	21.6903686622773	14	-0.09061834989808702	0.005231942215969326	0.14514043798555115
Si	27.745850470906362	1.6731752206402937	22.996904849775405	14	-0.03701028975193555	0.02599438900776111	-0.04481847949869325
Si	32.26894071314644	4.4257609133919775	20.100204543323166	14	0.015149723877908526	0.0885411539099394	-0.12182848315830054
Si	28.913505243250388	0.0579162410119821	11.364717668647346	14	0.0062629554493487056	0.023741329415715346	-0.0433817458457945
Si	39.30445120620169	2.2818949974023166	14.521325883065872	14	-0.04652003699956725	-0.01900226808961841	0.03870490526844515
Si	34.622245602976676	2.7567624546493055	22.60265804096277	14	-0.03626826875654082	0.0323733013070485	-0.006013301122762328
Si	41.994463846005495	7.670971016336952	8.955715544614701	14	0.032792905695296665	-0.02115531168471041	-0.0618800772926639
Si	28.61895209136551	3.778359553614058	19.571060408109467	14	-0.009785883959015603	-0.4747587111338551	-0.08233861943561417
Si	42.915856214362286	0.426003588385287	19.493759289361535	14	-0.011554290198213451	0.013426569092345282	0.04798351014779554
Si	33.0225686557131	2.420090626787434	20.886805718790757	14	-0.004435928008851481	-0.047456176446633164	0.07164899195656652
Si	32.3691013575264	7.465130784960168	22.57392688288984	14	0.14596807678810683	0.05178283247937836	0.12600267264556095
Si	37.51909449634551	4.254286713156417	18.020364892982276	14	-0.013427340423941328	-0.07961993267008959	-0.009634702966190897
Si	29.862154330276844	2.1386033266245184	10.818897509485087	14	-0.03400106808523424	0.11102109905559009	0.09796965422945443
Si	34.39079127312921	2.7001965584728724	11.764899790008007	14	-0.006435219505798628	0.027277113451982984	0.14692169975134975
Si	34.180968585822676	-1.8603522821617924	20.219144288009826	14	-0.07949780516738256	-0.12317548523552611	-0.13007736035693163
Si	29.31995087463422	11.82823210577152	14.002545277079772	14	-0.025836008920039986	0.00037023916610132336	-0.054244151602356114
Si	38.69851539309699	10.199146378782354	21.412943826383845	14	-0.19160005401009492	0.3016647018865899	0.4583895120026003
Si	31.04567198058623	2.5560574524234294	16.750696221858842	14	-0.026084634804498307	0.010358726224344595	0.03917747442628837
Si	30.974738872550073	2.754948388008079	12.835618743909452	14	-0.02288643689676611	0.022702088645311494	-0.03160042704781198
Si	34.98761266679976	-2.945312720531985	16.12940697164573	14	0.3228076722657637	0.4928099273655506	-0.17129449263369348
Si	41.782379698484654	8.3723143253134	18.673907301038913	14	-0.005253796611190585	-0.009122795896949414	0.10775965195698226
Si	42.69131525819525	6.350147625318836	17.76199183887985	14	-0.06421875469187059	0.07669530036842115	-0.07520354506167123
Si	24.10775859939364	9.226772369796379	8.396614001060238	14	-0.05434211071505375	0.04457293894061912	0.012683005433758457
Si	38.54147208482828	0.0833001114030809	14.722728100823524	14	0.043034389517042505	0.12835883356094466	-0.08942767102432646
Si	30.189888083616594	11.113351059151137	19.921952493737713	14	-0.08730265247722406	0.009979488189622753	0.09123721494864667
Si	34.274971853691326	6.513976947053745	7.533575470348955	14	-0.009179103103460658	0.014037977937476498	0.022673035155193817
Si	35.9687141161074	-1.9158225539311484	12.324584251466089	14	0.06199834813739071	-0.16686319261441823	-0.019809595160144904
Si	41.06398318338671	6.14941486509755	14.266907526897786	14	-0.04782255895475427	0.11005179234989426	-0.06500988379888015
Si	42.01558278204296	12.053148611288224	15.571936618527435	14	0.023405285950371994	-0.03553550374029862	0.035238283965289496
Si	28.227237791428255	-1.3151558614846341	19.96621996512412	14	0.04411759618842089	-0.021271782755713117	-0.026936956218127396
Si	30.424810530067084	7.138889432079535	11.124566922120161	14	0.00019771799911938727	-0.02228274136759534	-0.026901217854177338
Si	41.06720800932409	7.710576777317686	20.89885758726861	14	-0.013791408937274296	0.026337631568000876	-0.16525933711570986
Si	30.91948413345096	-1.4084047650074218	24.222320744921763	14	0.056318519374651585	-0.032178154413249255	0.012172641027709064
Si	40.99432857596269	-1.3921075560550513	12.013552647247046	14	-0.04874378599096332	-0.02270080309265142	-0.10535746825636791
Si	38.22301766607186	5.8999733542242065	8.547728528073966	14	-0.023983270426341283	-0.021909416875109843	-0.010616865198487462
Si	41.96356919711382	-0.28325401492961927	15.904123080895651	14	-0.0388637995772303	0.006346516372253519	0.041756035951864875
Si	31.844661386123114	-3.055431953971204	17.66322725838671	14	-0.12278776255324776	0.17696840785419624	-0.07249797093327941
Si	36.98651490099397	0.0075256824027128705	13.029296074826743	14	-0.08902426459959523	0.11370559012035669	0.029916610173647006
Si	28.253335205583728	3.6846763191042617	10.075363680308225	14	0.05098887515651663	-0.009071116680014438	-0.008043188773019235
Si	40.708909437391064	2.9531617019400653	21.877983320432325	14	0.03192798586559884	-0.0063249190875642744	0.08165393408885874
Si	38.33037252973286	8.32012766111876	8.613323936875048	14	-0.01665484893232321	-0.031649278048894794	0.09016583536174096
Si	29.750978660188775	13.476617803687148	22.945088836460652	14	-0.006489984049117782	0.053622458335944305	0.0661897640302961
Si	31.927265914817674	0.5452715305470919	12.857670022028055	14	0.03950837568099143	0.06725985806454174	0.037346590327810916
Si	37.11984961553577	9.267839507594303	23.059427285202236	14	-0.046223074335090146	0.0010436116494481054	-0.06909614148419149
Si	33.18861698425758	13.733129439273823	7.632436387414404	14	-0.05905983186699347	-0.003179943059959144	0.1697222617304229
Si	37.351197811871366	8.842761729997113	10.723026291807654	14	-0.02319779775103604	-0.06432905511010494	-0.017704117013475643
Si	28.59996562250486	5.426722392004053	8.473025231131784	14	-0.019109740292000597	-0.021588285820623346	-0.056698528740969464
Si	39.70469537484621	4.271509732896885	25.334226032719073	14	-0.019475608579057672	-0.008762326931064652	0.0479305453782005
Si	34.610224758140745	-1.1457733078444037	10.540711777952739	14	0.3809925569923107	0.4830086167746141	0.2400911003480877
Si	41.983750892600376	0.7002754425647818	11.907061547090281	14	0.04094639488655025	0.0031845710495354103	0.07841871226451642
Si	29.297166458872137	-1.1304231363825024	16.429988507004417	14	-0.02404574828562088	0.017600501469073677	0.018708904972589514
Si	35.903244434697285	11.094214370550617	7.370722576923185	14	0.15090254211853502	0.054944777802096466	0.14041217530179884
Si	38.36581622422531	-0.20457316052746585	22.132140424878905	14	0.0474808590577066	0.0075824466996487	0.0986083167909792
Si	29.74531602912507	0.8068743090566693	17.71026236519785	14	0.04301304934288527	0.01658800019399936	0.024531430080596852
Si	31.859722547868095	9.530198283272997	19.359833492799822	14	0.194310256128063	0.16043722908777214	-0.1184371952410252
Si	33.053517187772336	9.26567275112904	13.329733921738601	14	-0.10780901717912911	-0.006085034961194459	0.04089908654865952
Si	36.55076499057314	10.718797279565731	14.507753856133489	14	0.01016692176746155	-0.024551227591561992	-0.03968861016393381
Si	27.386934691781274	-2.963053345245692	10.201300072661542	14	-0.0022196352228838366	0.15483401926357346	-6.941984364399813e-06
Si	36.06739378979104	10.837098590357954	11.15037695938197	14	-0.007018603302940225	-0.015697626421632083	0.0077865924620684574
Si	30.16870056900223	4.588942004292893	23.304688768531438	14	-0.08504110823762182	-0.03412628091432545	0.13357303515020494
Si	28.749457123198713	8.939370983787807	17.121064623325573	14	-0.07350404444505336	0.08402706429935543	-0.05825841833870331
Si	39.42458454469099	2.807255881123919	18.34265154792857	14	0.040089702593876904	0.09496737454711751	-0.07084552154402024
Si	33.27525785204945	5.647870341437993	14.134490459027791	14	-0.02126998298198901	0.025400206568274887	0.03295308555674188
Si	30.365184723102484	7.9232634366212595	18.550844677622194	14	-0.02527319396545957	0.06252851005440524	-0.2933983411717819
Si	34.5789104736714	-5.5083455939196995	12.970457288673183	14	0.06600078778926523	-0.020373181446321366	-0.13510978480005745
Si	37.57612574715088	-3.6587078979862873	7.530143275857633	14	-0.059324141493904685	0.046784860847542506	0.003435510928781863
Si	40.59321084687438	3.1303066973556257	16.34023547808007	14	0.00040777730377548535	-0.02608643457822241	-0.06353046979766694
Si	28.32979705317631	-2.7488628557201835	17.963825121977997	14	0.010221943421312716	0.1194977761855863	0.07658525706071881
Si	32.71989710658234	4.277595265184781	12.297577354755116	14	0.001109431945643896	0.008776468010325467	-0.040066562645995576
Si	39.20056609196697	7.019151236819014	16.965598622325462	14	-0.007659579859253143	-0.005040909090682323	-0.08148192714294084
Si	34.29143724343941	4.562495165959906	15.9730804727879	14	0.09246646040220947	-0.047268228647730344	-0.010848007566768776
Si	42.140854615329694	1.096372240130349	21.66277884766271	14	-0.0039882985726137	-0.027202294287166674	-0.04311229400824299
Si	33.36591056658974	9.018606998098168	21.08089615399268	14	-0.015489624001232102	0.009599478823304869	-0.04234764728603096
Si	29.867968813903673	3.475384299357043	14.818829546580536	14	-0.014640130803455177	-0.006465044327512345	-0.002209865022667274
Si	35.63063806024242	-0.7578291968131705	16.885980527372396	14	-0.051563002974505695	0.008464078713927474	-0.05364894072074183
Si	33.73433590837775	6.190777543905431	17.49713157796771	14	0.10584263583027985	0.07310937977841063	-0.042443549514472476
Si	35.65044094073278	1.8274525263075372	13.598656646920205	14	0.0038468877800055556	-0.018889396566063907	-0.0010821782292503265
Si	30.333901462275062	-0.16634876802420956	19.840396237575703	14	-0.045953622497538635	0.03935668046710269	-0.029939493010996323
Si	37.407993936127376	12.69777743717163	11.632477823668236	14	0.003919392950033731	-0.0060747505399138665	0.017079081310147647
Si	33.718301583970145	7.394938978683792	9.639990952060328	14	0.05046822632918664	-0.02318957021401157	0.028515100663634288
H	30.377554992115922	7.655437968669994	20.675604928653264	1	0.8963613624368406	0.9929665310728923	0.43309677763670756
H	33.69177310447419	11.642888704770362	19.54684563917212	1	-0.13058798187351303	0.11286715267545641	-0.4869722327361544
H	32.8107000408625	14.609922873122542	10.583828108941248	1	-0.6639056735579967	1.8076271653040477	0.33889867780137833
H	38.629414312757916	8.77427622402684	19.158352899525717	1	-0.07006107731084306	0.03998505860734688	0.047371587081600296
