221
config_type=amorph dft_energy=-23186.194342903276 dft_virial="-34.14860779754625 -0.7531300457767602 6.556661574997676 -0.7531300457767601 -23.47993672127546 -11.075441849658237 6.556661574997676 -11.075441849658237 -13.93491956357" pbc="T T T" Lattice="16.278371924851847 -0.0037928758299938 0.043707603448641 -0.004232393630036 16.516248725296908 0.060620899531746396 0.0439192231301428 0.06023021704282 16.315389090677623" Properties=species:S:1:pos:R:3:Z:I:1:dft_force:R:3
Si	33.65628227438185	0.0732366882366614	23.825320674470536	14	-0.0036671675181272055	-0.012270085919342678	-0.025078304182192347
Si	32.04457375731452	11.381767600486146	23.048075769032202	14	-0.043778210286161336	-0.09223557514446018	0.1195707955766785
Si	37.06403632954164	-1.2086023249930802	20.421862498845236	14	-0.23228548170665012	-0.2145793078089184	-0.24459799086377523
Si	37.65583890807994	0.0240025554134157	11.630150504195921	14	0.08377098220946866	-0.07687244952497935	-0.13505090648822604
Si	26.503525644715086	9.38549728681892	18.802503116369753	14	-0.006777947844974366	0.0014228496841699472	-0.00042783192527264034
Si	26.813037335192213	10.327978095261262	24.358887144503246	14	-0.010315274544434093	0.016164024926706943	0.08806061432560372
Si	32.456709598414086	12.18395432715502	12.93083994751636	14	-0.10760461430617733	-0.014109454665376612	-0.002704802796795779
Si	27.151588129502496	2.0384949515016504	14.523969884391548	14	0.017908005665363384	0.001649106952342978	-0.01829649967923776
Si	40.63220461465461	12.165634574111778	21.844742774108518	14	-0.035340613957031385	0.03438441988846832	-0.065597638475066
Si	30.723329531545435	8.757833311484582	11.876280472219552	14	-0.018222451846017496	-0.013752328136408044	-0.033981784795333134
Si	42.0990741103273	1.3843768881358829	16.529291009052233	14	-0.0313715986743188	0.032937658924821	-0.019915781809867018
Si	42.15398941767702	5.393070608543738	24.255790919206678	14	0.06601724286331416	-0.060558786268639794	0.06964738646483123
Si	34.869800687360595	-0.7555197033666147	19.490268709094305	14	0.06940775944899344	0.09337560324341383	0.23598633070447128
Si	39.4867235571224	9.589837251277059	13.563563261082296	14	0.06958902237406388	-0.00642364953185796	0.0694992907983907
Si	39.36668473455607	3.3583343481543	11.754910073503455	14	-0.11830684020129373	0.12900366677523775	-0.04266723567732535
Si	30.82167570891414	9.859627927536295	24.374524211122523	14	0.05713793064018277	0.02901646620106316	-0.03891367902044118
Si	26.326152539055094	7.415892680864625	12.8808830520886	14	0.0030063934508491484	-0.07820582474400814	0.005169207246157713
Si	40.95961933018678	4.576088410450481	12.864402762430721	14	0.07101135783716979	0.0022844270769515683	0.03187116443802357
Si	30.04460823843953	-1.8637573247982064	12.469124870728326	14	-0.17541108936178254	0.027740940851737696	0.29373978395829753
Si	36.724538130195704	2.829923259131713	14.377916491593819	14	0.01936916481880354	0.005799642270658021	-0.00140536616799294
Si	38.19069951385722	6.075435015858884	13.99057433794774	14	-0.013334523521883981	-0.005966249895403617	0.07058661123828133
Si	36.220844219972534	2.927118551001786	22.096386248757124	14	0.010296762586129026	-0.018194169687495865	-0.015839551435304255
Si	34.072212619155124	-1.9940043552314528	22.806663292062357	14	0.13796422592648586	0.2407439039888733	0.22964855609030624
Si	33.97127328676617	0.3763818819879899	15.89124627441838	14	0.05560966563788676	0.1265161223779945	-0.08620093384754061
Si	39.93568285064699	10.82052615964411	9.951407383403627	14	0.0020178034552522125	-0.0019509547169283626	0.033723902931722276
Si	37.06094342650431	-3.5440680590773184	20.734410117830063	14	-0.07283015774064255	-0.19231790661548026	0.16271394284876325
Si	34.89406695345403	12.067636755295704	20.589322036348722	14	-0.09006324825946706	0.014310772211944208	0.037149900770819595
Si	38.56892248707428	-0.39244544365768036	18.843860113510022	14	0.5098175319477982	0.6590547691504733	0.7453991706748782
Si	40.12282139068644	4.761673987596448	17.187581235830994	14	0.000828410134151711	0.01788537993854608	-0.005409348483059543
Si	33.98303771321397	10.534051713264013	22.160036565421755	14	0.02309881019621034	0.03463330288345866	0.03347836237364814
Si	37.425241824678544	4.28888306224735	12.657275929551577	14	0.019761772601190147	-0.022764566504591095	-0.061047039168935904
Si	35.19352019768501	-0.6701083720687844	25.44486237544085	14	-0.018000565456888714	0.08797319674471868	-0.1722380882861878
Si	34.92734821797946	2.9372518780583143	10.240261737278768	14	0.0020995646044329216	0.013649226813070108	-0.09914567780289014
Si	42.56679104685146	4.565002794827194	20.251254711618483	14	-0.5708828259645072	-0.16336314694210066	-0.11545317040646136
Si	34.08518490563119	7.850066270027051	17.282290810365275	14	0.05040214892245884	-0.08843265326542915	0.010366696650837054
Si	28.829024091800594	2.3574058115248633	22.09128133090182	14	0.01147227193850073	-0.012146158642911539	-0.04394276102665082
Si	37.31115277084981	-1.3815346730289433	17.12078592513051	14	-0.7829583914126653	0.37691092729657566	1.2950168987575046
Si	38.101540886353106	12.419898877123599	10.138148729579333	14	0.008997583067858203	0.010071790870616071	-0.0366968720134095
Si	27.307796011324903	-2.5198597296389798	22.554370307775912	14	-0.07869304920217622	-0.01046002777395843	-0.13603872515222695
Si	32.06550457165875	9.038447520530784	9.908751366987678	14	-0.05865513988960215	0.02107894985670201	0.016381797547323485
Si	33.667371145692556	-2.8282042561804372	14.121942952692946	14	-0.04483467746221018	0.20221074855581403	0.12654826119449636
Si	38.28646881464271	5.331069297551118	18.77252149103206	14	0.08902503593119128	-0.18761998297450572	0.03586923321085384
Si	34.648304878107474	7.095165147267904	20.637218081647394	14	0.00970283725717482	0.020159522594217057	-0.007346162120727091
Si	26.65575996005637	-4.005770113115722	14.460412354818036	14	-0.03465567149974394	0.07810478030492633	-0.017811846326389845
Si	31.371409922613587	-2.5647882158655153	20.03755790155056	14	-0.004261864178677455	0.033962244394900004	-0.017459862008061575
Si	38.795975754732375	-1.8460724307994718	10.631945350083042	14	0.02350838727370993	-0.01113211470464514	0.01064026225690081
Si	28.1082637350425	7.650780760269399	22.06851268101593	14	-0.18273488286622433	0.389852328815009	0.26111322877721443
Si	29.41654055786663	11.482934830993637	18.086556293443977	14	-0.0009695638162278406	-0.07278002118689965	-0.056485898330993226
Si	28.788767517004132	6.063711285503684	20.499655521609	14	-0.2615958252458062	-0.6092933396737953	-0.4006663977915518
Si	32.88430181548181	1.9603112462489587	17.218207487275418	14	0.020297848060441024	0.02810938024411492	0.05019748893897505
Si	36.227998593051	-2.0222181423067545	23.828042429143387	14	-0.059374278047647576	-0.15153272003250332	-0.05628612344761772
Si	26.243742951547183	2.012705023701397	8.89723207922093	14	0.010964735748303497	0.0035272993887111494	0.018116522306827396
Si	26.999303351006393	-0.0852583139896675	13.545166999384973	14	-0.003916564734181569	0.02541743297391988	0.12255919129028661
Si	40.15037752890538	-1.1012867288161095	23.230810991852714	14	-0.026941327097171643	-0.009731890747292493	0.0011050610665996443
Si	36.04045634777299	4.0662347396518985	16.22193458363902	14	0.003968758172180575	0.036929814155414915	0.010769331743972245
Si	31.542636290447803	5.136193616387223	10.751617907816014	14	-0.055414261633555506	0.0007893293332854603	-0.016870564668683634
Si	32.39896509870706	-1.0074057267270957	14.935459471540684	14	-0.005473111894999216	-0.1314593294665112	0.03420444251605795
Si	28.02829591309038	5.745156923251617	12.86971116074901	14	0.03633691726858877	0.0399228378585993	-0.014967946731774056
Si	33.8305152695371	6.900029011111391	13.556558649624586	14	0.03486984457291228	-0.02584115113068028	-0.03273351316240124
Si	41.670202408108345	0.180202298017302	10.03068825531272	14	-0.023069499595560653	-0.0027896492723606657	-0.033106837654886735
Si	40.265042839405275	3.4333698036837266	20.34934857321309	14	0.2140573734289283	0.09878700861072949	0.13171412600373789
Si	27.15932852631435	1.3110213673088398	18.547564886064535	14	0.018803778758902975	0.05108760560081032	0.007361845863179994
Si	33.87599396693554	1.4157617147463037	19.38991540043875	14	-0.014124881297297501	0.14607297788516885	-0.07722134851692346
Si	38.32129327499939	11.907240431623267	22.453448881667704	14	0.03967498330573702	-0.11371870275748946	0.05274416875858172
Si	28.77834931729943	7.012449525143666	9.349766117519192	14	0.010408091446491439	0.02752265401005713	0.039160762241707406
Si	28.19094680029266	-0.9691823287167591	24.076356963417602	14	-0.0313489729475015	-0.012879694990749787	0.013835374838248825
Si	33.84764669667653	10.651189718350075	9.838275501672763	14	0.24013198092267807	-0.34779213110377055	-0.1352460533820253
Si	39.76882398747023	-1.8174549384856127	14.688725573502921	14	-0.016706528149258187	-0.0033964301279156128	0.04669410082974127
Si	39.28941424962123	12.498821623417843	15.362657750432072	14	-0.02925763588009305	-0.02115094080566616	-0.0065036109073145654
Si	37.12214709408203	5.035972163071674	22.810200596430846	14	-0.01957022525483912	-0.04117676592323551	0.0028081612306657317
Si	29.885587442696853	7.846701517091174	23.713030387934566	14	-0.05938096292147996	-0.11942424257343005	0.20367525014617038
Si	36.01549662026171	11.546866764619034	16.77932454627772	14	-0.2434188819639554	-0.1844945473473337	0.04472771948089203
Si	24.27312745465279	-3.759089933920186	19.447586647179097	14	0.040003313455119933	-0.03843596765195766	0.02992020972109521
Si	26.982596791073675	-1.772210650580528	15.219982133319855	14	0.02143016284343424	-0.07971120690895485	-0.02351224393169015
Si	38.92712786626497	5.2864875420335045	21.0634543049098	14	-0.04268934718307863	0.1440649446301332	0.05177409072128985
Si	40.732105382760494	6.625999429847302	11.697938799555763	14	-0.11668910073385654	0.05315220317288922	-0.03474797418073725
Si	28.758367535834548	5.261532698053331	15.055265512457373	14	-0.03390953673583697	-0.012524882456569353	0.031498354166602106
Si	41.46573709968501	-3.012430583833681	23.426583614897435	14	0.06785018384604774	0.013619659101888405	0.05087291830657795
Si	29.228942965902696	9.98072647635385	16.170258685259984	14	0.06375287040785975	-0.02606458018300115	0.08453408626848861
Si	37.84042824487915	11.204487281917272	13.901339201789542	14	-0.021886791148292537	-0.009997485926863791	-0.013858514786130162
Si	30.811763768601335	6.214459379543343	15.472415112164832	14	0.012054370182982253	0.0562858663370857	-0.042622241334222766
Si	34.90076715813912	6.726984341859961	11.419567759133479	14	-0.02447203754770143	0.030825238793787336	-0.029963404290473696
Si	38.006053202528385	1.541507757338377	22.759122116691128	14	-0.06812812033115574	-0.011273782607785297	-0.07188296254070001
Si	31.085277323411297	8.583427764896724	15.582559900699112	14	0.003870541948950918	0.0011407994305497025	-0.05839622958386324
Si	37.88086876601414	-3.6659089046238313	17.06150962449815	14	0.13350232975390086	-0.457533848152055	0.049439269980063386
Si	35.173352842037886	7.8988918140806295	15.207394017957904	14	-0.06373333000742663	0.04049825122924844	0.049815165577869025
Si	38.02411901195382	9.698647207974172	19.46689775703799	14	-1.5914712557128143	2.170643068118947	1.3904799824103466
Si	41.73157211574386	11.979404370859083	8.986542096189504	14	0.021962638755236904	-0.030485338670463758	-0.02303350412107858
Si	30.57860934274117	-2.9066712062376006	10.452833707347326	14	-1.1742014310953426	0.32245954460541554	-0.4124986244748733
Si	35.766436533571124	8.405024234172187	18.963550577523737	14	-0.06619053536189215	0.05159231357515539	-0.10710864808992077
Si	31.364071603196585	3.5678573669655282	25.306450080989038	14	-0.0223758153801847	0.06501734000430857	0.012220206476131807
Si	30.54629827306325	12.250604759765862	21.498796685851598	14	0.08442481429238231	0.08776519432431872	-0.01361477400178012
Si	27.115126058379737	-1.3483934030620577	9.842773233826529	14	0.041777890347086136	-0.0433017844703379	-0.03331252608049858
Si	28.90042945587041	11.988588665036263	10.595579321738809	14	-0.08701725978668762	-0.3838266863867099	0.0759424807306818
Si	30.54903467832944	0.7790355335125764	21.850813003280216	14	0.045431431007016555	-0.009962004673445747	-0.004741375320885073
Si	38.25530211908862	1.6277232434259143	25.057414411954017	14	0.14418784346443628	-0.01692275810668264	-0.026647706869610738
Si	30.84227281529908	-2.4606908666910763	16.011823913250698	14	0.030013283733684573	0.06878812306683774	-0.026349201541941546
Si	25.86527742961825	11.670001745910117	18.172480395508522	14	0.02734010553232661	6.067808555549466e-05	-0.04603795475203949
Si	40.67625894881217	-1.4721062688680098	18.653039391012438	14	0.19596810483849447	-0.09729782440929972	0.0320262020888285
Si	41.03370738068056	10.547409798697888	12.043149102458537	14	0.00415619175001937	-0.011095347898567021	-0.04297962497372335
Si	30.578510044275234	5.297851518930152	21.812565187614318	14	0.1680605563620112	-0.3046597824740304	0.12959553521993586
Si	27.526962376237794	9.57393159044664	20.878754274738732	14	0.020250282612018285	0.021471814749620635	-0.13692549937714604
Si	41.79643192028046	7.3592713933132625	15.120937611002198	14	-0.014074230522490584	0.011819628267252734	0.044741089228556796
Si	34.99681807588538	10.717236220946786	18.70353184701877	14	-0.05735416059760723	-0.09262972559003886	0.016728382544479448
Si	39.37733571591042	8.607781934550173	17.78914436521764	14	0.7788819039275706	0.016338088756880968	-1.4189899408633406
Si	35.403904345815576	3.1625926541399507	19.88347110007428	14	0.021897075569573127	-0.03306749974348847	-0.011162453747422885
Si	26.89204147367165	8.432997100379318	9.527113177679926	14	0.013649226813070108	-0.042380300323596826	-0.037808875064373554
Si	26.803883970045405	9.330282456227692	11.691456725926992	14	-0.08908751379047088	0.07803098958223809	-0.0630314182550262
Si	38.36225796180703	11.99769319487195	19.171138090171073	14	0.4381284307482373	0.2620413977977879	-0.19626249639765148
Si	32.61420510460624	0.2427082405581183	11.290346270233664	14	-0.06861920144730402	0.1250122828762399	-0.07615639669331811
Si	36.3546399496802	1.0750312377165516	9.970116191092089	14	-0.15003299429926092	0.007330478378274188	0.09445186793042781
Si	40.516569109307206	9.258860813720835	15.707916888645963	14	0.17198354885949316	0.1002941905494003	-0.4079508533845953
Si	40.90415543950886	3.3562018729022434	7.954687784874134	14	0.0024968003763957995	-0.050223199992176525	-0.07933659686380927
Si	36.12850804155848	4.8377512630963455	10.762283539763704	14	-0.015362097177352757	0.003116950979615516	0.08800996355079681
Si	33.06029125399352	-5.03091445268378	17.47684743416321	14	0.002709173675840031	-0.169845417675258	0.16133094529705563
Si	28.95629054041207	11.175690726795988	24.766968026936503	14	-0.04878723767087383	-0.024230353647607512	-0.04586646202718561
Si	31.06097361691267	1.2725847217732975	9.726664025961306	14	0.05191858684028217	-0.07775228176553403	-0.06780698927666924
Si	42.03199555482234	10.28939819947978	22.29027871232389	14	-0.01983684887653847	-0.07052799003698196	0.08312100678453523
Si	38.667123786353336	7.726197131225529	12.452389009608941	14	0.049340539535769695	-0.03642613462319791	-0.061923014751510366
Si	40.11644024336731	8.79996679007159	6.373877369149761	14	0.05950231909259095	0.04925003662850048	0.06991143898121045
Si	33.89183614186151	4.985416221160894	19.89613572409031	14	-0.001477614227489101	-0.013326295984859508	-0.026321433604483944
Si	41.82370644153864	-3.815263564452987	12.458127158665048	14	0.017885122828014067	-0.09177277618683351	0.09611408751990354
Si	39.389536404470846	1.271590109270239	12.683843966642273	14	0.10023762623235705	-0.1113129195094269	0.0927603377403024
Si	27.19798655859362	6.443620704797939	16.461020871956052	14	0.009831649633714239	-0.023609174602259735	-0.013620944654548479
Si	36.719392516247815	6.291510105578149	15.753651157505908	14	0.09115313980467783	-0.10616479532689439	-0.030281964239640042
Si	32.76480832055626	12.790114487161366	10.47007582785861	14	1.094307418598125	-1.5940613872123317	-0.40091348101281804
Si	35.52317319830999	6.7645696251383844	22.75390976115137	14	0.0026009301418617966	0.029580566708303654	-0.018443309793018215
Si	31.294377102859524	0.10949853458384676	24.030552697278388	14	-0.037040114573649266	0.13854375306564723	0.028692506930724504
Si	30.430086511044685	-3.6894084563327545	14.01433434464928	14	-0.016276896450261442	0.010984533259268639	-0.006597970472564
Si	33.557983304480565	3.6314035016331108	8.330075054359066	14	-0.00029542000128501426	-0.07948520675131383	0.01861737362319224
Si	30.89634327176649	5.7016723343904046	17.72399968803287	14	0.008222394813833557	-0.18367667874499458	0.07352307062442245
Si	39.65504422394523	-0.321266349862698	9.041481821194777	14	-0.04352984151223504	-0.04297165454723089	0.011580772583010978
Si	26.8226041726398	3.685568373035349	12.61369692575554	14	0.0028567551212165306	-0.03260881455437405	0.06672378260529087
Si	32.291633224093054	9.297330016130456	17.463411212231552	14	0.012800504946889227	-0.00993706495184031	-0.0814240772732375
Si	28.884841224562244	10.277845392713488	12.187854640669467	14	0.07512872589685493	-0.036739552361723965	0.06047651089839505
Si	30.1962044390489	3.666848170440959	18.715299529153974	14	0.03358994834454256	0.055949565761210324	-0.04212216134945396
Si	26.262365483519343	6.15425683584349	22.044046190146915	14	-0.12710027750673217	-0.024396704161821093	0.10108377699321777
Si	27.273712219853483	1.0791154975695365	23.32235441038298	14	-0.011214390074889875	0.0499084967009904	-0.01600564483898582
Si	31.824443708928936	3.9323527342279325	20.430595880316446	14	0.04738829926618126	0.07991149601339438	-0.14654246171662788
Si	28.30887268173139	-0.5219762228612282	11.67639591597888	14	0.0324985141361397	0.054736518271164464	-0.06380274985107064
Si	38.697085877566586	1.6778152498810943	14.90989255832786	14	0.034076401471114584	0.2344290122120576	0.12753042342679294
Si	34.12901296951391	2.18333885642741	22.943861215111085	14	-0.0559472517664222	0.008232679235114148	0.011391025010384049
Si	41.31578013768542	7.032550139198929	9.435099312319238	14	-0.02452165988038029	0.03188813373313655	-0.00553430420161874
Si	28.12300711546836	3.165330687249843	19.887338856714653	14	0.04861857316187211	-0.45637530809479626	-0.06541508999733549
Si	42.3226275140221	-0.32535223755938664	19.927947045751147	14	0.0260740932726857	0.12704345607915687	0.12214652888640284
Si	32.52766242193423	1.9060470763807855	21.22693050886994	14	-0.01997466012169841	-0.08424252292518382	0.08898775490404912
Si	31.875245455238996	6.936186675461529	22.818437485572378	14	0.0959639349692069	0.09807121288960027	0.06915784801187505
Si	37.0470221071489	3.416887886182144	18.29119903683103	14	-0.059172189169483934	0.05507616128395603	0.05984993253187497
Si	29.21973588191366	1.5835924006142696	11.134389076341654	14	-0.016920701222426525	0.10917273144093563	0.09244460600698821
Si	33.76414319819962	2.1173721181721867	12.089654969234115	14	-0.02320139729848425	0.017450606028909042	0.13724123111046022
Si	33.64855815600704	-2.4210300826902316	20.55895786774062	14	-0.08850155888800912	-0.2127566512474654	-0.05295859894228207
Si	28.665033489230034	11.298786639838179	14.294512291582848	14	-0.02449877704303097	0.004967889699590118	-0.06321653783807687
Si	38.093481432175295	9.63312812673751	21.90901167138062	14	-0.06689938909865696	0.20780573084298826	0.15392976152247737
Si	30.4730225165777	1.9905175140177849	17.09531993822732	14	-0.021794231356767207	-0.03754533676905837	0.010781930160040969
Si	30.339041212687796	2.198622680962951	13.146355059001497	14	-0.03416973259423595	0.03059075398858983	-0.03680897220536796
Si	34.32781500969151	-3.457470029719374	16.266477270907743	14	0.10655508911449288	0.126315833273555	-0.19539114880465328
Si	41.10892352686112	7.7111591110892705	19.074058375203975	14	0.11357986307020147	0.031882734411964236	0.07034672711191152
Si	42.0569438874277	5.681986820479627	18.22914237915248	14	-0.08735458880469106	0.09311515027448283	-0.13783309955515832
Si	23.499963553380034	8.67744876154427	8.699885331314574	14	-0.010821268071439235	0.00719369557524231	0.009583280859787935
Si	37.92783531255791	-0.5221162174197603	15.101258608466233	14	0.1882990118895568	0.2657507314431655	-0.7792961089946464
Si	29.59946135486938	10.559574674696833	20.214616833375707	14	-0.05933673990997341	-0.03347219172087978	0.055514020519977246
Si	33.6460561602342	5.970150968624331	7.784692066880035	14	0.010985047480332667	-0.0006247785927959833	0.01762055609057083
Si	35.37169908597841	-2.467420372562833	12.607820409984605	14	0.10139179541057151	-0.13450223261290645	-0.06164070738735811
Si	40.26615628449871	5.566325269632965	14.93560923316144	14	-0.004943207088516697	0.046031012767675086	0.015151009430568602
Si	41.341732849856065	11.457657673960098	15.986571173872717	14	0.010870633293586077	-0.03216735577090463	0.04440813108959762
Si	27.74196471695622	-1.932761619404832	20.30714346950311	14	0.029869301835756274	-0.06506619100539139	-0.02399021241070568
Si	29.78650710781771	6.5845154608981336	11.42766139802907	14	-0.0006970266522921441	-0.03204291427340947	-0.022786678010344365
Si	40.529510466752896	7.037466227184586	21.30285802274908	14	-0.04274308328426973	0.030998788402897333	-0.13625007000954312
Si	30.459197240000815	-2.0012287255891836	24.56259713344799	14	-0.00046202762603060984	-0.04988947052162131	0.028229965083629863
Si	40.362094881029414	-2.01068649750861	12.430105457146801	14	-0.013099010274558419	-0.012082652341503883	-0.11309572393841757
Si	37.595201730111164	5.31330301136719	8.883221228461805	14	-0.002424295206367624	-0.004827250238578018	-0.0062171897746500695
Si	41.35484187520325	-0.9777399030679511	16.34731273355402	14	-0.00509207408655327	0.06009855841633329	-0.012667835912369585
Si	31.2828975490599	-3.675221798453615	17.984383055527502	14	0.05488204283228485	0.09334166465318787	-0.04775930976387863
Si	36.37285552072639	-0.5755176301248875	13.409714124786785	14	-0.2128828925186847	0.09626295451794012	-0.002292140392912012
Si	27.60442169104227	3.145228445350876	10.410107693652112	14	0.04162208136468517	0.003612402974808051	-0.009506147700183494
Si	40.22276611057233	2.2478519302550852	22.311010929736252	14	-0.00315885999633393	0.01084723623517273	0.13722349048375118
Si	37.677826192987986	7.721429177016923	9.047325780091636	14	0.003750728441032018	0.01133703179866094	0.07343411038034534
Si	29.22680886280693	12.929500232148083	23.2744534815532	14	-0.0678668960306287	0.039522773870784254	0.07816905793793004
Si	31.28043787722337	-0.00421937088040512	13.185239361555602	14	0.020583497861509478	0.09055947158625564	0.012038943551061365
Si	36.566689381919815	8.689048775777977	23.542642359607836	14	-0.02832766708579549	0.008817091474383807	-0.02187136451637165
Si	32.53286826609918	13.245734917122151	7.961430313495523	14	-0.12869564835788402	-0.1354633117815778	0.13908008563543012
Si	36.69083037061988	8.27167290579568	11.146719992398394	14	-0.0099386076150324	-0.04824627711151468	-0.03683262637431332
Si	27.989652531404445	4.874478672742835	8.782117483858764	14	-0.015034024138501863	-0.020921855321640963	-0.04196840925130911
Si	39.19271870576825	3.673252107571944	25.75531658742251	14	-0.04379955046031857	-0.03460913449344926	0.06234159069763047
Si	33.97384365197456	-1.7200675610584846	10.852908854444998	14	0.42058912158578315	0.4297330005463578	0.19387548221842596
Si	41.34038336742557	0.08739730061653954	12.31686450988778	14	0.006093262498218933	-0.02855495279609658	0.054041805613660454
Si	28.716865660604636	-1.7292339489549202	16.76580367647346	14	-0.06121930322538584	0.01728451262522748	-0.000607552187150991
Si	35.23426838128003	10.526067139896579	7.84591526858221	14	0.02847833385755617	0.004117110949153119	0.06392256335898952
Si	37.84206259995783	-0.7865529157370018	22.557455071594728	14	0.2172275462886709	0.0933002698575335	0.09704277076154104
Si	29.195747977093582	0.21093761498988267	18.036817529072536	14	0.04152592202571162	4.7822558954754264e-05	0.031097004626126985
Si	31.295840534349292	9.007988936987859	19.640051491817577	14	0.11322993563612932	0.1297073783013623	0.011950754638580285
Si	32.33812281243159	8.716140978541318	13.590950103556036	14	-0.03196809510859316	-0.01840294343949189	0.053157345383529515
Si	35.845069523686085	10.183699052100744	14.893470871043318	14	0.0408952298906793	0.06348187590711615	-0.035648375263853116
Si	26.79941879476572	-3.5302623166248814	10.500972301357873	14	-0.010396778583082788	0.1450964720845766	0.015540274776039021
Si	35.38951420747346	10.274181116536097	11.568632662783347	14	-0.007733884803005422	-0.011226731380426586	-0.008260704283103763
Si	29.676258137286382	4.0278485572711755	23.6044092611071	14	-0.08754613615104209	-0.028344636380908467	0.14543920042375236
Si	28.138409772594283	8.346931375912536	17.4457181790143	14	-0.06530324691590904	0.04506196317251128	-0.05500648432978002
Si	38.90722096561046	1.9882401606760847	18.754279874486606	14	0.0984555931349624	0.0516707322874199	-0.17560443648185767
Si	32.64246609914896	5.047878211921705	14.450471113318562	14	0.015824639024447397	0.01851195830506617	0.05985790295836743
Si	29.803324361122286	7.376300266299341	18.869851893929553	14	0.01803193294179452	0.1324870002629744	-0.37183505117353927
Si	33.94122003630551	-6.101465864527309	13.392441075245126	14	0.0023579606891078035	-0.03949372038066658	-0.19338208710748958
Si	36.94945566691434	-4.2545697448136846	8.001161094775632	14	0.002940316044121343	0.0181201218542756	-0.01578041601294085
Si	40.02731091704987	2.4418160189448197	16.75572732394657	14	0.026454102639003583	-0.02897687117913288	-0.0118520241942866
Si	27.78137155733926	-3.3705024798406535	18.308452552248244	14	0.020425117773788352	0.05796659788486651	0.05457762396237933
Si	32.09559037899349	3.700440353113814	12.603913585095341	14	0.018653369097674313	0.00867336668698753	-0.053527327439098826
Si	37.51319910352921	7.225711700942661	17.71328359293036	14	-0.29470883355346134	-0.025989761018184843	-0.38295842412009595
Si	33.699063634763	4.015885533891509	16.316419515742165	14	0.04000845566576022	-0.04025939554500668	-0.0006512609775935085
Si	41.627609877596846	0.3808665913921242	22.11306187965947	14	0.01578324422879301	-0.045270736924507296	-0.05970312241809451
Si	32.91614732186042	8.490443704688538	21.31216928873516	14	0.008308269731526504	-0.027795448284524838	-0.03375912707460831
Si	29.25545077277635	2.871037707560105	15.154966055787686	14	0.012583760768400743	0.0017689204602618785	-0.006966152754409206
Si	34.98189074912098	-1.3339348952843733	17.214079275642426	14	-0.7939755777094999	0.05260918572927394	0.02151989441910741
Si	33.231037407935105	5.7108224438498025	17.810115875654468	14	0.02345825071996704	0.05725877259022974	0.03353544091175543
Si	35.037551608887064	1.2573643831422063	13.930630621396798	14	0.0072872838088957	-0.022766366278315193	-0.03647832806119691
Si	29.844622755889215	-0.7671294846625443	20.149008220735332	14	-0.02851921443214652	0.007139445252987185	-0.01050219390120886
Si	36.72755615242267	12.147116224136667	12.032644627037529	14	0.003074527741833073	-0.015457485184730248	-0.01614371319467777
Si	33.08896572083701	6.850093277651781	9.909112748289935	14	0.05090300023882368	-0.014139536597622345	0.029638673688538997
H	29.84617409093899	7.122770120797962	20.969125645802226	1	0.44453562520604634	0.6049360874877404	0.21951865823945485
H	32.07028554861699	14.162002558401237	10.875307983810112	1	-0.09499154293712689	1.09679136344792	0.1697865393634266
H	38.45815423440142	8.381832344923295	19.129569473349303	1	0.6015319440438643	-2.2879158097604773	0.848274493855175
H	38.824874864007	-1.4124685869333948	17.06015688638024	1	1.443150617556772	-0.07993180774542355	-0.0882459910191864
H	36.50065427422903	-2.018898968994584	16.010448385320935	1	-0.6482640972323438	-0.6150572435805033	-1.4130110925518684
