234
config_type=amorph dft_energy=-23361.302150087344 dft_virial="-57.510142504237564 -17.56228024937366 14.823319551895308 -17.562280249373664 -48.77518720069588 3.469885692993104 14.82331955189531 3.469885692993104 -35.35347656877117" pbc="T T T" Lattice="16.361032875668172 0.052224782512610396 -0.0334749075879702 0.0521266156281882 16.392658973599527 0.046236602562856194 -0.0335239910301813 0.04628568600506729 16.30928256643027" Properties=species:S:1:pos:R:3:Z:I:1:dft_force:R:3
Si	34.085330544799056	1.0545724809381467	24.166731787630898	14	-0.015177748925898137	-0.42510552519115535	0.1406996248765914
Si	32.541284889213905	12.089310716724583	23.27550900237129	14	0.017647552696432384	-0.11877658114328478	-0.31332363607133346
Si	37.42262012818987	-0.28099288997010524	20.426748555422293	14	0.5734793852273247	0.19041657423123076	0.09489126982964113
Si	38.20132403052476	0.9831446197178138	11.825809529443772	14	-0.16916098943903457	-0.18975991393246494	0.18149046789127268
Si	26.9545060576326	10.3166294789759	18.920570775503002	14	0.14427654659798142	-0.032400555023442065	0.5549044348419149
Si	27.259703629071737	10.880594957751956	24.249291773544705	14	0.012328450010110039	0.49460841553699425	0.17877975155224055
Si	32.927823541085274	12.948532733777292	13.176274997292573	14	0.3723055634471264	0.5976560027737411	-0.39283892475489296
Si	27.56107596424789	2.9376391079901136	14.717501627180077	14	0.1853404409976624	0.07079538499027736	0.07364134146914926
Si	40.880146147735736	12.509350454019772	21.84236411223263	14	-0.5444006982775139	-0.23234975933965385	-0.6441778395470324
Si	31.129512565928696	9.472633145697072	12.162323973128334	14	0.3214660695097104	0.09368285032917152	0.09936447886563474
Si	42.61698992821135	2.2676926607918486	16.62691460989622	14	-0.3237055022435593	0.3595014589527889	-0.10456556781776229
Si	42.65468601182948	6.347665444393555	24.189673388520365	14	-0.3391362479329601	-0.17271605676520332	0.11802041906862921
Si	35.19425312129756	0.09530859197077361	19.744995904257518	14	-0.08264098142126358	-0.042854412144632134	-0.300138236658018
Si	40.001380740109305	10.307478689233008	13.586021936756097	14	-0.08823416393471371	0.045409576611795295	0.033230250710253845
Si	39.81152598563678	4.250555742547424	11.78551693173268	14	0.2197312886494311	-0.14638305318677874	-0.02133606038871682
Si	31.399152455715377	10.603559829338806	24.699755064437074	14	-0.20417095925189493	0.02024411195924993	-0.10962678864047379
Si	26.770464418832596	8.177628695317333	12.8938325096625	14	0.011452217317003573	0.00019694666752334284	-0.016889333737520718
Si	41.52932211830501	5.526571445250428	12.632165407005647	14	-0.12844419425757356	-0.29120775943901567	0.09294777131814119
Si	30.430814674397908	-0.9352620857261452	12.46251012511772	14	-0.061376911981510913	-0.09591996906823237	0.343233561371148
Si	37.20930021611095	3.664924832379386	14.625702501327396	14	-0.08382728941597992	-0.04705662667988216	-0.2772410011189073
Si	38.73155282335438	6.817943720906547	14.002069554084784	14	0.060305275284073194	0.1595766801371186	0.1181276341604794
Si	36.51890069854332	3.8464206766433704	22.25408747830252	14	-0.006033612854791497	-0.1728196723096053	0.06770003129535108
Si	34.4114769293739	-1.0729313244398384	23.02646779716587	14	0.09568702692622695	0.5662293824455711	0.08959530709120012
Si	34.32270952413513	1.3125026975279965	16.054883085450136	14	-0.35232936066223586	-0.0655022504676885	0.10423518078412326
Si	40.450751106355106	11.681350414557544	10.093602498142362	14	-0.053814005682295336	0.011929928685487087	-0.11324407671539011
Si	37.313908484265994	-2.6611308085233625	20.578458930837844	14	-0.2806649420737485	0.20932808230304795	0.4870267401689416
Si	35.24849359717031	12.478599677474518	20.434618267323476	14	0.08821153820789641	-0.4343900436127421	0.27274465213503235
Si	38.997449282615094	0.6370867187526743	18.901534580498794	14	-0.23530807312101623	0.051944040782951645	0.2985546928913388
Si	40.81830264666449	5.701616089093134	16.909059324643547	14	-0.193580833548737	-0.009674555098653191	0.04252865310056937
Si	34.368528917439185	11.108081987367742	22.24227472987705	14	0.11729870980526365	0.32019440081836514	0.19492166497319424
Si	37.83734576480835	5.031821800565724	12.779248849935428	14	0.20242672140270648	-0.06003145256747742	0.0916611902159391
Si	35.71550782477626	0.21999035187540983	25.665470153825726	14	-0.1174874289357625	-0.33305892628772604	-0.4320161420706493
Si	35.274493096509524	3.725045504629022	10.367077440880466	14	0.4929361686367699	0.1647512867044486	0.3424748281911723
Si	42.889121620747616	5.5176513476859315	20.213723143996642	14	-0.44342387926561433	-0.5761911300084849	0.1451412093171472
Si	34.83161483355351	8.396269252531937	17.633108814076365	14	0.0356360339583164	-0.020827752866923545	0.008106695074426892
Si	29.04794104577186	3.058665787564763	22.163716680618183	14	-0.0026875763911507872	0.2565168637963857	0.36211550173178353
Si	37.66082370935508	-0.3186415262607593	17.20393464818569	14	0.1358397216004475	0.1786619949285778	-0.20272342695665155
Si	38.66487460322535	13.345414903037284	10.243524600146687	14	-0.03284458491223164	-0.3658680299465396	-0.02725397350410165
Si	27.607539986759658	-1.8782122746172891	22.57100126739745	14	-1.2014687743471089	0.049005267402022386	0.5748279299677423
Si	32.601621528609265	9.84092257375436	10.32313794341309	14	-0.22079521203090835	0.22413842027869693	-0.35807141017372257
Si	34.20356274039716	-2.0034175912388434	14.42890407589673	14	-0.6258813398677947	-0.07703185805482854	-0.5576426620078726
Si	37.99704365238638	6.627198920015251	19.47173692866514	14	0.07324050614973819	0.20018703155832548	-0.015135325688115696
Si	34.73237302174689	7.603784355738921	21.036654499993205	14	0.11753525149471726	-0.18917627302479134	0.18413099305506475
Si	27.119678385131913	-3.103202466912375	14.675090260880205	14	-0.3533542032428469	0.05885362922031759	0.010593982361138145
Si	31.834403151751786	-1.7711776483022839	20.10400528950743	14	0.184448267451571	0.17705402566135714	-0.04301304934288527
Si	39.34500259245293	-0.8576317135250695	10.835241857148901	14	-0.025301476123981204	-0.028570893649081497	-0.34337985726386444
Si	28.377192902350814	8.928917859062574	22.53086737281617	14	0.07024979644134194	0.018455136877490896	-0.021643821695538544
Si	30.196915711114617	12.355709463210587	18.139363617615356	14	0.08516066463500871	0.06540711957084303	0.10496563180557734
Si	29.089499996292	7.123476695867462	21.11278128274788	14	0.12939036101538803	0.3417099243584283	-0.1515309202587792
Si	33.249192470618226	2.8487768080963978	17.49160779464073	14	-0.03795439962549393	-0.2377277403378076	-0.4417053524696274
Si	36.624040703988975	-1.0819839472983057	23.925745175292317	14	-0.0542161265543665	0.06344896575901825	0.26732784744654436
Si	26.63265120202175	2.910517233939	9.07337206560458	14	-0.21302558886395292	-0.13661156741755592	-0.02238481424880522
Si	27.582736487295648	0.8527528193692862	13.624545894432849	14	0.27401914904222974	-0.33735755727248157	0.49438241537935323
Si	40.46679321138444	-0.3402611464400085	23.2421224449793	14	-0.14974374495074427	-0.05014349572725194	-0.13316628628855753
Si	36.55138902894285	4.994634548631853	16.429525547044285	14	-0.08304695895131498	0.059026150387299525	-0.023752128058059967
Si	31.990172727838193	5.876034100990278	11.010335584433816	14	-0.3008185511257292	-0.3083724585563243	-0.22233838944406126
Si	32.83830352306593	-0.15039984750851224	15.021694624168628	14	0.07764635222634392	0.23330132541864068	0.1602649650313222
Si	28.511580094895326	6.564149602380352	13.058880492441547	14	-0.07326698853453571	-0.01293008865502469	-0.039956776448825254
Si	34.38945318885378	7.715648792767499	13.879112259116496	14	-0.35289834626958466	0.085530389580046	0.5504739061542357
Si	42.18711550521181	1.0801498626743509	10.125907583690967	14	-0.32925908973507917	0.009483007752302161	-1.1728963380348352
Si	40.6307515417464	4.514866806624716	20.477535193078122	14	-0.04032778694652262	-0.12809143860764924	0.224018349660246
Si	27.530043775967293	2.075182492095693	18.692635450448353	14	0.04718132528790933	0.15520760086659097	0.10622444497032184
Si	34.1555591339147	2.2072676712005035	19.650125791037166	14	-0.09930920010125156	-0.041171366602063206	0.13383168834541184
Si	38.451191473674065	12.677117659497313	22.449261241796	14	0.4015850537224407	-0.1579746244121343	-0.15888839524291493
Si	29.2312709746598	7.741366880371375	9.552660425992789	14	-0.003102295679290672	0.1873348473945013	-0.1627530236496295
Si	28.30047875440434	-0.07220665183674921	24.100577124218773	14	-38.98465181169854	-24.07273409284009	18.147977209314085
Si	34.36304302471472	11.449939981794351	10.063056235939655	14	0.07195341082647205	-0.348597658400573	-0.11201945925140358
Si	40.32897508622937	-0.934257511275558	14.7804871363401	14	-0.3378460672833098	0.3101017839946559	0.12934896621973366
Si	39.731852106124975	13.299554606864714	15.43727594879631	14	0.041855280617222594	-0.34932965208521916	0.13768860343616596
Si	37.513237979200014	5.8997757619877875	23.008670141020126	14	-0.18850804275208485	0.1992359797004027	0.32128197836878775
Si	30.278773803804807	8.705527660756676	23.985339018595557	14	-0.001965352906721192	-0.003378946611738606	0.21703548472125583
Si	36.34517149095188	12.117285006555429	17.065604419116887	14	2.2528449047515293	0.7663693627765379	-0.46800364612622997
Si	24.7302816932629	-2.8251611279338973	19.612801105465106	14	-0.14914904829019401	0.43585763052948256	-0.20675183477225953
Si	27.421980033480594	-0.8331210785995865	15.315162889034054	14	0.2725878147105033	-0.07775408153925814	0.22316037181491258
Si	39.349411921678225	6.394368339657418	21.394093215092354	14	-0.27005887551760566	-0.011305150092691105	-0.2996456128786777
Si	41.27721156184665	7.561032677573054	11.487763682362225	14	0.059204327985985794	-0.22691521402445683	0.25026624965257377
Si	29.211891195560113	6.150940644126207	15.27199236549465	14	0.254681608818864	0.19567859837944582	-0.09627246760762467
Si	41.693426062878856	-2.3871388535273006	23.420750180103415	14	-0.07733062049302974	1.254830265493058	1.0639637478308015
Si	29.928432554449376	10.782927088325568	16.395175318070212	14	-0.15552873192107744	-0.4136728482745849	0.6331639956871141
Si	38.34848600696208	11.898582276980688	14.042547032761538	14	0.058439938374305764	0.15877783771414855	-0.27602435408141324
Si	31.29901078080155	7.1012402604310925	15.697769957184319	14	-0.09373170133025434	-0.004529002021440841	0.23971289075549387
Si	35.345495567897366	7.478075115777332	11.698217121416018	14	1.045338146670585	-0.240270306388902	-0.5699474578490372
Si	38.30173893660022	2.4350442931253338	22.816534642599517	14	0.12482433507733708	-0.028121721549651632	-0.015596581982550263
Si	31.824190523542395	9.451870849641779	15.942328208001124	14	0.016156054500214484	-0.017177040422845288	-0.07572265122580914
Si	38.0150147366946	-2.611788860183284	16.972196992474423	14	0.6261950147168528	0.6019312367000833	0.6787034131175769
Si	35.81829673334	8.684575575391497	15.513801943547636	14	0.25086223186578405	-0.018030904499666465	0.030280421576447954
Si	38.23811370657671	10.971589115152375	18.325496211053547	14	-0.010064591775719655	0.11962324612520953	-0.07721929163266733
Si	42.315975902163345	12.60440872043527	9.024069384018272	14	0.21365910921483738	-0.292638065328614	0.06621444664136951
Si	31.015387018328926	-2.1507873542481906	10.554749618289348	14	-0.2330401011181136	0.27022394047915915	-0.3109715889244619
Si	36.289538681435076	8.269442546202677	19.475143319554594	14	-0.15661013881873173	-0.07728151238141491	0.034063031723449815
Si	31.517499179345297	3.9963951343193864	25.70483343836429	14	0.22019023094907755	0.36109708691447284	-0.298315322986033
Si	31.093688197573556	12.911841224609754	21.593568324238266	14	0.03393833311542263	-0.034220126258510855	0.15021220034007526
Si	27.57961314425628	-0.48250005362355514	9.987212501035062	14	-0.022642696112416073	-0.009813394785941188	-0.13161616689104025
Si	29.44480030942549	12.591267446840618	10.726420593537412	14	-0.3917708876049035	-0.19865079612953698	0.04319868314699996
Si	30.806805294538115	1.4861206493170995	22.004439274528423	14	-0.13454208474536875	0.16686782060399452	-0.236085832480361
Si	38.67255616193138	2.4390609548129425	25.09703317346424	14	0.006689244711429257	0.07714524379944707	0.027135188438310812
Si	31.224407220870155	-1.5499520297978946	16.0564864778957	14	0.14612619976529592	0.10680217233575912	-0.08877435316247684
Si	26.386887134641295	12.534472995858152	18.252386423880115	14	-0.16209944867724788	-0.09775316716149794	-0.11468852368424932
Si	41.09961457900897	-0.48655925429441316	18.705079739163608	14	0.046781004189562284	-0.29717143822909914	0.06163916472416602
Si	41.549258176416416	11.378703545998642	12.156932975058815	14	-0.14334400669836367	-0.04219646629320624	-0.09971646318396302
Si	30.80009558798786	5.95205290017209	22.240756415397986	14	0.19630414830383786	-0.20121084569680844	-0.1673316480037492
Si	28.13628155129029	10.648703507255094	20.94479974623935	14	0.15326667346041117	-0.09756239114674298	-0.4416282193100229
Si	42.43463512370868	8.228472596989072	15.070851691543044	14	-0.08207482402976699	-0.07630937745986692	-0.03554373127732309
Si	36.92418922533934	10.395732354443307	20.133974003206784	14	-0.02141962131162163	-0.18725591446117273	0.033084211928069436
Si	39.936585688046435	9.453161744171931	17.579368989314176	14	-0.17079621242264875	0.053549181834320086	0.1760872900609815
Si	35.7114404435317	3.922383847924009	20.044612688317258	14	-0.18802596050455708	0.15094342269312536	0.19413747785054905
Si	27.397044008722617	9.22605429317591	9.665869749337952	14	-0.19377803732679236	-0.08790814778011895	0.05575493308847513
Si	27.213440848673034	10.143623434099695	11.811496797695018	14	0.25234216008806126	0.01371144756181769	-0.09834863515364424
Si	38.95966975714521	13.074114356789131	19.04434449172673	14	0.32135885441786016	-0.44511772345052797	-0.7337798315120649
Si	33.09012939555946	1.0064167157848365	11.386673060898984	14	0.055787586126041004	0.26713167211061706	0.23906805754120078
Si	36.90662062525725	1.9966064455746835	10.1531963414456	14	-0.08148681224304911	0.17333954980533922	-0.11676237723548075
Si	41.13510845218656	10.063818665408666	15.647065125265511	14	-0.014738347026684832	-0.06202328785899614	-0.11539917719473823
Si	41.38349521149583	4.336440313613665	8.008051946936945	14	-0.13889830848929563	-0.06640188021920831	0.1272244618936953
Si	36.51439483854834	5.608182484614824	10.92000732573273	14	0.4802084259704409	-0.3585596630740187	-0.41331777862987246
Si	34.14280234728404	-4.287630102564208	18.27117392944378	14	-0.2931977949568103	-0.08426977664157739	1.4007734025595595
Si	29.366131004364274	11.711829596055898	24.886939679653327	14	-0.08550519274790855	0.3050960990468595	0.09411145358604021
Si	32.26609693434263	1.6278965360291213	9.25744969892887	14	-0.17305981354650712	0.11637208344788227	0.4124785698533761
Si	43.28498776275384	12.287432758980206	22.204923866469144	14	0.5100455889896953	-1.0549124286617522	-0.2206342608378671
Si	39.21147108791764	8.437862561461625	12.393721316973604	14	-0.1287056756686326	0.35527764713284965	0.4760920863528838
Si	40.34090399880141	10.085636255471501	6.356430111057718	14	0.03408848566611928	-0.1462071895828806	0.09736467314762356
Si	34.01642066416416	5.591410672411292	20.15967245743378	14	0.2553709221551957	0.028359291681233315	-0.030715195486084992
Si	42.44327053730835	-2.9151834331785356	12.545037388736723	14	-0.2208461199162473	0.09684222454656947	-0.23986407174831859
Si	39.96926544387059	2.2032919123814048	12.839511864167477	14	-0.6906706228302062	0.40775647782239205	-0.021201077359409046
Si	27.68921810682841	7.387213483670885	16.635908332624034	14	-0.164375905327707	-0.018506816094425876	-0.24088300078669328
Si	37.489259081565145	7.1322348180726625	15.946325236311848	14	-0.09165193423678655	-0.1973989249491569	-0.27586057467251973
Si	33.32568737918949	13.538155763911833	10.725249135383306	14	0.7379236819565477	-1.8318942857577334	0.41871941379697153
Si	35.74732043978801	7.468163532680171	23.11450549523044	14	-0.021349687246913603	0.08710442025704065	-0.22516789084888422
Si	30.54906159502867	0.7090937645910983	24.202917737343657	14	1.4815593314923363	0.27653291871373853	0.6805582084955317
Si	30.771183804410782	-2.736747123479043	14.017465393791666	14	0.24244828970559945	0.004752431073761709	0.719612269866453
Si	33.79399086521086	4.44426027500405	8.631190787527965	14	-0.10345767853531049	-0.26549413513221476	-0.1963344873466156
Si	31.254320306668344	6.51457041740292	17.965906005070806	14	-0.2751838597522568	-0.16486698644385525	-0.11401849363781873
Si	40.1786292305073	0.5200734286361522	9.088388326691698	14	0.052045085222033466	-0.04359206226098262	0.18912125137094016
Si	27.29528421633056	4.52244529010211	12.77766836309623	14	-0.3583400906796781	-0.3147346586710307	-0.2852877894393747
Si	33.16687299357126	9.985003746135563	17.8571976333764	14	-0.5090611127626107	-0.5311132259829886	0.12052056188194121
Si	29.3043267700468	10.999537227147375	12.446440206137806	14	0.05482779251002973	-0.16942041396583749	-0.38420746708462383
Si	30.368143299268038	4.503575978801424	18.854067619651182	14	0.2845794499236739	-0.030236712786005444	0.12975520086031705
Si	26.724237632958186	7.122141626239319	22.028892645437995	14	-0.24282289975074503	0.2429311432847233	-0.4083267489824009
Si	27.37004484327703	1.9596662469666095	23.391121778270055	14	-0.39113376770657077	-0.10651318009777447	0.24651269299568956
Si	31.912548900096077	4.679960600616492	20.6572476722751	14	-0.029733033253788434	-0.4107705845892018	-0.11588871564769444
Si	28.872632987455955	0.5776237646286669	11.63313738538832	14	-0.1494488391705233	-0.11284041318012687	-0.07336469053670133
Si	39.23644801554412	2.5482683415031593	15.052281789239844	14	-0.1463640270074096	0.10844356597214165	-0.13325190409571847
Si	34.428567783951806	3.115949436854598	23.176869280789123	14	-0.037429894140183724	0.12314437486115232	-0.1925511058680177
Si	41.8146065372391	8.069488055437837	9.25704721470274	14	0.09183705381983721	-0.16334154965741143	0.16908077095304597
Si	28.313528405573535	3.908732106530362	20.000804080029113	14	0.09350955783059355	0.4518617327052763	-0.0036787374920678713
Si	42.70575569733539	0.6010872861203131	20.010298453867478	14	0.014421072630178559	0.057668606778261335	0.19316662848166113
Si	32.76945090644694	2.687308644369282	21.510728562703854	14	0.6737892595191779	0.5988952755380526	-0.18795139845027278
Si	32.13289428887015	7.637867898010309	23.090611675562076	14	-0.022143130348711303	0.0730134775499691	0.07239641227313356
Si	37.4296243353934	4.491738688654846	18.590759493909736	14	-0.14128198023160493	-0.07370176244417274	-0.17957139488031418
Si	29.842196218713955	2.7274245416884146	11.104291109514305	14	-0.03586537655287361	-0.33889662091712225	0.7609510154248578
Si	34.18835505388542	2.920898381966648	12.261173117397268	14	-0.008915564808145478	0.026401909201004582	-0.03382623292346417
Si	34.10200582623291	-1.6978715273600058	20.781746187328814	14	-0.21450320309144202	0.4089967790288316	-0.45283155363203614
Si	29.179730088108663	12.033592829241282	14.537540458542558	14	0.6475254186738653	-0.6603850590431178	1.1645844687558606
Si	38.02739358082024	10.351876298827689	22.199688299299957	14	-0.09684119610444143	0.1806504877831803	-0.18238418410055615
Si	30.82612453739241	2.840681312361047	17.266118461122932	14	0.21278236230066688	0.1802720210800545	0.09208182304631532
Si	30.793523315075795	3.069902623601624	13.282735347333709	14	-0.04586440514292949	0.1161504541692855	0.16145204435763458
Si	34.52364895597366	-2.423918712890818	16.764770365690314	14	0.11255347782639837	0.2152549942870533	0.1951072987773089
Si	41.59523463673555	8.779062837762606	19.11048443010619	14	0.07204725617065746	0.1591897287864363	0.03807755557032902
Si	42.504001480356145	6.723175046800095	18.225115663387626	14	0.027582817874548592	-0.03553293263497847	0.046787431952862654
Si	23.773092397786314	9.612010488199711	8.789200204693937	14	0.10159439850979918	-0.14233587630233363	0.16426226247255646
Si	38.46389099628881	0.3571622117080306	15.181410509008806	14	-0.07310372334670631	0.09075950358016316	0.038995954390685914
Si	30.258034413355876	11.286920781293365	20.200783112515055	14	0.09281638783628163	-0.10863511331849268	-0.023103438185786605
Si	33.92857439152421	6.754279224129269	8.13083581374275	14	0.40393864353250425	-0.014534715485329105	0.027011518272411685
Si	35.88430741865497	-1.6415171912427016	12.823486120285553	14	0.04141819271279742	0.010950080447978653	0.2378200430188009
Si	40.937570502893244	6.425577228329975	14.71500491608627	14	0.05983630567367818	0.08352878408831071	-0.07618287907811565
Si	41.856867380982855	12.27073784416947	16.016344402740724	14	-0.22395870001681858	0.1813205178296109	0.21028324792948297
Si	28.093652581729952	-1.0743841943292871	20.38051195285944	14	-0.06127869575828126	-0.07404963299398878	-0.343233561371148
Si	30.249567519574462	7.339681078233656	11.626933238292837	14	-0.16380923371514636	-0.21598518819797535	-0.00196740979097731
Si	40.990160138992955	8.223762222651546	21.36102406396	14	-0.06181965631764041	-0.10208933628392769	0.14905083206696437
Si	30.933345680787813	-1.5177320222157882	24.59335034229711	14	0.36556181130291	0.006117173777696309	-0.08519280345151055
Si	40.98666703402227	-1.0976039347246183	12.53800045923839	14	-0.26842339542345944	-0.7408657977743931	-0.04477399937665469
Si	37.95742513394832	6.143367068993035	9.063575010539244	14	0.24821810715454373	-0.22069930980246688	0.05719012407818178
Si	41.86626849628102	-0.012555544517599378	16.432270947578623	14	0.01623498743354303	-0.3754466828167513	-0.334395901054203
Si	32.148849679818234	-2.7427467562319796	17.92002280329187	14	-0.4407285895585031	0.3144772910284838	0.511707808579171
Si	36.83985078270274	0.32332408664769824	13.554250224612852	14	-0.0014063946101209991	0.1025513639099583	-0.09629355067124988
Si	28.025925612052333	4.062083505030501	10.56204996226088	14	-0.38211664423827946	0.2621262442733528	-0.27473854431080713
Si	40.52604019836272	3.199548355628543	22.39470335966362	14	-0.038831660760728456	0.03191075945995385	-0.20040377573681395
Si	38.135699468288514	8.519424517383808	9.318720559840985	14	-0.104942234747164	0.17857149202130854	-0.3341053661530263
Si	29.634538899751455	13.46531102732634	23.325297610035488	14	0.5396161283872505	0.023195226645715893	0.1121238461274016
Si	31.710891213886512	0.8529458809086499	13.252712641847921	14	0.06772342835376442	-0.17235378802559448	0.03777262247935946
Si	36.72111957210883	9.435395174206251	23.944756828575418	14	0.12220180765078605	-0.02381100636989136	-0.09039749195108632
Si	33.20826015204366	13.923750377578012	8.193778783919525	14	-0.36034658127152164	0.0965941128831752	0.0563881963288276
Si	37.10086180334871	9.033990783803876	11.373234014421586	14	1.0512208356430834	0.07390899353297668	-0.08696789456454079
Si	28.390231100716818	5.659762637919729	8.883208085446116	14	0.08853395481504298	0.3201254951957851	0.07863777043779302
Si	39.5316407453459	4.518647867789712	25.77999654953689	14	0.22125004056204256	0.023362091380993506	0.18258113076807947
Si	34.52482205024251	-0.8581896286515356	11.06182902365748	14	0.33375415316629403	0.09109503282444248	0.23573204838830863
Si	41.91895957149464	1.0252451242170144	12.418968203532252	14	0.13066305814886137	0.8578336063249538	-0.07866065327514235
Si	29.130515756718335	-0.8302758750660831	16.90738885149363	14	0.04915721972644314	0.041972008798757315	-0.06434962395266612
Si	35.63171093611873	11.419894370702195	8.026685657715017	14	-0.10735521709012297	-0.23037257934845998	-0.014790540464683838
Si	38.19255609163111	0.10667631718686436	22.595011251212377	14	-0.04102764181466693	-0.15273548310126855	-0.22743791973604296
Si	29.60325147757136	1.0599160316801952	18.227252429238547	14	0.012318165588829446	-0.09301821960391325	-0.33198034760592393
Si	31.761126480874832	9.58176199887975	19.71249121271059	14	-0.20298979346781892	0.11068788380609891	0.4318248518348303
Si	32.823355978797906	9.483575481080669	13.822352166543581	14	0.2241728730899869	0.0851917750093825	0.21547353823926588
Si	36.290618517163715	10.990425704158255	15.029376182874666	14	0.08921966860392647	-0.04062423538993569	-0.29285532372816653
Si	27.302074092503098	-2.7303433703852344	10.59680267546108	14	-0.0751665211450611	0.09540420534101067	0.00587548987760239
Si	35.94673501268853	11.083419193771403	11.715898613415197	14	-0.20389507965104303	0.07580492659605387	0.11523771178063294
Si	29.951894439826287	4.52178266363226	23.896259115441367	14	-0.13421606859077395	0.2507383045893529	-0.13892761908994533
Si	28.623290737138305	9.25842809554361	17.652071383917253	14	-0.0074389790227844385	0.013858514786130162	-0.21686810576491422
Si	39.356159258867514	3.089920487450051	18.859178842100096	14	0.0020651117931429373	-0.049432585106231004	0.09842705386590876
Si	33.13088828597156	5.910417052259153	14.704378350847568	14	-0.09213067404739814	-0.37527673275508955	0.21322973462637265
Si	30.025714300797038	8.087961426971356	19.169328932858335	14	0.3594302393354209	0.05804835903404721	-0.1651780901875932
Si	34.36484111481439	-5.205804605941928	13.507516243168922	14	0.13700571786313465	-0.2655005628955151	-0.05031396000997776
Si	37.350269498255976	-3.292687459453586	8.144150515499883	14	0.04744589202535258	0.13348638890091594	0.10310055200634193
Si	40.53838959242303	3.3665760372434357	16.862032478661092	14	-0.012916461796827906	0.1623771280518239	0.04516969248542549
Si	28.32477178606936	-2.5025503873130006	18.427277272937225	14	0.08705094126638156	-0.1145926214558078	-0.20425066351681948
Si	32.58360626920305	4.545691208333287	12.866270520746228	14	0.14029390445707202	-0.09848850328306029	0.01444241280433579
Si	39.14892242139329	7.270638672304782	17.57398617181836	14	-0.28503967777598044	-0.2259909016618636	-0.5282814105833775
Si	34.19587300111742	4.81225520240807	16.513684017059436	14	-0.13070856671302797	0.16459084973247137	0.16846113457089026
Si	41.865830017530605	1.2755559544609611	22.149557743655024	14	-0.12905945976068497	-0.0007394498900745875	-0.032780564389759945
Si	33.110150531637366	9.135590236951371	21.55423776199451	14	0.35391187598678703	-0.0017956599555914183	-0.04365325456760214
Si	29.693556830666083	3.7720396283166693	15.31563572619402	14	-0.060314017042161695	-0.2887788362430718	-0.10544205762140078
Si	35.35192059048279	-0.3069367614081523	17.437431127242856	14	0.21385374188757258	0.3810586343990385	-0.05753388085948558
Si	33.5973347817626	6.441154676773038	18.042117865791983	14	-0.129076943276862	-0.11701537399898333	0.24341682507969922
Si	35.45645686958925	2.1402262335991025	14.125838361964293	14	0.39167472826592986	-0.15590925550845935	0.08824059169801408
Si	30.21988512595467	0.0011698220393645499	20.272570918978268	14	0.4782860105225662	-0.05822319419581728	-0.41370241598576657
Si	37.33106969177773	12.921738082674253	12.152284773081423	14	-0.0736143448632877	-0.13612511429098392	0.13725640063184907
Si	33.48167946688059	7.630585551300921	10.25941781873464	14	-0.37144218628062065	-0.1327304839367924	-0.5552767308922724
H	28.571159213165895	2.8271931824414365	12.433627791605968	1	0.3931924517364134	-0.029862874072455907	-0.19974942943283625
H	35.30510971164607	11.112484772134078	17.094098993435175	1	-1.1757430658453032	-1.5391878290276033	0.7120203100771197
H	29.041200253041534	-1.524606976354823	22.014445752280526	1	0.9146748314111913	-0.2539491009131538	-0.5135957712157557
H	42.27530863417671	-1.3811409831159986	24.513108730970405	1	0.33142678863049607	0.3880769805914467	0.08500357009994765
H	34.75513137778543	-2.7280168152244286	18.454027748942273	1	0.1392104406751616	0.6730737209085808	-0.019671269693920936
H	33.497008225883114	-4.516610904937951	16.973402809038078	1	-0.592117070582546	-0.3430540982198017	-1.9530098014107564
H	28.979415652100943	0.36829597251624846	23.7711585101632	1	38.028367497338735	23.8675287779179	-18.014576695330863
H	27.023960764476044	7.697599174951737	20.50149936568032	1	0.3250501903259968	0.47980707642996573	-0.13251733930575216
H	32.66456940713026	14.868999307679376	11.147271843743825	1	-0.6207591838489958	1.2944126890072698	0.07589028729268278
H	40.705144042876285	11.771315455786269	23.315804872311862	1	0.0716207097980449	-0.5540600838547782	0.35697251975989136
H	34.556286172814566	8.740579782954363	12.2236455535974	1	-0.5441333033242186	0.2202280261972837	0.27543711362629136
H	34.175136882897974	6.440696564645735	11.914894340942178	1	-0.534105735465109	0.15010292836396893	0.44896461123053344
H	33.130080045289816	14.180468233145248	6.508397356487504	1	-0.12898772592225285	0.15435270834764173	0.03986524509942798
H	29.491087631545295	0.6808691492049754	22.33541383370209	1	-0.7085097228729895	-0.7467279179043307	-0.44734430065777614
H	28.71315106702365	12.812987171996598	13.379892748961103	1	-0.8493908677851835	1.1965813602440394	-1.774816776092574
H	36.20613609642997	-2.2041410559316565	21.676997087079215	1	0.022016117745895986	-0.051093004921982633	0.16096327723627443
H	42.58134880470713	2.533515494889243	12.334397432602527	1	0.0010952908663830814	-0.12346576302617085	0.2361043444386661
H	41.72742616329849	0.9860274538903455	14.056823769986007	1	0.3504992478953545	0.33634788421325945	0.3124188641091733
