221
config_type=amorph dft_energy=-23186.557047546212 dft_virial="-29.804598255935954 -3.7800363516258777 7.209098143388949 -3.780036351625878 -20.759943506367946 -7.539901751535502 7.209098143388948 -7.539901751535502 -23.624218650075928" pbc="T T T" Lattice="16.37463262936923 0.0312593925052134 0.053791044724791 0.03207812986784339 16.461517038291525 0.206158067910234 0.05444603461489499 0.2053884547893618 16.303222356600642" Properties=species:S:1:pos:R:3:Z:I:1:dft_force:R:3
Si	32.01748435391867	-0.7431253297163942	25.712171777641306	14	-0.019799567849396328	-0.05766809255719731	-0.06155226136434501
Si	30.446410866242687	10.543801279382105	25.004368415223496	14	-0.1338221752557273	-0.05966969804893259	0.15854361001948308
Si	35.47833139757326	-2.109113295427187	22.247350582828506	14	0.02889665269314426	0.009186302198357072	-0.1885370962422025
Si	36.066674428884454	-0.9155579681851732	13.45535415149878	14	0.04261221402347418	-0.06772265702216838	-0.13476988467673387
Si	24.87725125230156	8.303780067044007	20.771424201538483	14	0.03450757583330341	0.009607192139265313	-0.03187399265387574
Si	25.171602071439573	9.517094801795734	26.32234725946439	14	-0.0022065225857510816	0.023920535456529668	0.0036275724961969246
Si	30.86607271368067	11.210250217613476	14.961970084089627	14	-0.10176949078210126	-0.09972674760524361	0.07372978749216236
Si	25.492507818197126	1.0464642476213586	16.309305575204984	14	0.06001088372491624	0.015468798048138901	-0.028009364247161158
Si	39.10318135981099	11.305400598948884	23.80795896953535	14	0.043552981460116366	-0.19632008915682278	-0.09906211687998533
Si	29.122589512182063	7.793575692147497	13.869178401541213	14	-0.034259464169909125	0.005983219190516594	-0.03246740376176591
Si	40.40144828330921	0.3204963780762387	18.146375369676374	14	-0.01353764084217568	-0.03657397317910642	0.021265612102944764
Si	40.64747394835535	4.656454126727357	26.345083596024626	14	-0.04695455379867228	-0.22698823341554905	0.2601927730726014
Si	33.28173601494906	-1.6281247445787654	21.33747301446526	14	0.028770154311392977	0.017750396909238308	0.06240329722531403
Si	37.93374276032261	8.618753242871945	15.541208755928373	14	0.037879323350145606	-0.002238147181188903	0.08610785983495126
Si	37.75260530621435	2.439888102353883	13.685954804632969	14	-0.11841894039325218	0.09323059290335749	-0.052991251979847956
Si	29.2180854006845	9.040953176134082	26.342738732218052	14	0.036381140280095314	0.030080903803604463	-0.01675589337140503
Si	24.669196988659472	6.426595416753196	14.842843797826962	14	-0.025690484358919605	-0.02995183431653303	-0.01213381733737483
Si	39.3838085032766	3.6119712235235624	14.790367645306553	14	0.06812992010487985	-0.017758881556794795	0.030993646192257033
Si	28.392198823404016	-2.820121195882332	14.285455588722083	14	0.03759907287024946	0.012934716644600957	-0.008543268757788037
Si	35.08717634762733	1.8738720389216104	16.30625659726655	14	0.030118699051810645	0.023437424766873844	-0.03158140086844288
Si	36.58845575008855	5.124039946949526	15.975522727207984	14	0.03370821918926938	-0.014480979384138011	0.04182956956402112
Si	34.50594486904794	2.183716643910033	24.07241441261429	14	0.010391379261910477	-0.04422146884335487	-0.0423764436656166
Si	32.47282513814534	-2.784632206161772	24.649974672859646	14	0.10651780808735073	0.1933491769593917	0.17102632634880202
Si	32.31408997575337	-0.547407800654418	17.7670870990644	14	-0.0020085474760996795	0.04461561928893357	-0.021516037761127187
Si	38.38644721024161	9.886918468495704	11.898580730598493	14	-0.07386322785827804	-0.008990383972961789	0.027683605203098396
Si	35.478992937362264	-4.445229712017168	22.570365397032194	14	-0.07624201450047904	-0.1336347416778885	0.17184908005124938
Si	33.318896866364106	11.179033399451118	22.552574234142245	14	-0.08381546233150723	0.022091451131776324	0.11770417311425099
Si	36.99179524946515	-1.4819310011075524	20.60604744166085	14	0.038474277121227876	0.04213450265499068	-0.0014002239573526437
Si	38.52382478979202	3.731693550586222	19.057567830244004	14	-0.012974825887595265	0.029621961503958037	-0.0572652003535301
Si	32.37443255685392	9.674125352998717	24.117882173310587	14	0.04105335286786841	0.014633703040154804	-0.029003867784994433
Si	35.8160065229922	3.35669873870388	14.620469817712479	14	-0.0029678268710469275	-0.030270908486763407	-0.0736577965431982
Si	33.60346704896814	-1.4696745027889815	27.28822155100735	14	0.054485835502450036	0.023338437212048143	0.01407937273313088
Si	33.32836965764974	1.9914590989425307	12.16382543649501	14	-0.01007821863391644	0.007566248736131768	-0.12885531399826525
Si	41.093319016650234	2.4503122664548878	21.244132042701263	14	-0.020543131507983155	-0.043216680884241	0.05100224490418139
Si	32.559080756773135	6.943705022566129	19.3055158906176	14	-0.31119424664518675	-0.26245534575433177	-0.2567084111427367
Si	27.27441436412396	1.6339328674292626	24.1088465877766	14	0.10579944126090136	-0.002996109029568556	0.009751174037193605
Si	35.67391956613194	-2.386927257314799	18.904398444443185	14	-0.008945389629859196	-0.03313177737649218	0.12472971840155563
Si	36.52153052059245	11.455131287826656	12.101637421379086	14	0.027263486593786204	-0.004170589939812199	-0.03733604879599831
Si	25.653324210964907	-3.3000503005835102	24.32600029846696	14	0.9921628035498141	0.8701108913391927	-1.5121061195799514
Si	30.454688300978876	8.093068181922826	11.897139752840264	14	-0.014662242309208451	0.006627795294277717	0.006066008781825363
Si	32.0386192401976	-3.7379487040367154	15.99555068057264	14	-0.05036872455329691	0.13760838495017735	0.10079298498150904
Si	36.85488598768615	4.225708212874086	20.848865293720202	14	0.006793374476895255	-0.06719789442632616	0.06370890450688522
Si	33.06725793795978	6.242081489761449	22.59740992959459	14	-0.1325129684267079	-0.1522652279382135	0.12578824246186057
Si	24.986285781832446	-4.978452069126658	16.265052820754832	14	0.005686770747103521	0.04391370753653314	-0.018167173081634312
Si	29.737579169697412	-3.39023258360248	21.846811165232108	14	-0.011541177561080699	0.02620624808614131	0.001551147839645336
Si	37.209823371658786	-2.7612736292059377	12.399269739866519	14	0.037635839676327575	-0.009671469772269015	0.01022580007929294
Si	26.487833730148612	6.845872457630744	24.132429498769795	14	0.5891556714747995	0.17955442558520118	-0.2985708908548557
Si	27.819480575921254	10.496966227290219	20.007873012099193	14	0.01993506509976813	-0.1320550545691895	-0.04835374931389686
Si	27.32028821855212	5.240796807284739	22.63977958811069	14	0.26618730512652666	0.08853061237812679	-0.11151140884014234
Si	31.262651079916665	1.0429911637290823	19.13705904078175	14	0.008453794292646883	0.01647564289150889	0.03566277345364595
Si	34.66764549816737	-2.742170849061055	25.617027946204797	14	0.007316337299013373	-0.05433851116760555	0.0025186547716170584
Si	24.511026755047713	1.0638198422343894	10.649325063102037	14	0.06675772119551682	-0.03246868931442599	0.08573196423714562
Si	25.332683735112848	-1.0753460268254944	15.318607166827078	14	0.0020239741080205677	0.05464935780081145	0.13198383495182142
Si	38.58827252002881	-1.7174047790241163	24.91171190789466	14	0.015821810808595235	0.1631644005008532	0.0498164511305291
Si	34.50986825848966	3.0525656455571646	18.231776226497583	14	0.01702046010884827	0.02420284282068193	0.045510621050877116
Si	29.926194970875937	4.195285569953482	12.762697430289624	14	-0.015084674913308779	0.011171195505511388	-0.009354452486294757
Si	30.74670244368394	-1.9278546681892568	16.793564163079747	14	-0.05645633061981152	-0.02105838101414083	0.0058772896513264936
Si	26.371666360714496	4.759118879576983	14.781507269568172	14	0.022156242985844055	-0.01800982143604125	0.011338831572385043
Si	32.26449414127469	5.926638358687362	15.565764326908374	14	0.004000639878150411	-0.0003080184173537399	-0.018067928416276597
Si	40.07886412495826	-0.7313829984615547	11.839490817662762	14	-0.06409559874703549	0.004638273997547134	-0.0755362460900984
Si	39.18667455857727	1.4259129907564079	22.28897355286989	14	-0.0103813519511619	-0.0030537017887398736	-0.004997200300239806
Si	25.287641717845123	0.3438893420013031	20.099368549847824	14	-0.0006350630140765755	-0.030065991392747606	-0.0415254078046476
Si	32.275524171024045	0.5343669519424473	21.307255055885314	14	-0.026106746310251578	0.09277062216158298	-0.007446178117680851
Si	36.80518862977451	10.987586404472621	24.436899911709915	14	-0.052623326808534765	0.053157345383529515	0.13469506551191757
Si	27.149604403089914	6.067485747180601	11.34496690073534	14	0.04016349331656516	0.060633091212392076	0.01696852378138128
Si	26.510755101352807	-1.6801931658925828	25.795558540550445	14	0.45878546222190303	0.578831912282809	0.35601169770175195
Si	32.25485760251653	9.694852508071058	11.805989722258666	14	0.0002473403317982452	-0.06101567168403012	-0.004492749436426753
Si	38.125795620949454	-2.8172326904669727	16.433298436351123	14	0.04832546715537524	-0.04837226127220193	0.10238758450106485
Si	37.71129018142131	11.469061285314444	17.317619936677236	14	0.0432061393524284	-0.01349598893598928	0.02712490401703022
Si	35.39765138038498	4.3097548780975075	24.811868523996655	14	0.03952585919716844	-0.013179742981611068	0.02257739003728431
Si	28.31258316478715	7.009393958644658	25.7090212762699	14	-0.08082012463353472	-0.08229953863474793	0.105897400373599
Si	34.40041617290383	10.544945874215063	18.761417426382934	14	-0.2061193428635031	-0.18631411858240246	-0.00861345993302808
Si	22.592392707036396	-4.764933552326381	21.222304504613547	14	0.25637493878271356	-0.0775712759509956	0.03139705261698827
Si	25.314262144453675	-2.744921806599492	17.0097517636822	14	-0.008434768113277789	-0.08463358804437836	0.016845110726014165
Si	37.307421777708456	4.42316474009429	23.267923080094054	14	-0.06789183575223413	-0.04163185156490173	-0.03860617482415146
Si	39.14112983656889	5.694732638197141	13.708027963929474	14	-0.11538195078909326	0.056312348721883225	-0.02947258028485743
Si	27.133868270980166	4.285228781662563	16.952690681931063	14	-0.02501479788078469	0.016422163900849808	0.029507547317211443
Si	39.87560111236229	-3.6935322021140378	25.156547128815532	14	-1.1295246194997892	0.11462296049858556	0.5405661518030451
Si	27.621978199408744	8.954684457708483	18.130958545138053	14	0.019501576742791165	-0.014674840725277177	0.11395035934683481
Si	36.25534590420364	10.197395138728078	15.87164133063749	14	-0.05978205535142305	-0.007147158568947629	-0.018004165004336926
Si	29.19836365509347	5.233670517280408	17.403372850564374	14	0.026679845686112588	-0.0051846338780786	-0.0514832987095811
Si	33.3062752111818	5.7845350270798495	13.418167100488125	14	0.01846027908813119	0.03191230212314594	-0.042222948678003774
Si	36.373900711787186	0.9144199232511175	24.609173715130343	14	-0.04907931523524265	-0.01842428361364912	-0.03857737844456581
Si	29.50454850407094	7.6035680374525025	17.551788647237764	14	0.037381557360164935	-0.09268371880176197	-0.09582123862393867
Si	36.25538029117286	-4.655831886331758	18.872859043759952	14	0.11678114630431784	0.06141033635067285	-0.15939336032779203
Si	33.62803735722067	6.895297994737993	17.230655291493402	14	0.00163265187829403	0.02316514471347016	0.045280764235255885
Si	36.490040244150975	8.712390597561212	21.451922672912584	14	-0.47611959717980945	4.678109417824849	1.5744821630888721
Si	40.160046846887205	11.09421220868265	10.915580090904038	14	-0.02353718365329559	-0.15853949625097083	0.16984953144377024
Si	28.922537587522324	-3.868236018026752	12.267168103880893	14	-0.25883908612154344	0.05484039092609846	-0.15225700040118903
Si	34.26719777915558	7.480292390236029	20.944588791209455	14	-1.3106954989997674	-0.5279682499553835	-1.0515527653399148
Si	29.77736325562233	2.7735563271201134	27.32279191740704	14	-0.07981893622186906	0.04136882749065058	0.006847881909682394
Si	28.918072193946543	11.38159229791523	23.460103663749468	14	0.028455193909674836	0.08714324394737488	-0.2010833188729291
Si	25.462781102034754	-2.260731992663186	11.601297194227541	14	-0.038266017590295874	-0.014981316479438827	0.10052430447555355
Si	27.261985930959234	10.99209437239126	12.558602580533218	14	0.024163247798751647	-0.054408445232313564	0.03797368291539504
Si	28.88125684969852	-0.04403005788751614	23.717781598940558	14	0.025559872208656083	0.036257727224728205	-0.0044693523780134055
Si	36.67805836705478	0.8720355274624877	26.90619214770529	14	0.09033244298648656	0.013009021588353235	0.03984596180952687
Si	29.153097303788385	-3.347643503473192	17.84694837889006	14	0.07928646031006639	0.0717875745333225	-0.04348870382711267
Si	24.23035867471397	10.601047395777195	20.120115354616868	14	0.020539531960534943	-0.041629794680645614	-0.044362622525431
Si	39.110939715059274	-2.5047173642016514	20.375340352669514	14	-0.08303461764577826	0.03609240515264269	-0.05150772421012252
Si	39.479815283893316	9.593304512984059	14.00392128425868	14	0.05330312705518192	0.012933945313004912	-0.05794345793698517
Si	29.127634571810592	4.423068129085499	23.882473894383036	14	-0.0969188434851099	0.007355932320943654	0.0012814388915618027
Si	25.91562801225486	8.688598089803184	22.815523200473947	14	-0.09058929640796937	-0.09867336575557895	-0.007238947028876916
Si	40.24337793565568	6.3740717774657565	17.092156041756184	14	-0.021560517883165743	-0.09881220544286694	0.12699820462552228
Si	33.36413374312414	9.772963327415411	20.7074628012951	14	0.17878335109968876	-0.10701685962999148	0.016983436192238136
Si	37.88491162654063	7.536916266235519	19.832152324382093	14	1.1972269647899285	-0.28659545360520206	-2.2827689711306047
Si	33.81007214747837	2.2740823240982313	21.824598820583955	14	0.02575270510766719	-0.014511061316383744	-0.007685548022986637
Si	25.25228863852676	7.4838637226118205	11.513562935922835	14	0.02136819920521867	-0.0038494588853257034	-0.02577533083448449
Si	25.167573883615432	8.352332830122693	13.682876352149481	14	-0.05557881237404498	0.04515195185871646	-0.006148798373134132
Si	36.80910874426679	11.011465698391087	21.140831949658235	14	0.048507244301509704	0.3417603180227032	-0.20615251012213306
Si	30.988863668378468	-0.7141567643518195	13.162234713354163	14	-0.08101604285893	-0.12352309867481014	-0.12131863297331519
Si	34.75576947545668	0.14181186110641703	11.813515556095961	14	-0.11484818932463052	-0.005280536106520125	0.011831969572789446
Si	38.95236175024092	8.250249380800533	17.704424216278152	14	0.2375230803543238	0.24446017961861533	-0.5589734661215813
Si	39.27539948909076	2.5669856155791138	9.867036250381599	14	-0.07995906146181712	0.007286512477299656	-0.11225317272500507
Si	34.50790328881935	3.8964382452199056	12.733881150074497	14	0.002487544397243266	0.015316588613186136	0.10479953840189578
Si	31.39836007272204	-5.908223317927089	19.35629070689846	14	0.07248511540667868	-0.25497908570440514	-0.013301613373786087
Si	27.330789343965208	10.333567536880699	26.7155622526147	14	-0.11636282746872975	-0.010195203925983177	-0.024416244562254216
Si	29.427094312091416	0.3103718718499562	11.621239998906482	14	0.12144667401825855	-0.05086109122210527	-0.027207950718871
Si	40.514288304101605	9.438312617814024	24.25784696292691	14	0.030635491221160407	-0.0034002867858958343	0.02405423293317737
Si	37.06746950641831	6.775513443635773	14.442594213256934	14	0.0340159804960911	-0.0579838242905115	-0.06075213338871493
Si	38.63502897333388	7.748464900941309	8.343898197812878	14	0.017987709930287976	-0.10271437198725568	-0.1293343109194088
Si	32.34258531092234	4.1269914115870625	21.83606114366078	14	0.05723794663713653	-0.05664633530297046	-0.03693341370286313
Si	40.262020585402766	-4.718823901537784	14.258980897364081	14	-0.031567259789182074	-0.0701397531336396	0.08211390483063324
Si	37.784249505279995	0.3257624967926749	14.543831088146135	14	0.052008832637019366	0.03622841662407852	0.08241369571096249
Si	25.56182703574156	5.391564017663604	18.39008400798627	14	-0.014797739559580256	0.04294311527817724	-0.02343356810889362
Si	35.19400683617801	5.289071199660129	17.814830949628806	14	0.007691204454690963	0.0019743517753417097	-0.02465227203064381
Si	31.152137910708866	11.795259350384038	12.503637466430416	14	0.37943986648947325	-0.08504496489560204	-0.02106275189318508
Si	33.85852338712409	6.031724936655649	24.76000642449822	14	0.012089337215336268	0.020949623259098563	0.019980830774466767
Si	29.649551803416887	-0.6979916138640528	25.898989631571492	14	-0.10427888957456578	0.21650917946222153	-0.029992200670059355
Si	28.76490280814572	-4.618305878052975	15.85976800140463	14	0.003563037752661208	-0.01088785969923107	-0.05470386523359859
Si	31.928901883706278	2.6984437239977117	10.291371450685475	14	0.041341316663724995	-0.0688374882889846	0.03848533287410451
Si	29.33075184915602	4.775495264304308	19.66262784102538	14	0.008108751958683012	0.005038337985362175	0.020814383119258775
Si	38.07997907813668	-1.2194077782044188	10.807595182672042	14	-0.025508707212785135	-0.02559021125143383	0.015299619318073159
Si	25.15598547498477	2.7021018425339425	14.459381604140301	14	0.004245923325692538	-0.0026749779750820614	0.05392687720584984
Si	30.713365095752376	8.345784568696377	19.419705190583606	14	-0.006816514424776587	0.05385822869380188	0.05935808008413064
Si	27.259934175128482	9.292146711413142	14.167087453257215	14	0.0122878265460517	-0.04493855011714417	0.00675197968124087
Si	28.61827677134704	2.7938446389660845	20.676301657273402	14	-0.08895381631382317	0.007072082293599306	0.0420897654224201
Si	24.750366610790614	5.3021562601896814	24.162095628367332	14	-0.3212765790476155	0.2103261853883294	0.28375592488963053
Si	25.523100758489157	0.34736897579248055	25.004502688150964	14	-0.1061005176938907	0.06916196178038728	-0.11821325196764032
Si	30.269391661068454	3.0866234823678473	22.365360111328545	14	0.015671144036834558	0.16522231319909972	-0.03313126315542815
Si	26.656845683916327	-1.4952846074920476	13.465544156714072	14	0.1677129429227272	0.039773713750030706	-0.014503090889891284
Si	37.04955225797451	0.6899434255893999	16.76078683150422	14	-0.04233350620677013	-0.021075607419785817	0.05876621163943255
Si	32.442016051189576	1.3867953570446718	24.8803329797345	14	-0.08199383421218231	0.07019554611908681	0.015267994722635339
Si	39.76301817510176	6.132645778922872	11.487296203854939	14	-0.03809349642331394	-0.008767726252236964	0.04248468719959484
Si	26.746065131796843	2.9860645220149054	22.211137829279384	14	0.050925883076173004	-0.11684876637423773	-0.048059357754739906
Si	40.82342879495816	-1.3745961703414846	21.559869919225896	14	-0.1023017095833719	-0.017221777655415865	0.1023778143008483
Si	30.900423658467176	1.0295900705775543	23.12753090957444	14	0.03237150153332439	-0.12729902394797957	0.016914016348594137
Si	30.319071006758115	6.141031286990929	24.821177567809755	14	0.07729642479227178	0.015728222574941844	0.01892282093522583
Si	35.55829911325606	2.3749671419214997	20.319025959393098	14	-0.030254196302182446	0.040512906529573275	0.010606837887738883
Si	27.56771883691253	0.6181499837351004	13.005253286392938	14	-0.04285466925516415	0.13901657933402245	0.09809589550067369
Si	32.13493714101212	1.1546947770621436	13.982951782927003	14	-0.041636993775542024	0.04098084769784024	0.1462771236475886
Si	32.026644387531775	-3.2623720071552778	22.407369525405088	14	-0.09145961555883947	-0.09895670156185926	-0.01750999856180446
Si	27.046661279536995	10.296355923749166	16.272185660658064	14	0.01387394141805105	-0.0008716047035301987	-0.09642544837417348
Si	36.603147173323585	8.712271061906268	23.884304591125876	14	0.18968020966754037	0.35176757414978355	0.5648867512473899
Si	28.830562269679195	1.1222678650778197	19.017547947958647	14	0.00658460072489923	0.0041387082338423635	0.0013135777080636535
Si	28.683775760357438	1.2395847417690726	15.03158895950878	14	-0.0035818068214982885	0.024036235195936333	-0.018714818514825853
Si	32.69586884542246	-4.381640018536421	18.133149486320452	14	0.06257633261336	0.24227345454382937	-0.10391584950336087
Si	39.65214967387858	6.55538444136962	21.058222987243596	14	0.17913070742844076	0.02340451461877595	0.18112254271995948
Si	40.51218906150382	4.452884906357759	20.06175248045915	14	-0.04234096241219856	0.04091759850696459	-0.16033824153294643
Si	21.851728501832067	7.688498939027562	10.662526384337083	14	-0.05257807535490016	0.0010243283595469945	0.009098113285875993
Si	36.30752567379877	-1.5156335059028536	16.906821739927082	14	0.0662887515851218	0.12015366515275606	-0.10378600868469341
Si	27.994768970310886	9.665389425339455	22.1704809693259	14	-0.03856169470211291	-0.06876832555587262	0.06479082562560352
Si	32.037155337793216	5.046649616484287	9.820725190201793	14	-0.04571219570797673	0.03024288343877379	0.012752425277402456
Si	33.741504530832835	-3.4063486098484885	14.461014166441386	14	0.16041820290840306	-0.010954965548086934	-0.11751211154683594
Si	38.6848540542741	4.607601705773949	16.850905253008904	14	0.017958399329638285	0.033908765404240926	0.001807229929532085
Si	39.788287685061974	10.455749350980698	17.941088438319976	14	-0.03520203138027541	-0.020639805068020718	0.04429654511870319
Si	26.1556899943516	-2.9167125549759683	22.051200760439063	14	0.3969382950773371	0.34231182011387495	-0.8495605607363133
Si	28.16045357543687	5.634237771947135	13.409201926367327	14	0.0013300327821126013	-0.01990729716231053	-0.01346102190363527
Si	39.080880591527674	6.041553059956659	23.319133464651834	14	-0.29491914996864943	0.10201014624006713	-0.19090971223163516
Si	28.820475425371594	-2.814776478379083	26.36338401355413	14	-0.0754670833569864	-0.15022274187188786	0.08468963814035758
Si	38.778398072904025	-2.9347116771560264	14.194500417632792	14	-0.030891573311047155	-0.003348864679492873	-0.08737695742097634
Si	35.95520661191183	4.387577501890214	10.862322862939681	14	-0.016479756660021126	0.0001038726549339824	-0.05284315631340743
Si	39.7075307065616	-2.002166546171006	18.048876849584943	14	-0.05570479653473224	-0.003945361113767227	-0.022965884051158684
Si	29.611786723828214	-4.552634954196422	19.812368354751502	14	0.00941024547174197	0.12837091775594933	0.019830164002706086
Si	34.74969608170069	-1.5082484948919312	15.22257582408948	14	-0.11018523271600995	0.04793260226245661	0.10207828053105104
Si	25.908755530832945	2.1210177366798275	12.252091874085425	14	0.021868536300519485	-0.012430522891319918	0.01108789169313859
Si	38.177279463786356	2.4052538744399086	24.09782147045143	14	0.02910311245035215	-0.03555195881434756	0.06779310530794044
Si	36.10653875107091	6.785675611780737	11.028940828659062	14	0.01615425472649038	-0.0008613202822496064	0.04205531261113011
Si	27.599001154063895	12.092806520185759	25.234201092711537	14	0.4951092668533591	-0.07121550359958954	0.24729739433939874
Si	29.623009975595146	-0.9652520511473638	15.030071020438465	14	0.015180577141750303	0.10927480432214551	0.03892602032597789
Si	35.00818620435551	7.899471182630061	25.513336496702433	14	-0.08452457317880407	0.0009474523104745672	0.02145715944929579
Si	30.92721274497243	12.25985186680843	9.943155900460035	14	-0.0648910987330893	-0.21373135727433354	-0.043407714009528
Si	35.10501335980959	7.324570181338528	13.12370657054352	14	-0.04358717716087434	-0.027306938273696704	-0.02483276362411821
Si	26.377765954066085	3.925048203619648	10.78976308291396	14	0.035736307065802185	-0.0013657711460626596	-0.035309246472125584
Si	37.5841222567829	2.9091425093210916	27.681141798707117	14	-0.025143353146792093	-0.07188424809336007	0.03829532819094556
Si	32.35476484792882	-2.670264421450712	12.701699859298964	14	-0.04352675618585086	0.045082789125604476	0.03474154641743689
Si	39.74759807561399	-0.8244750740673109	14.131618113233356	14	0.030030767249861576	-0.07625718402186792	0.06171655499430247
Si	27.013500778875756	-2.609211176319393	18.60653360454476	14	-0.0007373930058184691	0.06676543451147726	0.033455222425766803
Si	33.647560968369945	9.589335274250029	9.80097724501516	14	0.02328470111085705	0.07265275147355232	0.03248488727794292
Si	36.27148321762107	-1.4494385901342184	24.315445136387932	14	-0.023676023340583587	-0.02932834127639712	0.06520708757693551
Si	27.476398508959505	-0.6098823738472627	19.88466777629591	14	-0.02560409522016263	-0.012256201950613877	0.04477297093452663
Si	29.670432881113403	8.091378308006357	21.59118826082122	14	0.026941584207703664	-0.004104769643616409	-0.008402886407307951
Si	30.762409101248636	7.739707686110618	15.571154893703929	14	-0.05302596190166995	0.0009353681154698712	0.035874118310962114
Si	34.27241477363026	9.178826910526247	16.87456348783946	14	0.05184839566504213	0.03171741233987872	-0.02797131188842297
Si	25.13253356196959	-4.445228074542443	12.281997074992848	14	0.018046845352651383	-0.015153580535888748	-0.021846424794766214
Si	33.79830034167848	9.322829712815063	13.538894837032094	14	0.011362742851862421	-0.018543325789971973	0.037704231077843514
Si	28.116215558259245	3.2197190655117054	25.65916999573409	14	0.008898338402500488	-0.03920987035332223	0.04438807646810047
Si	26.510304795803357	7.30443251716728	19.396092805045356	14	0.004557541290494484	-0.03031718838252607	-0.03048765266525189
Si	37.41550165947452	0.8238053469046797	20.60450330299493	14	0.02989115623097754	0.016047039634640204	-0.0031308349483443157
Si	31.067169347215128	4.065463298785419	16.42504883868526	14	-0.027306938273696704	0.025618236299423443	0.037869296039397024
Si	28.203113066979345	6.421435733893903	20.824938513034702	14	-0.020929568637601408	0.04009535902558123	-0.010706596774160628
Si	32.32936433999059	-7.025505072466492	15.229749600860846	14	0.05069731181321183	-0.020234855980097395	-0.1652320833993163
Si	35.35524897237437	-5.144866987980107	9.800854434410764	14	-0.05664273575552225	0.032001005256691056	0.012677863223118162
Si	38.40473780292277	1.4318111747167943	18.568947009701144	14	-0.03783690011236316	-0.016815800125364478	0.003023362745962126
Si	26.126680492118897	-4.357528203206967	20.08632278871168	14	-0.0434683920950835	-0.012141530653335274	0.01978362699641141
Si	30.48339487038741	2.7306954261864327	14.57160757191072	14	0.015501708196236795	0.005175635009458083	-0.048434739131481525
Si	36.01206628427176	6.1367836775536055	19.814858953808624	14	-0.3002045711752778	-0.26709336264134687	-0.3531467150435109
Si	32.14765540720321	3.0842245818953415	18.30432454420023	14	0.04398646981709334	-0.012038429329997335	-0.004853732623375543
Si	40.09756081137128	-0.36825824086262243	23.57150270678363	14	-0.04662982319673757	-0.08040232001901065	0.005859034803553442
Si	31.32314922111612	7.634138053098382	23.24682094330963	14	-0.020956308132930947	0.0387388438586711	0.002654666243052892
Si	27.582641144083823	1.9063464376729666	17.041628484158835	14	-0.012905406043951267	-0.00299842302435669	-0.019264006611209483
Si	33.35437439376159	-2.254021621239071	19.0705972166329	14	-0.03639245314350397	-0.022335963247722405	-0.05530164722053302
Si	31.660775222293307	4.819243676539079	19.75495030351026	14	0.04720780767270687	0.06710327775054473	-0.017752710904026442
Si	33.40784449344023	0.3091208411598575	15.81102365378309	14	0.009239009857420107	-0.014699009115286567	-0.019298716533031484
Si	28.174350823430153	-1.6036788844053587	21.980198218877064	14	0.16279236156102778	0.10608251995664966	-0.0062357017329551356
Si	35.15609929628825	11.17595167201818	14.009663908120169	14	-0.013265360788771998	-0.00412251027032543	0.02068325674793122
Si	31.475740578338925	5.909531660232572	11.93605761463552	14	0.013637656839129441	-0.01460079289205691	0.02385471516033388
H	24.270260658819108	6.600385521769216	25.004907144408104	1	0.18212244557896506	-0.09251942517180452	0.05746548945796964
H	35.4044665501915	7.837553350843805	22.03588873428316	1	-0.6338183419910919	-0.3365877683396293	0.9612802291073876
H	37.00643754845842	7.504396018191856	21.092159650924607	1	1.0732582935631367	-3.479261885351631	1.0508727079827354
H	25.33186827269967	-3.5453407394780077	25.781602343467053	1	-0.6907960927698293	-0.5770881886546846	1.3873985126841493
H	25.10192752187976	-4.3417478592796375	23.380956322904026	1	-0.3063507984430918	-1.052965330602804	-0.29949108944893676
