225
config_type=amorph dft_energy=-23243.466045885307 dft_virial="-35.83942120864638 15.04018740770738 12.313274924440806 15.040187407707377 -48.313338989244265 -6.381537460840327 12.313274924440806 -6.381537460840327 -28.34543196891821" pbc="T T T" Lattice="16.361032875668172 0.052224782512610396 -0.0334749075879702 0.0521266156281882 16.392658973599527 0.046236602562856194 -0.0335239910301813 0.04628568600506729 16.30928256643027" Properties=species:S:1:pos:R:3:Z:I:1:dft_force:R:3
Si	33.85119270876367	0.9861010790536623	24.274170534286775	14	2.227981030753037	-0.4683083221066675	-0.8656340827557509
Si	32.492309430575666	12.075657339216196	23.21051434431009	14	-0.10817051458714191	-0.04170178562960975	0.005977048537748239
Si	37.46584627963045	-0.3657681752423768	20.501620438171106	14	-0.0920643395301383	0.02775713881525463	-0.0020676828984630856
Si	38.13920075383291	0.9397090455904709	11.798856175210918	14	-0.0647103500290829	-0.06251899696472069	-0.06672095438943869
Si	27.014001734051412	10.244480091155062	18.99529868015466	14	0.006295351376382571	0.00821570994000117	-0.035198431832827205
Si	27.240605261707397	11.145537562119033	24.4468329950675	14	0.07389510956424787	0.29323918975246466	0.24540840326068594
Si	32.949737661917794	12.935771038802406	13.200738184890588	14	-0.016673618001160292	-0.10904983260663255	0.02009267385589321
Si	27.539381082790584	2.9180842646132112	14.655744840190069	14	-0.026499096982106174	-0.05561300807480295	0.07309035359904154
Si	41.01812952047958	12.563044467569236	21.966671201861722	14	-0.4427008844495887	-0.29208090680573795	-0.04847433415341181
Si	31.189463082245332	9.493393805637629	12.12060631947838	14	0.06514460971765591	-0.0410376691254155	-0.02630780674628716
Si	42.52454780926571	2.290666983976124	16.601482842371908	14	0.003953845761323716	0.014658642761760241	-0.04836249107198536
Si	42.556669649963396	6.300144491759509	24.242711320058937	14	0.07308906804638146	-0.2490269768882624	-0.2035922034443296
Si	35.24239743364769	0.07784961157628532	19.736090531725687	14	-0.0013873684307519035	-0.005639719519744811	0.011322376498336095
Si	40.014553099884026	10.410567006794242	13.593266652826454	14	0.11209633530047602	-0.06199449147941049	-0.001252899622508159
Si	39.86253022655307	4.163588063523056	11.806205602624658	14	-0.10229168227262335	0.2505225888529925	-0.1885612646322119
Si	31.225411795320746	10.600402127889893	24.56276481334064	14	0.026774719472426052	-0.013444052608522291	-0.0035499251155284533
Si	26.781226781594754	8.202234224897758	12.870378804859296	14	0.21318911116231432	-0.13144827371363457	0.06664870632994253
Si	41.551244419711225	5.439389435195073	12.656713672570158	14	0.09253202358787324	-0.6068446189668862	0.36561349051984493
Si	30.46858438317935	-0.9862074265117863	12.593544918559212	14	-0.22720986269414584	0.1407559320831026	0.22535223910033883
Si	37.1666385242558	3.6952698524690284	14.518854392092791	14	0.004161076850127651	0.05004785060934243	-0.003040846262139133
Si	38.78378251421122	6.824187134755799	14.01713162638463	14	0.01635222983614178	-0.0026610940063532614	0.04127421081486913
Si	36.54866653401488	3.7841959608376188	22.290106544311765	14	0.08061289354473078	-0.19713255843798955	-0.03186190845887104
Si	34.38136914592161	-1.005176540811636	23.08505870213326	14	0.05075130502493495	0.08657682944534627	0.045356868952732256
Si	34.35193216951287	1.3050256531645057	16.050105630408257	14	-0.053688792853204124	0.019049833538041145	-0.01167873169570862
Si	40.43856695988358	11.706661109591067	10.00373889602754	14	0.00038515157695818227	0.06786406781477652	0.07200354738021493
Si	37.40327634361448	-2.742601142020087	20.656197286611782	14	0.003853572653837941	-0.0531223783511755	-0.04811746473497525
Si	35.28091321075074	12.55187471223673	20.4964568600505	14	-1.9388404399914207	4.673811558171689	1.1580960273699348
Si	39.00356017117037	0.6239307201253591	19.01218992873424	14	0.12204754133157715	-0.06754936452359041	0.04146832926654031
Si	40.811475139852924	5.7006409647078735	16.92560862524239	14	-0.031926957423470785	-0.03418335945243275	0.06550533579407268
Si	34.389330480248255	11.204193911676038	22.26000203308896	14	-0.045224457028744634	0.021985521592586224	0.32997000035610013
Si	37.930084020521996	5.067392571136108	12.744306347425347	14	-0.04046945484966278	-0.049626960668434195	-0.0630172771757654
Si	35.583877485569275	0.24065284493154254	25.701304338869313	14	-0.126906930386657	0.010447943578953733	-0.04692550030855461
Si	35.356662051000384	3.8006978141089904	10.401957771030414	14	0.0008983441988597388	0.03060695195210676	-0.050524019314633864
Si	42.90463362460106	5.562633050242924	20.282919344711107	14	-0.3889257024576276	-0.07752371050257287	-0.07689147570434844
Si	34.79485624368162	8.431136493763963	17.64557928062747	14	0.014315914422584503	0.0046765834668173415	-0.07646750043705602
Si	29.064138581701524	3.12489244002546	22.18642758932926	14	0.0017264972224794353	-0.015847007640732685	0.03716172785529227
Si	37.70019190223787	-0.2665116384030904	17.258440174646378	14	-0.01565263207852949	0.04591608435986447	-0.006125401314720783
Si	38.56711183914401	13.253344182137704	10.263067990720405	14	0.011668447274428027	-0.009419501450894503	0.03755125031129471
Si	27.584747272311564	-1.970665846366117	22.556238604095093	14	1.0400748369697097	2.83236741592333	2.1323220288748
Si	32.5054376152524	9.806840667597713	10.142844643483278	14	-0.05983373456835804	0.012903092049163133	-0.010189804604810865
Si	34.07884498596824	-1.947887856950686	14.410905177637922	14	0.1360693213055367	-0.0035082732093420542	-0.022462718740005706
Si	37.95071051905384	6.615135846034502	19.357472311312446	14	0.1688468003689125	0.0770971641299603	0.05232816391778176
Si	34.80833619302753	7.5396552023753785	21.048205470060214	14	-0.025959421975407092	-0.09767449133870142	0.03749340044159138
Si	27.01642645609664	-3.137286009183763	14.645702367913678	14	-0.5498388431401592	0.3159443637241604	0.03731008063226482
Si	31.889891983171434	-1.6782414227050466	20.148401262987367	14	0.11693155596554648	-0.03092576901180512	0.05251482616402452
Si	39.24937332199304	-0.9245406258325006	10.771595357633768	14	0.014682811151769636	0.021617082200209005	-0.027920918224148064
Si	28.499845879977393	8.521932681280797	22.221533703313376	14	-0.2399782288245332	0.32688595952458255	0.2921151025064959
Si	30.220364507573596	12.319606955349583	18.16861898528791	14	-0.10966844054666018	0.07421726906086244	0.006274525423289372
Si	29.20854861314554	6.91099283842087	20.69429258222656	14	0.16507961685383152	0.03424737997490442	-0.20441804247316117
Si	33.248151901643354	2.8117286259154595	17.423268918050212	14	-0.025269080196947333	0.07424863654576824	0.01366748166084316
Si	36.550207754100306	-1.0316341522781594	24.017581931784026	14	0.10233539106306584	-0.12659608375345113	-0.11844310878326157
Si	26.616744894515875	2.825509620373596	9.022719589357466	14	-0.004446726651196103	-0.0411991345395208	0.00604286883394403
Si	27.454129688128866	0.787939770044269	13.672233730770413	14	0.0016051410513684458	-0.02570848209616064	0.18278424808837118
Si	40.46349153183837	-0.24325426736873085	23.27921316614349	14	-0.08268391888011005	0.05293931565238096	-0.11199940462990644
Si	36.48117352874513	4.922555513744853	16.386654432502368	14	-0.009164962024199842	0.06690041754078503	-0.043751727901363814
Si	31.96063594843029	5.88351441758325	10.913230538478118	14	-0.0041551633078913104	0.03448572143808215	0.0016079692672206084
Si	32.80932956712872	-0.07936628994060832	15.067196611213058	14	0.08376069778818808	-0.04452588771326041	0.10175354992911634
Si	28.477292038281387	6.534223427664245	12.978984101325057	14	0.0200178546910769	0.025157494226052908	0.004930351561915956
Si	34.43126246492919	7.685446114660268	13.85227506903021	14	0.003918364507905672	-0.018759555747396427	-0.00426314973133753
Si	42.120304759788795	1.0710612452915955	10.123849351347582	14	0.03745303408806506	-0.04494189255406036	0.022238518356088796
Si	40.59042785785524	4.5565239240292765	20.48350864799521	14	0.18339180027552218	0.0284112280087003	0.1450910727634043
Si	27.509957195299773	2.1646845128528933	18.68629223359994	14	0.06471189269227498	0.09952748694293213	0.054279375745242144
Si	34.181615897269836	2.1781186509860717	19.608237981454213	14	0.019057803964533604	0.0547527162346814	-0.012946800839605652
Si	38.525993003489035	12.737635907628858	22.566295801404145	14	-0.0838013212522464	0.01833995135914826	-0.211221187150273
Si	29.18900195034234	7.79595748479856	9.515082142635972	14	0.04181414293210022	0.07450908951469924	0.004356995075522935
Si	28.41367008048736	-0.07695302069856257	24.13717210261663	14	0.31932228189377093	0.23276756395417791	0.16687193437250675
Si	34.27046019990141	11.42742213462264	10.042617890602951	14	0.26094173605236054	-0.3541358192601719	-0.09607577805063335
Si	40.190383078802114	-0.9350772047604835	14.826370338119037	14	0.05044405793917725	-0.06660756864482018	0.04394353235824686
Si	39.653868333139975	13.293982000059012	15.559868390177492	14	0.037397241102617836	0.001481727996001338	-0.033480933478968286
Si	37.51304491766064	5.881194406881405	23.057414907479966	14	0.01169647232241764	-0.021954668328744445	0.06338777345239874
Si	30.24009605134246	8.610898056403157	23.90306698887605	14	-0.0622222914107756	-0.06700711841157118	0.1560784342385251
Si	36.48985311744279	12.051796241842638	17.121535001516435	14	0.30339119910906936	-0.1960233836028777	0.05684816707060209
Si	24.735515624317344	-2.8984590683024734	19.690735795007893	14	0.14372118784882942	0.44438958642386195	-0.45298864816709716
Si	27.384599720007362	-0.8975349159279534	15.348670518916832	14	0.04285338370250408	-0.023308098169270392	0.009339797185969913
Si	39.23606843692436	6.397666746974003	21.309496266326782	14	-0.10486587291915558	0.015034795470097909	0.006868193641711564
Si	41.237336173394354	7.520625551830135	11.6016503572099	14	-0.06992840827632343	0.22218797978283258	-0.028183685187867197
Si	29.249878507602027	6.173687547361571	15.181366333910816	14	0.01600667328111388	0.020228685327329042	0.03714732966549944
Si	41.73516171379096	-2.195847590312721	23.42280350410258	14	0.3179647382847327	0.1644509816030553	0.47139416271190926
Si	29.856919615262548	10.797861543675667	16.355016881767835	14	-0.037847441644175764	-0.11897224225814804	0.3252553645305446
Si	38.32661115288333	11.94081039842964	14.06771374969791	14	-0.019644787309123415	0.04194629774555583	-0.006928871727267058
Si	31.33346735723374	7.10166728637833	15.682369209133217	14	-0.027185582102585714	0.02357292201724565	-0.03131272036248741
Si	35.389507054413315	7.5463616366961555	11.652736403863212	14	0.0036566259863145983	0.02079715671361378	-0.012797419620505047
Si	38.34761886614968	2.4029060912802462	22.836686667856654	14	-0.0002838500273443479	-0.012605615163622	-0.06842122633765263
Si	31.818735716998003	9.50057144100363	15.925042655769115	14	0.03700386198863518	-0.07566660112982991	-0.022558363857915216
Si	38.069029428733174	-2.565326473786257	17.19004076181047	14	0.07697709351150939	0.014263463874053481	-0.07445406786084807
Si	35.81974142265575	8.66102206758913	15.530416688736093	14	-0.04353524083340735	-0.055241226245509534	0.01502965325945761
Si	38.29798732550056	10.8511612535727	18.405174998909565	14	0.01974686019033329	0.40392861622175574	-0.3259955857522152
Si	42.27983249143383	12.82374299029979	9.054461851435386	14	-0.12112065786366376	-0.05367902265298756	-0.020036880870445993
Si	31.048227113397633	-2.088156881986827	10.62595005956077	14	-0.577303390169981	0.2232945835126243	-0.2515690287182928
Si	36.270114727237406	8.248251588085404	19.45212645738707	14	-0.29056626866163876	-0.08237435779956422	-0.14963241609038186
Si	31.682900562908266	4.300625761946966	25.416747990994683	14	-0.029029578838195916	0.0672853120072112	0.0016696757949041625
Si	31.056226078363302	13.048705494871184	21.636714306056565	14	0.044919781048307086	0.030538303440058808	-0.08468372459812123
Si	27.535045378728604	-0.46185064948534543	9.972014631211765	14	-0.0242804902013504	-0.02026776612819529	-0.11780958843237707
Si	29.39265078819093	12.739690867742764	10.793309872467958	14	-0.19746628790854476	-0.22289734774066142	0.16995263276710817
Si	30.814481944899935	1.526247999439414	21.97775751534247	14	0.05976328628258598	0.0765973412557235	-0.032621412970442784
Si	38.6393283076692	2.4640902381111225	25.127523807765776	14	-0.004395304544793141	-0.041019414277642455	0.004134851575862141
Si	31.26606597438946	-1.5107032732911585	16.114962854831266	14	0.08882577526887979	0.0003159888438461989	-0.1502826486258473
Si	26.3917709371413	12.462663919903314	18.312533273965595	14	-0.009331055427881409	0.014096084917711844	-0.008994754852006041
Si	41.10740575740262	-0.5431802771143976	18.759230228725635	14	0.02894807479954722	-0.01228576966179558	-0.08922943880414304
Si	41.54672547079832	11.373935907645203	12.068659676471633	14	-0.07584452161798416	-0.07528684887404404	0.007712801739380207
Si	30.945413663112785	6.037935835123592	21.992117694418695	14	0.17496577392033288	-0.23033426987918978	0.14040883286488265
Si	28.2538413037301	10.477631350002008	20.962471421550088	14	0.015072076497240055	0.09985633131337907	-0.19915498988281802
Si	42.428818735806665	8.240871074491594	15.038932729073165	14	-0.0452776789088717	0.031185707759672093	0.0913696268726343
Si	36.8731588065872	10.367856231496884	20.13085229628216	14	3.098421794904805	-2.683667282622034	-0.07072108004652508
Si	39.92750688735212	9.386328093142556	17.554555673161722	14	0.024862845556363943	-0.2319237271881053	0.09631077707689488
Si	35.73446057792871	3.8893768691517847	20.072801309179095	14	-0.10930025826481499	-0.04802413361185388	0.03387919769305922
Si	27.32630658792272	9.247642827175092	9.58449921884039	14	0.07239204139408932	-0.23658025603342547	0.02174949412419663
Si	27.256161440658836	10.146095603472393	11.750697137828126	14	-0.09644216055875444	0.12026576534471453	-0.059953548076276945
Si	39.012251212671224	12.92318931644896	19.129170496555954	14	-0.026896846975133084	-0.11372847295770601	0.06425937815592891
Si	33.05241204244971	1.0431491278208833	11.422358359501194	14	-0.07393264770192204	0.2098029654556793	0.0018103152559162624
Si	36.84804117309304	2.004263462559615	10.144466033190985	14	0.0032033401183724918	0.010303190349429397	0.04685016692267427
Si	41.13164970562542	10.08147561568674	15.646143992666683	14	-0.03524265484433375	0.04699620570485868	-0.07826290328211544
Si	41.369647136333334	4.265480381209079	8.013181166648005	14	0.07404011990430422	-0.007444121233424732	-0.07844159510186574
Si	36.59014695102748	5.677575019098137	10.922623473202583	14	0.007229433939192369	0.029771599833590647	0.06470829314482678
Si	34.35423745518205	-4.305386855841443	18.233960499674065	14	3.923764857520111	-3.8932998305816775	1.685464181343596
Si	29.370067496429606	11.9280748812906	24.962107699170147	14	0.060411204823263294	-0.0017087565957704131	-0.09557466962373648
Si	31.531636846816834	1.9741834930579125	9.74819904307337	14	-0.8965135718717934	0.52273193686037	0.9664157548738512
Si	43.3846402393603	12.014597537105585	22.219801057803327	14	-0.4086152269993216	-2.0537323381064936	0.07439776065433683
Si	39.194691095140406	8.525733375822675	12.518524149369027	14	-0.37483964485066434	-0.014639359471859131	0.225546100441478
Si	40.36171537829892	10.09394935446732	6.281469878112926	14	-0.01573130790132602	0.03033312923551099	0.24675900488535973
Si	34.097117115388684	5.561495950498367	20.12701560721599	14	0.0053738672296415	0.03072445146523753	0.03258104661691646
Si	42.31304234843386	-2.8910883713971063	12.541066538261845	14	0.037527596142349344	-0.11522048537498797	0.020406348704951272
Si	39.90977303968125	2.147814533764939	12.835613002741175	14	0.16607026373368455	-0.053781352644729455	0.1703521825338592
Si	27.679344154370277	7.356523243371025	16.5766711623342	14	0.03525988124997874	-0.043692592479000404	0.009005039273286632
Si	37.419311904184845	7.034398428828017	15.860960949733043	14	-0.054471180202125186	-0.011286381023854023	0.05969540910213406
Si	33.28823344055294	13.498123308444459	10.82453512228792	14	0.7322307405566757	-1.3282628332102113	-0.3764563558759734
Si	35.83333426391875	7.499742183284052	23.08948275639122	14	0.004946806635964904	0.044670383832252726	-0.017877666622585636
Si	30.715753873121788	0.7617979287226372	24.201011663671128	14	-1.2823812016616367	-0.1312531268198353	-0.008032904351738642
Si	30.805162635338785	-2.789196053711084	14.159805740089116	14	0.10546005535864182	0.10570482458511991	-0.045980104882336156
Si	33.96322566561051	4.447521051681606	8.509740354235559	14	-0.00023885568424175655	-0.08611145938239947	0.10236135922679934
Si	31.289446054029344	6.471849825417119	17.90843420258583	14	0.001371941798831015	-0.12891727763648078	0.05090505712307981
Si	40.113181368663014	0.5384159109904403	9.12686810927046	14	0.022962027393178465	-0.11330526902200966	0.055373123948433134
Si	27.316962736640466	4.468523856603737	12.64712931242107	14	0.015118099282470703	0.09880526345850255	0.04436236541489899
Si	33.16264690919689	10.067951491242841	17.86885658701628	14	0.0031832854968753366	-0.08186579316723894	-0.06515695102319262
Si	29.340617431102945	11.02878768647571	12.379042095523005	14	-0.015848550303924774	-0.15981425026870025	-0.28539757563654505
Si	30.47604997473966	4.464057263362526	18.860795323463584	14	0.06481216579976078	0.043396144035587336	-0.06000368463001983
Si	26.54586840396305	7.140060354875852	22.138026406964894	14	-0.16124507037936267	0.022056226988890294	0.15384157260999629
Si	27.38555521101574	1.8804995630243262	23.347875993452593	14	0.06715238586215955	0.040298733456404945	-0.029680582705257405
Si	32.05173972551832	4.5625039234053295	20.614307840914094	14	-0.005021882911313228	0.07892470579152155	-0.10287429473816889
Si	28.754935801377954	0.3681847167139033	11.784707054936199	14	0.00030313331724545855	0.0041559346394873554	-0.021176651858867638
Si	39.178537734308726	2.6193755242343797	15.024111165640154	14	-0.040666401517186125	0.010068191323167863	0.03484541907237087
Si	34.474696402941795	2.957064698302527	23.173714851569688	14	-0.28191707036466057	0.18047668106353829	-0.018748499994519795
Si	41.7715129110925	8.00674959960361	9.35017977406882	14	0.09740761060647005	-0.010505536338125052	-0.2406796263558696
Si	28.37968961344462	4.060092353391472	20.022070299424442	14	0.00297116930796312	-0.5474191759233678	-0.07695035401617983
Si	42.76802131600965	0.5751908620097367	19.987787151154727	14	-0.04909654164088765	0.02063569129950848	0.031140199195505477
Si	32.848262553490564	2.600794169127998	21.48729449127753	14	0.006927586174606985	0.06798722375961164	-0.00964395894534343
Si	32.21427463605615	7.647651864157721	23.073216503642463	14	0.09674143721801969	0.06261258519837408	0.12031127390888113
Si	37.387139343930215	4.439402650339891	18.5479685489901	14	-0.03604535392528398	0.038350092734264714	0.02291369061315968
Si	29.733414221856236	2.429861081627842	11.223382265351097	14	0.033814148728459476	0.14564488884936422	0.08379052260990179
Si	34.18637535504957	2.9431511785504205	12.231754138250675	14	-0.010337386050187365	0.05785861146142028	0.06914010738516602
Si	34.10903621127228	-1.6231452588230868	20.851925693002247	14	-0.11338368773427418	-0.01024456914813002	-0.11116868050096661
Si	29.117446472172258	12.051406846534432	14.485024447606161	14	-0.04242272356137927	0.17480328006409954	0.01632420478815217
Si	38.060775229868014	10.458230301410701	22.13921913461062	14	-0.30009529919917155	0.21216581124489536	0.2626111547367327
Si	30.839267447101797	2.841250680290696	17.20945162709022	14	-0.0774116103106144	-0.005486995863728015	0.09236233063674347
Si	30.758804960285143	3.059305508428248	13.26672923682867	14	-0.034718406469555554	0.029579538266175594	0.04575950404586745
Si	34.60139712843605	-2.421768858121972	16.672388782990062	14	0.9736166495439901	0.8620216797809428	-0.9397945303890382
Si	41.58561755429166	8.751327420683852	19.121744171749416	14	-0.009861474455427958	0.021999919782379054	-0.03498117343327469
Si	42.527026523097376	6.704065226632573	18.240360980538394	14	-0.046593056390659464	0.0630051929807607	-0.08385994245354579
Si	23.85313767534418	9.620722799192183	8.71938882483709	14	-0.17617702163665466	-0.06777845000761559	0.14151337971041825
Si	38.40786551923432	0.44666423246523107	15.22746059449126	14	0.005000285626623984	-0.023956016709947712	-0.02261518528549049
Si	30.322196289014226	11.329513756329419	20.268765316092168	14	-0.07635565735562959	-0.026414507617073306	0.07139033876135963
Si	34.05593447125883	6.76011688152291	8.080487654837345	14	-0.057547250607150345	0.029619133288105868	0.05403846317674426
Si	35.84373340920854	-1.6186263099101847	12.906173723149113	14	-0.01914367888222655	-0.13818945475253083	-0.044152820331306915
Si	40.987061337674696	6.392193943167466	14.719392975819945	14	-0.07205908325513014	0.16776333658700207	-0.021061466340525005
Si	41.8017875782483	12.302682984475195	16.094097483547326	14	0.018728959594086665	-0.07809321033098567	0.04179845918964732
Si	28.11335794766297	-1.1244509414993493	20.4029021830814	14	0.2739597565093343	0.2739448440984774	-0.2205699832048634
Si	30.229106268631394	7.353183933185929	11.572980718614396	14	-0.04775185355845019	0.0005363325697828893	-0.027576647221780236
Si	40.90689989597027	8.201496337149852	21.366236725522814	14	0.21172923756153422	-0.01862200161276851	-0.21281141579078455
Si	31.115924633009925	-1.415797165546516	24.6906778998575	14	-0.09705922583558999	0.23308226724536402	0.07496648915115359
Si	40.819698252538025	-1.1188668818904668	12.563743088563372	14	-0.026075635935877785	0.018898909655748454	0.008315725936954932
Si	38.07897700635463	6.159239018089363	9.084278406463888	14	-0.028589662717918577	0.007228662607596324	-0.0013377460980730455
Si	41.8183434233061	-0.0832667874816504	16.435742783057687	14	-0.04198589276748612	-0.0094889212945385	0.034614019593557546
Si	32.12430959482742	-2.7012205280066484	17.983649669430118	14	-3.000217912980685	1.3700270966991006	0.6495725327297672
Si	36.82936165110223	0.32583388665942586	13.56657507695206	14	-0.0124284660070638	0.12316597214584156	0.0007535909693354019
Si	28.08829757818472	3.9252126903101088	10.45906471992829	14	-0.07530047573224082	0.023541811642871856	-0.0011235730249047103
Si	40.527169117533575	3.210654302486175	22.356032151660234	14	0.011425220711142017	0.007627183932219276	0.04763229716106331
Si	38.186767517679684	8.575610333682855	9.212553074338377	14	0.032345790480122906	-0.024355566476698724	0.09899012593102119
Si	29.70858618067112	13.675435607317318	23.45211777190579	14	-0.3543049979902377	-0.058818919298495594	-0.1941122810184116
Si	31.692722159694704	0.862935997513349	13.304348423053996	14	0.0033295813895917624	0.12161019631661996	-0.04083738002097597
Si	36.793272232159154	9.479017265413997	23.85256994352927	14	-0.025119184756782702	-0.056404394292344534	-0.005285935427692436
Si	33.226083986025245	13.863497180034406	8.152620681510777	14	0.15312423422567498	-0.054436470280303184	0.27074304664329707
Si	37.18975191719301	9.079512404225191	11.308008664181994	14	-0.039945720695948615	-0.058339922377352	-0.03476725747063837
Si	28.377251802481464	5.692563466234668	8.880605026894187	14	-0.017769165978075388	0.03551364934507736	-0.016690587296273266
Si	39.592900153454835	4.489030918759534	25.82749132433509	14	-0.005153780614236824	-0.018315525858606855	0.11119207755937995
Si	34.47583023045687	-0.8889698552621165	11.112874167442286	14	0.286057064151163	0.33695235107402627	0.1831092358008379
Si	41.84467341782288	0.9549003709548064	12.425772804737452	14	-0.1068278833889606	0.009220755009647055	-0.07323613527069393
Si	29.122420260982985	-0.8586330157461759	16.893756743476867	14	-0.06506953344230759	0.04514346721115997	0.17096667670537458
Si	35.61182068922005	11.374976476620079	8.042354728583542	14	0.005050679290898886	0.05150798132065453	0.021872650069031722
Si	38.169534321119365	0.07028094478733371	22.65932855777106	14	0.026073579051621668	0.00014218212420418877	0.005169721467221742
Si	29.559596664068806	1.07505990971706	18.166061737948713	14	0.0074286946015038454	0.06585834855452902	0.03589263026926719
Si	31.876641089889176	9.676172363858063	19.815234310061605	14	0.10612545741549614	0.11436173619805849	-0.024847161813911035
Si	32.877215239936156	9.459948348114985	13.817672878386123	14	0.005708882252856795	8.253248077675334e-05	-0.030104300862017815
Si	36.31173585011768	10.969949728182524	15.063017974166153	14	-0.007633354584987631	-0.03232496452702971	-0.01912593825551753
Si	27.226719555905877	-2.636170242044278	10.669146760936018	14	0.05122670239863033	0.08332669521014709	0.07961093380146908
Si	35.90009919812903	11.06986725537692	11.706774001508153	14	-0.026588828557779345	0.029545085454885604	-0.028550839027584343
Si	29.966377327508038	4.773152060113227	23.727570777365	14	-0.08435205201182214	-0.090791642396665	0.1089755276628803
Si	28.64930986985441	9.216685900172552	17.608925402098958	14	-0.11667187432821154	0.019497462974278925	0.03703882902098919
Si	39.33174351859697	3.0773763957356346	18.91402468042678	14	0.08099238868998464	0.10679805856724688	-0.17438701811276755
Si	33.1214184538543	5.870625105658615	14.648786444199276	14	0.004831364007090255	0.02876655476394477	0.04459273645158426
Si	30.251733735490713	8.180210484377637	19.04527380489926	14	0.08190590241023324	0.06615916787698634	-0.3173633567503501
Si	34.39432390243586	-5.234335174784501	13.534855720480506	14	0.012342848199902867	-0.012098850305020815	-0.034094142097823604
Si	37.26400534856996	-3.2723194670507203	8.180411726490702	14	0.014486635815842338	0.019644787309123415	0.04399932534369407
Si	40.462696380074554	3.3898039582124686	16.877698277300134	14	0.0026549233535849066	-0.03772659969412881	-0.029050147680757102
Si	28.33437905182481	-2.537584512248543	18.42655411022198	14	0.0035679228527694894	-0.048378946146034316	0.0035571242104248677
Si	32.540795690906535	4.5304442550677795	12.792728799281337	14	0.019747631521929335	0.01809801034852233	-0.038805692596994956
Si	39.08731942918888	7.220385408054317	17.44354692414236	14	-0.00303801804628697	0.019340368439217877	-0.10607814907760542
Si	34.13290548921954	4.825533909640912	16.516069472350893	14	0.07409231334230323	-0.027963084351398493	0.018833346470084677
Si	41.852878533245836	1.290575487777558	22.09052181547825	14	0.06955508378383791	-0.05891790685332129	-0.07082803802784324
Si	33.29096247993988	9.155197435999966	21.587909003351328	14	-0.07251931110743663	-0.02025439638053052	0.0002180297311485571
Si	29.665230776166055	3.7537233237982273	15.258918172604355	14	-0.03167036111252001	0.02532975828250283	0.08624952773809141
Si	35.38343216038232	-0.31131664056812286	17.429900091092932	14	0.075234141214981	0.032323678974369635	0.05481313720970488
Si	33.60960400620064	6.445549280965671	18.057420446958663	14	0.03555710102498786	0.06255499243920276	-0.01269328985503905
Si	35.46548331461187	2.131204696920702	14.090354305475149	14	0.0032398498139185944	-0.056433962003526225	-0.022135931253814887
Si	30.21582428916907	0.027262579918785307	20.235696164959812	14	0.004521031594948382	-0.025443915358717404	-0.05888525381575541
Si	37.24676887978016	12.918083002344266	12.2069195526066	14	-0.03650892421450668	0.008970586461996648	-0.048273530827908244
Si	33.53038005824244	7.62734931634447	10.185151298439765	14	0.023788894864138085	-0.053725559659282246	0.043008421353309005
H	32.48248619767448	1.004459922555354	24.894529615933905	1	0.36916830073548174	-0.07291423288461138	-0.27462927233470086
H	30.346273353533512	7.983821087632064	21.20639158761815	1	0.023808692375103226	-0.010634605825196484	-0.15355052348775552
H	35.75342478388433	11.248897474727166	20.152431013592903	1	-0.2512466121111462	-2.273435601707935	-1.1514080682111658
H	33.42681563129176	-3.441176324945346	17.75146371827999	1	-2.5911375730289485	2.1320543768109723	-1.392918418695975
H	32.63815433464699	14.868598459567986	11.34203985078169	1	-0.4202265957356423	0.9149381125959746	-0.0945871080702676
H	40.931083307947674	11.907320765809008	23.475756357674655	1	-0.14414850555303801	-0.4312450675851369	0.19786120968571952
H	27.125517678640293	-3.019796609677793	21.680388752936	1	-0.40381883002458535	-1.5009737477647744	-2.586806546117159
H	30.49984399140886	11.239079150170205	14.345419685154612	1	0.48348401414830955	-0.28270819947167014	0.02615122643229014
H	41.023275101338044	8.93986673890513	10.882180352935375	1	0.019021551379519518	0.4821514102608767	-0.10417038893005554
