234
config_type=amorph dft_energy=-23353.94825426362 dft_virial="-66.55435861548997 -0.16577938658779395 13.367479318518217 -0.16577938658779398 -46.27670925603176 9.283645648916464 13.367479318518216 9.283645648916464 -92.70302429995982" pbc="T T T" Lattice="16.543904932664585 0.0983911286264731 0.1240022715748135 0.0977624313189557 16.358935566926572 0.0021838959103236003 0.12309231494551201 0.0020019045844633 16.273316920442294" Properties=species:S:1:pos:R:3:Z:I:1:dft_force:R:3
Si	8.061092352790752	4.018398255394201	14.622059986913829	14	0.012724400229412845	0.21399489556964874	0.2755481853761218
Si	7.4201883907079225	14.912643882448371	14.053750710250073	14	-0.1442336091391349	-0.14217004000918407	-0.3125551326911411
Si	12.273375894423523	3.102462383804891	12.880247478570478	14	-0.08494752000396842	-0.003391802138339346	-0.26737438445283906
Si	10.71454573743311	3.6337777873210433	3.0541105974570066	14	-0.049368821694291326	0.05135680032782982	0.23988541192247584
Si	1.7405650405279094	13.01277025312875	10.246738688775809	14	-0.014245980357876475	0.054884613937605	0.020975848533364073
Si	1.1938664065767655	13.25637060619256	15.786390855770067	14	0.14969360839700138	-0.1931015795170614	0.006636279941834206
Si	7.0149052892832255	14.854080728253127	5.465229295983586	14	-0.09167121752668766	0.09921329787281005	0.1881946250135588
Si	1.631237887683831	5.45666577686856	6.20048417925879	14	-0.04832521004484322	-0.1842760033951211	0.02195646810246855
Si	15.500495718576326	15.677991858687875	10.821950400089465	14	0.7016852380217206	0.3469220690634325	-0.17230519413504367
Si	5.231797294635573	12.538934328185675	3.0370480834243043	14	0.004645730202975564	0.5956407704238089	0.3450094238157743
Si	16.886897366647098	5.5431695629831585	8.272524911775452	14	-0.169932321035079	-0.008273559809704505	-0.2327050860948983
Si	16.830359279568697	9.18781388692466	13.254967618516835	14	0.06385057241002538	-0.7967850244928257	-0.14945912359180388
Si	10.165350513384485	2.981042734590695	11.791141897025296	14	0.06522688508790064	0.1498118792417282	0.10180317226179521
Si	14.608054927155578	12.609944034603167	5.148761270511914	14	0.019096884765399856	0.06447355122909726	0.08459836390149232
Si	13.432045178578907	6.088791139178528	2.8600466288257738	14	-0.16967135384508397	-0.00676534942890564	-0.10686105064759051
Si	4.603849460487398	11.816997901030248	15.841094139390474	14	-0.6084068225594083	-0.07727354195492246	-0.33474120049869893
Si	1.5067839467275639	10.121990252764967	4.1809843425179976	14	0.0334464806676783	0.032764109315711	-0.047867810408388875
Si	16.570834685492112	6.9115855046591355	5.176553000437379	14	0.2658245221658538	-0.1863092334822942	0.006269383212649075
Si	5.132406868183468	1.6829366599609459	3.467321902822818	14	-0.0407389066872143	0.039075144434546474	-0.045691369754883526
Si	11.314094652414084	6.210080085531424	5.905623487566531	14	0.008469478035099785	0.02124247215506343	0.0662365581471228
Si	13.499016332028898	8.964859622546403	5.8273424004476215	14	-0.5838460818781617	-0.04573276455053791	-0.1355970092582255
Si	10.89543187960546	6.473972471428656	12.89892309753694	14	-0.07090645674010775	-0.18218132389079647	-0.04811592207178316
Si	9.007392649866555	0.24169937094186697	13.628145795593175	14	0.07497420246711403	-0.21584120630004705	-0.10536749556711648
Si	7.780511362312132	4.312658375711122	5.208695977517506	14	0.2148814126840358	0.0428155884542979	-0.021633794384789965
Si	14.63735553061909	14.117356678638249	1.5239672368219737	14	-0.17344367957080525	-0.0631183216148472	-0.017315108778537237
Si	12.783351987749256	-0.24681994506493632	12.497676894613145	14	-1.4698633733909825	0.8994425750525061	0.8887619464420788
Si	10.619390745473753	15.581682049042605	12.104026347844119	14	-0.32562097570706966	-0.12137391173769833	0.05422383987032694
Si	13.810226462649808	3.03803083658395	11.091120534436646	14	0.09774185429808929	0.3650349918228117	-0.0018997897210574154
Si	16.205243892237547	7.7305530888968805	8.772461701780092	14	0.10062869135155157	-0.3019277259608411	0.6036744461071437
Si	10.204561371774385	13.32473316605208	12.441818793306824	14	-0.37364870886637175	-0.10941570089368963	0.2644518090354267
Si	12.27855272041095	7.60444964474168	4.29055304748549	14	0.048890596104743785	0.0721940662844379	-0.15332915131969077
Si	9.673724109105267	3.010297012989439	16.041455007896474	14	-0.043975671174748716	0.1389114211264284	-0.0397197205383076
Si	9.810948877737129	6.477886939401251	0.15733646460602554	14	-0.24671298210012907	-0.06150649568964638	-0.028364948112937636
Si	16.389599450867433	8.952715837711725	15.48965069002165	14	-0.004705379846403	0.07490375418134196	0.3034907008849591
Si	9.341363277486192	11.236703668325294	9.261608060627815	14	-0.20590285579554665	0.10551996211260126	0.043376089414090185
Si	2.646790847649273	5.335782174832352	13.395959607594007	14	-0.19273442567734425	0.08018171918254195	0.1319666085461764
Si	10.59504857840664	1.7719916335707857	9.790228338054636	14	-0.017250059813937492	0.007200894670138725	-0.02419692927844559
Si	12.803455411390424	15.502762337816584	2.0946721811206896	14	-0.00852269991522685	-0.0074996571083399315	-0.018262561089011805
Si	1.928856575196173	0.4444310900838463	13.973265873621656	14	0.005776245212244675	0.11984101874582605	0.0034892470299729577
Si	6.26255976604314	12.230149645598505	0.9262580886987867	14	1.101146301639187	-0.1310962893953063	0.36384534139117913
Si	10.052666447811582	0.04666919381697584	4.481160835391976	14	0.153280814539672	0.035083503425016586	-0.1558940859870705
Si	12.258027407787106	10.227335104505904	11.584960615024965	14	-0.35150789251244857	0.0023265932042019965	-0.37210655989534697
Si	9.421513911861666	11.179487249941413	15.615499346320647	14	-0.39299396240569795	0.3367381780008579	0.0825561349456987
Si	1.2674951336200466	-0.5573170005817929	5.891107197629275	14	0.03235736045406358	-0.04075793286658339	0.028054101479731735
Si	5.7218685003119845	1.7874592418023125	13.64626055038267	14	0.05099890246726521	-0.8735597720156393	0.48807549402902994
Si	13.388784185955316	1.2229866731810122	2.86493723209162	14	-0.005318331354726301	0.03269546080366305	0.16510481368596897
Si	1.3767412176007874	6.118116559641018	11.593438101876856	14	0.11992252278447475	0.1869391542857305	0.047655951330008675
Si	4.51677157446304	15.53047961674511	8.856773319651374	14	-0.12137751128514654	-0.09421146958299398	0.03252396807880917
Si	1.0706764781019285	9.22662105546447	9.652141592324833	14	0.0712214171418259	0.0069080457741738585	-0.095357925445248
Si	6.939716400237342	4.184481884907712	9.039950898062962	14	0.11105940852486032	0.10179905849328298	0.045019025713664805
Si	10.547373468897636	0.9628697800620828	15.296167439166572	14	0.02685159552149848	-0.060580640663861055	0.03912399543562929
Si	0.46411758814213455	5.380581821392763	0.5553779657280813	14	-0.06565625967636537	0.08927828980522584	-0.16769648784867824
Si	1.626568982942215	3.3589990112041685	5.064090633388708	14	0.022106363542633182	0.09718572421734126	0.014422358182838635
Si	14.70994194370517	1.9586287016403194	15.12323266346772	14	0.17887513955961806	0.11208116577908715	0.07211127669312914
Si	10.839891435886093	7.124407815586769	8.015854272581677	14	0.10784038466403491	0.0679190894686277	-0.1422625998007094
Si	3.5723772229089756	9.010959679853416	4.769446676820882	14	-0.03197863664040576	-0.07609751838148672	-0.3479505111914917
Si	7.479433185141845	1.1328910400805714	7.667390517557165	14	0.059751459198113296	0.2524784286700291	-0.15240895272560978
Si	6.957907260490378	8.790604582501764	0.9077975503901574	14	0.06336257662026128	-0.14917193112754334	0.21697223553038017
Si	8.86361784797032	9.772550362447205	6.043544786636461	14	0.059327741041352904	-0.4944562061020415	2.643440797225125
Si	16.295132717013146	3.567852256761449	1.8151781751974347	14	0.012859383258720616	-0.10232279264699713	0.0753243870117182
Si	15.838519789362852	7.1954142130710625	12.327885605451883	14	0.025036652276005947	-0.08706173990872619	0.06826130358673942
Si	1.2331914231619787	4.41778980126082	10.076487457900097	14	-0.03869899172620881	0.04043191671198862	-0.04044322957539727
Si	7.930765055408995	5.759444745702341	10.408916122649718	14	0.12134382980545261	-0.04208847986976002	-0.020869918994173974
Si	13.504120361485981	13.529791065231874	14.095009798289203	14	0.7301836265007738	3.731148445576962	-0.05102024264142244
Si	3.220346437897601	10.198423300693097	0.6956916234997739	14	-0.31644624348265327	0.10741049585450616	-0.13272354195242803
Si	2.6020788878185948	2.1351718689910015	15.561603442400417	14	-0.10302804683631375	0.2097476866912961	0.1357255645242329
Si	7.119853069040465	13.808889653638035	3.447852139888963	14	0.1416594184926027	0.24646075666822254	-0.2587321281402253
Si	14.204424637863013	1.2569710715855251	6.657199683838207	14	0.15929154455711417	0.04594770895530229	0.004776085242707072
Si	14.20544378928783	15.365138842734428	7.195579659730936	14	-0.013414484897340588	0.03595922189705902	-0.5044976579298799
Si	10.922212730439103	8.84645937487489	12.98854058979035	14	0.19331600970076177	-0.08244866274331651	-0.08460042078574843
Si	3.874908021752947	11.124585430329157	12.518587697954494	14	-0.11964278652564263	0.053411113478628126	-0.2985374664856938
Si	9.688311541106268	14.538388647616257	8.104245805085426	14	0.021348144583721515	-0.047460290215145404	-0.07905814615763723
Si	2.4624187443534007	0.2299212232255081	9.720646436311847	14	0.03913145164105772	0.07499322864648313	0.015823353471787323
Si	1.3129532578867522	1.7159978660033675	6.750572815270733	14	-0.08738312807374471	0.017976911287943355	-0.06576835986832383
Si	15.455628238885366	6.8442983480887865	15.951533093788901	14	0.015463655837498607	-0.0870568548086179	0.01612828656275688
Si	14.92090628864243	9.217407330976144	2.5599958754132985	14	0.09378003811027312	-0.03243886449271227	-0.09104901003921184
Si	3.7175219231489596	8.63088237706037	7.064665026706629	14	0.31733070371278416	-0.3247848522569575	-0.3059093396596224
Si	16.153923992811542	0.0995327105795968	14.69287612073927	14	-0.0836257147588803	0.17998997082643425	0.1078923209915019
Si	4.305266218947995	13.635794394679104	7.4189144514269	14	-0.015090588455545121	0.10458536532872745	-0.13033112845203024
Si	12.825840344471242	13.963484667089963	5.782857102540969	14	0.0918974747948607	-0.10405083253266866	-0.009595107944260616
Si	5.881870310608565	9.33335400468174	7.440453952075766	14	0.12569002623863093	0.056192535213964334	-0.06324456288606649
Si	7.878579869951852	6.652413311968081	1.5214673377912928	14	-0.05455422690396597	0.11789829156592217	0.09552504729105764
Si	12.495155487516682	5.1615056267219295	14.002445701023458	14	0.0007849584542412085	0.03515626570557677	0.02243700768680423
Si	6.494365426724602	13.015796272537827	6.821129197840171	14	-0.1167978584888988	0.2362737802792638	0.13180231491621897
Si	12.688463364912295	0.9931696813512241	10.413346784201117	14	-1.6151894451806483	4.899811458702174	1.3419657961244726
Si	10.562084985893543	10.804543757004227	7.344961448930268	14	0.6230934903691582	0.32557443870077496	0.6021307544729269
Si	15.285823713991311	14.993014560881477	13.103947907384761	14	5.0173374542177385	-0.25505904707986177	1.0451939076621244
Si	16.40851662195731	15.197754802474314	0.3930135771285153	14	-0.06482759243168165	0.01146970083318058	-0.030323873256358463
Si	5.110779680804868	0.5012008024860687	1.4340966111789601	14	0.12627186737258045	-0.11564188953696022	-0.03286463953372879
Si	11.051103950813163	12.024039505661918	10.709163757587442	14	0.22328866997038796	-0.003872855943739052	0.05120639066660116
Si	6.138183585017014	8.518583802204974	15.075585679890894	14	0.0274110680391627	-0.18943698310425433	-0.03479553962916
Si	5.4863154727844	15.88233337383042	12.996379452535132	14	0.19844587903552122	-0.11836083341301681	-0.10486484447702754
Si	1.6570028960258532	2.1322401541780516	1.5093103172238247	14	0.1118389676579292	0.07397481382917248	-0.09855483780032011
Si	3.3940422682318685	15.259256289348906	1.4836263777451402	14	-0.015825410356043443	0.024894727262333775	0.15172606715257841
Si	4.8585463210288875	4.403950188162445	13.019426172255441	14	0.10371478906732531	0.5566137056587495	0.22116288009168952
Si	11.373407279978556	4.674058405071104	16.081565896116086	14	-0.07886505614809411	0.07076273195271147	-0.04904666219767676
Si	5.127723073242462	0.9079431434508456	7.4105246513047405	14	0.0694818072822137	-0.02386834201853066	-0.12452505841807186
Si	0.8139198066450196	15.011225274733698	9.432469789678457	14	-0.011251928212564039	-0.1364876401411248	-0.024870044651260352
Si	15.624813993271497	1.6684203700236888	10.436942786832203	14	-0.020730050864757918	0.07343308193821727	-0.10492526545205101
Si	15.894899047647774	13.73875681451787	3.5674237499123778	14	0.02130880667232325	0.05102461352046669	0.03951326078109971
Si	5.549254691133287	10.636865221689542	14.121150370549136	14	0.5111205681240493	0.004933693998832149	-0.33477513908892487
Si	2.5166968300579358	13.137548469538368	12.503282227449644	14	-0.03139910950124439	-0.13767137703052099	-0.1388749114308823
Si	17.116267652495228	10.459211907251111	6.446248574633737	14	0.1973588157061626	0.025750905333943083	0.04737518662904851
Si	12.791214013026423	13.034127762451755	9.432332468950761	14	-0.21580675348875708	-0.42476922461528	-0.0003345008021512651
Si	14.680930871896438	11.538147482613898	9.113298365784459	14	-0.0364641869819361	0.013442767055862215	0.030100187093505575
Si	10.0960233994979	5.198555751733889	11.087201103064254	14	-0.05219343799900601	0.05124392880427532	0.00868570799252424
Si	1.2589795940363835	11.492035844040695	1.0316790459032636	14	0.06606352275907683	0.20094345074351302	0.1833730312066851
Si	1.3735778774640155	12.349438341833537	3.16838129649809	14	-0.035820639320303035	-0.12633434523186002	-0.05309769574010208
Si	13.583817672013405	15.300421072791906	9.469521569157015	14	1.9025780847771159	-5.158633832639136	-1.179626977541919
Si	4.765553716914071	6.619165151200003	-0.5276325608673792	14	0.15350244381826875	0.12906948707143356	0.1929521982979608
Si	12.502767688337437	4.264108053371389	1.6886942037245263	14	0.16837577387426134	0.05073536417195003	0.06697317982134522
Si	15.816250668943946	12.282882459499827	7.101005385547733	14	0.05129277980535813	-0.04882606136120807	-0.022568905389727823
Si	13.724870876354728	7.632113980739044	1.1891693759029711	14	-0.01598379044376456	0.04421786929590667	0.06054155986299481
Si	11.234523081348167	9.170140874717026	2.715965750608773	14	0.3886112562769735	-0.148905564616376	0.19203714191452007
Si	9.685689211547281	-0.3387569994897637	9.958512408144458	14	0.16601241386398125	-0.1367372944677112	-0.15391587755374858
Si	3.4490417013734502	13.890059439438327	15.797816602100896	14	-0.23000722528246695	0.03627906739888544	-0.17817117092296153
Si	3.9718366019061424	7.005140627417521	1.68756916643739	14	-0.29292731467713073	-0.1469453539202951	-0.24980885001611938
Si	16.95178389218269	13.145508108344858	13.674462588024623	14	0.022581246695264533	0.45994863026873806	0.34935073514884435
Si	13.863564811326263	10.644058842460819	4.203895395977209	14	-0.03228228417871525	0.022307423978668764	-0.07987292943359217
Si	13.8985600888226	11.951702917032247	0.7636868917743794	14	0.1741615321761906	-0.21452891414464348	0.20068865420628637
Si	8.67091881428304	9.309321222868588	12.477417951111697	14	-0.031536663635872306	0.05531321719447368	0.15013403873834275
Si	16.63043684471136	-0.4448314710007389	4.017231856442097	14	-0.021171252537695327	0.013485704514708688	-0.14393150426401755
Si	14.880284170243812	5.378075304495687	4.50880035439036	14	0.18355223724749942	-0.18484550322353388	0.1087310155469342
Si	2.2616591493971074	10.138693747545746	7.903112300677821	14	-0.193059927610875	0.272165896327467	0.24453474167289957
Si	12.143435742225869	9.105892973288544	7.792013214106503	14	-0.11206831025248641	-0.10351861373139801	0.16315951540074494
Si	7.19840217974837	15.519604807791655	1.7361343789765102	14	-0.051740666352127936	-0.08487192950755608	0.1771175319627648
Si	11.20795731117236	9.712476680247317	15.19498522538804	14	-1.0981995578317651	-0.6013185423022921	-0.3201537773543068
Si	5.9273400161414616	4.37189489781205	15.731839783076742	14	0.18398778248873252	-0.05888731070001153	0.5138006883097715
Si	5.09558836849533	0.03422760499452624	5.238378762765321	14	0.00891890724506167	-0.038618516129688175	0.10043534423147642
Si	9.183283957377336	9.564658361983787	3.7625796664987723	14	0.4194375235128889	-1.595427672579458	0.3779218859084579
Si	5.9930091043782525	9.391857598079433	9.744308617606883	14	0.08809918090540594	0.07895324506057519	0.09914464936076209
Si	14.22402179472497	2.6730637772371053	1.139192903355134	14	-0.059648357874775355	0.013723788867354402	0.06593599593519749
Si	4.932044345210869	9.132789636784096	2.0788041919722704	14	-0.3859164807909263	-2.29359743829694	-1.173935064584175
Si	7.941785457423134	13.030653382594423	8.711684871275745	14	-0.03716481318167645	-0.07718458171084533	-0.12315234528764478
Si	3.2897910189126938	13.754057321622923	3.339684768130595	14	-0.05558292614255722	-0.0926196982792903	-0.05549550856167217
Si	2.643480259985214	7.928445493237574	10.835556733397421	14	-0.08081781063874657	-0.2771265869321607	-0.14935602226846592
Si	2.6884503166052944	9.077010949874513	12.818656650499555	14	-0.15941907138099348	0.2488791383323538	-0.17594305105252117
Si	1.4091472548701118	4.1097479741764795	14.964964734166609	14	0.1644468678345431	-0.027862297022848682	0.03964104471551107
Si	7.416606470521672	7.56544559467662	13.406372820366414	14	-0.04053424670373051	-0.016102575509555406	0.09365662505490602
Si	6.382669077711142	4.796202710655543	1.7739654122230704	14	0.09042088900949967	0.045748191182458806	-0.20532744242489753
Si	13.308368836924043	4.844159079486332	6.143575491662275	14	-0.024677725973313275	-0.06158954239148716	0.20092031079563172
Si	9.029885123276289	6.1549896567269125	14.288814015664435	14	0.04815577420424546	0.06485381770594716	-0.006275553865417431
Si	15.77652527144184	10.544494697015846	0.8571444010034396	14	-0.1221336733598021	-0.10456608203882631	-0.0018931048472250304
Si	4.8689330623357145	7.318038313969135	10.251209057525577	14	0.06367676569038337	0.060971962893587583	0.12212775981756577
Si	17.105990105983917	2.8693496945104324	11.759248744401578	14	-0.17647629829591988	0.09069574016822349	0.08058306872301706
Si	6.14983599327187	6.2208126103573855	11.948321187304442	14	0.06134168783862488	0.32307969520863533	-0.010920255626264936
Si	7.85790896426732	11.103272591604318	13.796529133678922	14	0.38166412970193336	-0.07479345376310763	-0.11859917487619455
Si	11.418640396787834	5.183142740900121	9.164196376227789	14	-0.01693509941221935	-0.059291745566870814	0.12443018463175835
Si	3.1798930750920538	3.095073535974963	3.241890901946263	14	-0.11559252431481339	-0.16618442080989915	0.008755642057232269
Si	8.516029305776534	7.2374343557456084	3.636696266401203	14	0.1983589756757002	-0.18890347875032362	0.009940921609820533
Si	8.007848308710424	2.3792305093026576	12.866439300337477	14	0.40584331835367	0.7152557890119942	0.5143321357794463
Si	3.462275779696691	14.810819735629533	5.461625867731552	14	-0.07327650162422025	-0.10159619828352329	0.08454771312668541
Si	13.757341437821403	11.52726771026065	12.836529853165636	14	-0.08852418461482643	-1.2771050364341607	-2.5313480614720976
Si	4.877910198100423	5.445628830188432	8.728811909505797	14	-0.04922689668061915	-0.03838094599810649	-0.06207419574433507
Si	6.917253707226385	6.53343730992021	5.194206159045829	14	0.0671760400311049	0.1580489293558866	-0.07085760573902494
Si	8.305025253640904	3.322987891216211	7.321051097645422	14	-0.05483396316279808	-0.12026602245524655	0.11408122860763033
Si	16.631867958319262	11.406475103887374	10.467712556635385	14	-0.05192295771932643	0.020885088515562842	-0.2630922085421324
Si	14.812356735099753	5.747105733809012	13.961136978986366	14	-0.007960399181710466	-0.07502253924713281	-0.15475791454609705
Si	0.40524504869292616	8.23541357149934	3.21753384467976	14	0.08479582479007969	0.008259675840975703	0.18315808680192072
Si	12.348425808275113	2.6860976651019004	6.3407167681671455	14	0.062112762324137295	-0.11056858451924403	-0.08565097441956095
Si	5.915484108494962	15.291424083428014	10.712930978032752	14	-0.12594405144426157	0.2228217572442491	0.11611780113171964
Si	8.086541358012417	10.813795534224324	1.3432448868428997	14	-1.1861120764909285	-0.21080646786213306	-2.3221996994309277
Si	9.123352559304942	0.2151584177650403	2.316605639607529	14	-0.04782281606528629	-0.06028419222044798	0.08540646230361486
Si	15.695388574973522	8.542507389222608	6.621277905046582	14	0.6692564008397569	-0.472395608234107	1.2378578850536968
Si	16.486895322605545	14.59061023133857	7.406087371886946	14	0.00038797979281034514	-0.054204042359361805	0.07500145618350759
Si	2.484641539707542	1.4080701971143386	11.846353101891514	14	0.012257230392741937	-0.07767771971124973	0.07598901773697647
Si	7.642846505565005	7.902013734856264	6.96014575379846	14	-0.4169021565566909	-0.40208436237561346	0.19288560667016896
Si	16.01872760022972	11.25016440857256	12.684969131455777	14	0.101382796541951	0.06308309747196118	0.14972831831882338
Si	4.948459962803468	2.1462683764686834	15.840702030806575	14	-0.36303055811522417	0.24162630733474813	-0.22878157937635232
Si	15.104241041380897	1.3090669158463355	4.452057113453716	14	-0.08767494852758151	-0.09195506755403202	-0.005862377240469635
Si	11.415854275035572	8.147233810720229	0.6053362391433325	14	-0.17912068011769222	-0.4406679114729476	0.5341139630021335
Si	15.776871054960974	2.2891729289339873	8.080853301845984	14	-0.1681973391650431	0.0591853018066167	-0.07247791631178226
Si	6.736051561933679	2.4601967957113065	10.746271788930358	14	-0.432306162750762	0.40308426523461904	-0.16849455894005222
Si	11.556490553794019	1.8754503933891686	4.307934873571748	14	-0.0009189130414209234	-0.019904983167522396	-0.11369273459375596
Si	1.6617280526318259	7.110108260773946	1.6158844376476165	14	-0.11742315130275881	-0.05055538679953966	-0.02198269337673406
Si	13.05693293004865	11.14873402480422	15.05125674855657	14	-2.2778136798470836	-3.8948046985255593	4.4267141958261975
Si	12.386098012728196	11.22873410271921	2.4864862699651256	14	-0.215180689343301	-0.054750659350425286	0.014776913606487054
Si	3.4691815232797905	14.9464760699258	13.73947319855512	14	-0.024231639200267586	0.03775771006850259	-0.05372787365407038
Si	7.086482477744081	3.1117654494895497	3.2646464355451954	14	-0.0021702700007369936	-0.004533887121549123	0.004668613040324882
Si	11.282646551305426	12.892037207553027	14.56422976142182	14	-39.51267816863416	-5.505452543268699	30.828921130826853
Si	7.564902929632237	14.034199878452881	-0.005554044371936609	14	0.3527705623351733	0.0781250920369555	-0.15287766522547275
Si	10.659978120073799	12.842254307597242	2.551978330275853	14	0.3111579940601727	0.05458122350982752	0.12185445132203403
Si	1.9028996487286982	8.476358505672186	-0.22028560975450456	14	0.0822419458755766	-0.05880426399817075	-0.13695506708832772
Si	14.53583084225462	7.331499054216402	10.34248597977751	14	-0.09761149925835778	0.0020229456658925086	-0.1339946964227092
Si	8.98833815804898	2.4935243708761234	2.002486956706053	14	-0.07344568035428599	0.10535361159838769	-0.12380154938098217
Si	16.098535760019256	3.42547547914114	4.107464810270232	14	-0.027623441338606933	0.018344836459256546	0.057273685001086594
Si	3.1332040276758932	1.9521878631714635	8.175052012111275	14	-0.015996903080897316	-0.013106466479986848	0.14016277808574445
Si	9.972088961053634	13.58762625412368	0.295408320136439	14	0.17388282435948654	0.0969013599689329	-0.041619253148833
Si	12.62470022219724	1.2923485308661686	14.242115041448683	14	0.3189854670968315	-0.019212841615338535	0.17389362300183114
Si	3.418266968170473	3.8065570431596143	9.55438743333887	14	0.04641102213399298	0.024837905834758502	-0.17139810817809542
Si	6.5953391777116925	13.084908305766577	10.644441024245124	14	0.2291556752004339	-0.09537129519291276	0.024157848477579336
Si	6.752037018210609	10.866933692442334	5.881708172881889	14	0.17331435297320177	0.2128834067397487	0.43767308799603916
Si	11.469902389882884	13.035113824544599	7.449077031988347	14	0.11396347198396756	0.07110648873401527	0.028938047488798642
Si	1.1624613215996726	-0.11553471152251336	1.8337809976335548	14	0.05505430688873477	-0.05296039871600618	0.11036341031469621
Si	8.694107818130838	11.937674694741615	3.4014244981954023	14	-0.8216643251232385	1.1385234881203075	0.42584677485495404
Si	3.152078182634205	7.368281155639368	14.377946749204416	14	0.13595233601346998	-0.13839360051495056	0.1787686957993639
Si	3.3113983526921076	12.043590337459111	8.801247766131395	14	-0.09244306334379612	-0.011910645395585976	-0.07207990920822333
Si	13.635210367969753	5.073037988754639	9.873270980044689	14	0.07884525863712898	-0.010876803946354435	-0.01650829592907477
Si	4.611862042225047	6.730239420772341	4.733018631250045	14	0.05086340521689339	0.11169627131266098	0.1845446839010766
Si	4.922795876923969	11.371825609910172	10.41725132537412	14	0.05890659398991264	0.016502639497370446	-0.19266063495465602
Si	8.73399369889302	-0.41817470516200117	6.390906666906219	14	0.023834660538836722	-0.05035946857414438	0.012317651367765418
Si	10.731062277488231	-0.5719375219147699	0.7736269270995493	14	-0.0011842511104602053	-0.1599106667182058	0.1827410535189927
Si	14.823353974581511	4.519810829604907	7.952789314771288	14	0.20771059994614277	-0.12575713208748682	0.03666190498105549
Si	7.483324490582058	0.38464528507213896	9.925619957695105	14	-0.16165439034633022	-0.2493697052274381	-0.06948772082445004
Si	4.405022282518421	5.179656779776597	2.990656839995915	14	0.08819431180225142	-0.2193260824509758	0.09515635078814838
Si	13.487281200444107	9.435264183763712	9.724469908621511	14	0.0518861909132483	0.11773142683064457	-0.049532343992652744
Si	8.691920613287317	7.448850370064321	8.9462352920445	14	0.02066345923696608	0.019227754026195393	0.22830901021850913
Si	15.977221996667382	3.6405412467766514	13.866791021193787	14	0.03639939512786837	-0.03717509760295704	-0.021547148135500974
Si	7.896618519277806	13.090558309201239	12.615863716093424	14	0.23885619846282055	0.07666881798362363	0.11990863881574594
Si	3.7215306957176826	6.290614556157805	6.847153957438195	14	-0.0691066830160041	0.15610825906023884	-0.17124075653250234
Si	10.654688790357659	3.2443428214455805	7.965091928399445	14	0.06339677232101924	0.14385128577802891	-0.13738289901360037
Si	8.286928697983997	9.396096341505377	10.196446213107613	14	-0.016735067418311832	-0.02572082340169735	-0.21935513594109346
Si	9.773802793662444	5.319955547348901	4.415279975430547	14	-0.07311503621011496	-0.09568059916292657	-0.06763189700436716
Si	4.441087999904137	2.754086315510111	11.392572621058244	14	-0.19506436131846244	-0.2754980488223789	-0.18834272067999935
Si	11.574936201903258	14.62346628352275	3.891899393721904	14	-0.14380680565599033	0.023548239406172226	0.0589076224320407
Si	5.2781074692006245	10.442655659997618	4.062028194069311	14	0.5930233852078982	-0.048125949382531744	2.3628097937416026
H	4.18094132638643	4.947523534708587	11.712056739139403	1	-0.3329625098382205	0.11873750034241849	-0.6110828289766184
H	6.669009266419941	0.9594533065357054	14.555653006574005	1	0.4681689681983155	-0.06063437676505214	0.3510918876716486
H	13.88675877857386	-1.4873092203939131	12.612983289745033	1	-3.7055039840032733	-0.36320487905593024	-1.3990363638052674
H	9.03019616299685	10.580987266784033	2.4638151141627285	1	1.6508360206707773	-0.872530815666516	-0.0960248701652944
H	11.955489991076739	12.982979927552018	14.019817600310123	1	38.071845659634036	5.091880225212131	-30.93107834429123
H	13.597124546866988	12.040587480582415	14.24219611031202	1	2.7020486287768364	3.0416502467727433	-1.1285488850307932
H	7.972204480307385	1.2819237368275709	11.691175716196831	1	-0.15379529271423362	-0.8980909449857042	-0.6448067319083406
H	5.058233821629203	10.565187110766162	2.5569218764728583	1	0.05287118136139704	1.4693594367482337	-1.035013101925934
H	13.173822649715524	0.2954480273348085	9.228715610178462	1	0.2458503762652194	3.1785405220070033	-2.9645276287001137
H	13.084210120861913	15.969325227591643	10.716655182346493	1	-0.7532155879586603	-2.994763055933459	2.248307675193064
H	12.757853348529629	9.55627683419462	15.690799084628644	1	0.5427608473043235	0.037399297986873956	0.008017477719817754
H	3.9799583784393087	10.319829714174503	14.341809889754954	1	-0.692002712496575	-0.07511098527014591	0.5118620748983799
H	5.089938365060666	13.140713464141738	0.6581815567733673	1	-1.042182372000635	1.0492979059741447	-0.3696156730611874
H	15.372084293515895	9.057374085814187	5.257193356926078	1	-0.4421930911488595	0.6796166697272935	-1.5476668201523875
H	7.808245185906643	9.131303925778438	5.234889492708599	1	-1.6288065331772166	-0.6222092872495593	-1.5185184562484009
H	9.609972547656403	10.916160691620949	5.483153787114228	1	1.078681268904393	1.5017710475245523	-0.652123583428418
H	17.7124298743486	11.042623155028071	12.571454523650313	1	0.32792751428977446	0.22359334595082553	-0.035478168091659316
H	15.412198490668702	12.791352988220714	12.259010160946751	1	0.23146401355686283	0.2924871414463214	-0.3978081000071432
