239
config_type=amorph dft_energy=-23424.23068841244 dft_virial="-73.04401509045118 -11.81885724380785 -5.325157369173772 -11.818857243807848 -88.14206946895905 3.8937938849767217 -5.325157369173772 3.8937938849767217 -54.561635185748585" pbc="T T T" Lattice="16.543904932664585 0.0983911286264731 0.1240022715748135 0.0977624313189557 16.358935566926572 0.0021838959103236003 0.12309231494551201 0.0020019045844633 16.273316920442294" Properties=species:S:1:pos:R:3:Z:I:1:dft_force:R:3
Si	8.060384241086496	3.94655469781095	14.709918781172787	14	0.21020791454360263	0.05569836877143186	-0.044968374938857886
Si	7.536262458341621	14.898652058422911	14.138518960902603	14	-0.14011572685838575	-0.24765477797889932	0.07298570961251151
Si	12.196474632447956	3.23601919998737	12.73819332193692	14	-0.3343560489217407	-0.49933744955234266	0.284008150321537
Si	10.717722313302673	3.630280244931328	3.067802963028096	14	0.11313917561832809	-0.5378394946110281	0.09348693210377625
Si	1.7446217926279952	12.942256886690878	10.237389298026386	14	0.11023074128017658	0.1444282418118701	-0.00125135695931607
Si	1.1412130070721833	13.324840706380998	15.743272147273965	14	0.3137136727483999	0.07845187952314632	0.23670186931506848
Si	6.988875566285406	14.897184546549838	5.5481081457803665	14	0.08211056239371704	0.09127398175472479	0.01635685782571805
Si	1.589550292795631	5.433018485772911	6.124974323692753	14	0.2406978812036426	0.02693515644440329	0.1658936287981904
Si	15.531106659586026	15.606576807953696	10.861877642516616	14	-0.19916167475665042	0.28903131878551036	-0.023294728421605626
Si	5.299736311045821	12.53292365103249	3.0000972264082684	14	0.22325370293803398	0.9868185040313544	-0.010128869408723358
Si	16.944227943226288	5.5302266707812935	8.260276895545054	14	-0.1323481605756864	0.39965826739552174	-0.11967929622118877
Si	16.790996210251713	9.222044800852384	13.231275656823021	14	-0.2553665512761515	0.27550704769099943	0.06353972577681948
Si	10.070210411624515	3.082367232496716	11.725722633244912	14	0.06883645984685653	-0.06719429487887796	-0.18270197271812644
Si	14.640972194603911	12.560536698565294	5.102302193952975	14	0.052272370932334555	0.08164082145172599	-0.020571413666504782
Si	13.43330588212714	6.166618902449386	2.8952602959131433	14	0.34261212521526824	0.10483039166573756	-0.11656311657316927
Si	4.500410554268199	11.775412883071171	15.933132116277825	14	0.27713404313758916	-0.07648241284791289	-0.044328941045737064
Si	1.644784660194232	10.113694757238935	4.118099721566868	14	0.0678113601557135	0.2654026037828175	0.026993520535170654
Si	16.61226583805751	6.968785378377028	5.099835384254269	14	-0.08985473161800304	0.004145650218206762	0.1910125564444411
Si	5.1357075290479335	1.613043718497597	3.4907574221938282	14	-0.0011986493002530344	0.15629235020116142	-0.23090325548653853
Si	11.416181859422121	6.146580003005568	5.923582722495746	14	-0.429527569231278	0.28271077057699034	0.1381786561101862
Si	13.464555447243951	8.976594754131195	5.811219623442998	14	0.41953548262558654	0.14761178441927747	-0.15255036351821794
Si	10.817188845218322	6.474296746882007	12.955729208204337	14	-0.03688893358082456	0.08305287249355131	0.04481487995124505
Si	9.037487397297452	0.277184370551428	13.694766202124237	14	-0.24703771270206382	-0.10558012597709272	-0.1006104365037785
Si	7.834690180020743	4.385358946992516	5.337645104222522	14	0.17894224540847392	-0.38268485851403217	-0.56127923337269
Si	14.720954073386315	14.11680905019407	1.5411753439153644	14	0.03776850871084722	0.27882377355399046	0.10254493614665793
Si	12.718096516162147	-0.26636085006253635	12.539883992013346	14	1.790217696960261	0.1094115871251774	0.18231862091489234
Si	10.523382048749452	15.596276098910002	12.103941970047584	14	-46.59467850100594	-28.32162884495112	0.09196380931212052
Si	13.60716715912128	2.9206133420720817	10.87526558623354	14	1.1535431140690167	0.9715456242086107	0.5027454496541989
Si	16.202434607952902	7.730069984650052	8.663806262375097	14	-0.056814999811972175	-0.23962264495875668	0.002093136841132551
Si	10.274139964583975	13.335636100937712	12.501002372476593	14	0.24818622544857394	0.17949503305230574	-0.32169181255681933
Si	12.24551633136751	7.6180774861154195	4.308189661427952	14	0.0003411856759836501	-0.021154283242582353	0.21662847874907643
Si	9.720191457997196	2.9517537123933777	16.087735402062748	14	-0.1294777785962731	-0.0334673066207715	0.20163764917995305
Si	9.735265303178226	6.430426910550082	0.20538713803294095	14	-0.30213135750219683	-0.40160279434914975	-1.0370517313342795
Si	16.334709212521368	8.906536366007973	15.481945839071365	14	0.2888986497509907	-0.17078181423285593	-0.06726885693316226
Si	9.449401600849859	11.222705226433439	9.259535013979605	14	-0.31134825585386366	0.210336212699078	-0.25404346047840326
Si	2.7953966920138003	5.570777647116165	13.493280296331102	14	-0.16121653111030904	-0.3576083541055639	0.23598787336766336
Si	10.62958391418853	1.8235762476525883	9.768556480077871	14	-0.7571606919618955	-0.25143815945749726	0.30326958582742636
Si	12.860428623184292	15.432040508587272	2.094035211480179	14	-0.20430594228120272	0.02370250572538111	0.18899063922067663
Si	1.8981496751237443	0.49299795708956545	13.98682257293165	14	-0.03718255380838548	-0.09696178094395637	-0.06112725765492453
Si	6.282836908677175	12.19619337312617	0.8955710422255426	14	0.09151746542854282	0.14139922263420368	0.09409319873826716
Si	10.136231901246838	-0.02374490462497296	4.514016887576155	14	-0.16826418790336695	0.27921972377329324	-0.21229205251611463
Si	12.307711039746966	10.18094882447731	11.655283717803984	14	-0.3836778193886734	0.20796565359390148	-0.042254059052377564
Si	9.36679573804187	11.079656735374046	15.856791718479226	14	0.1518605359608222	-0.14980776547321598	0.03246303288272166
Si	1.2647239020671739	-0.5690703312991708	6.002111979604465	14	0.0647679427882542	-0.38084343288374206	-0.4501434630198214
Si	5.679130319133592	1.6484741207094	13.487856954820465	14	-0.06334355044089217	-0.36755698903134487	0.2197626561343369
Si	13.40702964360611	1.1650240903611055	2.8909255934244706	14	-0.33311034839412895	0.03651997996738331	0.3314522425731655
Si	1.4180019601065148	6.192569211050467	11.670723200103332	14	0.0609495942773023	0.13237052919197168	-0.2908755726316526
Si	4.419950534638763	15.507930891471018	9.021306713961874	14	0.42755938810870464	0.2400813301478711	-0.2710670059136357
Si	1.065152214128769	9.228166327267685	9.52859264459807	14	0.062403554335846045	0.12728231176339863	0.043133891292932235
Si	6.9214411621877705	4.202876244552392	9.074133832459323	14	0.2538213169787425	0.1423790708717121	-0.16577175840601538
Si	10.621481991254548	0.8999901225107504	15.328333578779079	14	0.08172361104303476	0.1551718625026409	0.0025055421344843025
Si	0.23955683669651162	5.283555627710243	0.4377784798903529	14	0.13467218267456826	0.423345860710046	0.2491689019019345
Si	1.6437340739040385	3.3113023936293815	5.065923782380101	14	-0.07958496563773558	0.12121373187625313	-0.07780010432448879
Si	14.667577671978089	2.1043905179216296	15.121773423927639	14	0.027687204750546604	-0.41922874976089286	0.06194898291524386
Si	10.970230314534044	7.225719077760001	7.992886967258108	14	-0.05377955287100536	-0.22792617263633907	-0.2608592035715838
Si	3.801730964091119	8.948649158812046	4.463385246255221	14	-0.3341238781113313	-0.5498069614341894	0.3851690604743592
Si	7.408352336660608	1.1586858288213706	7.614510456128557	14	0.8041335006083409	0.12188299059108766	0.3108746582538924
Si	6.520469600719363	8.532104103249795	0.8529288201098756	14	0.17818196956530613	0.06996826040878572	0.3867783152942399
Si	8.807561210672148	10.348928472712965	5.602015630966786	14	0.29489960956821637	-0.6545645908193667	0.24911439446914735
Si	16.308474335665306	3.4545361849478327	1.822671254423083	14	-0.043934019268562316	0.10575958912843907	-0.027116162258941718
Si	15.834256228937925	7.2485341721564875	12.279806806092786	14	-0.07993309329808362	-0.1187773524748808	-0.15337440277332537
Si	1.2909935227218088	4.47421207567731	10.104474414884214	14	-0.08741038179013828	-0.1950584477762261	0.373149400213199
Si	7.981653139052732	5.942369190724325	10.166513603403391	14	-0.023257190283931462	-0.24233413262938486	0.09052707565922179
Si	13.553756013914478	13.39703831981638	14.448203673319485	14	0.647885116308154	3.5802667294115196	0.19122158730696912
Si	3.0293630860732033	10.206568239758644	0.7700731328454772	14	-0.3696958915471761	-0.033996954316722	-0.45979976327070143
Si	2.6394847231492817	2.1768942076777744	15.550887462240444	14	-0.20173278007679848	0.16648086925331224	0.04392759150526195
Si	7.197967055032904	13.80271849322477	3.531458954989185	14	-0.16169115715240837	0.03574659148708277	-0.12605975118366822
Si	14.307530996295867	1.2923435674663726	6.6443709498316545	14	-0.17914073473918934	-0.36549573389618223	0.32565722829208377
Si	14.282399648661158	15.413366544087406	7.242877550855429	14	0.012462147486757738	0.10894158907265433	-0.14561300714339437
Si	10.886355475844827	8.84170278340354	13.045826495771376	14	0.06787975155722943	-0.0636965632013485	0.018828718480508412
Si	3.9781301928477117	11.231268745548464	12.54127374395628	14	-0.21541208882211438	-0.24039629054958925	-0.027686690529482572
Si	9.809921453979317	14.596351230436165	8.133688692676426	14	-0.39709821782825033	0.16576610197431105	-0.08343313897040121
Si	2.360551581402996	0.28050488501507914	9.761577939964427	14	0.14791491773652293	-0.1270020612835025	0.35122841336414845
Si	1.3569703417459638	1.6996070654097493	6.769809298414166	14	0.1985168415423573	-0.08826733119334362	0.08471920585153928
Si	15.254304470818907	6.821142433572962	15.879821893533547	14	0.5397760511381636	-0.02466281356245642	0.10728322614115882
Si	15.009991042651047	9.24945765792674	2.533019797521006	14	-0.27456730869648527	0.2275312508591643	-0.15869067724379557
Si	3.8241804213692867	8.652327573113109	6.884859251223252	14	-0.08209050777221988	-0.0010027310748577508	-0.12525936609750613
Si	16.08081973168006	0.2029865069981837	14.658946319732514	14	0.1865457751717478	-0.11667675942831984	0.04961461936289748
Si	4.234895136637614	13.73052253425599	7.492826092258564	14	0.002248945823533525	-0.4975711001974008	-0.36284235320578934
Si	12.984695609414901	14.00424906961607	5.838043490408207	14	-0.09398084143577669	-0.20792657279303522	-0.32757501575038217
Si	5.933100868838239	9.406603858873911	7.4766106651244115	14	-0.3937231278744919	-0.6270730471836833	-0.1974266928866145
Si	7.720083624260117	6.583627208659283	1.4594149135393253	14	-0.3172391723633869	-0.04166296193927552	0.10746474617676127
Si	12.431508157463538	5.168604942897081	14.032968955303426	14	0.208946530273538	0.17707665138817447	-0.47238198137591014
Si	6.463863680510415	13.192584300945121	7.077614536774889	14	0.09979873855420776	1.0272100543898166	0.40601069731001155
Si	12.639242983600077	0.8088587933195046	10.374395677067216	14	-0.7817754258548653	-1.993210832864996	0.3722376862666745
Si	10.52602754084082	10.918040165677105	7.172832398464998	14	0.16928774493131787	-0.03366091085137864	0.41636710953956807
Si	15.097093745674384	14.96685413502236	13.192567756279134	14	1.052117380068219	1.0684629250305284	-1.00664224027076
Si	16.387546257818407	15.326909083037574	0.3791673461637439	14	0.13253816525884535	-0.37617224873809707	-0.1275821026437279
Si	5.182676181319279	0.44083924309800343	1.4011727258642332	14	0.16821070891270784	-0.10251639687760429	0.3164305597402003
Si	11.149794537894005	12.00611170559808	10.747376972618309	14	0.07496906025647374	0.04944235530644756	0.147151813677503
Si	5.737021759889753	8.369124253075501	14.927644931099056	14	0.5877094247322162	0.36370804436708326	-0.5176329207894523
Si	5.556577360299266	15.731493999557607	13.088099771835525	14	-0.06041300459698741	0.08259161619911674	-0.17887488244908603
Si	1.741453489091427	2.090701461283738	1.5269270775671018	14	-0.2879244579451866	-0.11581595336713424	-0.3316815851677227
Si	3.4612516648720772	15.220593059403182	1.4810023937195544	14	-0.035768188771772014	-0.06053693187341854	0.17918984285080417
Si	4.939605257567065	4.739978972230903	12.865833765562341	14	-0.744388212062996	0.16121858799456515	-0.8778900275958328
Si	11.365159763983888	4.666914418297788	16.120963709231642	14	-0.04760041545509348	-0.09325244729857875	-0.4635186100057637
Si	5.127200261797264	0.7653976102374662	7.451709288346927	14	1.3259704357067674	-0.024292574396355095	-1.495327343371197
Si	0.8489035028751656	14.939163327559415	9.445222418221467	14	-0.41504684695767197	-0.03776208094754686	-0.002970397976367076
Si	15.548554664336233	1.6307547834370015	10.464617049629162	14	0.21814671644062383	-0.1676216686838619	0.09833732229023559
Si	15.936896027789935	13.756019519009017	3.568603384597272	14	0.0449321223538438	-0.09109271882965435	0.4163637671026519
Si	5.57635981742028	10.668606163386174	14.213310777964793	14	-0.11679014517293836	0.34619264648410647	-0.12229102500539518
Si	2.519702995867828	13.151240835109459	12.469948034418431	14	0.3389493285761853	0.21809786543954102	-0.14820005331652736
Si	17.164306744655953	10.475882312699914	6.356559940316584	14	0.20245063268218386	-0.23064820183877982	-0.0436751089628234
Si	12.804992410860645	12.95820098130284	9.332321617524132	14	-0.1701040708704649	0.013094896506046182	0.2741135086074792
Si	14.64070251654832	11.458678488477101	9.019000387523244	14	0.4539211880667149	0.0733711183000017	0.413710386412259
Si	10.050424645570303	5.322017012730919	11.060916592210232	14	-0.041787146326238665	-0.07831201139373026	0.030677143127346807
Si	1.1158649243130407	11.582152985206921	1.0297185029837685	14	-0.17325316066658225	-0.05954294255664929	0.023598375959915114
Si	1.3950826343143081	12.367071646842803	3.1959314743001426	14	-0.09131871898729536	-0.2995157720600101	-0.3755924644884037
Si	13.65512187348547	15.172939457959963	9.47909265843067	14	-0.035904200243207854	0.14002188151420034	0.04424023791219195
Si	4.639069745441162	6.145177015329846	-0.5907835509409034	14	0.7712068974363965	-0.6232012196820724	0.1536991333752601
Si	12.550967263758238	4.31695833440122	1.7381544826935595	14	0.40707513491255287	-1.1794979080548476	-0.05928994579314671
Si	15.82116939814197	12.230578152447576	7.068753213672091	14	0.13807606900791228	-0.025307389666217543	-0.25885245586920824
Si	13.711226490315003	7.725310084245505	1.214409918333196	14	-0.26686607693104575	-0.6253864020936662	0.08950866084191111
Si	11.180655303360115	9.144013538189881	2.799264834921631	14	-0.07964975749180331	0.21237458499689138	-0.42923137789839694
Si	9.600767095501068	-0.24785233222254385	9.959640754364791	14	0.14393381825880566	0.14139356620249935	-0.22852626861806163
Si	3.423648948016142	13.864717974545579	15.811325321879526	14	-0.007243060797389154	-0.010637691151580662	-0.13576335977243909
Si	3.7472526879281376	6.682592437195515	1.4977819939638741	14	-0.20046496804343347	-0.025109157446034126	0.259734087883487
Si	16.927565810110476	13.20825706303489	13.622849848010642	14	-0.2763583406625005	-0.2744197272511088	0.3863294003053421
Si	13.871689896792628	10.596205050559151	4.13285756362754	14	-0.030924483459145044	0.3187314418912009	0.05101895708876236
Si	13.759121643881636	12.107265793444432	0.6165138154843522	14	0.8658282012074222	0.08328427197236464	3.417678513612912
Si	8.639699029565003	9.327201043401063	12.554755992269332	14	-0.10335637698569665	-0.06548502406204351	-0.011994206318490788
Si	16.706472820655794	-0.4598672634499972	4.058481017681633	14	0.08097567650540367	-0.023405285950371994	-0.08367687975475124
Si	14.934156911631657	5.402622625421044	4.521637360729906	14	-0.14619381983521582	-0.33746425814326775	0.025838065804296106
Si	2.314122285242836	10.16600733662418	7.823560583211086	14	0.20327852859527154	-0.30329761087541596	-0.13540417635921442
Si	12.144095874398761	9.257536418328339	7.755077247289855	14	-0.1670987058617438	-0.1678988338373739	-0.1415038666207337
Si	7.266711796676734	15.456529923181675	1.81536678438969	14	-0.19273622545106836	0.1381267197827192	-0.26040000416140535
Si	11.169921124067557	9.647724166506224	15.280271324085975	14	-0.084384447938856	0.22061523465849797	-0.27136962500981715
Si	6.038535061775506	4.134900829876972	15.929596521156338	14	0.07307466985658861	-0.5001648312443663	0.02864159904538557
Si	5.011423998151336	-0.01493817891993317	5.260149888738009	14	-0.12472174797506316	-0.19762004000668962	-0.0035026167776377277
Si	8.935276105294513	9.484125545824005	3.3684360886833247	14	0.21298085163138233	-0.698047638214775	0.04387077007768667
Si	6.007728893707153	9.455501619199376	9.794347959885473	14	0.5794723746180579	0.10325173299916662	-0.3486521658333601
Si	14.181667449797484	2.6329197996855207	1.2073139110912428	14	0.6674836237215147	-0.13350721485400915	-0.4822475695998504
Si	4.518278793534483	8.872487443406111	2.0779587595403197	14	-0.5326371201062404	-0.09633186014052009	-0.2154419136438281
Si	8.080593550589983	13.08767622838625	8.793473427583963	14	0.13173366640417097	0.32946760637654315	0.33148386716860334
Si	3.3226437621636755	13.725133936543926	3.3383661582514064	14	0.15455094056782515	-0.2827855897418066	-0.003704448545269352
Si	2.6106970043313793	8.007209684603314	10.804465997074088	14	-0.10915884747220686	-0.1004019198623145	0.2204625110024812
Si	2.6009654317976496	9.282647912363863	12.736055751091362	14	-0.0662365581471228	0.17031207329086487	-0.3726927719083407
Si	1.4468690933211557	4.183628180142768	14.902718737322589	14	0.4927482208378671	0.02582906693567559	0.23072790610370442
Si	7.318728226540806	7.56600645885359	13.388847055686067	14	0.5197592248892149	-0.23281641495526073	0.219989941844638
Si	6.4052326931846215	4.6831298454319406	1.8918064501842133	14	-0.13557361219981218	-0.09165733355795888	0.08814983168021286
Si	13.392223822014074	4.792756456730389	6.182131181279079	14	0.14025636631939786	0.04853732623375544	-0.25033644082781376
Si	8.925124298244706	6.1172016396119195	14.31448471941033	14	-0.1274987988313551	0.12407897164502615	-0.4679902763785653
Si	15.62535500384928	10.596588886810057	0.7474466476412458	14	0.7639088149851563	0.1168947891594684	0.2665166637180376
Si	4.789899192914383	7.425360253295553	10.136686879561486	14	0.14247625865281371	-0.4155119599100868	0.13334934898735207
Si	16.955302942638188	2.9666869279135146	11.7804540427975	14	0.2440068937506732	-0.18591405459458746	-0.443991322209771
Si	6.207628166032107	6.391411279218832	11.69013671117283	14	0.3708202359036769	0.3936575646888281	0.482746621142491
Si	7.884775847364096	11.093512893138408	13.940040875385959	14	0.021638422374366233	0.020162093699537205	-0.09363991287032507
Si	11.478120125478776	5.282908731270139	9.200401068807798	14	-0.03653900614675241	-0.01659802750474794	-0.02262161304879086
Si	3.177705870248533	3.0003635955306636	3.259489463156954	14	0.1621485567888627	-0.09746983135521763	0.19361117259151478
Si	8.482610734948787	7.152982108213435	3.5412285802546855	14	0.020216086911260315	-0.1712484698484628	0.048775924807465176
Si	8.028856725581097	2.3781650328130755	12.919790884746723	14	-0.10538446486222947	-0.06810343772008232	-0.10985870234035115
Si	3.396859824849506	14.72680923067922	5.500734149192332	14	0.1975310797626125	0.23983887491618117	-0.2887322992367771
Si	13.683313984327828	11.395919606987476	13.159020137056686	14	0.36759221317423096	-1.4625663193818703	-2.616354202677365
Si	4.852879772928238	5.452119302655249	8.714613277155498	14	-0.03488501409430115	-0.09158765660378285	-0.07655311824421697
Si	6.9714010900696195	6.595565839635719	5.241823362223877	14	-1.1145700425156801	0.25785872366297097	-0.41360162865721684
Si	8.322934854572157	3.3167852959375725	7.368911507413483	14	-0.26392241845000824	0.16388045333251447	0.3121987774937686
Si	16.58592011193933	11.390264640153017	10.42243807816114	14	-0.39030510046188704	-0.1843976166767641	0.0023150232302613307
Si	14.747486754230149	5.773815442578909	13.838593946951633	14	-0.1229862518839632	0.07811969271578319	0.10895932969936335
Si	0.49828894127230394	8.284561156281214	3.1447654402678182	14	0.14863559855776043	-0.3278228703032445	-0.05506279153629126
Si	12.384546123058588	2.6706135122043864	6.397777666690745	14	0.13834886328238	-0.13954237037199274	-0.3656294313728299
Si	5.951045213568065	15.306951252457093	10.77436628624339	14	0.4568015973568768	0.15978108301007035	0.18995994592637244
Si	7.84085637703421	10.448135253372614	1.391717449252491	14	0.21009812834643227	0.028484504510324523	-0.09823267830370556
Si	9.218548912929267	0.12227004504594319	2.3170010571246262	14	0.1465231784267268	0.12361822957165561	0.12809889481307765
Si	15.70551225609115	8.605262961779037	6.534626871404696	14	0.02689119054342876	-0.2558573752817677	0.07418821557074476
Si	16.48484543848972	14.51042650763112	7.430376596022902	14	0.03262218430203882	0.25547993702077	0.0945575403590859
Si	2.3476665955320866	1.4751108381614768	11.854023209043227	14	-0.05476942841926237	0.2852643923809614	0.26061726256095785
Si	7.820814168657194	8.257373306664283	6.695229253076614	14	-0.18742432185964242	0.17642667596324102	0.43003819074785943
Si	15.939051797768082	11.302953474338238	12.683710082374144	14	0.2980330156218808	-0.08222394813833557	-0.2965662000367363
Si	4.998246171692451	2.0187487089049703	15.74587131430057	14	0.09555358656011127	-0.05852324218667856	-0.05976868560375828
Si	15.161047152048292	1.2520688870534882	4.453226821339019	14	-0.18117216505263833	0.31257981530221457	-0.22555818463648272
Si	11.376446535120424	8.077957985298205	0.7011563266753792	14	0.13823496331669746	0.35697611930733947	0.17658839848787833
Si	15.879280882955761	2.217286355219169	8.130431047943526	14	-0.3493203961060666	-0.006221560653694322	-0.05742023800433504
Si	6.736365910587438	2.5300549933760816	10.813550673167713	14	-0.3196585824696463	0.29408379785013333	0.07313071995256785
Si	11.57421650893281	1.8601813211494895	4.34521662390753	14	0.1474971131219989	-0.0672508591959212	-0.08893299036072996
Si	1.4853784578731952	7.009554744302933	1.4448969691354696	14	-0.11561566426269472	-0.10646818575467189	-0.2077450527574328
Si	13.383832367425317	10.440051529571218	15.235618925052849	14	-2.2745056957421808	-5.1375731376302065	0.3749831125275286
Si	12.345093712545273	11.214942469152197	2.4301020482804074	14	-0.017722114750716677	-0.10110665983056709	0.13074584774017012
Si	3.429603373304971	14.951590026182476	13.74503551526005	14	0.1404132037439269	0.0744304136919027	0.13484187562569802
Si	7.118412028632972	3.05901774538884	3.4509393745621932	14	-0.03857300756552155	-0.07510327195418547	-0.21089748499046634
Si	11.272823983108767	13.932408820966018	14.639655239191324	14	-0.17038406423982902	0.23449174718186921	-0.24753804979736457
Si	7.66156017726324	13.967106294474585	0.06720277877381388	14	-0.01900098253695833	0.3234147102318506	0.13994269147033978
Si	10.6956715824748	12.852866056361496	2.7025232094940916	14	-0.0008651769402298286	-0.19809106650134076	-0.15926866171976486
Si	1.9030866034543545	8.456900324004522	-0.33972486245002076	14	-0.5863768208447835	0.3149871412134692	0.8544397473023582
Si	14.555578555577062	7.2961778468001155	10.262619913657018	14	0.1105403023607224	0.20923166585354241	-0.07200509004340704
Si	8.963061217353584	2.429597435967795	2.059571017762034	14	0.2554205444878746	0.107494828109007	-0.0739354759177742
Si	16.104000463194865	3.406796551241478	4.127291937989413	14	-0.04513935344264773	0.05444341226466758	-0.11591391247983188
Si	3.2034774964569497	1.8904613688394458	8.199948425488964	14	-10.456567837529107	15.322379256588176	-2.339295492925656
Si	9.95794988950089	13.292767216898019	0.3408068836055902	14	-0.5834347050269381	0.22397386953820744	0.6973781223894084
Si	12.595287115005018	1.432749875367594	14.148551646357303	14	-0.05550193632497255	0.1952319973853361	-0.13200157557853046
Si	3.473372287174373	3.765374060584027	9.626444417113358	14	0.16350224373992067	-0.15383720173095206	0.18913487822913694
Si	6.714035574904379	13.119169000093075	10.687968385991113	14	0.308923446426432	0.13906105945606104	0.2828118150160721
Si	6.621411916841079	11.104395974424856	6.045523528688541	14	-0.1075382797889175	-1.192580206144825	-0.27480076505955475
Si	11.507079908822947	13.080378376219254	7.359535645198481	14	0.02446715244759315	-0.06050659283064079	0.3435577777520187
Si	1.2287458714111914	-0.17819928841601085	1.8504464396825622	14	0.12264635176063964	0.3743737605666535	0.14488409878513236
Si	8.718704773054156	11.955481718743746	3.522677046283126	14	-0.14171521147804989	0.9062228368922687	-0.09783132876323045
Si	3.474606519257026	7.6813442888508545	14.283847306935048	14	-0.7633310876197189	0.2844187558411647	-2.6181521766277442
Si	3.340220815308583	12.038656718061699	8.79049538770625	14	-0.10705079822021743	-0.05682888378070098	0.017192467054766174
Si	13.725660056922322	5.023428807791721	9.767472804455702	14	-0.055002370561267784	0.18147941213839605	0.0013133205975316387
Si	4.673869795878848	6.61574205980723	4.756627869613922	14	-0.5017519745584936	-0.009134880091954109	0.007913862175415787
Si	4.9823517110784525	11.466649708549781	10.415054193731006	14	0.03294614357237748	0.30275536476339676	0.15892979003856933
Si	8.749891468440218	-0.3862451542731109	6.429009032674971	14	0.11267997620814964	-0.2145245432655992	-0.10167744521163996
Si	10.815739532477833	-0.7474218306422649	0.7170805676881553	14	-0.2851741465842242	0.16980813664811586	0.6495465645660337
Si	14.964306256460315	4.392216711044251	7.904090090437671	14	-0.009555512922330336	0.350386633482332	0.24506927446895843
Si	7.3958495325740055	0.49221704885496487	9.884569332447418	14	0.309531769945179	-0.32122438560961647	0.15655948804392483
Si	4.351319951190245	5.0733027034104365	3.006207171557378	14	0.2977522509209206	0.08330226970960566	-0.04650332481498629
Si	13.476585073883319	9.412412691102054	9.726015180424726	14	0.05867699428482342	0.06173840938952373	-0.049334111772469325
Si	8.791468214066303	7.633525240747761	8.74941829099298	14	-0.2669995172971615	0.07611783011351589	-0.04782435872847837
Si	15.990934215837655	3.7245749142593456	13.87685845044706	14	-0.17260678478909702	0.11815951586644922	-0.16255736253476627
Si	7.969104009901364	13.05864199404514	12.723753137463206	14	0.17003207992150074	0.24795945395933683	-0.09112280076190009
Si	3.651321751133976	6.29055499536025	6.8336584733923535	14	0.2974475749404831	0.1768884464787396	-0.27284775345837026
Si	10.69172237070363	3.350566194950442	7.983229845721321	14	0.00696640986494122	-0.19888373827154243	0.013282072973352963
Si	8.317435407597978	9.423466182448168	10.2190015562481	14	0.6283393165538563	0.05685665171815857	0.07619522038365234
Si	9.809845348515775	5.327398992576587	4.408895388826048	14	-0.0461233154486684	-0.13459736350975193	0.20715781230231095
Si	4.457313353837882	2.769204831289306	11.660214028268197	14	0.15626972447434412	-0.42906168494726715	-0.3128006732492153
Si	11.69687039022966	14.586278837783095	3.9760918899980764	14	-0.11966284114713979	0.2980353296166689	-0.13751273983226783
Si	5.57866614385891	10.446156511320533	4.017708342822531	14	0.14008924447358823	-0.41893924330184423	1.3750188976781683
H	4.086130463479608	5.164141192013707	11.44377670782234	1	0.2681832541865576	-0.07023308425676097	0.4869375228143324
H	4.456830249591053	11.27190740861307	4.891908639992279	1	0.2563001196178972	-0.12211850383841323	-0.36636502460492426
H	11.309420784272673	12.404700835164315	14.626191190010857	1	0.7089015593237802	-0.8699831074047815	-0.03169401528146537
H	12.970672350524067	13.640729668543116	13.081467015241218	1	-0.2568035420395822	0.28039137646768475	-1.2114780873584454
H	14.289356680708819	9.33579103398167	15.398481308098633	1	0.6585253785650548	-1.4988106768589338	0.13294182879410857
H	14.793568612404577	14.51946982205978	14.822516814482555	1	-1.186312879816432	0.5261653909048958	0.3503997461194648
H	12.934087130626349	2.106797766822782	9.60425636555779	1	0.4414934933912471	1.5529612402276365	-0.8072499373668924
H	3.731399588979107	7.607353233622452	-0.527707011864322	1	-0.7455503516677028	-0.2328835208041166	1.893775648603057
H	11.147489865921976	-0.3093008761659748	12.088360203620745	1	44.54916495816583	28.44191389358574	-0.5871018725450653
H	13.596742365082681	11.82499559256851	14.690688915895748	1	0.3650439906914322	0.18274182485058876	-7.229317725231898
H	5.11023039789409	8.25505870789266	13.407501166586748	1	-0.6643548456574265	-0.6378578055595764	-0.3877185685098181
H	3.930989476050098	9.099503423284249	14.815055170122283	1	0.5682448719060352	1.0224866768061724	0.3437081874132474
H	13.440982607145246	11.929145919425162	-0.8730289348178465	1	-0.6201475178933324	2.4959997341991054	6.585876764469621
H	3.8177710177658066	0.9823445063957337	8.34545545391407	1	8.346024356268622	-12.721579469766109	2.450039169717203
H	7.302310954481608	11.534218124441914	7.36965932631611	1	0.4807591567300166	0.3231563141471757	0.38862514024570227
H	7.080266646732653	12.236211611216252	5.0915051449296636	1	0.06210813433456102	0.69313399883744	-0.2253792357062004
H	5.111874937693227	10.558438541509942	2.524623379532451	1	-0.4672675386730716	-0.09630589197678659	-0.9016143877164351
H	15.43318870840679	13.179307206490313	14.342670212386293	1	-0.1887160451724848	-0.983687411972478	0.4223600989303012
H	10.329405766847952	6.631110400042834	1.5832418116546736	1	0.6881789646644506	-0.07205625503927797	1.4232453772787177
H	11.532826718032384	5.368401638292913	2.0695888130173445	1	-1.102327210312731	1.6569475380167695	0.3963927065284017
H	3.938045776093681	14.540294593137993	9.95961593736581	1	-0.7615272001271031	-2.0138282693167313	1.6502300111468189
H	4.483885741880084	9.476635775531555	9.514180586056534	1	-1.094688456406571	-0.010418118757240014	-0.11447589327427306
H	8.48602059060877	6.582263928181929	5.561683044222947	1	1.4225779183376073	0.2805973220038286	0.7283969654138028
