226
config_type=amorph dft_energy=-23242.882873559578 dft_virial="-82.74441439791552 -0.9001820701861621 11.135734448597571 -0.9001820701861624 -38.12914054431387 -2.813068969331757 11.135734448597571 -2.813068969331757 -20.881009092354013" pbc="T T T" Lattice="16.238802244926422 0.05513145033037949 -0.0614809045510506 0.0549203431568022 16.511422801081476 0.10505017737473489 -0.062227899165247194 0.1047903531611013 16.325047644839426" Properties=species:S:1:pos:R:3:Z:I:1:dft_force:R:3
Si	33.79385122150197	1.3839861519460745	24.131958185565505	14	0.3697311156900621	-0.7099780811213261	-0.2512970057754211
Si	32.19892028611211	12.499923691232242	23.268870864914742	14	0.1393788480736313	-0.1282724444221877	-0.3070362551214433
Si	37.127291952735604	-0.00089801743837113	20.394815582398664	14	0.34943943828238944	-0.138123120235271	0.3513898787782538
Si	37.864884178201336	1.2951360142913946	11.782032636765274	14	-0.09837023243833348	-0.06006436271557532	0.10917967342530004
Si	26.690752510666584	10.62630530429899	18.902175816015024	14	0.17901757879435426	-0.22534581133703846	0.42094804788847584
Si	26.829831540520644	11.55955652994017	24.54306829538994	14	0.11041508953163119	-0.06537086698582895	-0.0088134919269356
Si	32.70139108505546	13.360139954322353	13.171106471594562	14	0.3035452083177463	0.46419249671017443	-0.18039029192478132
Si	27.353991165697057	3.246427225989077	14.698366190543545	14	0.2462879783907086	-0.05736290235569573	-0.16514749403428344
Si	40.693838848934625	13.469019291045512	21.87836799691047	14	0.12287543724466483	-0.0042803761369825215	-0.03757413314864403
Si	30.87540172428392	9.842376678134372	12.125659902703722	14	0.23452054356145488	0.19929023002265783	0.13230985110641622
Si	42.28053660455496	2.5947588679719744	16.56952599085529	14	-0.4025672159547372	0.40671029506762385	-0.17028224846915116
Si	42.22848082335347	6.714138615223216	24.171077968730714	14	-0.2972719684471169	-0.2062137024287526	0.19786326656997563
Si	34.89779883599375	0.3774125332174913	19.711792937401327	14	-0.19797793786725423	-0.05651572315270694	-0.13848950274339208
Si	39.70072087666959	10.693059016485467	13.529470642150041	14	-0.1300261953610607	0.07502819567883715	0.040631177374300095
Si	39.48322689914092	4.575421583119599	11.774143724078826	14	0.08323593519234584	-0.16934250947463703	0.008575407574289888
Si	30.988113468158172	11.034643414544218	24.659118780409386	14	-0.14852452680793005	-0.07305230124030335	-0.05722303422627968
Si	26.55693979284261	8.525022445774635	12.887242022594513	14	0.05436473644187106	0.06579767046897352	0.05147661383574872
Si	41.19455258663328	5.834515107276008	12.65585232134044	14	-0.03343876735171786	-0.2933296926597339	-0.01909225677582359
Si	30.204355351633755	-0.6508239293227933	12.42106866629578	14	-0.05204277122724532	-0.11051073464954071	0.27699674611349323
Si	36.90254725574521	3.964107173282466	14.563665198689211	14	-0.0063873969468438725	-0.03867508044673144	-0.25478368170007387
Si	38.37710488076129	7.173407143044637	13.984263697891624	14	0.03963590250487077	0.158385744152826	0.046227445214134404
Si	36.173269405115754	4.237270112483481	22.235212195816192	14	0.15322245044890465	-0.1956765414951897	0.13499151395533063
Si	34.12524726258361	-0.7603982958174234	22.981467934905268	14	0.1306417179747041	0.38285917945473824	0.28319979480888247
Si	34.04567122545432	1.6007607411832574	16.037316686760242	14	-0.1779695962658619	-0.09857000732170898	0.018131177607152237
Si	40.16574775862566	12.122330904966542	10.015203625536767	14	-0.12575687497695479	0.1384859031959439	-0.09422715332544687
Si	37.07439499064247	-2.3921122203511187	20.586158252825122	14	0.055992503220056805	-0.3311583652350726	-0.10862997110785239
Si	34.965703894226884	12.88399584382543	20.47689729928819	14	-2.9512776945432626	6.685521750925683	1.380260610094354
Si	38.69854965446077	0.9123191374303244	18.87198749019347	14	-0.2999662297121001	-0.013951074577655492	0.09738961286922901
Si	40.45664370040718	6.02360217874786	16.884083798992144	14	-0.24524076719381227	-0.005268966132579458	-0.10384591543865286
Si	34.05749647497732	11.523059347431326	22.268102693459536	14	-0.25551773226897617	0.43109285815018417	0.3857915250723671
Si	37.51104257286442	5.3775720061666075	12.750886275279601	14	0.2913435137999195	-0.10479696729657562	-0.0010513249654085495
Si	35.42954370430692	0.5339144004970198	25.60448593391257	14	0.0583589485567211	-0.12232316382189701	-0.31025579320333274
Si	34.979882176784606	4.049418829927723	10.324066411691039	14	0.6412820036249497	0.036025813524850854	0.26936750529701786
Si	42.54893988894248	5.7632956664177035	20.109513980716955	14	-1.2129415605066738	-0.6700156482407965	-0.7427095373994713
Si	34.533218371127084	8.832022617097422	17.66224595151543	14	0.16870384691311224	0.060544645189378986	0.05943984123331135
Si	28.816639098320707	3.4570456052644785	22.148809277473674	14	-0.015910513942140343	-0.061419078108761335	0.3405500987485095
Si	37.378041805708044	-0.05641108458252497	17.170450679949752	14	0.10805635751092735	0.08110397466087906	-0.17969146549876508
Si	38.36425819729844	13.768893783309398	10.24353227277397	14	-0.051283266715673584	-0.4830795792814502	0.06966486998100825
Si	27.48857361275392	-1.1272847005800835	22.68142293300119	14	-0.045803469946841986	-0.5625917826386256	-0.008302870410354194
Si	32.2942416705876	10.210011701412563	10.241276673819362	14	-0.21804798599633018	0.054019436997375166	-0.4254084013978688
Si	33.96556254868707	-1.7167072965172514	14.380513486597552	14	-0.539540537890838	-0.03580007047774185	-0.23109788815927373
Si	37.61351886662285	6.9337940054290605	19.43199960904865	14	0.28830703841682465	0.3368281666870631	0.061622966760649094
Si	34.430553704813775	8.021562690918143	21.0091601921273	14	0.15659651196053492	-0.19596064863306606	0.18015992088809601
Si	26.903827852662157	-2.822785469560827	14.655706302467578	14	-0.1459765614356633	-0.08475982931559761	-0.2504667958675452
Si	31.502100975370833	-1.5124692255878898	20.112695203432633	14	0.37362968268700264	0.29105992088310717	0.03779344843245266
Si	39.00116204437581	-0.5373343367089721	10.77834793851203	14	0.0531169790300032	-0.13134208706391245	-0.3622432856661949
Si	28.169990219330735	8.971829154749654	22.36064071104648	14	0.3391095084376305	0.45226513913000754	0.047336877159778294
Si	29.863004795367274	12.726821681393124	18.221106724323942	14	-0.024692124163106108	-0.041262126619864434	0.1627908188978357
Si	28.864820250936386	7.25326898680893	20.937693918266046	14	1.2998426063328907	0.870495528695087	-0.3015777985267689
Si	33.00250786184078	3.175876832480878	17.45039178332393	14	0.19959773421894755	-0.6711027115701551	-0.17837171713793304
Si	36.35715999231493	-0.7587289252448275	23.856443837231108	14	-0.4400896698864463	0.19701403048273072	0.16318651200660647
Si	26.3786792715726	3.281165723351889	9.108064733365762	14	-0.18765083623834747	-0.10198649207112176	-0.12877252440695647
Si	27.368145089734746	1.158005666039586	13.607637132920374	14	-0.08850155888800912	0.16914839102296586	-0.012491458087407427
Si	40.16805694632434	0.14476268452729546	23.23753119304652	14	0.07598336130527214	0.15062897651247126	0.1949121518835097
Si	36.288100340232454	5.285873545569969	16.376094983311752	14	-0.15044642803474073	0.1291517624416783	-0.042221406014811676
Si	31.73093952762729	6.222936067644889	10.965582138560409	14	-0.25686164901981756	-0.1513990225558556	-0.12483127706170147
Si	32.58561016765766	0.12212387601313283	14.996129611071655	14	0.14610074582262647	0.2699400904518148	0.08405354668415295
Si	28.289803283743865	6.907339028777154	13.044934209552752	14	-0.2166495618127016	-0.09050444993240447	-0.061724525420794936
Si	34.094339548470565	8.105005237126575	13.859345087680595	14	0.1840955118016467	0.025630577604960156	-0.07429465933099888
Si	41.84165453409577	1.422880212825689	10.099901447477317	14	-0.16290703285830638	0.13676660506836086	-0.33487721197013476
Si	40.287556597779776	4.792792144146804	20.390638908164505	14	-0.24863308355321562	-0.04305418702800764	0.14683042551248449
Si	27.31685416606214	2.357846278276852	18.6531472984579	14	-0.18551861859634866	0.21371747330560475	0.0031696586386785516
Si	33.88624471187008	2.509062346710272	19.613691433839957	14	0.05739504117219758	-0.18694558204903083	0.6544645748224129
Si	38.3463660523871	13.14184701733675	22.487139377256668	14	0.038038217658930756	0.06071588080370085	-0.014129509286873768
Si	28.966098105509424	8.118779168251825	9.525029007503628	14	0.0038245191637202676	0.23107834775884065	-0.08289217841104206
Si	28.1152436336168	0.5481105459694255	24.196910991171237	14	-50.314051284216625	-14.474596872291276	13.614503521500444
Si	34.08696378860604	11.812667535454011	10.005861321155304	14	0.04302719042214608	-0.30197503429873185	-0.041740352209411975
Si	40.004000690033415	-0.6538248989902614	14.733112807413033	14	-0.40650434953148	0.14451745916647926	0.1234788756633036
Si	39.429803793015175	13.68404331464334	15.438959385676748	14	-0.05595702196663876	-0.29196983505590757	0.2152863617719591
Si	37.16909279700524	6.281675826742105	22.999723833715702	14	-0.14689547447708423	0.16457490887948645	0.2181009507659252
Si	29.97882143859445	9.069287593382283	23.95250896851812	14	-0.12573219236588135	-0.009017894799887372	0.2299478327495715
Si	36.03937549222501	12.496682384167164	17.053042613414068	14	0.8346003273204995	-0.03566791566428624	-0.08299142307639977
Si	24.57008027019982	-2.506509573811322	19.502524020135485	14	-0.4201705456396631	0.07412496637986912	0.18822213584048436
Si	27.20430318842007	-0.5400852255708178	15.286658551151406	14	0.20893650296278937	-0.1356247771956831	0.2853348406667334
Si	38.97812538003453	6.630407014577116	21.331694603622704	14	-0.2016178516689879	0.003311840762882741	-0.48465129596365675
Si	40.93511973322146	7.864229386154987	11.508806365412187	14	0.014482264936798087	-0.2593291387955637	0.3155707821211428
Si	28.993291957268852	6.487456603939916	15.255239308117764	14	0.2675808442100469	0.23132440253797878	-0.11890745040408031
Si	41.59562536230478	-1.706983375322014	23.40201128758594	14	-0.2250899863576837	0.1092884311803423	-0.06296276974297825
Si	29.646131148148644	11.168225538378595	16.442148794022753	14	-0.2162883215152208	-0.07624818515324741	-0.10003013803302109
Si	38.05405731644396	12.278535598301728	14.032552027995429	14	0.05591022784981206	0.1884913305675039	-0.30500739591331444
Si	31.06566287642113	7.466862353330436	15.675654372592952	14	-0.048966957932752186	-0.07572033723102099	0.19450771701665037
Si	35.036493001231364	7.8427890168262095	11.673016892329958	14	-0.04506247739357531	0.004333598017109587	-0.07569411195675549
Si	37.943643392959025	2.825148246003558	22.79708205779885	14	0.19676283349295226	-0.13300404954285616	0.0684903890707646
Si	31.547748841903584	9.836093803868446	15.945637712979625	14	0.04251039825279632	0.13445132472756752	-0.07904400507837643
Si	37.71585550486645	-2.356990482273196	16.92444099497478	14	0.6759173633926644	0.5595907885089488	0.5653876025637546
Si	35.49326072099656	9.070369111671534	15.524829664381318	14	0.15168312969373196	-0.14710244845535617	0.02233390636346629
Si	37.9380620440699	11.35889104194827	18.300156617420633	14	0.10917941631476803	0.305225682754995	-0.17188430419413545
Si	41.96430617804285	13.325604444626443	9.090071906571636	14	0.12478474005540681	-0.19219706466543332	-0.20682716815813992
Si	30.78611313326873	-1.8577268884668878	10.497625738595614	14	-0.16151015133786994	0.38161913535883074	-0.24951368712536634
Si	36.02088250381964	8.702475888081043	19.48876145631958	14	-0.4619510070920694	-0.27162519287863984	-0.06046571225605044
Si	31.25790356428596	4.381644684591661	25.701021996586796	14	-0.47423549120120484	0.9510384881751096	0.0323005390264883
Si	30.690858328747982	13.28753694952645	21.62852752868574	14	0.09286909549534467	0.18072145029001638	0.14946272313925207
Si	27.38556955106155	-0.1095483840732666	9.99621047552015	14	0.10334120746430778	0.07346547786525112	0.05994686320244455
Si	29.226161032639304	12.996069394474947	10.753211569744314	14	-0.3509322220312674	-0.14335377689858025	0.1371931514409734
Si	30.547636726587804	1.8512523938434056	21.96906613428462	14	-0.25705293925563655	-0.12485158879373065	-0.2186200569300631
Si	38.3022154228854	2.8535713910737384	25.08479041350665	14	0.03894196117896281	0.0813217472814956	0.060049193194186445
Si	30.992333987728387	-1.3064740934138308	16.034504089647655	14	0.26114253937786414	0.08684011063012943	-0.18507047493904685
Si	26.186508411465187	12.8726350300843	18.267066379913057	14	-0.12307855456495652	0.04391370753653314	-0.1576483511470075
Si	40.808744483512754	-0.1739230808036614	18.646724768677146	14	0.021014158002634276	-0.06226831419600625	-0.022161642307016366
Si	41.24260057933947	11.77293554148543	12.089242291360303	14	-0.0749130101604945	0.05168795869306488	-0.06043357343954857
Si	30.57571560457492	6.252239367238753	22.20547693846716	14	0.13475677203960112	-0.057837528397795074	-0.14690395912464072
Si	27.610439288454756	10.799702241070042	21.02911793953703	14	0.16842179665949203	0.04755953488050312	-0.15215209930412696
Si	42.08433034962955	8.572653095837678	15.02863037239455	14	-0.08773819771845716	-0.07559255329660963	0.03507321900373599
Si	36.719546566477725	10.81275516000246	20.174788318787055	14	2.2394484175914293	-2.238253882059689	-0.2576409510423545
Si	39.57247976432672	9.786225417765483	17.520999013378862	14	-0.21757053173837865	-0.002242518060233154	0.19844999280403341
Si	35.41592566770986	4.23548706881742	20.014457292159104	14	-0.10536852400924454	0.31570679359257864	0.2765051507762809
Si	27.10338096823944	9.591724259242039	9.625270813024807	14	-0.04672983919369134	-0.04961050559438525	0.07439801776486885
Si	26.996516893073274	10.489647511335725	11.78635383821827	14	0.19250919685129927	-0.11007338963458352	-0.026983750334954093
Si	38.673080385919334	13.449491877489614	19.054463659329684	14	-0.14156891558533344	-0.20569562470674274	-0.2679037750382575
Si	32.85214921331236	1.3056605188448904	11.35757568186675	14	0.28586988768385624	-0.038188627320159416	0.9433724805525562
Si	36.57000798812358	2.2891682430081506	10.103636420548298	14	-0.10286323898529226	0.19238938334338038	-0.03806110049628007
Si	40.80472695160944	10.417538172545727	15.607875978663957	14	0.005630720651124293	-0.05257293314425986	-0.16132477464428727
Si	41.00198874240274	4.665127516777936	7.985060636705294	14	-0.13970177890184193	-0.06472474821887572	0.20765095030271535
Si	36.185417811004456	5.951629247670018	10.8943302196754	14	-0.08128163803850129	0.060505821499044744	0.15099510191006033
Si	33.827045388695	-3.9695098930247092	18.236972240368946	14	-0.6043622167802835	-0.2494805198667365	-0.3200920708266232
Si	29.020182139478596	12.261887361813153	24.914319746941644	14	0.24284912502501052	0.178023846588117	-0.22007453120967085
Si	32.03295594575231	1.9557601881721802	9.235925852796193	14	-0.7681367405736077	-0.14199829017379817	-0.3058399198159784
Si	42.045858503097094	11.563759186595693	22.34944228743887	14	-0.09610611709341109	0.09904437625327632	-0.05287452379831323
Si	38.88564095119165	8.801525750022178	12.391585113653706	14	-0.12534421257307102	0.2525884719777315	0.5202032547780043
Si	40.197218966502035	10.026319230176279	6.374722125446968	14	0.20970320656925753	-0.03892190655746565	-0.13750116985832717
Si	33.7942539490331	5.968363550929357	20.120923511498138	14	0.11616099570109811	0.027811132026977742	-0.027136216880438872
Si	42.10017313105586	-2.6311050276566443	12.503493026367034	14	-0.05932902659401297	0.07470937861913877	-0.12560440843147
Si	39.63941860126541	2.5079045050582676	12.789947597996743	14	0.06472706221366385	0.19174686412387537	0.023733616099754905
Si	27.467274522841308	7.7254166761199015	16.60784843846491	14	-0.16654874643376413	-0.09173960892820361	-0.19181936929390353
Si	37.13292201866477	7.47018323156094	15.928992724293723	14	-0.03838377421395866	-0.14778790513370763	-0.291335286262895
Si	33.09070194335604	13.925096852743247	10.705210670176843	14	0.39734941481802877	-0.8987496621687261	0.003287415262341334
Si	35.47531173953849	7.927995119884678	23.08418456606131	14	-0.10873872886289465	0.01866493907161498	-0.3241366766057482
Si	30.379674987585698	1.0457161365124852	24.160136121534066	14	1.8589957927163503	0.08649352563297345	-0.3342341785295657
Si	30.545254463329048	-2.4731432730767624	13.982535866870961	14	-0.0660977184598348	-0.09779841861513255	0.49506350117866044
Si	33.54341153368455	4.78138910897096	8.568336766088692	14	-0.10379295066905782	-0.14508644477382804	-0.23755830449720983
Si	31.066260472112486	6.853420632744176	17.927674248656835	14	-0.27686536263163364	-0.08268417599064207	-0.15524102523575287
Si	39.827380309111966	0.8894448632225563	9.066296367122826	14	0.11995594715363668	-0.039225039874711105	0.08239158420520923
Si	27.093215345881024	4.849331516934812	12.774921638942045	14	-0.1518607930713542	0.12131014832575866	-0.09612282927799205
Si	32.846118043753386	10.410318307209383	17.88433394592142	14	-0.28991809301042937	-0.0391728464367121	0.11895475874197102
Si	29.063567911451404	11.37087218599945	12.441523327514085	14	-0.001976665770129843	0.05077187386749614	-0.1802475955795131
Si	30.1542937212719	4.836166548810264	18.795839508782805	14	0.4347271155202134	0.12380772003375053	0.18024116781621272
Si	26.41546713242045	7.271688899654216	21.984486701363775	14	-11.633123629766109	5.460293649425617	6.440152942686927
Si	27.095717777838583	2.4787132546565327	23.410197374216732	14	-0.012716686913452398	-0.21255739058515394	0.11606817879904079
Si	31.69789151155443	5.033470561038279	20.596426180967654	14	0.12389308073037943	-0.39430959699801765	-0.021541234593264635
Si	28.68116188162814	0.9274815041971802	11.636084504263277	14	-0.10623858604958265	-0.09519234626263047	-0.05665122040307874
Si	38.917656166015306	2.8435681588488446	15.001779163816853	14	-0.16715295618399895	0.12091728343284006	-0.13166758899744319
Si	34.115572058428434	3.4602446908948425	23.15356737450949	14	-0.10877523855844075	0.2087480409428225	-0.14493397822834325
Si	41.452918536867855	8.327815867626732	9.290833204742313	14	0.21424300723304301	0.04737055863947223	-0.06154634782210867
Si	28.119171850946675	4.2002159318166585	19.94227163000635	14	0.20378889300132091	0.6211523058524464	0.19633705845193572
Si	42.35097170106837	0.9444058039127389	19.99611370267657	14	0.22394378760596173	0.09852964096818267	-0.11506904727163123
Si	32.50252487974298	3.0309468861160567	21.458639842700073	14	0.20853823874869842	0.20374621265300646	-0.1904332864158117
Si	31.832092341797523	7.998982342852049	23.063606488341527	14	0.011712927396466588	0.16263989501554302	0.018702991430353175
Si	37.115471574916604	4.783316679855854	18.547822681757516	14	-0.14546208326110166	-0.05297042602675476	-0.2183683457192206
Si	29.63054331923196	3.081956874857673	11.082074324743033	14	0.43346624547121293	-0.09331903892637058	0.33309337909901604
Si	33.91376821560055	3.2410521125695317	12.226612977009724	14	0.05755187859672662	0.25490426653958886	0.4991279044687506
Si	33.78752125409732	-1.415895813182951	20.744011206015546	14	-0.5512411239817679	0.21076224485062653	0.06904343382512845
Si	28.95400653616745	12.409602298967862	14.548290100847442	14	-0.09308995344234539	0.1679232593379153	-0.24047290948812972
Si	37.92924913152372	10.834271852693993	22.186433447509152	14	-0.17342053962292392	0.10987901407238032	0.012464975702609902
Si	30.5935817670649	3.148916822513722	17.234737686008042	14	-0.35554735608093324	0.1883666319594767	-0.1629610260700295
Si	30.580809783063472	3.390757952761206	13.267486639740612	14	-0.12254042222144954	0.17335729043204826	-0.007315051746353301
Si	34.29762763711882	-2.1574828359333016	16.704834321808992	14	0.13096490591344673	0.2303332414370617	-0.5046095010113062
Si	41.232735378728066	9.063886497541374	19.03016035194693	14	-0.02347470579401599	0.1709792751214433	-0.03263349716544748
Si	42.17301160154537	7.02403420262668	18.15982393573579	14	-0.06953965715191704	-0.09916856064023946	-0.1064980105763856
Si	23.61475210590646	9.917345707175677	8.823000221278994	14	0.03683108371112123	-0.09630846308210675	0.09504913569629822
Si	38.15238454229092	0.6500899259192784	15.14915145778983	14	-0.027994451836304297	0.10216878343832025	-0.024255293369212946
Si	29.76123814649233	11.642880531351132	20.294052504548883	14	0.11045854121154171	0.12255739151656252	0.2042732892436368
Si	33.68358344913721	7.102908714379165	8.075950394436996	14	0.26010586971278044	0.08676092058626887	0.14684353814961723
Si	35.62630046178498	-1.361789044595089	12.74937767093919	14	0.018718418062274058	0.07387891160073096	0.3214904950102518
Si	40.57768443422973	6.776878043309053	14.704645817006801	14	0.06524668259886579	0.013336066185076071	-0.06892413453827359
Si	41.538686509788306	12.62073383106519	15.999627560671351	14	-0.14312983362519535	0.37774653652562373	0.2556439735401954
Si	27.84686470774931	-0.7085390066774919	20.389690549784742	14	-0.025313817429517913	0.018929762919590233	0.14236904356096355
Si	30.001809385895683	7.700957474208968	11.596665923252388	14	-0.15564803120793233	-0.25748385650729344	-0.10535721114583589
Si	40.62021278629754	8.370893098345848	21.23537776762873	14	-0.5923402425243349	-0.18370238979819606	0.5034221645744618
Si	30.680186049172985	-1.196066665534238	24.54253565575199	14	0.3420074012439694	-0.15364359750034487	0.07032615826935033
Si	40.63991395729631	-0.8145716443600289	12.482711960980351	14	-0.06182762674413287	-0.0027603386717109774	0.04170050007694968
Si	37.62208981787008	6.493167864935849	9.038623464469513	14	0.26476111300544053	-0.19342013946622777	0.10694306890730322
Si	41.531575445841426	0.315006004905371	16.36854871380703	14	0.10555544336601931	-0.4645511659023352	-0.21412910726736048
Si	31.814906593966995	-2.506480343587288	17.937711582809772	14	-0.30272245461529884	0.15420152735481701	0.4375391334088594
Si	36.53493821488838	0.6105300654922275	13.518903916161829	14	-0.031246128734695577	0.12144873090251464	-0.06412568067928122
Si	27.816488009372875	4.431258118184997	10.546104065155637	14	-0.2565844838663056	-0.05935833719466266	-0.08998791487358672
Si	40.155812730256855	3.6007007890811606	22.373682262669547	14	-0.005089760091765137	-0.0361083460056276	-0.2139740696165555
Si	37.83217880531021	8.86282964932769	9.301695480773533	14	-0.08646627191657989	0.3005642688095666	-0.3687934335798041
Si	29.29318918415143	13.985382565911584	23.35628384988776	14	0.05818128517909887	0.1360500380156356	0.20909693993476663
Si	31.47257195349137	1.1497935969874291	13.224256762295987	14	-0.13602021319392188	-0.07307852651456884	0.20808855242820454
Si	36.50998372307021	9.898385035185767	23.879745197490035	14	0.10402537858999918	-0.0745309439099205	-0.12621273195021704
Si	32.95470994994022	14.26456205955955	8.171102893173627	14	-0.31854349409229804	0.285292674539483	0.12941118696848125
Si	36.79353475911256	9.390829801161875	11.343951149664338	14	0.26093505117852817	-0.058201339800596025	-0.12221672006164289
Si	28.15218576509149	6.028956181450048	8.841122960179936	14	0.08991669525621862	0.20096427669660624	0.2556136344974177
Si	39.15410756773123	4.929035842269588	25.79034956123403	14	0.16990763842400558	-0.05413770784210198	0.1559046275188831
Si	34.26678975076319	-0.5770338526508509	10.991127730464598	14	0.28888502289279394	0.049270091249997636	0.1830727261052918
Si	41.57706579394466	1.3053357385778486	12.390552312404512	14	0.04617370911294331	0.022053398773038132	-0.039950348685524883
Si	28.91064999441868	-0.5549828964200344	16.878788256738023	14	-0.058979613381004846	0.04572273723978934	-0.08531518806474961
Si	35.416180620219485	11.799580514593554	7.9887339015255385	14	-0.1181435750134643	-0.2565919400717341	-0.0007811017962609864
Si	37.88908680370131	0.4888901120769874	22.541501098354153	14	0.017408954122722642	-0.1540776000783859	-0.039954719564569134
Si	29.387883742711534	1.3452041402585893	18.178448460149315	14	0.10193532707525083	-0.09556258542873179	-0.06850864391853766
Si	31.41429175847202	10.04568750140133	19.7447077935647	14	-0.2678636657952632	0.016048325187300278	0.6004106850137478
Si	32.537450125759335	9.88114082690717	13.81102265564875	14	0.28731433465271544	-0.05169361512476922	0.07736533041485175
Si	35.99077862086752	11.369727335558126	15.01633094368167	14	0.18505736230191414	-0.09441895778232992	-0.3432163349655031
Si	27.139816442497544	-2.34448968979475	10.644369582751866	14	-0.1241651036732511	0.1662114174157607	0.0034627646451754327
Si	35.65769697019993	11.449452771610261	11.676162389216259	14	-0.06440773093290146	0.09343371022364919	0.17545505526275706
Si	29.69017460016221	4.8989676851468404	23.910893249000697	14	-0.10707548083129086	0.294946660795575	-0.21487498492073542
Si	28.386850875338684	9.58725528276754	17.655396335683513	14	-0.02649858276104215	-0.021257127455388273	-0.2400497055524333
Si	39.02659071538387	3.362071735674722	18.79492525233108	14	0.05505533533086283	-0.005624292887823923	0.19726651302516926
Si	32.88352785881262	6.268125994001112	14.667718300644127	14	-0.16800810581348016	-0.09022548500516842	0.014468380968069284
Si	29.838855758611366	8.423652028825485	19.128714923980827	14	0.33884159926327106	-0.020425117773788352	-0.22842470995791578
Si	34.089375282088824	-4.944271284596528	13.416468219936784	14	0.03381877671803574	-0.3109240234760392	-0.06464015885384286
Si	37.13564692510526	-3.0208868173444308	8.065896821270712	14	0.016853081152506628	0.1392790891872096	-0.1321021057965482
Si	40.20315594978357	3.6861439817345705	16.80434537172933	14	-0.011485641686165499	0.13397104225376386	0.03634025970550497
Si	28.04865718326785	-2.172533153508028	18.428738749043895	14	0.12575764630855082	-0.178423396354868	-0.13274616767924532
Si	32.33745043731487	4.896716957896239	12.828651662420137	14	0.10912696576623701	-0.1452836485518834	0.04657043066384216
Si	38.79246474037996	7.597938797404582	17.55394634756894	14	-0.24896089948153455	-0.3282635577551179	-0.501131823955274
Si	33.94497797536195	5.148644139336713	16.465010077019837	14	0.13319302578388706	0.4902537344562594	-0.08656731635566171
Si	41.52685801246264	1.7177985582145125	22.103353031298475	14	-0.1457539037149385	0.0022198923334158516	0.11924940741166
Si	32.799929418076005	9.551381678371417	21.557696200246554	14	0.35982259000727546	-0.16535935311266364	-0.07938004854371979
Si	29.477987532196995	4.100000108716844	15.295895301946082	14	-0.20540560402663002	-0.18429940045353446	-0.16456488156873786
Si	35.07134029998363	-0.030137984880162387	17.406600036017323	14	0.0559194838289646	0.10052918957566181	0.11287358043875678
Si	33.40999017608236	6.798125168378941	17.990714098489693	14	-0.27750711051954263	-0.08724608816018081	0.33803041553476443
Si	35.153573039697335	2.4280800110246847	14.094508735637694	14	0.4161269683026662	-0.0866488203943104	0.10014018134072343
Si	29.974826641309832	0.336673720421078	20.256158766891758	14	0.19394104540408974	-0.16253756502380112	-0.26400263693599685
Si	37.032542181530104	13.294992280556398	12.139802459432065	14	-0.0446629276268243	-0.07534675562800347	0.09368182188704346
Si	33.19670047911053	7.989823539321464	10.195836666657517	14	0.22744151928349113	-0.06080689793203408	-0.06790546261043091
H	35.54693715573059	11.712183768633889	20.293544223430963	1	1.8844291665432549	-5.0005450511507865	-1.1568845225430808
H	26.724328294673384	7.716118217074489	20.353769852249897	1	0.019942007084132532	0.5612823186990743	-0.7885176353358896
H	34.90473127079376	11.410298886517014	17.068472923901233	1	-0.2074290639135866	-0.2293065990827266	0.5557714115558688
H	27.363799529761724	6.89156607510826	21.46761676928112	1	11.728936383742491	-6.218123342991816	-4.852176076214726
H	32.40077122207872	15.38799324227118	11.189523004389875	1	-0.23156017289583636	0.3326480636575664	-0.26029510306434334
H	28.902233313798288	0.781499269767142	23.969944797154273	1	48.35904450530371	14.24394275691026	-14.008780722571428
H	32.50923971176407	0.40488082430256844	9.142355033960056	1	0.11858323402320962	-0.13325010432199433	0.2035582648541036
H	33.133071153093	2.6574641941297736	10.204526162702225	1	0.5719966287891953	-0.370266676928249	-0.132723284841896
H	32.39798298348616	3.6320144785280153	15.970572717981776	1	-0.2588074615261057	0.034949548837836866	-0.09189233258422042
H	32.349205859080456	1.8083911420018728	18.133437162939963	1	-0.16378660798832903	-0.032331906511394115	-0.09081529656561037
