222
config_type=amorph dft_energy=-23200.753072428233 dft_virial="-33.89519635689018 -6.756477391002596 6.0635053508997645 -6.756477391002595 -23.327372745322016 -0.008057814419800352 6.0635053508997645 -0.008057814419800352 -22.090498231882663" pbc="T T T" Lattice="16.36899940293572 -0.008561003809743001 -0.032345207510616 -0.008970229613268 16.5438206662016 0.18564119351108102 -0.032558004928449 0.18544476512538902 16.20580015248995" Properties=species:S:1:pos:R:3:Z:I:1:dft_force:R:3
Si	33.4951598458759	-0.6317808014172502	25.275813748786273	14	-0.028293728495569537	-0.03366528173042291	-0.1620575396605295
Si	32.096196882977466	10.658904802223557	24.41850205943354	14	-0.02107843563563798	-0.0658982006869913	0.14971160613424242
Si	37.180549218229196	-1.8849775331000693	21.739042093047534	14	-0.0758437502863881	-0.07655491801794106	-0.017544451373094447
Si	37.8095963912789	-0.7104438222740398	12.989031616785264	14	0.08445541044569209	-0.0423589601494396	-0.0560115293994259
Si	26.560709111210137	8.712147268016924	20.284836920479663	14	-0.03312046451308353	-0.007141759247775319	0.025082417950704587
Si	26.782552056204253	9.774636590741022	25.822773499455288	14	0.05432411297781272	-0.018562351969341074	0.031633851416973904
Si	32.64792002199952	11.459389759595595	14.619180968223887	14	-0.1431380611622198	-0.0386987346156768	0.1419463538463312
Si	27.27485069784483	1.3646125489505356	15.947527926466037	14	0.006546548366161039	-0.05953162969324063	-0.014806481317668757
Si	40.76793719515433	11.648435711792002	23.260049285782827	14	-0.1187251590368818	-0.04473620412844852	-0.10639516636357968
Si	30.838182745135555	8.027394641688185	13.411791336084443	14	-0.01127995326055365	0.050715566660984895	-0.023698906177932903
Si	42.28980376207703	0.6662294295579847	17.83052971738669	14	-0.013530441747279267	0.042886808071666	-0.044348224335638176
Si	42.232924649193485	4.842714319689501	25.68724609784388	14	-0.01150338231287452	0.025037680718134007	-0.05707159612292295
Si	34.98637540011456	-1.428754601395044	20.901730087164676	14	-0.03692158661839045	0.005744877727338867	-0.04891810693166937
Si	39.67623733457462	8.893311531237442	14.987302495139621	14	0.01948743566353035	0.006091976945558858	0.06718940977876968
Si	39.47511758427101	2.665821288806122	13.233049689620794	14	-0.06639005313473563	0.14807998269807646	0.0017928317397392555
Si	30.82481743039243	9.205246355329194	25.779027261058467	14	0.0346600423787882	0.04479533955081192	-0.008505730620113876
Si	26.354177758880713	6.712871331089109	14.422413743566567	14	0.06558169762208108	-0.04296934055244276	0.09811260768525465
Si	41.10097170167583	3.8560381693264434	14.341499980790392	14	0.038360377155545314	-0.06941855809133807	-0.0018272845510292396
Si	30.171679952740813	-2.58754457710786	13.856575588129338	14	0.10425574962668446	-0.1349251794380708	-0.0461076317062155
Si	36.86106499651402	2.1027871485746434	15.863648095065912	14	-0.004752688184293723	0.047922574951708034	0.006117687998760339
Si	38.334837710103244	5.369252065859405	15.517046934705949	14	-0.01466969851463688	-0.05075644723557524	0.05467866840146113
Si	36.10951035001786	2.321158221851654	23.600223964124233	14	0.03666164787052348	0.053905022810628575	-0.03758030380141238
Si	34.16116174588712	-2.6367908103040585	24.209900024538275	14	0.225215970518371	0.08223911765972444	-0.033137176697664486
Si	34.12085464114312	-0.34879133686042807	17.326913526923825	14	-0.004587366112208203	-0.05744029262583219	-0.09339437231225091
Si	40.13054181571272	10.178827279979451	11.392504257364253	14	0.0017444949597204716	0.03452068847043617	0.038277330453704524
Si	37.07545348427112	-4.2414339358605755	21.888360404237737	14	0.2516785578049311	0.1394441541487631	0.139442868596103
Si	34.78359419304864	11.201007861056338	21.640168228206253	14	1.6788968070243417	0.8832093873926873	0.48917258466913716
Si	38.75105309035244	-1.216039028722749	20.15030966673207	14	0.19162422240010432	-0.06878143819300538	0.07132323291250375
Si	40.34984592382177	3.970179430445637	18.686500783007073	14	-0.15517160539210886	-0.04832983803441949	0.05773905506403339
Si	34.015037032867625	9.832931624904766	23.45159315228395	14	-0.1366002545541473	-0.2548322755906247	0.19950543153795422
Si	37.54401375550081	3.595320409900666	14.16687350900699	14	0.03844136697312997	-0.026427620254206058	-0.04674963670465648
Si	35.20255138618147	-1.269940614659848	26.790540143889064	14	0.11496208929031307	-0.02013304020941953	-0.030484567338867716
Si	35.05622206026021	2.224528551316903	11.723366593320646	14	0.005440458857433335	-0.017412296559638836	-0.1475500778915939
Si	42.93323931437867	3.9407855594300427	21.65330110269298	14	-1.6811568086007518	-0.9433303144253058	-0.48431628094044143
Si	34.15549151315348	7.083634819792401	18.7577846441747	14	-0.050341470836903345	-0.008006421966941117	-0.12286566704444826
Si	28.865323152276883	1.7395010337533598	23.442403577639997	14	-0.03407125926047428	-0.08833212304741137	-0.4276123528782997
Si	37.498466923568486	-2.1731265165877347	18.430042245744385	14	-0.060208087502971595	-0.08559955231315798	0.012697146513019272
Si	38.261432422370135	11.743243509049462	11.603014921407157	14	0.008289243552157407	0.011668704384960042	-0.062102477902856695
Si	27.436108581078678	-2.9769949529033175	23.910832896612565	14	-0.05388625374179149	-0.340385290897488	-0.29831069499645674
Si	32.171612287857485	8.317645408902752	11.42387550746248	14	-0.07807084171470037	-0.034611962709301426	-0.0042713772683620034
Si	33.86742437482651	-3.5975711518200537	15.69592117032994	14	-0.15262441135143817	0.029015180648403086	0.09694558298043944
Si	38.58572750263156	4.41848466130406	20.363693095915718	14	-0.02313917654973667	0.005346356402715915	-0.002439978948820527
Si	34.62746636448778	6.303262492212009	22.126544554018214	14	0.026465415502412236	0.0005851835708657028	-0.13850672914903708
Si	26.758630352633396	-4.724991514337856	15.840065230460372	14	-0.027088908542548147	0.026959324834412685	0.006107403577479747
Si	31.464794206202676	-3.204460660437868	21.421035994934684	14	0.11006130543957882	-0.04143747600269853	0.04161308249606464
Si	38.97591284797014	-2.544739558059145	11.945369954829744	14	0.06488878473830116	-0.031635394080165996	0.03357220771783354
Si	28.10931612903837	7.018723422837265	23.515620621503476	14	-0.04903020712362782	0.0931616872807775	-0.053485675532912426
Si	29.54367057632885	10.789329976516616	19.573167057698264	14	0.08753379484550537	-0.11979859550804363	-0.025930111374757404
Si	28.779582161922324	5.443755715649167	21.92566706539029	14	5.962937540419671	5.121396257176899	-1.0123117846122185
Si	33.01570107304672	1.2375381155367384	18.634385058476557	14	0.034166390157319766	0.08838997291711469	0.03473023355402823
Si	36.349247920948514	-2.504420994992648	25.147161340674085	14	-0.05525151066679012	-0.15511015597495736	-0.09053556030677826
Si	26.23341358735727	1.376257478415643	10.28700202888325	14	0.027029001788588695	-0.07878535188316953	0.04027996438756786
Si	27.109369604318605	-0.7769642950886356	14.962495226929937	14	-0.03626466920909261	0.06863385674762887	0.07167881677828022
Si	40.27696935582682	-1.488452461613271	24.378684388750557	14	-0.09836817555407738	0.03517683454813796	0.06970292233974643
Si	36.210729897164946	3.3075544617651	17.756872346558616	14	0.030671229585110465	0.00935625226001886	-0.09685456585210621
Si	31.591794978971837	4.388534243195672	12.26197322688811	14	-0.015196775105267237	0.08954311365320111	-0.03516886412164551
Si	32.55571653775569	-1.7429450781158262	16.36755892810731	14	-0.01784527069555177	-0.048826318471740085	0.04255282149057877
Si	28.077470177008056	5.065850418222756	14.373688045592454	14	0.027610071590942163	-0.01388628272358776	-0.033552153096336385
Si	34.00286993127722	6.18289445126638	15.075110894253589	14	0.04862371537251241	-0.007317879962205463	-0.027624726891267003
Si	41.877233765285624	-0.5112065106666441	11.363486874087904	14	-0.04489895509521388	-0.08861494463262765	0.10045102797392934
Si	41.008555420014176	1.8279707417658226	21.691072644358336	14	1.3555738852524204	0.8684242462491757	-0.9725151880248384
Si	27.269154274659762	0.6364574338999339	19.89633431164517	14	0.11875292697433938	0.011193307011264662	-0.023660082487598665
Si	33.93958070540726	0.7123655466473932	20.82967197077678	14	-0.01321728111928523	0.026426591812078	-0.00477711368483513
Si	38.382535432858894	11.328262353823686	23.788181375683266	14	0.07222980464838796	0.02597150617041179	-0.04533090078899876
Si	28.83553806139312	6.303296867179505	10.88628375388776	14	0.09464110128199073	0.1859302525581044	0.05845125123771442
Si	28.242154098669012	-1.2681629377693353	25.311512970982577	14	-0.02813303441306028	0.15254753530236576	-0.03206245467384259
Si	33.964810294646185	9.953944605716751	11.286436202897002	14	0.36507664372899806	-1.1835651395607898	0.6047075162247793
Si	39.95908275164861	-2.53867319474769	15.98812803688536	14	0.0048457621968830845	0.0396276749678463	0.10733464824756178
Si	39.46709021090907	11.80050565728511	16.759942634462437	14	0.008014906614497608	-0.03171818367147476	0.04047382572870702
Si	37.00659715057001	4.478058116878016	24.305527910306	14	0.03249182926230732	-0.08445772444048022	-0.037332963469614136
Si	29.88807828638192	7.191455997601953	25.137740962676936	14	-0.015273394043807648	-0.09792645966007595	0.03538149453162174
Si	36.19045685085832	10.711455943009023	18.2682343630306	14	-0.06663225125589359	-0.20178857306224574	0.02505233601845885
Si	24.515205390612923	-4.292803232525462	20.826823759184244	14	0.06123498696783873	-0.06024742541436986	-0.013084097863701561
Si	27.095698188674444	-2.494555379321267	16.60266569984528	14	0.03456234037662256	-0.02935713765598278	0.007761652740463021
Si	38.937224640504894	4.62090574966288	22.776035011308814	14	-0.06685362342395834	0.025199917463835347	-0.09731556503600874
Si	40.85512520795015	5.9062168855031265	13.188814017162954	14	-0.18787426529066836	0.0393551378039106	-0.046828569637985026
Si	28.904220883353542	4.6384075188280365	16.53302856331104	14	-0.060949337166770284	-0.051349858343465414	0.10326201742044722
Si	41.61438966858473	-3.4398800806897296	24.624818977441915	14	0.03781941659618615	-0.15597353314146303	-0.07857400702585335
Si	29.35925542332513	9.301181978901168	17.672023468455745	14	0.03603944038304764	0.007325593278165906	0.10043431578934836
Si	38.013084740533316	10.475149321215119	15.331364818614515	14	-0.00471077916757531	0.009989515500371332	-0.010098273255413594
Si	30.97254467165852	5.630618038957967	16.940704219492286	14	0.05501779719318867	0.06368987832751613	-0.09719806552287798
Si	34.99848029938284	6.022286418608529	12.916472608013853	14	-0.0019463267273520956	0.04678048996849825	-0.03892473477331781
Si	38.017201552116774	1.1001168169066153	24.085613237298094	14	-0.14483627622617765	-0.04651258079413882	0.039574967308783265
Si	31.33108867786856	8.052625867830322	17.170821710233678	14	0.03296876929919479	-0.024026207885187754	-0.06144324649877073
Si	38.039874298535274	-4.454910668527427	18.333081920760385	14	0.057242574626712804	0.24341193997959096	-0.1636832495544591
Si	35.36214126504015	7.1332771835664115	16.743259316904332	14	-0.06482296444210538	0.01215361484833997	0.027053684399662114
Si	38.40820043835277	9.341785363126919	20.912214452250986	14	0.06702228793296006	-0.06948669238232198	0.08997068846794172
Si	41.91902226743838	11.38544756760827	10.419977498383878	14	-0.05209033667566807	0.049625160894710085	0.02290032086549491
Si	30.734735372714077	-3.745229643151158	11.89502372267367	14	-0.03232522163756172	0.036069779425825385	-0.10931774178099199
Si	35.800001416489394	7.274789103328571	20.35613551377622	14	0.054358308678570694	-0.03187270710121566	0.09993449291511158
Si	31.35853627096259	2.9364455864836327	26.697663892424245	14	0.4512084148434267	0.17782895680484978	0.2201724903223685
Si	30.556584648310718	11.655715020385108	22.991534956348293	14	0.014268348974161765	0.013004136488244956	-0.09620741864302493
Si	27.297328652780852	-1.9869762461770686	11.200042088160018	14	-0.06209013659731999	0.1143236838393203	0.13521031501807523
Si	29.008185517190675	11.227471675318693	12.12360743510345	14	0.02036906767780913	-0.030223085927808657	0.03158834285280729
Si	30.527379021164744	0.09537089196310831	23.21283608637854	14	0.10835897660710879	0.07343976681204967	0.03958370906687176
Si	38.32433533908157	1.0647286063209873	26.381284876106207	14	0.16589645701404257	0.02160396956307625	0.03687145006464755
Si	30.95860644079046	-3.1613118917141922	17.40227655090099	14	0.08755256391434245	0.009460639136016873	-0.07543802986686875
Si	25.96169911213917	11.00760610940721	19.651587816879367	14	-0.026352543978857734	-0.04729959613263615	-0.042724571325964654
Si	40.938345367355	-2.1143404114597613	19.920218366442104	14	-0.0038692563962908436	0.037491600667867275	-0.042203922498634666
Si	41.228650152375636	9.897885581343468	13.484962546657927	14	0.04716461310332838	-0.03078230133494086	-0.061076092659053595
Si	30.584084622307596	4.620565273794347	23.197874791001666	14	0.3959443057605678	-0.001769177570793893	-0.5552407354177902
Si	27.558674983040845	8.96549896297925	22.35949061351357	14	0.03496626102241783	0.009991829495159464	-0.031119116131880262
Si	41.932471064245426	6.647277345493694	16.589120325748603	14	-0.008881626217919525	-0.038441881194194	0.07585917691830898
Si	36.15284899951437	9.582768617403504	20.338299816355384	14	-0.36555409798694954	0.07392776260181376	0.05695255394660009
Si	39.460524592117316	7.94436599995939	19.26440618893865	14	-0.05606860793753319	-0.06317051505284621	0.012563191925839557
Si	35.4779963638245	2.445117628449019	21.33734440740418	14	-0.005655403262197715	-0.0550460793517103	0.0005453314384034076
Si	26.95552852954784	7.744452647324571	11.095547097681516	14	0.033501245210997455	0.013441995724266171	-0.0638734552473747
Si	26.880078749700335	8.630744071179732	13.262590881925655	14	-0.06459490740020825	0.036184450723103986	-0.037870838702589116
Si	38.719467405933166	11.584771635086012	20.610556106537352	14	0.026248928434455768	-0.05646944325694427	0.13331541039712613
Si	32.738268894901765	-0.49794268392279184	12.723062671848654	14	-0.11443629825234279	-0.09297373948187468	-0.07989684071306954
Si	36.4755431884324	0.36365114423802786	11.370302939071415	14	-0.1849455192204877	0.03451040404915558	0.056788003206110625
Si	40.63949758445998	8.545325550758351	17.163323056609887	14	0.0413536579692617	0.030585868888481547	-0.014019980200235461
Si	40.95123598016604	2.7769293682695877	9.411342291403669	14	0.016640964963594414	-0.09287295215332489	-0.0370336868103489
Si	36.228527945811855	4.137457843700944	12.283365914993182	14	0.013834860617184797	0.03153383542002015	0.1216837299287762
Si	33.34216505006682	-5.549281955152551	19.38059030526904	14	-0.4625891554325301	-0.6042254339772515	0.08079441358033324
Si	28.96248645325943	10.526764153362118	26.19067404443712	14	-0.06731565104998895	0.0012477574118678627	-0.035655574358749526
Si	31.126497055847842	0.49554298381092127	11.18454061472249	14	0.08574301999002225	-0.08964518653441098	-0.08347401954499156
Si	42.12747861794759	9.722172205825904	23.66785916802763	14	-0.0045140896105839825	-0.010844922240384598	0.0940345775369678
Si	38.795935339579856	7.00957477077366	13.94674603858125	14	0.028707676452113376	-0.04866022506805852	-0.08246897447534568
Si	40.33021290667185	8.073905609613622	7.899159643895589	14	0.03616233921735072	-0.011363514183458465	0.05997925912947842
Si	33.93082491011504	4.228959096465919	21.33046450319532	14	0.043147261040597004	0.06342196915315669	0.03788626533451
Si	42.05645338748779	-4.487884446872258	13.74616155562865	14	-0.05121590375628571	-0.07835906262108898	0.10094827974284597
Si	39.539739249357254	0.5474901073103848	14.069859166216924	14	0.1570102028065468	-0.04428163270784634	0.10545157071108532
Si	27.284906194289047	5.7557658372887675	17.968633604657093	14	0.08903146369449164	0.0331477182294771	-0.08507298994359165
Si	36.93307073199906	5.5404426777964115	17.3510578493318	14	-0.020180605657842274	-0.038318468138826896	0.061836625612753396
Si	32.93127942668273	12.017829112505094	12.212229375114825	14	-1.405039894727813	0.32125292487867013	3.8714071258911478
Si	35.478862285624764	6.213255732081507	24.25094373572862	14	0.002506827687144377	0.05178694624789059	0.008833289437900741
Si	31.036794759715164	-0.6452361458371522	25.416456472941743	14	0.5204374824726699	0.08877589582566892	0.10999728491710714
Si	30.542188084542705	-4.4047068469509805	15.40884763225394	14	0.060304761063009166	0.0022764566504591094	0.11054415901870261
Si	33.629264778594255	2.887744442057729	9.849037115628295	14	0.0658390652646279	-0.06990321144418596	0.05581561117403062
Si	30.950732936330642	5.022411917630184	19.16158575044817	14	-0.07535832560194415	-0.15349575894443637	0.05192758570890269
Si	39.84739684535056	-0.9900219805326774	10.372652989561033	14	0.013082298089977455	0.04566463025955399	0.026533549793396158
Si	26.881033064274153	2.9990391284876026	14.083437278377884	14	0.06276685151758296	-0.014888242466849465	0.08051107777405292
Si	32.57507619206885	8.758003474656721	19.10526645846385	14	-0.02704777085742578	-0.2050037402650909	-0.008295928425989791
Si	28.981284649770156	9.54217505459704	13.733251299979043	14	0.003987784351549671	-0.01739018505388556	0.05657845812251855
Si	30.29512864553538	2.9751485260778128	20.091613591280872	14	0.056257327068032055	0.19193841147022642	-0.035981333402812295
Si	26.282298064943152	5.5039642896701935	23.532202451062307	14	-0.7777501033656413	0.3139823532543553	0.7110219498813063
Si	27.104907406156965	0.6493382252916868	24.5278570155547	14	-0.10237730007978428	0.1245245441970078	0.14667641630380762
Si	31.85923386299471	3.2332832522317405	21.84445211242272	14	-0.08393373317623404	-0.00949046395773059	0.003029019177666452
Si	28.421977738157185	-1.2329875246015405	13.102762015197717	14	0.053048587628487257	-0.03612094442169633	0.04011335676282227
Si	38.86292724052011	0.9607541510645695	16.31170779044222	14	-0.07795617041742177	-0.027988538294067958	0.01461519108184974
Si	34.04686006825294	1.476794436922451	24.40849730698896	14	-0.038801064607418695	0.12708047999576702	0.0074376934701243635
Si	41.465169571587374	6.3536856588191455	10.952897530185558	14	-0.03535038415724795	-0.00642467797398602	0.018091839695753974
Si	28.2564900970181	2.4520777409153722	21.217778449033464	14	-0.07829761320393744	-0.982020821503958	-0.1525081973909675
Si	42.64189836962351	-1.077211630231714	21.14391810220684	14	-0.05172755371499518	0.08745074814366459	-0.03643924726033067
Si	32.532709863081514	1.2000988652238433	22.637559547008806	14	-0.02995569097451325	-0.11700508957770274	0.01153115025033212
Si	31.857714816812024	6.258340957307463	24.237974551563305	14	-0.06145893024122364	0.10397575625732032	0.17704451257167264
Si	37.24472400873798	2.5936747796446644	19.829756547218082	14	-0.025952737101574707	0.16913939215434534	0.10789694898107816
Si	29.30939371452043	0.8790514009391962	12.607716649963882	14	-0.023064357384920357	0.14332369496633451	0.07530638927447716
Si	33.88336617522864	1.3787079225271508	13.547623201693675	14	0.004168275945024066	0.02002325401224921	0.17614899658866504
Si	33.76060007107435	-3.1222652024450506	21.956561976653212	14	-0.011743780660308366	-0.07554215963233472	-0.10153783419275592
Si	28.771039164047938	10.612714667328081	15.811028204345453	14	-0.002309623909089019	-0.00045431431007016555	-0.08730856601946041
Si	38.25061249212494	9.040613177667872	23.305456980941962	14	-0.03980765234025667	0.010023968311661316	-0.08058923937578542
Si	30.61600914569219	1.2977614216866917	18.482742344722336	14	-0.075269108247335	-0.022688204676582693	-0.06665204876685873
Si	30.465070300320026	1.4729739048207415	14.604926815035505	14	-0.008201568860740357	0.009973574647386413	-0.04745077712546085
Si	34.54064829181834	-4.218278302993917	17.882576691982212	14	0.317622524166621	0.44113328153589443	-0.07361023109477548
Si	41.22832277173281	7.03978545649309	20.51153164660037	14	-0.03999534302862748	0.008749471404463912	0.054614904989521464
Si	42.223563199712046	5.011883356157093	19.675514431159865	14	-0.0530146490382613	0.3155862087530637	-0.2120336564314398
Si	23.568792148607084	8.004430526497575	10.286124648760493	14	0.012637753980123853	-0.0032349647138103137	-0.047865753524132755
Si	38.1230338925212	-1.2463430179253823	16.459561073255802	14	0.13720729252023425	0.16325438918705837	-0.11406785885996558
Si	29.66952879065457	9.906498966056063	21.724030053671026	14	-0.07383854524720462	0.03278390682667614	0.05975223052970935
Si	33.69805399926359	5.2268463969423475	9.329392368892968	14	-0.0009636502739915	-0.04998357297633873	0.052299881759260126
Si	35.52793991778991	-3.2290256669718667	14.095538903839726	14	0.12186422152225058	-0.051212304208837496	-0.0618888190507524
Si	40.42248677775388	4.8363582245091505	16.429088483022117	14	0.02637902636365526	0.05284212787127936	0.03106460869909312
Si	41.50318337492842	10.75040114427889	17.402211074772424	14	0.012921861118000215	-0.021941812802143707	0.01835049289096087
Si	27.903470639155653	-2.6886282612881773	21.614820781935915	14	0.06690324575663718	-0.013737929946615216	0.05868110805333565
Si	29.859938283228324	5.870383437243264	12.95195248517947	14	0.022702088645311494	-0.07217324033134472	-0.03494209263240844
Si	40.61401100141644	6.372948735842674	22.769477577033125	14	0.01679857371971949	-0.015157694304400985	-0.08419932835580533
Si	30.728078087342332	-2.906475525536676	25.86342926458389	14	0.145658515707561	0.008743043641163543	0.016488755528641645
Si	40.56735598600816	-2.7000063755293864	13.731807551344207	14	-0.010003142358568117	-0.012866068132553001	-0.13106569324199652
Si	37.66834801293421	4.636345020778272	10.416954138147435	14	-0.006006102027865913	0.001571716682206521	-0.030238512559729546
Si	41.55885117943353	-1.6812174579121153	17.620909528692255	14	-0.026808143841587976	-0.012497371629643768	-0.00408780034850343
Si	31.384856037742104	-4.346904520654681	19.3842307780172	14	-0.12039997704242625	0.09552376173839755	-0.07489295553899734
Si	36.54460577193849	-1.3040471300288357	14.794018600521909	14	-0.11324330538379407	0.0479081767619152	0.03251445498912462
Si	27.649020582136664	2.4145992049253384	11.869934907111158	14	-0.0102772221856959	-0.08805418656230334	0.11187933401145553
Si	39.81693407653616	2.56262763638283	23.533471051053233	14	-0.25566479949328863	0.4386650204285523	0.47606354708383014
Si	37.81719653290197	7.049547947261982	10.531998969840812	14	-0.0012683262544290472	0.01729865370448829	0.09475988634778156
Si	29.235890212594487	12.328562449637698	24.77814279079702	14	0.1091303082031532	-0.00952157433210438	0.1054076048101108
Si	31.41077803704059	-0.7484347089700867	14.621045400984746	14	0.0477328273790811	0.11292191721877558	0.022730113693301107
Si	36.6355766680621	8.138250638056679	24.901930322556904	14	-0.04150432474102238	-0.0453470987525157	-0.04354423970202787
Si	32.79261244470668	12.31232600665704	9.498939530003017	14	-0.3675276784306952	0.7169072099591252	-1.0151263736061846
Si	36.80951727739879	7.559253417681297	12.626621245183523	14	0.0026091576788862705	-0.015562900502856324	-0.004500462752387197
Si	28.07187196801583	4.158804698516022	10.30107121200844	14	-0.31938553108464657	0.4098519286583128	0.21817114194116524
Si	39.19798004870459	3.13116831902654	27.143872250265403	14	-0.05783392885034686	-0.06106298002192083	-0.04750631300037606
Si	34.12666237374675	-2.4760600099051513	12.338994433821156	14	-0.045903485943795744	0.11903729122274777	0.23175943355814782
Si	41.531167872276676	-0.5858149222621081	13.65227533488073	14	-0.04097210593975172	0.04136625638533043	0.09756547647312713
Si	28.831339404648954	-2.4183002430924185	18.138380467959262	14	0.006167310331439197	0.019825278902597807	0.011104089656655524
Si	35.378945713436096	9.877902266905735	9.250662235004398	14	0.12621607438713323	0.21911216648833942	0.10941312978836949
Si	37.95377482637683	-1.267896122545437	23.82372836588066	14	0.023852144055013732	-0.022253430766945654	0.020936510621965807
Si	29.305191783969835	-0.45456638565235596	19.383893575955096	14	0.02153069306145203	-0.03876686890666072	0.031796859494271294
Si	31.338926170457672	8.324251950274862	21.123252199128828	14	0.010990703912036994	0.10186307901575466	0.15195001042596332
Si	32.49526242825255	7.998560591571813	15.109068451430092	14	-0.0947226053206394	-0.0017820330973946335	0.0506584881228776
Si	36.046905349691386	9.41393023538516	16.338086485737442	14	-0.0341044265191042	-0.05908297181487479	0.02607152216736555
Si	26.963424950652662	-4.188064343468059	11.866278065330858	14	0.008008221740665221	-0.012510484266776523	-0.10772879869314049
Si	35.53516520857694	9.585958941767785	13.007623563491011	14	0.041231016245490644	-0.15095730666185417	-0.016105660835939582
Si	29.674121941073334	3.3974089898966917	25.00161118068274	14	0.6956521393879931	0.8111698445379901	-1.2083092000513629
Si	28.20885948729422	7.685720560002663	18.918558004057175	14	-0.10605372357706402	0.004883300334557247	-0.04186350815424707
Si	39.13787787339248	1.0973553611844287	20.15760043364767	14	-0.1910665496561642	-0.06769874574269101	-0.41240169380430364
Si	32.773087463168885	4.35048933869356	15.93516439648994	14	0.013452537256078778	0.04389570979929211	0.05339825795202739
Si	29.871396605727025	6.704149910764384	20.312333620670117	14	-0.1835604647845239	-0.13819202585785098	-0.46043791161116226
Si	34.130541834364166	-6.890128306337569	14.734558091269726	14	0.09299045166645566	0.08617727967859526	-0.09445469614627998
Si	37.11799168809594	-4.910521398430379	9.322108149590221	14	-0.013562837674313133	0.039096998829767735	0.01775322512509047
Si	40.21866613714701	1.6795412690208769	18.16085023837921	14	0.10353275481065881	-0.018111637206719114	-0.11773914014660501
Si	27.917053662026255	-4.106625134760156	19.638435299554075	14	0.002212693238519437	0.0796075913645529	0.03590959956438016
Si	32.225923099598106	2.977468017932193	14.092967328890374	14	-0.011755864855313061	-0.05926783428739345	-0.035116670683646496
Si	37.74802427688053	6.34207346741832	19.377665159225444	14	0.0008155546075509707	0.029630446151514524	-0.018313983195414767
Si	33.84336026067603	3.3002325936884307	17.78976427974274	14	0.06110154660172305	-0.06645947297837963	0.023850601391821637
Si	41.70832172262264	-0.0553666143137184	23.040152618710273	14	0.31513523687990974	-0.31092093814965505	-0.06558478294846526
Si	32.9421779282822	7.765791317623578	22.74921435214578	14	0.012333077999686306	-0.06124475716805531	-0.10075184729638666
Si	29.384593048176185	2.2189614434857488	16.583700539206717	14	-0.036667818523291824	0.006994949133994864	0.028846773249933386
Si	35.19182475941947	-2.0343482251931224	18.638025531224717	14	-0.05688673365040431	0.040632205816428145	0.050564385668160176
Si	33.25805441531351	4.979703475871101	19.259858871809882	14	0.090721965442489	0.08190230286278503	-0.027191752755354067
Si	35.19368919218033	0.5143690076762854	15.362758985357738	14	-0.0014128223734213696	0.018464135746111415	-0.0158056128450783
Si	29.93054119265889	-1.4346245363208068	21.48183385411279	14	-0.11527602124990316	0.05043171663364054	-0.02502431097046924
Si	36.87906438425626	11.447523848196584	13.49972413984268	14	-0.0333405511284882	0.05265803673035676	0.033125092502659784
Si	33.15386879954247	6.104580090794194	11.439254213158952	14	0.0025626206725915903	0.016174052237455522	0.047274142189966686
H	39.963567866455236	0.9626300421479281	22.27686628687866	1	-1.4227260140040479	-1.1668179879474732	0.722739248156817
H	26.649471824897926	-1.4083653349602145	25.280590232365018	1	-0.37230530633659437	0.15047445308273033	0.018411170976516365
H	33.51642976623991	11.86426958508716	10.928664815004023	1	1.2441902603466892	0.20966901086849957	-3.8092838220351983
H	44.21661726752306	4.617766169298236	22.210548790062614	1	-3.065257107380215	-3.333479185257107	1.5230690555545308
H	33.42293476536016	10.5445589282026	21.381589901281306	1	-1.5669310838741288	-0.5909914406733853	-0.7445671609932784
H	29.120699696515054	2.653510139732876	26.098609696966495	1	-1.0082586941855372	-1.5841060674127183	1.598163328640096
