222
config_type=amorph dft_energy=-23200.15669413991 dft_virial="-27.729594141550873 -1.4392383021420192 -12.48013662559667 -1.4392383021420192 -21.46729040554529 -7.1193782305395965 -12.480136625596668 -7.1193782305395965 -27.774064987965378" pbc="T T T" Lattice="16.395653474692015 0.037660929014154604 0.012821439481527601 0.037775698932787205 16.452054691848605 0.2069793504025632 0.013444476182676001 0.20607758675616422 16.32626686102728" Properties=species:S:1:pos:R:3:Z:I:1:dft_force:R:3
Si	31.76788227052368	-1.2479326749786481	25.882280815471475	14	-0.027988281183535944	-0.16297542425982234	-0.07240258292590192
Si	30.207257312660246	10.029584150987095	25.171015559159397	14	-0.08539412099807815	-0.054508204118735325	0.06502428198867298
Si	35.255463010393406	-2.647915817302297	22.39891213161556	14	-0.02969498089505024	-0.03983516316718225	-0.04602535633597076
Si	35.84750035651914	-1.4185512755881378	13.596193817256967	14	0.059468894723429026	-0.07712596050954595	-0.10124807062317524
Si	24.643198540789665	7.802657511791304	20.937594305204385	14	0.02424680872165646	-0.027002776514323184	-0.08037429497102104
Si	24.915675444185588	9.005990596389324	26.528884699625944	14	-0.04581118326280243	0.14474063110826813	-0.006645021699922711
Si	30.645662006134113	10.68981450362379	15.10816452747151	14	-0.17514343729795515	-0.08398001307199672	0.06619542046200041
Si	25.264007065946327	0.5395399457729174	16.466459956207267	14	-0.0060744934293818515	0.014372478739627763	0.0002473403317982452
Si	38.878004976723744	10.793410750892372	23.95016038712671	14	0.14133623055386005	0.03417281792062014	-0.01477717071701907
Si	28.903025073881505	7.289424470939244	14.016755067524	14	-0.03367119527265924	-0.022454748313513247	-0.015665744715662244
Si	40.18511466131963	-0.184405746977797	18.263145322284497	14	0.02443784184694346	0.002763423998095155	0.03357220771783354
Si	40.33050847338394	4.179066220490612	26.60308345202192	14	0.09432562665920854	-0.2742199523677333	0.0038312040375526528
Si	33.05482360127528	-2.1572547403047384	21.489857316242862	14	0.05093591038692158	0.0811739087255871	0.08139759488843996
Si	37.71326901576187	8.124046075367907	15.691195714125117	14	0.06323273580159379	0.17593353796283662	0.08144078945781846
Si	37.538800704167386	1.9354339998527135	13.83005556174382	14	-0.11579152786659286	0.08414764913887036	-0.04711241966532937
Si	28.969350609859287	8.538952447786887	26.516887963988307	14	0.048917335600073324	0.021236301502295076	-0.0031645164280382555
Si	24.44950954696476	5.933063735117581	15.062617265477028	14	-0.017299425036084334	0.01806227198457227	-0.029900155099598053
Si	39.17095519403345	3.1000092829285046	14.947926046217205	14	0.06341708405304841	-0.0016362514257422373	-0.02613220025292105
Si	28.162426265937203	-3.321305360895351	14.426600086531282	14	0.027692089850654883	0.07233881951396225	0.029593679345436403
Si	34.86112996567445	1.3629665644241031	16.449159210758534	14	0.009786912401143663	0.07465615673901171	-0.014550913448846039
Si	36.36444866359437	4.608612315816313	16.139472260171658	14	-0.003996526109638174	0.019784912549071484	0.014366308086859406
Si	34.25079337580788	1.6646802848065467	24.22867746738324	14	0.0752359409887051	-0.03228794061041958	-0.00987715819788086
Si	32.22278432001585	-3.2905847328179365	24.81407619350121	14	0.09925289289474032	0.13120710403460467	0.20387271103475774
Si	32.085809701268374	-1.0596739378753282	17.91559741511099	14	-0.029003867784994433	0.06243029383117558	-0.013195169613531956
Si	38.18074656919564	9.388838451393687	12.0419795791343	14	-0.01737244442717654	-0.0016732753423523697	0.031032726993123285
Si	35.25548268523661	-4.9923701323184035	22.733048354011714	14	-0.006267069217860943	0.01613240033126912	0.004499177199727124
Si	33.083094711375026	10.658465920134427	22.710896120145357	14	0.1531052080463059	0.08098416115296017	0.48751936394828194
Si	36.76480876861179	-2.0096458688108187	20.753070509167426	14	0.021043468603283967	0.04466498451108042	-0.0032725028514844746
Si	38.29874808082288	3.206441986757579	19.20412093116946	14	0.042719429115324364	0.013729445299058729	-0.07242572287378325
Si	32.13437541212289	9.15707699641781	24.278249874381192	14	0.06109846127533888	0.028526156416510923	0.05908271470434279
Si	35.59987441964771	2.848513960228888	14.766089505846512	14	0.008724274572326463	-0.03511435668885836	-0.06364462687388152
Si	33.351259544970894	-1.984486663076287	27.45368594783504	14	0.05470103701774642	-0.007308881093584944	0.00888676842855982
Si	33.104382891711104	1.4850620830059955	12.306950529851648	14	0.08904611899481649	0.053487989527700563	-0.28483733178728476
Si	40.86138820901089	1.9220747813238788	21.369707967566924	14	0.0005797842496933918	-0.015468798048138901	0.04803030426462224
Si	32.32912356833975	6.410262300659536	19.475002532696386	14	-0.3191597880375376	-0.24686621997720987	-0.39399309393310744
Si	27.02278556746948	1.105488449823196	24.277202188981104	14	0.005158151493281075	0.014997257332423746	0.03934048250358576
Si	35.44242648698645	-2.908705863840888	19.05179009730894	14	-0.01972654845830412	-0.04457036783529896	0.04409034247202732
Si	36.30292870806676	10.94347569864503	12.248708075286135	14	0.05004347973029818	0.001920615674150615	-0.006426220637178109
Si	25.39980283367242	-3.801530573148675	24.506581348360218	14	0.05025122504016614	-0.021213932886009788	-0.15693564075226246
Si	30.243859079282444	7.583063307760752	12.044271698366417	14	-0.010393950367230623	0.05111357376454381	0.008521928583630808
Si	31.808318991998476	-4.241933902777019	16.14250546516409	14	-0.09344116642907761	0.11856780739128873	0.06260847142986184
Si	36.62366144353689	3.6969473045798513	20.967659105175326	14	-0.05122721661969435	-0.06740204018874592	0.16702671491277965
Si	32.8323076830304	5.730293161588302	22.735820867331825	14	-0.18098550280639558	-0.1852627936169939	0.19720712049227385
Si	24.74604058573581	-5.486754673390457	16.435793433948632	14	0.3948071058774663	0.4050874133895464	-0.3634180236869705
Si	29.49827761729922	-3.901109873265117	22.00336908404017	14	0.06904343382512845	-0.043017677332461535	0.05067237209160641
Si	36.99270247732975	-3.2635449399880962	12.536088672401634	14	0.025400720789338915	0.005745649058934913	0.003983927693569448
Si	26.25292862812519	6.328439546525823	24.266987666222803	14	0.1599242935764026	-0.24379400623016498	-0.17656140188201677
Si	27.587146967502093	9.985291160246243	20.16050030270518	14	-0.001563232034650032	-0.11612165778969986	-0.010461313326618505
Si	27.03993711202399	4.688864361635025	22.801300385052254	14	0.06259947256124132	0.11876398272721604	0.08625698394351984
Si	31.028003233926224	0.5196683541468158	19.295226932150282	14	-0.030582012230501332	0.007198066454286562	0.05405748935611337
Si	34.41945924823035	-3.2515924727476437	25.772118089286842	14	0.033609488744975685	-0.02260130131676169	-0.013930762845626322
Si	24.278048207238452	0.5693866828984582	10.79760477163326	14	-0.02049505183849638	-0.05423155318628738	0.049675297448452976
Si	25.101089526877086	-1.582255808385146	15.479815757128128	14	-0.00043760212548920306	0.05504762201490239	0.05477431351937064
Si	38.34891565182746	-2.2225342304526947	25.060165853033233	14	-0.000104386875998012	0.009024065452655727	0.023364148265249626
Si	34.26854828222035	2.5283091663844663	18.380307373935455	14	-0.011233673364790987	-0.018276445057740603	0.03407254481313436
Si	29.70301731471818	3.6890626111697915	12.909122059792642	14	-0.09160514011995986	0.10382714636981577	0.027313108926465057
Si	30.51373890337674	-2.432682870179784	16.93649523925628	14	-0.014922438167607435	-0.02472014921109572	0.030673286469366585
Si	26.143472556725282	4.2611201540318575	14.94999682346339	14	0.05507461862076394	-0.010682685494683255	0.03601552910357026
Si	32.042467661281904	5.408948866408885	15.719274994503717	14	-0.03912630943041742	-0.0152985908759451	-0.014046976806097013
Si	39.86050270259972	-1.2141985167519946	11.967184023161433	14	0.00327275996201649	0.015394493104386623	-0.017831129616290957
Si	38.94885408706591	0.9121618010271136	22.427539028463062	14	0.011787746561282897	-0.012559592378391351	-0.02431494301264038
Si	25.042730662822674	-0.17873447342708035	20.261730650079667	14	-0.04987147278438027	-0.021841539694657932	-0.05530267566266108
Si	32.04187905555635	0.01071951040028484	21.470038190865274	14	-0.021431191285562298	0.05776065234872264	-0.013501645367693606
Si	36.5989219677905	10.433359480868978	24.61160238219011	14	-0.04655243292660112	-0.015538217891782901	-0.022991595104360166
Si	26.92277014166223	5.569226697349577	11.497281545303977	14	0.04947140879656524	0.019785426770135516	-0.002390356616141669
Si	26.251771091517266	-2.1838026620547244	25.98649845987094	14	-0.3558975406255374	0.04196660947758501	0.24374129857110194
Si	32.05527926334184	9.178412724291611	11.93824724753362	14	0.005853121261317102	-0.06805252983474337	0.003957702419303938
Si	37.902532809438355	-3.3218447795129245	16.570382477958816	14	0.06770568772705542	-0.01166433350591579	0.03189173328058476
Si	37.480838616117396	10.963655529481173	17.476422123612018	14	-0.14803498835497383	0.14561840646456667	-0.25060923510228145
Si	35.121920012213046	3.789419067592403	24.983702854099665	14	0.0015804584402950245	-0.015169521388873666	-0.00020311732029169827
Si	28.057162575707917	6.511809085095395	25.88527467077752	14	-0.11523539778584481	-0.05282490146563437	-0.006113831340780118
Si	34.16301570246741	10.010033915133166	18.93900733783895	14	-0.26073193385823645	-0.10913493619272947	-0.12336934657666529
Si	22.363694162298017	-5.253379881272662	21.406411387545628	14	0.22939144555829144	-0.11589000120035452	0.13231807864344067
Si	25.075256457763157	-3.2509727151870282	17.173965677898995	14	0.0356272922002279	-0.06388708210557148	0.04184988129605028
Si	36.99833440119408	3.869000529172248	23.404191686340102	14	0.08089417246675498	0.03279650524274486	-0.1004643977215941
Si	38.91965006148472	5.205633955551234	13.931941737224776	14	-0.1248143077665885	0.09111457322487561	-0.02636617083705452
Si	26.906036687525596	3.774643260353589	17.12099936045005	14	-0.059297659109107156	0.06221432098428314	-0.033798979207070604
Si	39.64164466561867	-4.197094935137527	25.29930865334745	14	-0.022965112719562645	0.095531475054358	0.07720746454819465
Si	27.390534619892588	8.436874442584786	18.286246867334974	14	-0.02802607643174212	-0.001149541188638206	0.17793360079137982
Si	36.02483791607944	9.689896343669657	16.032698525727216	14	-0.08889802332837594	0.016080978224866163	0.007316594409545388
Si	28.96760774666634	4.72627607596872	17.574037218549574	14	0.07656108867070942	-0.07115071174552182	0.008803464616187022
Si	33.083120944499285	5.2731399821206635	13.565064936183274	14	0.016053981619004603	0.017641124933132014	-0.01452160284819635
Si	36.121598794908316	0.3987352908836452	24.76387747066158	14	-0.08375169891956755	-0.05474268892393282	-0.02847807674702415
Si	29.275878108543235	7.096578216231153	17.708375408309035	14	0.07018706147153031	0.08172386815356676	-0.2814226468115961
Si	36.02208179846198	-5.181966758758926	19.038517776004216	14	0.04871293272712155	0.09526253743787051	0.03744454944050856
Si	33.393609644946324	6.367597403193	17.395242081022644	14	0.046818542327236444	-0.00042988880952875877	0.0094680953414453
Si	36.26455784512735	8.205922935320405	21.601817011439227	14	1.856857661532115	0.6045712476428114	-0.08589702919869911
Si	39.95586994670234	10.58645271490327	11.042689374592113	14	0.0052229433473488076	-0.031068979578137368	0.01601464370760634
Si	28.699728198296782	-4.367951273435613	12.410125407561823	14	-0.21327498608000725	-0.15926711905657276	0.45187150290549283
Si	34.03337324195029	6.962969635240146	21.07884328363579	14	-2.1384343175523877	-1.3455702286727882	-1.9498640540515555
Si	29.514781531598587	2.271121255720673	27.48787262745516	14	0.030944023859578174	0.06100538726274952	0.06464067307490688
Si	28.678581021003595	10.867386521732149	23.623631770765634	14	0.1000723041602715	0.026060466414488913	-0.04300713580064893
Si	25.218430291687056	-2.755642142071388	11.758009288172456	14	-0.011867965047271518	-0.0027940201514049176	0.016257870270892347
Si	27.03761875966761	10.48785059866547	12.714952671879743	14	-0.02631243473586343	0.0027857926143804437	-0.019392047656152857
Si	28.639052621456262	-0.5612216229728817	23.88689101012509	14	0.042000805178342974	0.11625149860836732	-0.0801981742565909
Si	36.41551143996428	0.35528339968934275	27.062413980803047	14	0.09586649007757328	0.08744200638557609	0.029090514034283425
Si	28.914621754374195	-3.8450185348888333	17.995752726284	14	0.06748405844845864	0.077005118559499	-0.06928151817777417
Si	23.992933496230815	10.098888786138524	20.291770856496615	14	0.2531646566799766	-0.020833409298627866	0.14492755046504288
Si	38.89704202708436	-3.001510459617475	20.500757040904983	14	-0.10096782014327908	0.04693861294568736	-0.030560414945812082
Si	39.266506070005896	9.091676178070157	14.149168401790964	14	0.020708196469536658	-0.006727297070167448	-0.026856223511074744
Si	28.87036155503867	3.920983104461485	24.03030422130786	14	-0.04126546905678062	0.017084480631319954	-0.07095325085693445
Si	25.689227974909844	8.19454267810285	22.977695191709497	14	-0.07092882535639304	-0.011698786317205775	0.03410596918229628
Si	40.02791594333882	5.866407005946033	17.25942663845336	14	0.13451457391844318	-0.16348116067629545	0.022542937225994326
Si	33.10627659536854	9.234827058010334	20.884900156419626	14	1.6082356337317758	-0.7404587918022136	0.18987818477719173
Si	37.62905740775033	7.025504484762517	19.95892661547021	14	-0.21229719472675496	-0.22563017558544682	0.07537272379173698
Si	33.572557262508006	1.758555519966949	21.976747381628204	14	0.009814937449133277	-0.01161085451525671	-0.02316720159772628
Si	25.020391517945974	6.973177599717382	11.706389057912043	14	0.08375349869329166	0.005183605435950541	-0.010622778740723803
Si	24.939713183858053	7.848977011381156	13.874402658303454	14	-0.06775376739654218	0.026064323072469135	-0.04415102055758282
Si	36.62640772373274	10.494564638905477	21.310280103698965	14	-0.47947566095419875	0.28656665722561636	-0.11945535294780385
Si	30.762483027169708	-1.216097139120231	13.302653354651431	14	-0.045969049129459524	-0.37222045986102953	-0.06234673290827076
Si	34.532763391044995	-0.3645043428663391	11.954108450288647	14	-0.10198957739750594	-0.11514540909963963	0.008351464300904991
Si	38.730138692698034	7.745533244147327	17.851814852616055	14	-0.12579389889356493	-0.22618836255045102	-0.20520711469591463
Si	39.041773452761134	2.071770825766645	9.983031832419448	14	0.04141510738641324	0.003677966160471827	-0.03799348042636018
Si	34.28781323284796	3.386760285061789	12.88005739768407	14	-0.03404734798099691	0.08874915633033938	0.18472311861029486
Si	31.164854884903736	-6.4068651110680115	19.517488717003907	14	-6.6752946652937295	-1.6748169771023305	-12.545847249349839
Si	27.077048784998972	9.822175233174795	26.89965384047936	14	-0.012940373076305283	-0.0755935817387377	0.08087128962940567
Si	29.199174092780538	-0.19645003015315526	11.761334336672267	14	0.06351298628148995	0.003587977474266644	0.17914639117089368
Si	40.32122194739629	8.956972364141341	24.402871970743266	14	-0.07879486497285408	0.3641340765186317	-0.2074740582566892
Si	36.834239650673716	6.274323890320286	14.618160918150688	14	0.016673103780096264	-0.14712507418217347	-0.02591725584815667
Si	38.57195295341699	7.185526542741685	8.530061058233393	14	-0.2852654208230894	-0.025736507144150256	-0.5873414995609031
Si	32.103856451188214	3.610907575721523	21.987989914943398	14	0.06656154585958951	-0.07976571434174198	-0.05141824974498136
Si	40.049410709528445	-5.211454429996174	14.387304505961746	14	-0.0655001935834324	-0.11610931648416313	0.1027753071833432
Si	37.564850196556456	-0.17877382311346868	14.689072332162974	14	0.052167212724740494	0.02101158689731413	0.08395790156624343
Si	25.33720404090967	4.872224062782999	18.575493295413384	14	-0.02309675331195422	-0.028001908041732727	-0.02428846062784286
Si	34.96594113451028	4.759164215938025	17.975827028839113	14	-0.05243743589388806	0.04324033505318636	0.011495411886382062
Si	30.935192079868575	11.280766454233312	12.647890968852447	14	0.4258256917913288	-0.03884888716637344	-0.176807970882219
Si	33.60535522611267	5.5250878262137455	24.910564903665907	14	0.04014806668464427	0.04963081732641442	0.05860628888851934
Si	29.4013101526168	-1.2147444936506326	26.068247433342673	14	0.06068065666081481	0.49067308173397567	-0.06512352665403068
Si	28.533260989601263	-5.11831372231502	16.006849060910625	14	-0.020673229437182646	0.04552116258268973	-0.004105798085744468
Si	31.71004478981391	2.197466840653069	10.431210004250016	14	0.046412821907717075	0.013640999276045633	-0.11605892281988824
Si	29.083912303068082	4.260441371941658	19.83462423531004	14	-0.01764189626472806	0.07580132704860568	0.05281204593903363
Si	37.86766078944698	-1.7276938888466429	10.935436885629949	14	-0.026015986292450353	-0.03622353152397024	0.019183531014688848
Si	24.927800066303988	2.2081748740614904	14.616308203749904	14	0.020319959566194295	-0.031157168490618448	0.03547559698633916
Si	30.493731227418547	7.830310503900696	19.5684990271253	14	0.19873152883658965	-0.15536006741207573	0.6582227594688733
Si	27.038671363778494	8.788757373542072	14.32650104264046	14	0.01815354622343753	-0.06103058409488696	0.037344790554086814
Si	28.378028116369606	2.2727559072760544	20.841448265225324	14	-0.05644527486693488	-0.05485556044748733	-0.019263492390145454
Si	24.145774236444115	5.444898084065148	24.72866933876563	14	0.41911510690574233	0.34956696510626883	0.6808505431704326
Si	25.25884569874839	-0.16680659974062087	25.1858307160846	14	-0.002600415920797767	0.07781887339332585	-0.044650843431819597
Si	30.03116746607251	2.5781553816168707	22.529503903316797	14	0.011521637160647571	0.15367110832727046	0.011854595299606748
Si	26.42021726152407	-1.9934469145809603	13.618951052551546	14	0.03638833937499173	-0.02196495275002504	-0.08066174454581358
Si	36.82129196428169	0.17490935599608243	16.90574673848434	14	-0.01630620705091113	-0.0204397730741132	0.021448674801739304
Si	32.1893797154127	0.8777521398507939	25.04733457613011	14	-0.10229013960943123	0.08412630896471313	-0.01611388837296406
Si	39.53945189049794	5.632586250715837	11.735081537570194	14	-0.010962164642983349	-0.0407718168353122	-0.026639736443118275
Si	26.506558671311375	2.433610866950442	22.359934627677667	14	0.007341791241682839	0.03999868546554366	-0.005765960790964082
Si	40.59824537914034	-1.8739976624086827	21.693237809911157	14	0.006639365268218385	0.010604266782418737	0.045819667910358915
Si	30.658058796916702	0.5178631872837516	23.288247835396916	14	0.024454296920992408	-0.1219423831239831	-0.02916507608856772
Si	30.06249965385921	5.635594862154278	24.977864344381796	14	0.03214318738089524	-0.0020735964406994253	0.038457822047178916
Si	35.32145899274769	1.8418489686294253	20.464212659242097	14	-0.03377069704854897	0.06152706453220756	-0.019192015662245335
Si	27.335479489924527	0.12025756031350447	13.145092291641799	14	-0.036923386392114545	0.16254347856603746	0.11468312436307701
Si	31.907688427120846	0.6513340443724007	14.128839370060597	14	-0.24907582788934518	0.11975385827547305	-0.16163587838802518
Si	31.78808833448408	-3.773177484535624	22.572872176427524	14	-0.11525390974414988	-0.049538771755953115	-0.09452360176885995
Si	26.81773435169994	9.788596834123426	16.433514431278645	14	0.04384223080863303	-0.07935845125903053	-0.08042828818274415
Si	36.447130552547556	8.14962173195005	24.021962087793533	14	-0.3093039700138139	0.2927979880795273	0.4696514675259129
Si	28.593936566441787	0.6033471018218445	19.179904478337978	14	0.028424340645833057	-0.009598193270644794	-0.012758338819638797
Si	28.453513931424535	0.7357030511294911	15.175801719662234	14	-0.005981933637856521	-0.014499234231911063	-0.034124738251133366
Si	32.46694748448511	-4.8971520891099996	18.277353838211212	14	0.10178054653497791	0.2418859889720831	-0.10695849553922412
Si	39.43659344984914	6.056770951271129	21.125054571588077	14	0.06674949365849234	-0.14516280660183645	0.233880081226206
Si	40.29708583350786	3.9248524902896698	20.187177750506194	14	0.005936682184221914	0.08476317175251381	-0.16212901638842958
Si	21.632029372734124	7.165700859083036	10.876397599915073	14	-0.2066291930484885	0.12983079135672942	0.1714808977694042
Si	36.077748488139335	-2.0297830708200415	17.05210133872463	14	0.03327010284271614	0.13327581537519584	-0.0029925094821203493
Si	27.775226991446402	9.151313906932188	22.320301295633296	14	-0.10468332444142509	-0.004124824265113564	0.08803078950389
Si	31.820315727636114	4.546759527524672	9.958662899553213	14	-0.003415199196752693	0.07303070395561409	-0.025807212540454327
Si	33.50784506367215	-3.9098684576270504	14.604314747252797	14	0.16878046585165266	-0.02922395440039911	-0.08847199117682741
Si	38.467974686276385	4.095620291793382	17.00801821297785	14	-0.04331541132853469	0.0554489715553775	0.05646610082002808
Si	39.56670482746239	9.95435410889369	18.07841330082373	14	0.439337621580303	0.39322536188451124	-0.4498804389455702
Si	25.908899238742908	-3.424642556061878	22.22466188286648	14	0.03234244804320672	-0.012398384074818067	0.05528853458340026
Si	27.934778492759172	5.128003582588144	13.561941554826202	14	-0.020649061047173255	-8.536069662891622e-05	-0.013120350448715647
Si	38.75758181981335	5.475208819576018	23.3260481278837	14	-0.45239755105399515	0.3540103493205487	-0.20712053127516883
Si	28.55361461488562	-3.3224481413708786	26.52558260510986	14	0.13871318890624498	-0.45988563818839445	0.9397955588311661
Si	38.55948238197242	-3.4337520084607744	14.330532745924996	14	-0.012108877615769393	0.039663670442328366	-0.06789903484713054
Si	35.73712776534044	3.871331998090756	11.007036919154029	14	-0.010462341768746565	-0.015285478238812345	-0.09496248944700923
Si	39.489310552617624	-2.5033270342386817	18.17507908457717	14	-0.06830655504037401	0.02440621725150564	-0.0226344685753916
Si	29.373276780205657	-5.054945971097429	19.957885488351188	14	-0.49009843969492256	0.3410645769230711	-0.1425179105590001
Si	34.525501734336075	-2.0144071808638055	15.362361861969791	14	-0.1314451883872504	0.003276873730528727	-0.02463324585127472
Si	25.676750845184213	1.633848165951032	12.394136318326035	14	0.019875415456340695	-0.004408931402989926	-0.011835312009705638
Si	37.925458920470355	1.8825135903712218	24.236078487564775	14	0.02098047652294034	-0.011360428857074287	0.05336303380914137
Si	35.898841859834306	6.267972195109105	11.173394276641718	14	0.009958919347061569	0.007284969814107567	0.08032235864355405
Si	27.351289866001302	11.567317428794123	25.39778616224502	14	-0.36719472029173605	-0.22959224888379506	-0.1756933967259348
Si	29.396035655070502	-1.468515539879707	15.171425706621799	14	-0.003576664610857992	0.08166421851013933	0.044379591820543976
Si	34.80463365344243	7.372717919601722	25.65162770999554	14	-0.10122595911742195	0.05150695287852647	-0.0948683869922918
Si	30.718978669726887	11.744458239922476	10.090861450115307	14	0.042727913762880855	-0.20170706902359703	-0.019190987220117278
Si	34.88550873596229	6.812840744247108	13.270366936969815	14	-0.00744823500193697	-0.023852915386609774	-0.04525325340833029
Si	26.154046145371876	3.4358326231285568	10.908447919478359	14	-0.0695165172040357	-0.014983887584758975	-0.007378815158292972
Si	37.32009842636163	2.3914345614232273	27.8409163741609	14	-0.009430557203771138	-0.09375509838866769	0.04840182898338364
Si	32.128510669280764	-3.1714289637233053	12.840322412283196	14	-0.01939641853519711	-0.02090822846344418	0.058466420759103285
Si	39.53001944275661	-1.3225855883383562	14.262115118287571	14	0.0006409765563129161	-0.04991081069577854	0.02448463596377016
Si	26.77574167804254	-3.1150588984017706	18.768039508762765	14	-0.03334800733391663	0.010895058794127483	0.03505702104021905
Si	33.46628851570555	9.064213376111642	9.92629286378802	14	0.060410433491667255	0.011735296012751879	0.030645775642440993
Si	36.02847448292982	-1.9639821973274396	24.46809407593191	14	0.03216838421303269	0.03456259748715459	0.031086463094314377
Si	27.237233160434492	-1.1208692584902304	20.0517312112468	14	-0.010379037956373766	0.027578189884972328	0.011421106942629782
Si	29.442453528876324	7.571448591995133	21.741585457920273	14	0.010023196980065272	-0.00928194731626658	0.010795299907705738
Si	30.536745353351776	7.22031166550896	15.723165694745362	14	-0.020325615997898623	0.016805772814615903	0.01582155369806322
Si	34.0465881782957	8.653012432494231	17.041675311401992	14	0.02093882461675394	0.0061459701572819676	-0.0332711312848442
Si	24.89835174475313	-4.941415567586061	12.448138844183207	14	0.051475328283088644	0.03125564182438012	-0.010679857278831091
Si	33.57877779209789	8.809430715028336	13.689677195123753	14	0.02110568935203155	0.006268097659989002	0.027957170809162154
Si	27.86115031081583	2.7146266522926292	25.808895289927523	14	-0.09635525719893344	-0.030683570890647174	-0.06346207839615102
Si	26.280540630977928	6.7932118090204	19.57090591627605	14	-0.019128509360837678	0.002999708577016764	-0.005710939137112913
Si	37.184804367137	0.29819028388042285	20.745361249775844	14	0.033013506531765366	0.007994851993000452	-0.008785466878945986
Si	30.83310423724488	3.554426019621889	16.583174405175555	14	0.05575081931996288	0.12189121812811214	0.1372741412585581
Si	27.957534088483488	5.899103316194195	21.0171724876437	14	-0.014186073603917028	-0.08453460048955265	0.010513249654085496
Si	32.103444919051405	-7.5388342602602805	15.380910320391084	14	0.026938755991851502	-0.03233679161150239	-0.18994040552593935
Si	35.15995148410736	-5.652861176627419	9.932029720149385	14	-0.04248494431012686	-0.023234821667646177	-0.00312517851663999
Si	38.1841421192169	0.9101270943267843	18.712618754625346	14	-0.06922855340817911	-0.014407445771981775	-0.0070240026241125365
Si	25.88717985142682	-4.859481322674248	20.251937496879773	14	0.0690665737730098	0.16357937689952512	0.06641653551953317
Si	30.25344892576933	2.2265938064317563	14.722116231307565	14	-0.11041200420524701	0.06414650663237442	-0.02000345650128407
Si	35.76306248781087	5.612727775651865	19.97851948015106	14	-0.030882574442426636	-0.022217692402995592	-0.1724728302019173
Si	31.90572422194196	2.5601643770860774	18.46126607453889	14	0.09786886690090461	-0.025773016839696357	-0.054865587758235905
Si	39.85970095273955	-0.8784555154949851	23.709945307858412	14	-0.04827018839099204	-0.04706922509595088	0.01438841959261268
Si	31.087637683647724	7.118689460840857	23.401783157619082	14	-0.026593199436823596	0.036018871540486455	0.023297042416393757
Si	27.355005132224466	1.3928526512360322	17.196747506747563	14	0.059193529343641166	0.03182591298438897	0.013953645682975638
Si	33.122408327217485	-2.772285419843381	19.2185704639253	14	-0.02233390636346629	-0.007377015384568869	-0.02245937630308951
Si	31.41169054890687	4.294139459622456	19.90490441476985	14	0.04873915800138706	0.05157740116429853	0.04088700235365483
Si	33.182424796811006	-0.2000128163415644	15.956171583553266	14	0.2755412433917574	-0.22148941046734835	0.43730644837738597
Si	27.93187481381777	-2.117408264125766	22.14778899136637	14	-0.07218815274220157	-0.024381534640432218	-0.08581501093898639
Si	34.93704534813912	10.664147031106742	14.16309327206163	14	-0.03170712791859812	-0.0029331169492249286	-0.02730359583678051
Si	31.256660982388222	5.397588284034524	12.078578066615968	14	0.024356080697762753	0.014407702882513791	0.01926323527961344
H	23.639030614705597	6.816810143861529	25.514520286056502	1	0.6703041262577172	-0.799273340221665	0.14560760782222207
H	35.07472498210106	7.3006915978084335	22.058842304426104	1	0.9414567499785138	0.23338000124143718	1.9129522376333818
H	28.451264441019337	-2.7840116263871004	25.107488769625984	1	0.3605941787138519	0.15606300760660421	-1.30327143238784
H	31.731806805956918	10.244453113510517	20.726779999949226	1	5.464599222394737	2.3633638669380947	11.602316645820094
H	38.52634338775239	9.277923162456874	18.996248014971826	1	-0.7509316751027728	-0.592323787450286	0.7418351044800889
H	30.964789602313655	1.2810601922068152	12.777195677894733	1	0.03414402154103447	-0.019443212652023804	0.03873318742696678
