221
config_type=amorph dft_energy=-23186.66355131747 dft_virial="-27.211239295665788 -1.6236496055897711 1.9499910895916854 -1.623649605589771 -15.748998283499787 -1.3295393792670582 1.9499910895916854 -1.3295393792670582 -7.965149553972648" pbc="T T T" Lattice="16.36899940293572 -0.008561003809743001 -0.032345207510616 -0.008970229613268 16.5438206662016 0.18564119351108102 -0.032558004928449 0.18544476512538902 16.20580015248995" Properties=species:S:1:pos:R:3:Z:I:1:dft_force:R:3
Si	33.71644624377721	-0.5169438564320646	25.272924614613384	14	1.5141300936879722	-0.43669606797438293	-0.2568559925881132
Si	32.13566753017906	10.71862885289321	24.514938575389024	14	-0.005651289493685478	-0.14197129356793664	-0.2364763833784915
Si	37.11980537685716	-1.8807199478401952	21.671948704108004	14	0.31970126281796074	-0.03538303719481384	0.4153484376117254
Si	37.84895736596515	-0.5882571818575453	13.058122027645997	14	0.03768674756166651	-0.07629343660688201	0.005183862546482557
Si	26.49307390730674	8.652290628186929	20.3244516151641	14	0.3161351397389153	-0.21038583503175684	0.22407028598771297
Si	26.7203661031006	9.832710642970863	25.897745303564285	14	0.20483250465076902	0.04833446602399575	-0.09049365129005985
Si	32.555295853629666	11.452452563774239	14.519164544939164	14	0.5046899766078269	0.48376940683884606	-0.09412996554434529
Si	27.302270463584218	1.3296466593941454	15.9476163192396	14	0.17580703958108534	0.030241083665049687	-0.025153380457540675
Si	40.73490939900344	11.612628453983564	23.234466125449657	14	0.24822144959145995	0.2521069039512677	-0.07654231960187234
Si	30.778200063758074	8.03836025631944	13.469798275282505	14	0.18933053934400024	0.21203982708420815	0.10913802151911364
Si	42.390150839811	0.6207939070442109	17.855618532949197	14	-0.3123712986607506	0.3359254516091591	-0.23903669005629496
Si	42.28433159463229	4.931332985894447	25.578521349460143	14	0.0030531875676758436	0.21191435714458493	0.017640610712067985
Si	34.92904941265357	-1.4504206523368717	20.89241283407002	14	0.05983424878942206	0.03717818292934122	-0.29815488601405576
Si	39.65830178605773	8.749321340009136	14.96537126587711	14	-0.16087997342390165	0.2621756094954996	-0.07381694796251538
Si	39.477934694702476	2.7388861006706895	13.246226760494297	14	0.0119301857960191	-0.21189404541255571	0.10419867108857717
Si	30.894749209505207	9.268429182490241	25.900054973999378	14	-0.179482434636237	-0.016658191369239402	-0.0882372492610979
Si	26.38386954628127	6.677221215989225	14.391687433334697	14	-0.004520260263352337	0.08496268952535731	-0.036226616850354415
Si	41.178639485378454	3.9285644400335724	14.258824910155843	14	0.12892859049988944	-0.4767343484618568	0.03402883602269184
Si	30.161799604940505	-2.5392215573244137	13.735060078030624	14	-0.09515635078814838	-0.02716938413906878	0.39790014557760445
Si	36.90744501218232	2.0444331858951927	15.932707404765575	14	-0.0989155638767369	0.0039397046820629006	-0.2312536971416747
Si	38.3504013858629	5.327977551315874	15.528932488943529	14	-0.016805258593551878	0.13249677046319097	-0.15022222765082385
Si	36.126542327960564	2.434269870849178	23.53449084175562	14	-0.5702917288514051	-0.03344930888353046	0.22140173577593128
Si	34.18015800768675	-2.5717942943817893	24.140251429681538	14	0.3975306777430992	0.15893030425963334	0.45223171476084567
Si	34.06312761239467	-0.32512990090061256	17.309046728341922	14	-0.24818391145378574	-0.08814237547478443	-0.012201951628358753
Si	40.14062350260836	10.25984580456133	11.428910621749052	14	-0.09307915480000076	0.08591374138328006	-0.04647324288274055
Si	37.004722896389865	-4.2464952405985725	21.88962573042224	14	0.3290737130414965	-0.00954985649062601	0.010398835467338906
Si	34.68758981954168	11.233804853854044	21.64861628569422	14	0.08728645451370713	-0.17678457382380566	0.25191432816278864
Si	38.77667553636275	-1.2432885565278717	20.137931404627047	14	-0.07921009848205798	-0.0409039716487678	-0.022133103037962724
Si	40.30049165501344	3.945843590361612	18.546697790200437	14	0.004019408946987491	-0.02295868495626227	0.22155497365301216
Si	33.99180610245312	9.791945205326916	23.455359666579596	14	-0.10843765242990529	0.3456743116515646	0.20747894335679742
Si	37.50771542672815	3.5590269918376407	14.212814834613921	14	0.2259073407389588	-0.08836811852189344	-0.0672194917110154
Si	35.42138079235842	-1.265584815207128	26.760083922687517	14	-0.2135688634181002	-0.2230960941819089	-0.4308522026922183
Si	35.03054723334705	2.218573497424007	11.680394610144093	14	0.29437047609332984	0.10989546914642928	0.13183728194857297
Si	42.59213487501166	3.5580710403606064	21.503328030217133	14	0.030793614198349514	-0.2646940071565847	0.01779976213138515
Si	34.187928387244085	7.160883556272208	18.773543111416842	14	-0.039511718117907615	-0.06155431824860112	0.08529770454857259
Si	28.846272872671186	1.7234168227716133	23.436751350841707	14	0.0019573824802287323	0.026297008103942535	0.14649669604192925
Si	37.48319952729058	-2.1698199720952527	18.435034800547392	14	-0.02079767093467781	-0.13456291069846196	-0.1702884191219195
Si	38.31325514122533	11.896510030792072	11.61322101294707	14	-0.1286244287405159	-0.5467134075129872	0.09160796833581202
Si	27.46106971819049	-2.906190704377422	23.942817985416077	14	-0.11325358980507468	-0.3865782833003324	-0.013602175585711397
Si	32.20761106334197	8.359942987955097	11.57448697219182	14	-0.20034489742498257	-0.03975545890225766	-0.3982801549439223
Si	33.91736629188871	-3.6573835952632674	15.646265711330217	14	-0.3904483110282193	-0.03855655249147261	-0.007925432149356454
Si	38.648645151471925	4.475308119478328	20.33484431367042	14	-0.3590522868533591	0.040799327662237775	-0.007878638032529759
Si	34.6452185798447	6.271819218372362	22.130320889733145	14	-0.16617593616234264	0.030886173989874848	0.148245561880694
Si	26.776430038183523	-4.720938541979746	15.917464562035878	14	-0.079661584576276	-0.1658797448294616	-0.20325127487887792
Si	31.379128513395965	-3.2870031419120744	21.437616187590304	14	0.08234684697263865	0.04492492325894739	-0.06058886820088552
Si	38.970276990204	-2.4251523199466414	12.039667038284401	14	0.15603421122701858	-0.2520994477458393	-0.32010081258471174
Si	28.074743096253364	7.013488606358573	23.656569446559985	14	1.0176206028772603	0.5510061249555064	0.698358999069045
Si	29.492556636565364	10.84478662050711	19.604952444309657	14	0.09732070724664904	-0.15229171032301103	0.1352861626250196
Si	28.833216932635526	5.402037600334615	22.160824581127898	14	0.3632575867149933	-0.982902967739301	-0.9860872816783042
Si	33.046676192567126	1.3013724301769964	18.680637395694166	14	-0.14755496299170223	-0.21236481479667485	-0.3463219730817099
Si	36.44219946996118	-2.558528830734723	25.042877510710202	14	-0.5402185383637611	0.11011606998289795	0.14434185267311314
Si	26.240632330531454	1.458218859248844	10.388290325965329	14	-0.12223523201994797	-0.14926757624545287	-0.27198951850250486
Si	27.190285003997996	-0.7642897535018593	14.891149163440174	14	-0.08194626876375957	0.011556089971937555	-0.0037070196505895
Si	40.2749461434542	-1.4881561821315192	24.342363143332893	14	-0.1543593932214741	0.15524256789894497	0.0844037312287571
Si	36.28223146646004	3.303656995212328	17.7893877920035	14	-0.03518557630622646	0.20153351941448705	-0.12765563625588414
Si	31.595283219721086	4.376090504962084	12.329639531952576	14	-0.03280601833242942	0.003471506403263936	-0.09159279881442314
Si	32.561447335908255	-1.813913016963132	16.319874300577364	14	0.061708841678342036	0.27035198152410256	0.040979305034648146
Si	28.150101209520887	5.079945791799371	14.426155704314	14	-0.20577275786634716	-0.17630506268159804	-0.0016390796415944005
Si	33.95359587072638	6.237954964679061	15.095562363010554	14	0.14197129356793664	-0.018877569481591226	0.027023602467416384
Si	41.84602620550881	-0.48530906491636805	11.386118697926051	14	-0.02803224708451047	0.11707708052666688	0.0042898892266670695
Si	40.84291390997297	1.8056908521187076	21.722939876130432	14	0.07721466364309107	-0.05836023410938117	0.24984381704847336
Si	27.371460725541013	0.503427946593241	19.87328507748743	14	-0.1778307565785739	0.07070308230928404	0.19346461958826633
Si	33.9597980970046	0.6872963739234517	20.83568595318538	14	-0.21221929023555447	0.19512786761987008	0.2101384946999586
Si	38.373200173828884	11.31812337531555	23.78494194422256	14	0.02612114450004441	-0.14834197833019955	-0.11854132500649123
Si	28.89230750176132	6.319909797899406	10.929638772416412	14	-0.0046940669829943485	0.18235615905256652	-0.16010272828562086
Si	28.088511089187158	-1.1711289521407013	25.37856216353533	14	0.018131948938748286	0.09817637109719433	-0.12786029623936793
Si	34.04263685796056	9.937626317575388	11.310858798851374	14	0.06561949287028726	-0.2998402455514128	-0.056446560419594956
Si	40.00149982463557	-2.6006921837235106	15.985340390711748	14	-0.3038419138716913	0.10212533175840974	0.08116516696749858
Si	39.46420762434904	11.73317819118596	16.729199955198425	14	0.04395098856367529	-0.04019228969615082	0.5087194128655629
Si	37.03752807370363	4.505091573458876	24.326123426545802	14	-0.03521128735942794	0.3674456601709825	-0.13366713760492238
Si	29.943317222244936	7.261751169228265	25.18863719431295	14	0.19883720126524773	0.0784917316556086	0.4921476106350805
Si	36.106894578681725	10.702677231071805	18.269321266764763	14	0.17622355864294934	-0.1099481768054923	0.0830058212661926
Si	24.515346164289337	-4.396301348946577	20.759145995797283	14	-0.23917630107517904	0.03873652986388297	0.2297362307817233
Si	27.066176639208148	-2.4509548253105	16.546079592637057	14	0.0766076256770041	-0.006149569704730175	0.4198658696592256
Si	38.95287016142527	4.724921127499651	22.775340964346032	14	-0.10706262530469011	-0.24856572059382778	-0.18668384352743977
Si	40.886707618563	5.925326093624531	13.050165041122257	14	0.05422743941777515	-0.1436155154201713	0.23407779922532537
Si	28.856567356984666	4.586385097780726	16.622079371964507	14	0.17597904652700325	0.18552016125954077	-0.11929208775997446
Si	41.6277369773925	-3.439876806883302	24.580864852336905	14	-0.05435728023644262	-0.029251465227324695	-0.12807729752838842
Si	29.37992951091921	9.285603571012578	17.79036993393196	14	-0.07015080888651623	-0.04330589823885014	-0.21032875649364957
Si	38.013024175114396	10.384152234640085	15.344263615941623	14	0.03126644046672475	0.13739832564552126	-0.2445673947104655
Si	30.94163502826667	5.581026419183592	16.939399607630648	14	0.07451268906214745	0.06739124154640129	0.12410365425609957
Si	34.96781455456989	6.000445219022794	12.966681340299942	14	-0.09074921915888258	0.03623741549269904	-0.1396439290321386
Si	37.97026990006532	1.1356850868457942	24.085359517299906	14	0.08844807989735003	-0.026407308522176893	-0.8486107944310505
Si	31.305755963727147	7.978078021653779	17.20351230432247	14	-0.02705394151019413	0.23630129110618942	-0.025098101693157487
Si	37.988686698127154	-4.462327476990515	18.30289578858917	14	0.25358708928407697	-0.006867165199583504	0.017420266986131295
Si	35.341629230864264	7.1629837030958985	16.745074642568767	14	-0.04380315000776678	0.01673815274469601	-0.06143784717759841
Si	38.38870819487927	9.269020104550531	20.98676720913717	14	0.0026011872523938116	0.2391397913796329	-0.3206559142233317
Si	41.905745345468816	11.502384659417144	10.471724919691221	14	0.16999711288914673	-0.22111737152752292	-8.561780716093103e-05
Si	30.758355886093536	-3.7586064162167836	11.83291306711786	14	-0.10891022158774852	0.30114225328553584	-0.39188401623898994
Si	35.82861939538151	7.338631602484899	20.418855097327675	14	-0.21077690015095135	-0.12873987136939058	-0.06089662950770725
Si	31.366755162000587	2.949542449099647	26.73371832261801	14	-0.027412353591822772	-0.05997977335054244	-0.20492557866335837
Si	30.534974252078168	11.49312469793498	22.97014717895286	14	0.14427603237691736	0.22736644300814282	0.24402797681429844
Si	27.257101756294343	-1.969860786170439	11.257042331881408	14	-0.10746937416633755	-0.06943398472325894	-0.06736373071947571
Si	29.07608753631797	11.172350596487089	12.185402168338939	14	-0.3545682791750208	-0.08615491106230996	0.06987647194885643
Si	30.548719328366964	0.10106240443853401	23.26302517582606	14	-0.0565566037272973	-0.09411428180189237	0.0312813528775816
Si	38.38879822455605	1.0852079024325927	26.366755723177857	14	0.038120235918643476	0.04003519516108977	0.8284733833425868
Si	30.854157283601957	-3.1474915178775453	17.308819198795167	14	0.3442193231508928	-0.0935920903113703	-0.000993217985173203
Si	25.97762454350915	10.886568575047011	19.626039031513695	14	-0.25815182966946787	0.4155947495013955	-0.05384665871986122
Si	40.934721263638984	-2.1856291833370305	19.8931914574741	14	0.058294928034249405	0.020818496887771012	0.08498788635749474
Si	41.20473827022406	9.851701994060852	13.511405081178497	14	-0.031758807135533106	0.03902732187559173	-0.011198963442968987
Si	30.67142486710233	4.556694947283379	23.331491926562222	14	0.275690624610858	0.0348181653559773	-0.2133778302928132
Si	27.518148533266157	8.89222462750328	22.40157375824487	14	0.003628343827792969	0.1707190792630443	-0.3379417124012193
Si	42.00686831532627	6.6371792895659105	16.56714817390574	14	-0.20246040288240041	-0.12202902937327209	0.14947223622893663
Si	36.11217195464398	9.66066720445931	20.391834735972523	14	0.1886633375134218	-0.25503307891612825	-0.09007996044404801
Si	39.51614820023564	7.9823356069136535	19.28625720994367	14	-0.5152662183422559	-0.35448883202062825	-0.08083606548651963
Si	35.500670747146216	2.4209618477185453	21.268488073703065	14	-0.0629100620839152	0.2217768600421409	0.17070750928910364
Si	26.98707492828998	7.7508316591499185	11.058855912137465	14	-0.1472178910842308	-0.06110308926491514	0.14663167907123703
Si	26.8426002137103	8.616994084181291	13.230248948221469	14	0.0894528678564639	-0.02577095995544024	-0.0229244892555043
Si	38.66722727675838	11.523489252556537	20.613116223164205	14	-0.10976717099095389	0.07667755974171213	-0.15060763633831403
Si	32.75733390663639	-0.531027771686181	12.619664406523599	14	-0.0529069197253471	0.46409942269758514	0.29125403933477834
Si	36.543559790784684	0.4101277371959691	11.381497720152646	14	-0.14605009504781954	0.21698869060442916	-0.0733988862374593
Si	40.64568998931892	8.464208811983626	17.132228443154844	14	0.06500345603557978	0.09774493962447348	0.030424917695440274
Si	40.95950234139724	2.8837340291831843	9.448869934490125	14	0.012917747349487977	-0.3909576469921406	-0.24485741539057818
Si	36.20543942597697	4.12152259091168	12.316531211014063	14	-0.136629822265329	-0.0562354726728108	0.21744094803024322
Si	33.29867744237783	-5.531999531018084	19.414524945800547	14	-0.018974243041628792	-0.04895718773253562	-0.2700442202172808
Si	28.9281540452469	10.501989623216716	26.241730692588114	14	0.2584716751712943	0.1317562921309883	-0.2133983991353744
Si	31.169292253477273	0.46519152441507905	11.066688494016935	14	-0.20975591422832054	0.08856609363154483	0.41538880396525174
Si	42.14986818011005	9.737616387650936	23.714654957112323	14	-0.13997380184471359	-0.015079532702668484	0.09819822549241558
Si	38.80776687601137	6.870853770991541	13.837283046847954	14	-0.15830501144577333	0.3481389732114586	0.3980073606694547
Si	40.408504350499044	8.022613247399798	7.897116788684393	14	-0.03860206105563923	0.03228536950509943	-0.018343808017128482
Si	33.92060081263977	4.197800643785526	21.27862377840477	14	0.09364531219149735	0.180714508305652	0.0956790564997345
Si	42.094930434438425	-4.560841223124695	13.800618051755329	14	-0.02371407569932178	0.025520534297257817	-0.09729833863036376
Si	39.614316559791654	0.6018516630506457	14.112662548362426	14	0.05301696303304943	0.15480933665250002	0.05924752255536428
Si	27.288872410776808	5.760730564737133	18.038390235125963	14	-0.010914084973496581	-0.1807980692285568	-0.21300759112671183
Si	36.92170734988678	5.57483728813108	17.3436394039655	14	0.12050950612906455	-0.08150506709082216	0.06589023026049885
Si	33.0112290534658	12.053372828896062	12.037584897396066	14	0.2675361069774764	-0.5085844298362552	0.16062260578135484
Si	35.49500215131579	6.24041359330664	24.293296969490243	14	-0.26976988327962104	0.07065988773990556	-0.18225125795550448
Si	30.4030152994735	-0.7024246334281639	25.46787815050948	14	-0.5678481503551364	-0.04680928634808391	-0.17544245684668833
Si	30.473377584131587	-4.3670220611559705	15.281722454840505	14	-0.06500859824622007	-0.12153717692552776	0.4892258065492643
Si	33.63510852306858	2.972611326095958	9.860056748065618	14	-0.1040235788162751	0.0033558066638572723	0.046820084990428536
Si	30.96348932307812	4.975884580672607	19.179899423607523	14	-0.211794286526134	-0.04700828989986337	0.1639313612178534
Si	39.83719239071386	-0.9993310491112642	10.353820418082812	14	0.2521956070848128	0.018190313029515643	-0.1088004353905782
Si	26.97958118537583	2.9965297558603874	14.096940092990994	14	-0.2670900202044306	0.20618747715448704	-0.13305804275457928
Si	32.55616177542993	8.786909548514513	19.077643716725913	14	0.14915084806391812	-0.1207025961386077	0.008516786372990512
Si	28.91606224120434	9.517372697096997	13.833920847646192	14	0.09082506676582694	0.03206991087927102	-0.17032698570172172
Si	30.226915614797402	2.9259039297848286	20.08147297586952	14	0.2522460007490877	0.07333820815190381	0.023142261876120843
Si	26.335949204688497	5.2531923541732874	23.306255789710445	14	-2.964429412476884	-3.868839105897384	2.026598178110311
Si	27.026151081816977	0.7491664047067893	24.561896417891912	14	-0.017152357811771865	-0.05865873943705036	0.0014261921210861393
Si	31.824955472788243	3.2220933818601534	21.83209513005948	14	0.12891444942062863	-0.26718720798553225	-0.061193335061652344
Si	28.511010540875294	-1.0797095445364306	12.988321200790345	14	-0.34181688233974644	-0.12060000903633376	0.17968040974588845
Si	38.91380219241434	0.8697652490056069	16.34343097473148	14	-0.27038180634581627	0.09507587519162776	-0.2423418459453453
Si	34.085674317265685	1.6179626070096491	24.402989127673514	14	-0.21978836718753839	-0.06559866691719406	-0.15081512453764997
Si	41.44002346441237	6.43264986986733	10.83561177799208	14	0.21199097608312528	0.14821419439578817	-0.010551559123355701
Si	28.201331369412575	2.3449342410364564	21.20216730308059	14	-0.052875552240441284	0.32960876005861933	0.050077161209992116
Si	42.572341441346765	-1.0878138523494398	21.165503944891178	14	0.10478334043837884	0.2827637353465854	-0.11637645432692653
Si	32.55164392255901	1.1744158537946143	22.670695378771832	14	0.057663464567621045	0.37651343441408075	-0.15631549014904278
Si	31.86691912358491	6.3008660659065665	24.25683986110581	14	0.13063657576406382	-0.028031218642382415	0.19482627696581672
Si	37.3263498244123	2.620544545904116	19.849811885397234	14	-0.1832215931033284	0.12495983232770887	-0.1383295799924789
Si	29.418948372833714	1.0268244754952878	12.530538300322283	14	0.14196615135729634	-0.09649306844409337	0.3381862245171653
Si	33.88844221209556	1.3638071925691984	13.517906860744903	14	-0.17056712693862355	0.05658360033315885	0.07432859792122484
Si	33.68012336145634	-3.1183497299569236	21.91786067396225	14	-0.09163805026805776	-0.026066894177789283	0.22710753270240394
Si	28.778413413027458	10.582017821354066	15.912995816261382	14	-0.0482570757538593	0.15148823991046473	-0.25908359823748955
Si	38.31489859205229	9.004383598830199	23.352789674280878	14	-0.10263801015924728	0.06694386922069553	-0.16745711794337245
Si	30.636139781419192	1.2464543273439412	18.481301869893926	14	0.0927932478884003	0.2689404447033412	0.09196715174903672
Si	30.518109238263296	1.463620639855374	14.613872491100562	14	-0.16183179661342048	0.06883671695738855	-0.15647464156835994
Si	34.52932255848	-4.158066455166463	17.915375321683133	14	-0.19866802253518198	0.07954742750006141	-0.3363553404186879
Si	41.22463319188824	6.939549688177676	20.467084813627917	14	-0.017862497101196764	0.12410134026131142	-0.11791140420305493
Si	42.15163767248449	4.897840309230746	19.61547773197632	14	0.061602655028619904	0.1500134538988278	-0.0913089487870788
Si	23.502353520953196	8.096656927386396	10.269320200364543	14	0.0828721237895449	-0.25649912316967666	0.07010015811170932
Si	38.137268402871015	-1.3249225567182528	16.426356491557783	14	0.12330506894366158	0.13468220998531683	-0.06482476421582949
Si	29.62243672208813	9.784367980348847	21.68114155255839	14	0.1430182476543009	0.17178120287079748	0.14529830385220827
Si	33.677319346250584	5.312836196585448	9.402650335336798	14	0.2449201503603898	0.10309181024825342	-0.06058912531141754
Si	35.573588237721516	-3.2455862167889165	14.012105947017048	14	-0.17157628577678172	0.07417587426520805	0.3979353697204905
Si	40.473554884227376	4.853563714192556	16.360769053575225	14	-0.07111008828146348	0.023874255560767003	-0.13740269652456552
Si	41.51326669872727	10.640815384804537	17.373982678845273	14	-0.12381774734449909	0.4177362231225469	0.09837357487524968
Si	27.87563509999988	-2.622466270277469	21.65082774193647	14	0.07340839932714385	-0.23168564283545956	0.031552347378325206
Si	29.90200833273391	5.885384018297277	13.004246632160323	14	-0.21717098197162765	-0.24251976643349954	-0.09121716032714951
Si	40.697702588946946	6.3421487649661685	22.68942318844435	14	-0.6572048588726268	-0.04525942406109865	0.6806271141181118
Si	30.72135368893881	-2.9603214567644955	25.7775916969397	14	0.1855489576391264	-0.03015752274214488	-0.018707362309397423
Si	40.619424240345474	-2.7467776110658653	13.73626811260263	14	0.007355932320943654	0.08405817467372921	-0.0366482781228587
Si	37.61081741257145	4.673163884773023	10.453177169372253	14	0.2073617009541987	-0.11636976945309414	-0.023067956932368565
Si	41.52797100029954	-1.6350977098548478	17.621099409465092	14	0.2162726377727679	-0.4487715212209903	-0.20582649396753824
Si	31.33729417795321	-4.2978023349413235	19.319072208676737	14	0.021537377935284412	-0.06754267964975802	-0.005303418943869442
Si	36.5214468652654	-1.2930062178497312	14.789214289588525	14	-0.19262978169081424	0.16859200383168582	-0.012351332847459357
Si	27.756717355301944	2.5397044437725733	11.842965289755647	14	-0.3820847625323096	-0.1452610228250661	0.1615410046017117
Si	39.768152723852765	2.6432074709033304	23.586694959059695	14	0.3144194411587805	0.17906231602692485	0.2644368966245698
Si	37.75193974936866	7.076247475587167	10.587082399898492	14	0.23796171092194107	0.17931891233787559	-0.2961846480072263
Si	29.20315705902213	12.250315202197289	24.722804003837943	14	0.08754613615104209	0.16411853768516016	0.28577784211339496
Si	31.46113900132559	-0.7666157929690954	14.555020909844025	14	0.08076176054276735	-0.009111740144072776	0.1125177394624483
Si	36.642546601947735	8.189790172655831	24.898915146836536	14	-0.044728233701956055	-0.3020508819056762	0.12102938362479852
Si	32.87451653392738	12.410204634344149	9.525688165424624	14	-0.2592977713106579	0.19691658559109712	0.02815874546626176
Si	36.75812179028248	7.538379627895094	12.679522683256808	14	0.16934148103250896	-0.0906144932401068	-0.10450257573741868
Si	28.08701168584304	4.237405517050676	10.224647474748538	14	0.08273996897608929	0.08754767881423418	0.3545291983741546
Si	39.17158825818366	3.184086126131965	27.14860126365094	14	0.10048136701670708	0.1437073038801006	-0.03550696447124497
Si	34.20216126069068	-2.4476630129469443	12.255083501259962	14	0.15729430994442314	0.09757730355759982	0.1211335133902645
Si	41.54168497542726	-0.6141873656721034	13.679984832489014	14	0.07733756247739414	0.08841568397031617	-0.03178888906777883
Si	28.762098398692522	-2.419771819081894	18.14703968596185	14	0.042232204657156304	-0.05220346530975458	-0.27451280126369815
Si	35.40209807249633	9.923799396125887	9.26843736700631	14	-0.1917489210081315	-0.2368947022140796	-0.16135588501866105
Si	37.95008688343547	-1.21605539775489	23.75548423398162	14	0.05999134332448311	-0.7031517964963331	0.0866035689406758
Si	29.41924465231547	-0.5459186802248487	19.418550090804022	14	-0.11417378839915567	0.07025493865198222	-0.12848070395311967
Si	31.310789441110504	8.251935203179139	21.018257953170025	14	0.011821428040976838	0.01757607596853227	0.3218507068656045
Si	32.432154898639354	8.03962558250394	15.141688658680678	14	0.12904711845514827	-0.06441133048034967	0.023421483913888923
Si	35.977605415219244	9.441788691185929	16.30350363153315	14	-0.017238489839996828	-0.015565214497644456	0.23416804502206257
Si	27.037478452058547	-4.204806589541874	11.93578261270476	14	-0.17800147797183175	0.2694101856453323	-0.04227102834749053
Si	35.58753137929922	9.595459528022422	13.02055837268883	14	-0.08198200712770963	0.06480985180497262	0.1502014016977306
Si	29.661265703229795	3.3700841645437203	25.053214554507242	14	0.09027819266423144	-0.24027981947858656	-0.09691652949032176
Si	28.18550415223544	7.680513570878611	19.016189459358955	14	-0.05063483395393224	-0.05494246380730833	-0.27342625215540356
Si	39.16219079683152	1.0720226470430172	20.055411839797838	14	-0.050554872578475636	0.09829875571043338	0.19232947658942093
Si	32.80060871690755	4.385420853282454	15.956193692081483	14	-0.06775145340175404	-0.27643238849572077	-0.00624984281221595
Si	29.77822734858688	6.594051800584018	20.372142790306903	14	0.3908512032318865	-0.01183711178342974	-0.16786978034725622
Si	34.0744156969591	-6.848213762637325	14.681391474875758	14	0.12922761004862268	-0.14919687084914876	-0.04149789697772201
Si	37.17317660615289	-4.943406784001648	9.3520110975054	14	-0.03781967370671817	0.3388601112215761	-0.09188976147890025
Si	40.29611457581893	1.6403439846560384	18.093855063632525	14	0.08266129315329276	0.06495614769768905	0.16205908232372154
Si	27.825938718419806	-4.0534830719144	19.668523217532446	14	0.21168115789204747	-0.29293425666149514	0.08552139071142549
Si	32.25503214945445	2.9779050710903574	14.130976221521777	14	0.17163979207818933	-0.04851907138598238	0.01079427146557768
Si	37.735975032321534	6.40891477326288	19.369641059669924	14	0.3188466274095435	-0.1294782928173371	-0.05283158633946676
Si	33.92007864051447	3.324676469384586	17.776842565770636	14	-0.10543948651608064	0.039866016431024026	0.16180094334957867
Si	41.69678646567288	-0.0034735086203202003	23.057171501427273	14	-0.08407822929522636	-0.03468935297943788	-0.053565122687305
Si	32.903157429464486	7.747492376593154	22.695062320016927	14	0.21177731723102103	-0.08781404532540152	-0.09031367391764948
Si	29.406344218085145	2.199436461947964	16.59863728103538	14	-0.049360851267798864	-0.2715858549672415	-0.031585514636955116
Si	35.171124481373965	-1.9683531983102527	18.6176608183381	14	0.09663036546818927	-0.11144044633330624	0.0052136873681962745
Si	33.30021613139908	5.039584669249308	19.213974837815442	14	-0.07849610253465288	-0.10702714405127207	0.1659530213310858
Si	35.14993149546101	0.5395887754959241	15.381923848188421	14	0.40510515401625546	-0.19569608189562285	-0.08689384673132051
Si	29.936190145650745	-1.4359700707627971	21.555258784684458	14	0.020315074466086016	-0.1419985472843302	-0.0805213621953335
Si	36.95086386993633	11.456531726583776	13.494967299102505	14	0.00801233550917746	-0.1739797550300561	0.02077787342371267
Si	33.08777719536997	6.117437965540949	11.530689989795361	14	0.3922396001047665	0.06345539352231862	-0.056091747885414524
H	29.870720564699603	6.4450395902948525	22.565735507780527	1	0.9011737002645618	0.7447751634136782	0.2676898590756212
H	32.38317220686062	-0.5888710205628327	25.94046356674265	1	0.03791326194037156	0.011336774688128924	-0.04802773315930208
H	32.246675758546466	13.62171762567991	12.576286471349949	1	-0.14108631911674166	-0.09153726293950795	-0.34085426050788303
H	26.91239940366274	6.288772624960796	22.700383892365966	1	0.43063443007160174	3.7304611891248864	-2.254540548710167
H	37.68181154187018	1.1704758277582756	22.5129797540933	1	0.23980493632595523	0.0029925094821203493	-0.044263120749541265
