220
config_type=amorph dft_energy=-23172.95142492178 dft_virial="-19.893537920003762 0.22193602141992033 0.8958144864585872 0.22193602141992028 -16.49993439247371 -3.260441914678102 0.8958144864585873 -3.260441914678102 -15.140071861228018" pbc="T T T" Lattice="16.34623153419975 0.073265201775117 0.06927664549820299 0.07336328102782799 16.511511421559902 0.1056150086276285 0.0692602989560845 0.1054842362906805 16.284556030786646" Properties=species:S:1:pos:R:3:Z:I:1:dft_force:R:3
Si	34.87551107524093	-0.8571848795725385	25.651546405473805	14	-0.07604815315933988	-0.05834814991437648	-0.057094736070804286
Si	33.32409672516676	10.520966342271606	24.860614061107547	14	-0.11377603840612875	-0.0576506090410203	0.12752888076360086
Si	38.255987427926215	-2.1215604886627	22.258578025301563	14	-0.212593643170168	-0.04098958945592873	-0.1755694694495037
Si	38.83800115609277	-0.9120226244174705	13.471190263818485	14	0.09537129519291276	0.15655794538073273	0.09164293536816603
Si	27.712979408262026	8.414544386264849	20.633254419692808	14	-0.005802470486510184	0.016008987275902012	-0.015287792233600479
Si	28.066839544118046	9.42571532724787	26.179665584275668	14	-0.018806864085287155	0.02791654734510381	0.0029133194382597884
Si	33.722354069416625	11.276333514950643	14.888556429904114	14	-0.19956816650776585	-0.13181054245324345	0.017107363468669274
Si	28.318945724594823	1.100001320163373	16.32057400169055	14	0.013314983121450857	0.03750779863138421	-0.028237421289058293
Si	41.91170358749439	11.331235011309838	23.707136663057714	14	0.00934673917033431	0.01602055724984268	-0.12139370924866351
Si	31.966030909924417	7.833039035558177	13.774552661762032	14	-0.015120670387790852	-0.017480173740090744	-0.037655380076760704
Si	43.189370569981094	0.40915558388026685	18.173294354709768	14	0.00501982602705711	-0.019244980431840385	-0.019057032632937565
Si	43.512602189869675	4.544696698215395	26.164992928070102	14	-0.0078706676060373	-0.10628306617162121	0.11315074559226876
Si	36.05188834414458	-1.6355238478907042	21.3656612393122	14	0.21323307706328884	0.02926817741190566	0.06919512903901719
Si	40.75608969638966	8.678174878935168	15.415616352776695	14	-0.0030763275155571766	-0.030272451149955495	0.09426623412631313
Si	40.57901904819943	2.4506507092465544	13.596023902014833	14	-0.053753070486207824	0.08147832759549262	-0.08480662343242432
Si	32.11333940887949	9.031804528547315	26.23839707545323	14	0.03380257875451881	0.005923312436557144	0.01591462771065258
Si	27.511073458631163	6.460006326352134	14.697239770257612	14	-0.008698820629656996	-0.08872421660873393	0.0905761837708366
Si	42.191445232076696	3.673370425056142	14.677411414667873	14	0.041549061973592954	0.01869553522492474	0.018617887844256272
Si	31.216316371509958	-2.8117866909995155	14.303554553838294	14	-0.1968605354951179	0.10776016617804629	0.32107449016945183
Si	37.868585822297256	1.9327971588951096	16.20681187647106	14	0.029171760962400105	0.02466229934139239	0.001136171440973436
Si	39.389674067433184	5.176824020554637	15.813608883044239	14	-0.020348241724715926	0.009612591460437624	0.07099978786322912
Si	37.44142779158188	2.0315596970666627	23.9199294097395	14	0.027478688109082595	-0.04083995112629612	-0.004186273682265102
Si	35.29021467551622	-2.919436844120897	24.599911234130648	14	0.16537118019713629	0.08268314754851401	0.2534922154977635
Si	35.13018202817611	-0.5529119792329914	17.770664310443205	14	-0.002357703578575789	0.03203520095744902	-0.02122755974420657
Si	41.213346615107824	9.917437295368678	11.815373818541875	14	0.02294454387700146	-0.04046328419689442	0.03281758830637008
Si	38.103536306820665	-4.479120909852821	22.449196687599606	14	0.19560557898835362	0.07206396835523841	-0.10325944631512705
Si	35.94422184448108	10.965484400716823	22.02916411459369	14	-0.2673180772463278	0.05695846748883644	0.24928845829932142
Si	39.76071768836417	-1.337168395798054	20.657252778176975	14	0.07869921985494456	0.0516846162561487	-0.07633740250785655
Si	41.34855049962415	3.807876312224008	18.893424921198164	14	0.0062801818549936975	0.0859003716356153	-0.0437704969702009
Si	35.20169978459875	9.641221599921325	23.8725865544559	14	0.05014863793789224	-0.04294748615722149	0.09915904755055492
Si	38.63242867706473	3.381053385622066	14.494506685595553	14	-0.007857812079436559	-0.03585509213159302	-0.055889144786186847
Si	36.41690172568804	-1.59051854813005	27.284762121617376	14	-0.03993543627466802	0.004122253159793415	-0.13572479319263686
Si	36.13713065732991	1.9980754401911276	12.126584191356514	14	-0.01868576502470818	0.04594282385519401	-0.03538972206864622
Si	43.74220081650349	2.695786724164004	21.216201535414328	14	-0.04141279339162511	-0.03212364698046211	0.035355526367888246
Si	35.232472150136836	6.857359706822844	19.143450186863255	14	-0.05661959580764092	-0.05269634619962697	-0.15297665278029846
Si	30.064333047409754	1.5554012716968766	24.098342109037656	14	-0.01681142924632023	0.021499325576546224	0.012264172377106336
Si	38.5124663084197	-2.3227471904403507	18.928462099574954	14	0.07480245263172813	-0.11738175650710442	0.07773017025978075
Si	39.360472604592694	11.503640356379446	11.99488827477882	14	0.08917775958720807	-0.08853035526759477	0.047749282453130044
Si	28.465922388744893	-3.3790215104367367	24.36094930817136	14	-0.02601058697127804	-0.002408868574446735	-0.131282437420485
Si	33.31976652615957	8.124810100485496	11.799942682782012	14	-0.05840265734716362	0.07063674779202422	0.020658317026325784
Si	34.872761586856605	-3.847374461944939	16.163117569388312	14	-0.005674172331034796	0.17723940235493987	0.04212987466541441
Si	39.621353608878685	4.361791969143074	20.545533970722296	14	0.03801096394253719	-0.2507563023265939	0.09844890826113002
Si	35.83307680065476	6.089507045273696	22.515447588151673	14	-0.017852984011512217	0.0326268122916151	0.038358320271289194
Si	27.798045178792492	-4.961556407396111	16.26993404886165	14	-0.05371244702214949	0.08128446625435347	0.06192969962534275
Si	32.511024624155205	-3.343840482489301	21.841200130735693	14	-0.06726731426997017	-0.12395864391604323	-0.022381986032953056
Si	39.997616680708106	-2.758222341785615	12.45481131451651	14	-0.10825484684164279	-0.2457459893892214	-0.3544422950143336
Si	29.387149751029288	6.995752801706488	24.129407077679655	14	0.8712930855653969	0.19022348422168764	-0.35884274176976705
Si	30.655249102414047	10.608735830868468	19.939834103026033	14	-0.02019294696337898	-0.1397048642282261	-0.06072307989859725
Si	30.030467916102857	5.222414526523135	22.64098576231333	14	0.3741696148042337	0.12375912614319973	-0.06876241201363628
Si	34.03856158015689	1.0481288380587372	19.088852736187466	14	-0.043047759264707275	0.007190096027794103	-0.008556381394920792
Si	37.44625002150684	-2.908976691819269	25.62949655481016	14	0.008782381552561808	-0.08880237821046645	-0.0015863719825313647
Si	27.381355473649805	1.0809706758290154	10.763638933291798	14	-0.015805869955610317	-0.011179165932003847	0.09426237746833291
Si	28.162860767176326	-1.0336719562091357	15.343590218894162	14	0.031748522714252506	-0.00967764042503737	0.1774263217117146
Si	41.39189662535978	-1.9611093698443518	25.055275223271494	14	-0.03639939512786837	-0.02304584542661529	0.02575656176564741
Si	37.2364846544254	3.167207921627849	18.077537945633804	14	-0.026272325492869116	0.005309075375573769	0.046712869898578355
Si	32.77660525930026	4.2109558863988275	12.669560742289882	14	-0.0266662188279158	0.022723685930000737	0.0458402367529201
Si	33.59037862696871	-1.964308388136942	16.80900704553712	14	-0.026900703633113306	-0.03529227717701261	0.02154689102496896
Si	29.22865694795674	4.808829029728754	14.701932862499834	14	0.06043665876593275	0.059757886961413674	-0.026197506328052806
Si	35.07174477475668	5.970046515471697	15.439242010100566	14	0.05888216848937123	-0.02742289512363538	-0.05877855294496926
Si	42.88038005758615	-0.6945956330450902	11.891993330759709	14	-0.039265663338769456	0.045682885107327036	-0.06221637786853926
Si	41.489058837057925	2.364350774786145	22.112917257792034	14	0.03937802064125992	-0.069174303085924	-0.2392606333296799
Si	28.005603762687933	0.49417885340122086	20.166442947106376	14	-0.011823484925232955	-0.018374918391502276	-0.00026919472701950384
Si	35.05938515426088	0.5187803992895634	21.241991474914684	14	-0.09957196706497069	0.08900729530448225	0.002204465701494963
Si	39.56091390404975	11.018904900360083	24.224107500134757	14	-0.10806149972156763	-0.20169292794433621	0.00439041944468486
Si	29.99334982291438	6.087710560294873	11.259396862661665	14	0.03997554551766234	0.052085708686091796	0.022862268506756718
Si	29.390028377096357	-1.8424449166435246	25.88254756542139	14	-0.2850756732504625	0.020593525172258053	0.27165270370556543
Si	35.11002510708979	9.735192966597946	11.661394295748241	14	0.22866125164736942	-0.37414184686677615	-0.11127820958760491
Si	40.925716129299126	-2.749946087511018	16.480801172881876	14	-0.1955343593709855	0.03380540697037097	0.7629261385317956
Si	40.530005576311325	11.570237803624426	17.199993447852673	14	0.05030290425710113	-0.11809626667557359	-0.09224148868669652
Si	38.42498942292676	4.123949781318901	24.59851197012531	14	-0.02374364341050348	0.016641736295190453	0.040007941444696195
Si	31.24026569036777	6.980172912413346	25.669427887897232	14	-0.08252785278717706	-0.07141219315658087	-0.005012112711096666
Si	37.300881857101224	10.477424058030557	18.72197584884249	14	-0.11102212749771816	-0.09892327719269733	0.023416084592716616
Si	25.547546435207487	-4.552461305721683	21.270437727509297	14	0.08878489469428943	0.015559043844876101	0.0015557758292216028
Si	28.132094940255097	-2.7213216576073127	17.02205316362174	14	0.030607209062638772	-0.06078247243149267	-0.025451114453613817
Si	40.29702158080476	4.339155277617376	22.830167563559154	14	-0.004143850444482659	0.057126360666242104	0.041947326187683896
Si	41.982387670268984	5.734107065150115	13.552869030821995	14	-0.07915893348618705	0.11087506027340568	-0.04130223586285874
Si	30.015621986550833	4.382900258980694	16.8704455240895	14	-0.047285197942843325	0.00041369084601182595	0.04217872566649722
Si	42.70318844498424	-3.8663478933818825	25.251096989925852	14	0.026098004552163077	0.006994949133994864	0.0665021533266941
Si	30.465153529463798	9.065324747815511	18.06033974867093	14	0.010526362291218252	-0.02701846025677609	0.15033458495331428
Si	39.09206728696956	10.262704054033001	15.750447478952568	14	-0.02997420293281832	-0.00452565958452465	-0.002358989131235862
Si	32.045050094525244	5.388207695305809	17.39551443813205	14	0.08750705535017585	0.004688924772354051	-0.015969649364503746
Si	36.139952070499575	5.818072713396003	13.29717805365863	14	-0.0066033697937363115	0.02388145465566342	0.0026304978530435
Si	39.23178935572744	0.6561649125244967	24.5785364956565	14	-0.014273491184802062	-0.03283172938563089	-0.11253779408394544
Si	32.41749951807842	7.80148857461526	17.561258567288373	14	0.03272271452005662	-0.01819159858217572	-0.1483311796878549
Si	39.05334396334504	-4.617649681036049	18.87107756346796	14	0.011047525339612266	0.2819476665179704	-0.04819768322096387
Si	36.391603817105455	6.958461435171555	17.102680847967033	14	-0.07892830533896976	0.038801064607418695	0.03401212383811088
Si	39.55022326550424	9.072131447953655	21.306524353890097	14	0.14478742522509483	-0.032504427678376045	0.13144390283459031
Si	43.02042088391534	11.092993967857971	10.884515073641259	14	0.002593988157497397	-0.010668801525954452	-0.008996554625730143
Si	31.746867915779053	-3.862418184656595	12.288372457320156	14	-1.0483190861787643	0.0826222123524265	0.09452565865311606
Si	36.91295389281605	7.0751185330002295	20.697014107226014	14	-0.1603685805757242	-0.014455782552000558	0.2261261418017034
Si	32.65025956595795	2.6650732061775546	27.233211666392478	14	-0.03472252023806779	0.027630383322971328	-0.03868356509428792
Si	31.804206681568115	11.418836130522878	23.339169461353432	14	0.05484450469461069	0.06753110967581735	-0.08785955388956815
Si	28.271738545610805	-2.2859200657015823	11.665072267724904	14	-0.006059581018524993	-0.08281787346728979	0.0069257864008828805
Si	30.128086196326112	11.0401096347962	12.466167257326234	14	-0.13706176795911387	-0.33992917681369367	0.009345710728206252
Si	31.708988073727852	-0.0806799932800686	23.701809324981294	14	0.012456748165585427	0.0871000493779964	-0.09061757856649098
Si	39.48687714548663	0.769126057180179	26.87421708165704	14	0.07500094196244357	-0.03726174385224604	0.047153557350451736
Si	31.95316781593137	-3.3143725710122807	17.871836328923024	14	0.04803904602271074	0.09062940565096367	-0.10930180092800708
Si	27.07918637328091	10.738197175138565	20.00142460442012	14	0.008210567729360876	-0.09422766754651091	-0.0062367301750831956
Si	41.92572401666941	-2.2688248519540553	20.4621878564227	14	-0.048647883762521806	-0.04146395838749606	0.015681685568647165
Si	42.307221251285185	9.6610270703521	13.915929000582304	14	-0.06975023067763716	-0.003043417367459281	-0.013083069421573501
Si	31.886403633956782	4.398079657991933	23.840758202296968	14	-0.0562753248052731	0.06941110188590964	-0.01579764241858584
Si	28.782296634214763	8.736746173999967	22.676887672768192	14	-0.09604929566583582	-0.05122515973543824	0.0493233131301247
Si	43.03535345014059	6.473729248460614	16.950161071384578	14	0.01770823078198788	-0.003946132445363272	0.016406480158396908
Si	37.26911889111077	9.356208195505795	20.798665079389906	14	0.18662933609465265	-0.06376829703978065	-0.27559395105082046
Si	40.64576851828612	7.700496368098743	19.667693600528825	14	-0.008015935056625666	-0.03591268489076434	-0.029543799902225533
Si	36.60341577126013	2.253284194361997	21.717154395869457	14	0.08288215110029348	-0.0367436661302362	-0.026522494040519522
Si	28.103249832032795	7.501027687897746	11.389778517253035	14	0.04534761297357973	-0.04648686974093734	-0.008491589540853061
Si	28.017873477202077	8.391951830402869	13.552872300130419	14	-0.03126618335619273	0.06267969104722994	-0.09618942090578389
Si	39.82724321082382	11.336058875889007	21.062797410903265	14	-0.03608494894721426	-0.08698254986486563	0.00910376971758032
Si	33.816117835008335	-0.6995829630454445	13.159100447037872	14	-0.03379255144377023	0.052583731786604485	-0.04616265336006667
Si	37.55317602281237	0.13612582949180876	11.807959027036924	14	-0.08168324468950842	0.010383923056482046	-0.03842851144652923
Si	41.77192920980172	8.359163936221583	17.573722805653727	14	-0.0025916741627092636	0.028096267606982167	-0.04568982709169144
Si	42.136094205809236	2.51067848121411	9.801458579037922	14	0.040144210026664046	-0.026321433604483944	-0.04990952514311847
Si	37.336909635930404	3.918767984647488	12.601730765769165	14	0.03528404963998813	0.014320799522692785	0.044987915339291015
Si	34.345211267720465	-5.789253759641088	19.90464653646175	14	0.22302718855932893	-0.23055204249980632	-0.14890247928999178
Si	30.204728593702914	10.295627624513871	26.59272145310541	14	0.021221389091438215	-0.062266771532814166	0.08308783952590532
Si	32.27156576331551	0.31038977640028986	11.595246378411519	14	0.0436367994935532	0.06719018111036572	0.13786395281900007
Si	43.33539259607144	9.458387160980115	24.137063798007958	14	-0.04717386908248091	0.04212087579679389	-0.03972332008575581
Si	39.910383358692734	6.828323344057752	14.289033920474429	14	0.06686107962938677	-0.04090937096994011	-0.025924712053585094
Si	41.47037964337912	7.828548640438225	8.218039334149935	14	-0.013759784341836473	-0.14990366770165747	-0.13262172618175017
Si	35.053745597230005	4.030746702121848	21.772479267669517	14	-0.01185948039971503	-0.056905502719241385	0.005759018806599682
Si	43.03448544875409	-4.698842955738638	14.29029750818019	14	0.19796199701426934	-0.3573515006840811	0.2416309353243244
Si	40.571921379611574	0.356191152762115	14.508064507628635	14	0.04539697819572657	0.06594448058275397	0.12184956622192576
Si	28.401534993994332	5.496866430075902	18.227015630728005	14	-0.009278861989882403	-0.028816434207155642	-0.009622104550122171
Si	37.97726090360946	5.382576311545985	17.628699496106666	14	0.039504519023011206	-0.08763098262660697	-0.04029230569310458
Si	34.011467186595475	11.847932861133504	12.404537524231063	14	1.1109260149454343	-1.5213271317001305	-0.6155524384651638
Si	36.823157432996496	5.859303596581496	24.581083286918563	14	0.03739389866570165	-0.021596256247115805	0.028314297338130723
Si	32.50615989322074	-0.7940087635929598	25.855389420345713	14	0.03259595902777332	0.3813748803534167	-0.024426271873002794
Si	31.568613777939444	-4.601852382732731	15.881057985133594	14	-0.03621427554481771	0.008001279756300822	0.03510921447821806
Si	34.79001048669012	2.681622445418324	10.217487883879018	14	0.024331398086689333	-0.06685619452927848	0.03584172238392825
Si	32.028028440217255	4.764909140364768	19.63987342049735	14	-0.07497754490403022	0.017950171792613816	0.05705205572248982
Si	40.87305737851859	-1.213786330541828	10.891086383572896	14	-0.04259987271793748	0.15689913105671638	-0.12411059624046396
Si	28.006045119325133	2.748983276180238	14.454490350489465	14	0.004983830552575037	-0.033958130626387764	0.08594330909446178
Si	33.651125646789474	8.512736430116465	19.485253113252668	14	0.021893733132656936	-0.052463661168153576	0.21678583039466948
Si	30.106320775495334	9.331147311783923	14.064677629898018	14	0.09004113675371378	-0.06053076122065018	0.07498217289360648
Si	31.33146304884688	2.777235004923642	20.650895607947092	14	-0.02543080272158465	0.027475088561634387	0.05325941826473939
Si	27.633427326388134	5.530860699065534	24.089462667358887	14	-0.6331310855390162	-0.4290542287418388	0.33701122938585765
Si	28.449747485318635	0.20742617690428206	25.16743538736337	14	0.013412685123616484	0.044873758263076435	-0.05579298544721331
Si	32.99494275306865	3.0307960276489663	22.3324251639761	14	-0.013888853828907907	0.06457613833137116	-0.09962210361871358
Si	29.485263331478738	-1.479201865611489	13.49408850001808	14	0.013746414594171703	0.024818879655389408	-0.12372158800552557
Si	39.82815861718247	0.7646127769012613	16.703396940872125	14	-0.07155746060716923	-0.022204836876394855	0.021914301975218122
Si	35.35151093915217	1.2679277126925117	24.795801656261908	14	-0.09491415266699044	0.09559472424523363	-0.04169381520311729
Si	42.602770002096086	6.164555654793941	11.323189243279112	14	-0.04498971511301512	-0.13048642321336715	0.06203922871198105
Si	29.462497502270303	2.9452823618644572	22.21435899421681	14	0.008952845835287626	0.04752456784814911	-0.04419344379536526
Si	43.509305092324375	-1.0858076176418796	21.73310044770605	14	0.031573944663014455	-0.018013678094021473	-0.024709093458219082
Si	33.71966506323813	0.998469677756946	23.09287447659978	14	0.08435050934863003	-0.05950437597684707	0.04079984188330181
Si	33.20253893401096	6.057435129637199	24.737872780302368	14	0.07544214363538099	0.016986007297558284	0.037675177587725844
Si	38.265605733308746	2.5081496711483777	20.13244377415411	14	-0.0008335523447920072	0.01058086972400539	0.007396041563937964
Si	30.422404052515496	0.6210100390444505	12.992306869877545	14	-0.020264166580747086	0.11539043543664974	0.10843199599820098
Si	34.94422703434447	1.1892648827098662	13.970600010697627	14	-0.03746974627264601	0.061748950921336344	0.06067885688709071
Si	34.81608975998598	-3.3341567909383016	22.358882042394892	14	-0.08662645177802511	0.07300756400773277	0.03783612878076712
Si	29.890490841287928	10.356907541607704	16.16856587187641	14	0.023451565846134656	-0.0010765217975460006	-0.0921476433425111
Si	39.47314278079867	8.728044909630288	23.687401482758048	14	-0.12154026225191192	0.12176497685689289	0.0770591117712221
Si	31.59718589890837	1.1335100968520864	18.981696248638062	14	-0.001996720391626998	-0.02649755431891409	0.0339655868318162
Si	31.530959518169478	1.237684975119075	15.020479563417256	14	-0.0057875580756533256	0.030360382951904557	-0.0034992743407215353
Si	35.53935886256113	-4.442700814012802	18.37355093824087	14	0.05719500917829007	0.29991480760569716	-0.10189753182704464
Si	42.45497437618588	6.715599224262788	20.85400139376945	14	-0.022513883735876653	-0.04711961876022579	0.019925294899551572
Si	43.32255565654578	4.622502969391032	19.8935210798959	14	-0.01531093218148181	0.04513935344264773	-0.06683305458139714
Si	24.704233231276707	7.685611206845637	10.520587102494456	14	-0.041361114174690135	-0.009929094525347851	0.006969238080793382
Si	39.10180165280113	-1.4399701645270886	16.920696429215983	14	0.0774861723648987	0.18264180885363496	-0.13740809584573782
Si	30.86476109809265	9.709020518012016	22.06679385455048	14	-0.031909216796761765	-0.06408634276788296	0.1060429249347194
Si	34.94848203925792	5.021659373457411	9.702235068378627	14	-0.014974374495074428	0.05418810150637689	-0.006570973866702445
Si	36.51798220353201	-3.433149815353725	14.546408591476002	14	0.05272359991602054	-0.16183796726618882	-0.02729074031017977
Si	41.48644339031897	4.694422850749795	16.7094353535307	14	0.02530584700302545	0.04550085085066055	0.03186370823259514
Si	42.6004406198442	10.57051271143278	17.842994490009144	14	0.04160896872755241	-0.0517105844198822	0.054680725285717255
Si	28.849312552937977	-2.7904724347312033	22.102148155844365	14	0.04895358818508741	-0.0315433485097047	-0.0018779353258361572
Si	31.0164946059992	5.662535365138475	13.315020304380973	14	-0.013864171217834486	-0.05230399552777237	0.0039954976675101155
Si	41.948437536943075	6.0610166570153625	23.0735790182831	14	-0.27120327449560355	0.08764769481118795	-0.16547556707313432
Si	31.656435575471086	-2.9016174785575206	26.368433818005894	14	-0.042287483421539485	-0.12573244947641338	0.20332840803848243
Si	41.571483006382046	-2.903940322192559	14.243121387626198	14	0.07647135709503625	-0.16536963753394424	0.29230330741593075
Si	38.816245543187264	4.403416803993623	10.719578463665592	14	-0.0419509257351321	0.003358891990241451	-0.03839020197725903
Si	42.518425114073054	-1.913397082708874	18.103728375416065	14	0.02843128263019746	0.07113785621892108	-0.003347579126832799
Si	32.4324909318553	-4.52801832129189	19.815193354026686	14	-0.0909703342164153	0.21185573594328552	0.024424729209810706
Si	37.53611023284066	-1.5082088046007671	15.24474921732044	14	-0.05637894034967506	0.04778887747506033	-0.019508518727155564
Si	28.787911671432468	2.1670741658832395	12.282343852586852	14	0.04818148525744694	0.03512515533120298	-0.0274110680391627
Si	41.464885570573095	1.3612370444133335	24.172007801094676	14	-0.05760870002430189	0.08873218703522641	0.15460750488486838
Si	38.92391531215919	6.821139038796671	10.866063096897895	14	0.019178645914580565	0.01041400498872778	0.05687104990795141
Si	30.47573301152289	12.063061528684024	25.114876350489755	14	-0.28655945813072	-0.08364062716973716	-0.13160356847497154
Si	32.48011331300912	-0.9747132480961299	15.041986708882565	14	0.007601472879017796	0.05319051264215943	0.023788380643074057
Si	37.8699720090689	7.820265847546781	25.292051616549543	14	-0.02351944302658657	-0.015463655837498607	-0.04387591228832696
Si	33.80283953884548	12.306358557613141	9.86088806756394	14	-0.001515152365163263	-0.12450320402285059	0.18513449546151853
Si	37.93794093119762	7.360700797081484	12.977725754307842	14	-0.01454782812246186	-0.05547622527177107	-0.049785854977219345
Si	29.22768923266332	3.9317487737437893	10.73893440418811	14	-0.039761372444494	-0.029144764356538552	-0.01910382674976426
Si	40.43331251037197	2.820878637725825	27.56718623376134	14	-0.005211630483940156	-0.04349770269573319	0.0533810315463824
Si	35.165399018516204	-2.6726923294589873	12.74922561530439	14	0.3314062197879349	0.44819482229768115	0.20917818686288334
Si	42.54501113017458	-0.8002580466448623	14.171695171839415	14	0.01155043354023323	0.27850238538897193	0.22347636065875875
Si	29.810149221429715	-2.551293099761735	18.631236193542694	14	-0.0361584825593705	0.002859069116004664	0.021698072017793668
Si	36.47823558637087	9.616675632276186	9.599537917519152	14	0.06352404203436657	-0.027931973977024703	0.05422769652830716
Si	39.081775504051755	-1.6791429608797095	24.370930506788913	14	0.055242511798169615	-0.016691358627869315	0.1303984914114181
Si	30.20107677619364	-0.533202953400716	19.912275467668454	14	0.04372190307965009	0.028154374587217514	-0.01885571508636997
Si	32.47143166448999	8.053285805445999	21.529219835787273	14	0.013064043242204405	-0.018611202970423887	-0.0016539920524512592
Si	33.587091337348674	7.801591557830606	15.494730347321813	14	-0.05080221291027388	0.027850469938376008	0.08096179253667488
Si	37.103639575936775	9.23497570053815	16.759158265346755	14	-0.0018463107303983357	0.007286512477299656	-0.06647849915774873
Si	27.94927194389337	-4.474179350170398	12.316034075893082	14	-0.006705699785478205	0.16049816428385966	0.03447132324828933
Si	36.6446858861467	9.36398751489999	13.404476756124463	14	0.0019902926283266284	0.01027773640675993	-0.00702040307666433
Si	30.96492780423218	3.131322357715106	25.60825422332717	14	0.010517877643661761	-0.013108780474774978	0.03667167518127205
Si	29.338567827853105	7.386624778227214	19.278045980012774	14	-0.018019077415193784	0.012291683204031921	-0.013211110466516874
Si	40.09781281062345	1.0238754735175186	20.51042323290597	14	-0.03019274688503091	0.044214269748458455	0.01608843443029459
Si	33.84855264387987	4.151408702769556	16.361567860015327	14	-0.047819730738902104	0.04168250233970864	0.03525525326040248
Si	30.91987346484517	6.4343880255440205	20.80335980628634	14	0.029996828659635624	-0.012891779185754482	-0.04535841161592435
Si	35.1300708716897	-7.031118545579862	15.199902479018336	14	0.021991435134822563	-0.05207388160161912	-0.22146987006691524
Si	38.1462220322547	-5.187315231286291	9.792185185694096	14	-0.04862988602528076	0.09077107355410383	-0.06643890413581846
Si	41.18250069013021	1.5081581303201996	18.4936359059518	14	-0.0510091868885458	-0.02262135593825884	0.015274679596467724
Si	28.91904199765286	-4.2685382156654565	20.122147087273664	14	0.02899898268488615	0.10593416717967713	0.028780438732673563
Si	33.284703193315394	2.775930550862586	14.528288449537643	14	0.03643153394437022	0.012877380995961652	-0.07262601197822278
Si	38.80571673540874	6.257095064380981	19.5994484218383	14	0.13843679508432905	0.19909122647087837	-0.1308011265045533
Si	34.88406031676891	3.095119670885264	18.21182315448307	14	0.10940567358294105	-0.023853686718205817	-0.0036383711385415463
Si	42.89028933141838	-0.4691702786141278	23.965459433502158	14	0.06054644496310309	-0.03612737218499671	-0.07587897442927413
Si	34.146197021390364	7.565140460740715	23.156109440130983	14	-0.05519777456559904	-0.04271120157829989	0.0168613086895311
Si	30.41671545585826	1.970301030477584	17.002597509192302	14	0.010036823838262056	0.017780221730952027	0.004566025938050974
Si	36.19821441591833	-2.236708800653838	19.103876843048578	14	-0.030567871151240506	-0.018876026818399137	-0.14426343396084865
Si	34.345968112620554	4.765898106162937	19.70498496706376	14	0.03560415225234657	0.06469723739195013	-0.028159259687325792
Si	36.20356954311635	0.32428433720101485	15.802092744121756	14	0.019611877161025516	0.004592765433380513	-0.027872324333597265
Si	30.927616821846705	-1.5811438062250904	21.985165761827535	14	-0.02710382095340501	0.03246611820910584	-0.02222926237693626
Si	37.98152735110239	11.229842314511417	13.89916235233136	14	-0.02660451230023225	-0.00823653589309437	0.012764509472407154
Si	34.32578994102948	5.9213338199585674	11.801294541815212	14	0.08831155420485018	-0.029508832869871514	0.005638691077616753
H	27.060917477809273	6.711095751909141	24.958034548171174	1	-0.010347670471467958	0.31685607767068485	0.1876891457076177
H	33.31256097039373	13.192064883874039	12.87732856192444	1	-0.14177408978988126	1.159835123008483	0.126576543353018
H	31.548599071769555	-2.324032028650865	24.87977220847043	1	0.44377946313139083	0.0018447680672062465	-0.7045785028384832
H	42.00732268561655	-3.007873271636194	12.732870899914833	1	-0.21020791454360263	-0.02045314282177797	-0.8044541174417633
