72
config_type=amorph dft_energy=-6953.852935055917 dft_virial="-2.658869038345924 6.855957960276078 3.9543444922230764 6.855957960276078 6.116404982722908 5.305160645100806 3.9543444922230764 5.305160645100806 -9.380248480597869" pbc="T T T" Lattice="11.105996452100001 0.0 0.0 0.0 11.105996452100001 0.0 0.0 0.0 11.105996452100001" Properties=species:S:1:pos:R:3:Z:I:1:dft_force:R:3
Si	-0.2776554643007261	-3.236073020410415	-4.548157653254413	14	-0.4036506797366477	-0.6700562717048548	0.34122064301600413
Si	-0.19317103868995616	4.542905627532216	1.6389341084293014	14	-0.6597906194930997	-0.13510644236314126	-0.4925700432391809
Si	-1.0631837039574044	5.536531365110472	-3.6416773380368497	14	1.7976690172885823	0.01811677941735941	-1.5202524096763086
Si	4.845686187606527	4.181926314249964	0.28757978273032264	14	0.30576278665637396	1.1120719565866242	0.9959682965341653
Si	1.1551535711768897	2.6460591846950856	0.5969861802879575	14	-0.9321269801032924	0.28885262696576003	0.5160630038809699
Si	3.706995034970585	-3.3546473021309056	0.7314076083459498	14	-1.0685696259013147	0.06817851399543064	-0.8691629248076542
Si	1.7418122853640394	0.31139437092256067	3.327285458671867	14	0.0977765642199113	-0.5953204107009186	-1.3051678796719812
Si	4.656340054094674	2.7465173650029113	4.9311346137093395	14	0.6774695396744379	-1.957946837846505	1.9887160265443133
Si	-1.0161642467781486	2.50535287324485	-3.0767463953085885	14	-0.6738136850197193	-0.367887633175516	0.5101458620971812
Si	2.770779524852169	-0.1471522317910346	-3.8942921121370255	14	-0.434301854700261	-0.7005799198445889	-0.5496753208417978
Si	3.9003493226020005	-5.31165048535048	1.9693574936728901	14	0.9775797512844663	0.06569816869308379	-0.6595237387608683
Si	1.9084921907168013	-2.7054473901230454	-4.1020730891597195	14	0.9633887925804411	0.1074390351235598	-0.9632674364093301
Si	-1.4467748260161315	-1.2972936667690915	-1.411656554634946	14	-0.8660696279969841	1.1902458996246625	0.052868096035012864
Si	5.096096421410961	-0.7881836834083754	-4.369314460587311	14	-0.8963639335421608	1.0045956404359222	1.2529219911244442
Si	-5.288343441196103	-2.1642077590264037	-2.557043512531859	14	-0.3935477784916578	0.5260360643072922	0.48378020548119055
Si	-1.6788090780909213	-1.608010571908074	-3.724954541833276	14	0.8609731830313866	1.2406411065627567	-0.0054103769251876025
Si	0.6677846864708046	5.5471076055318065	-2.120662257537365	14	0.7309331037015969	-0.321876160808274	1.0259417281353875
Si	1.0899835839959668	2.9652255319348257	-1.8476913025401347	14	0.100202144978939	-0.2517438638800628	3.7471458628789236
Si	-3.7968114494780085	-4.410394430863984	-0.8868115955008946	14	-0.3879206573879817	-0.4086604784529562	-0.7032132459134844
Si	-1.02040229502427	0.5377823344011027	-4.731590954255168	14	0.8348916335532724	-0.030544474092827168	0.9747404796794268
Si	-0.6191604128042203	-3.016267581029033	4.254797199370772	14	-0.09681265683538778	-0.5065123760587479	-1.360517606562001
Si	-0.5996505088368161	4.3562915691475785	5.374872480753704	14	-2.712528196951228	1.5674977554866896	-1.3012772831015331
Si	-2.9121610808866922	-2.5636782348123437	3.398997988362722	14	1.8430857929952738	1.2573023832583805	-0.4401004685287909
Si	-4.778186162369953	1.2390782545664738	-4.678386567651738	14	-0.804203434673049	-0.4611513933375034	-0.5154302548616815
Si	-5.451926994738019	-0.4561443756810061	3.004567413766745	14	-1.0615893320676448	-0.07491198171836644	-0.2362257006097771
Si	2.6677480851663917	-5.228061203053749	3.929477019496924	14	-1.3096500875765955	0.459165214477689	0.16893987438150185
Si	-3.500971026586614	-2.9080762953916097	-3.9523187223999576	14	-1.6904588105385154	0.9664468652482251	-0.7661657312351822
Si	4.041809731211334	1.360912146245656	3.1392798189317825	14	-0.4325213642660584	-1.371974451868581	-0.24759307145121576
Si	2.1488526083317305	0.4192335964724517	-1.6809025584221422	14	-0.5870944163396369	0.3211341398128793	-0.6783917951527749
Si	-3.0897948305401606	-4.891803837873872	-3.119334559903456	14	-1.393232093545033	-0.9168271036746873	0.8665465680338714
Si	-4.435869365525811	-3.194445524508654	4.857901673104192	14	-1.0060997370482088	-0.7907930635442205	0.8249106027004574
Si	3.8769923014635896	5.031240733929633	-3.717018196768605	14	0.9770860990629978	0.13947706429686096	1.2263660727147627
Si	-4.7712671265802955	2.8959030126804635	-3.1055031519220107	14	1.3613925537024474	0.7685517169722795	-0.5026063528563789
Si	-2.9904916738633536	2.696471523790458	-1.5615786219411345	14	-0.31299299192716235	-0.07927540455718976	-0.24980679313186324
Si	1.3589996936566044	0.8941770923479274	5.4562727711497265	14	-1.3144295152562187	0.018192112803239745	2.367002495187168
Si	-2.5711425750278	3.5086974683183394	1.801523675288755	14	1.0421887997639354	1.0470227348763457	-0.03899466883802584
Si	4.7347483890465005	-4.091713415669201	-1.4055771321770667	14	1.1305679740387053	1.0753146635981912	1.004382495804882
Si	-3.841307624263347	-3.3299686674146947	1.353772101126601	14	1.4613656131973611	0.29832072230720535	0.6274468858972329
Si	1.2562014798963215	-2.672671373393608	0.7006473299725684	14	0.783664159823046	-0.9051864243377169	-0.2548962961130964
Si	3.805687361842527	2.355859497401713	1.0961585180233344	14	-0.9448441812378089	-0.845267071962198	-0.27951128711659806
Si	4.790520482029656	-1.8067323876247898	4.763337445113496	14	0.9270768150334576	0.05082355308443111	-0.971535854008394
Si	-2.137145777471572	1.2611591967125388	1.4858101823459726	14	-1.113282947192414	-0.7134346751137333	0.15085703355436839
Si	-2.8157299348923983	1.1145467163490765	5.078392352466668	14	-0.5556760235484913	0.45837022871269917	0.0932380491087859
Si	-5.198511478293646	-4.969835679545972	3.1966822721941064	14	-0.14097961824595553	0.8619214066734571	0.3291811852438787
Si	5.463445023658492	-1.9743474178788185	1.11948444237168	14	-0.5566103632218331	1.4788861532909783	0.9172899026323139
Si	0.9260701823594231	3.1307071002704068	-4.8558070821733255	14	1.9816092343288918	-1.6208877859016926	-1.0454276211357258
Si	1.2321381173835564	-2.060572153133633	3.0056891194084074	14	0.39260803949714373	0.08103661170149118	1.3448132952665366
Si	-0.1951490166580752	-4.752643481129769	0.00259769257014619	14	0.3740508297384429	0.7128569477482959	0.36456216555443643
Si	2.889772502638904	4.200578835291266	5.507998949625382	14	0.1012493561758353	-0.3678053578052712	0.3770654507263165
Si	2.823122086130916	-2.953016710035033	4.719829704012394	14	-0.908661016067365	-0.4082719844390818	-0.5684680438478241
Si	0.03678417084900042	0.6590220552700976	1.6052796073805027	14	1.9857715967316796	0.7060190931493622	-0.42058526492780296
Si	-2.71152792318057	3.297983397632646	4.2259393781896355	14	1.3853660539285721	0.45952876876995785	-0.08671901156955045
Si	-2.9866934230767352	0.5069898486380102	-0.5739601178438185	14	-0.27205919545668084	-0.5945349380256133	-0.3367019254158439
Si	4.1455786090615305	1.0586735587982066	-0.8546286389819994	14	-0.3402976162060709	0.21712367363373694	1.040832284597025
Si	-1.9244248532269839	-3.0348834522820423	0.01725316548833735	14	0.10967024032038429	-1.0860683115997107	-0.27508384375530304
Si	-5.276405605609741	-0.4993589184757724	-0.617899882206907	14	1.4855409451911175	-0.4092181511968963	-1.4018308981777363
Si	-3.9971158696891482	4.507674074987218	-0.16017401263112185	14	1.4365814434637938	-1.5767719894869958	1.2265558202873896
Si	0.1817585167357782	-5.284865043107305	3.6147852782277345	14	0.5621829768927221	0.019987258537767137	0.450711420185042
Si	-4.765603068389724	4.251710842956734	4.316285548727824	14	0.362748250751072	-0.10313731881242004	2.1819477039905744
Si	-4.771831311200062	5.019021916633032	-4.240020671091253	14	-1.0352648131367765	-0.869489198072781	-0.4252721328159009
Si	0.5302635748030311	-0.6235117422141531	-0.3796051799320685	14	0.17752968014558457	-0.5850043648248885	0.6238002872216668
Si	-3.1547649097849457	-0.1309263709745165	3.1790503922267526	14	0.036819256626648554	-0.612187118711622	-0.3764231886173436
Si	2.7960201229888564	-4.277889897793624	-2.546112990823702	14	-1.3508245395050427	-1.0288239371992736	-1.2739245791531377
Si	4.067948804460997	3.3794914161942535	-1.7131088375335868	14	-8.882465683806553	7.015058262924806	4.097720958381223
H	4.254797199370772	3.5255774723258866	3.8018891110559085	1	-0.6541215893727051	1.3889869415509366	-2.2037599330845823
H	-0.5479309939590317	2.550278850092885	0.01355375807014284	1	0.7403811444215451	0.05706105459111035	-0.11133965900475644
H	0.8652004370047532	3.1338700880599646	-3.256640215240059	1	-0.1263145477208949	0.5447783936490437	-3.7534394144815817
H	-6.188978670480926	2.798714437728136	-2.246907451007321	1	9.991710967204206	-6.623535229872765	-6.301364934615865
H	-4.001276175960105	-4.900261054172146	1.9976777846257452	1	-0.23215512666691862	-0.09060189482403808	0.1628206437195494
H	2.652682800979118	3.557714894259328	-1.3329650167735916	1	-1.1182991736720227	0.50182807927597	1.1402098760997927
H	1.7182908954781368	-4.378286995120963	-4.68056778535493	1	0.08605978016546449	0.40385379705693936	0.28688084629573846
H	2.483876097305779	2.4462545343242903	-2.6516588281062345	1	-0.41332986282487716	-0.417026598054186	-0.271957379686003
