221
config_type=divacancy dft_energy=-22992.218081486553 dft_virial="-36.67297550862556 -21.86649611619974 2.362651159114847 -21.866496116199745 -47.21710449913471 0.1436747326488758 2.362651159114847 0.1436747326488758 -23.235397041159867" pbc="T T T" Lattice="16.3199774331 0.0 0.0 0.0 16.3199774331 0.0 0.0 0.0 16.3199774331" Properties=species:S:1:pos:R:3:Z:I:1:dft_force:R:3
Si	1.2899636562670902	1.0041355715037767	1.3023015592065137	14	0.5098391292324874	1.5961249563422826	0.6588783913255111
Si	2.6488302572567286	2.396735565847633	0.032933714459995794	14	0.9800649816869214	0.6008169196543311	-0.7970279939455797
Si	3.9588511657890986	3.991670640407063	1.5215767759976453	14	-0.9468383305241157	-0.5276234647319518	-0.3983524030034185
Si	2.7989903696186818	0.10053106098789599	2.7914179000897232	14	0.11728122628908665	-1.030582316127723	-0.15183559623921675
Si	4.070789891002732	1.3115223464562153	4.275034408577978	14	0.06287432371996514	2.407585335781449	-0.751629987307725
Si	0.25612572583507137	2.687263804111679	2.677292297900055	14	-1.2124499651694611	0.12364985416709344	0.6996262968813459
Si	1.2649288108847148	4.300232453734684	4.282084638829077	14	0.4219929450905841	-0.8724997052921425	-0.6919895998594421
Si	0.07213430025430201	0.0009465586911198	5.625577821076735	14	-1.5967913868412649	0.2502001722458459	-0.5826667158678098
Si	1.2165400777955733	1.494126573955171	6.867071144367519	14	1.156483173002606	0.26814468760675536	0.05790617690984302
Si	2.595676090757122	2.9037809447166167	5.559171832901452	14	1.058988916146847	-0.7426763701408413	-0.08618576432615174
Si	4.075245244841968	4.221586482484576	6.9168633955159065	14	-0.6546471233001434	0.4418814731840575	-0.6191956947038137
Si	2.6400174694428546	0.13108205874265919	8.153183285960397	14	-0.7776133205626095	0.08864296968061726	0.8313730759226498
Si	4.104833363928178	1.3336359158780657	9.496203188862495	14	-0.49420192378587885	0.9097923024082302	-0.2698251620440042
Si	-0.039788104981897804	2.75528547005284	8.257729061396835	14	-0.411053149063886	-0.8463523355178323	1.2397738727382708
Si	1.2164258379535418	4.1356781212767375	9.648142178764656	14	0.8378005821124879	-0.22919038512225587	-0.03902475077027157
Si	0.009465586911198	-0.0657858290328261	10.877183359273983	14	3.0884003976984635	-0.7604367943608282	1.4629255027950951
Si	1.5365748352586643	1.290893894980777	12.263549122238397	14	-0.9161892124447586	-0.9466382985302082	0.7903639460662878
Si	2.763641298498587	2.7028167426054237	10.92196537735041	14	-0.6501692862745735	0.10570482458511991	-0.9167947077476534
Si	3.928577607650698	3.9878191257328512	12.387531990797656	14	1.0941701215740292	1.063870673818212	0.009856332244787661
Si	2.9787222810894116	-0.2390387094626157	13.601428232249068	14	-2.0321772195445003	0.5893793576376525	-0.01789129348078242
Si	4.269485616250724	1.2134392820832844	14.767082620408235	14	-0.4308200638757164	0.06127458198976901	2.292962118172332
Si	-0.0702738228269286	2.3491628316301463	13.782335182094982	14	0.6695147969244317	0.7974226586122223	-0.7936356775861764
Si	1.2560344231836753	3.873873043294947	15.11745621591946	14	-0.12965415642123526	-0.009557055585522424	-0.43988552412402654
Si	-0.1420327636002693	5.334935342970658	0.0534805660482687	14	1.228400331244064	0.03112348701092451	0.24848884454475537
Si	1.3965983888149656	6.761007611029801	1.3126973848313985	14	0.24138462343465422	-0.21148446833505616	0.1401566074329761
Si	2.7826377522307153	8.258414500449026	0.071481501156978	14	-1.4585543666403111	-0.6168729581575918	-0.852194143915741
Si	4.008643416937487	9.631854841286424	1.3643011534748608	14	1.5257697445828144	-0.432062936187476	0.9627706988614774
Si	2.7750000027920247	5.506229826108475	2.9285383504826292	14	-1.635408103197229	-1.2735306858180913	-2.0559481166713973
Si	3.9826783328414246	7.031494917006001	3.8663821736531543	14	1.8412322831699792	0.5731405135461292	2.205580275651247
Si	0.12974382059314502	8.204264815325999	2.6351214762129245	14	-0.9536967539656107	0.18643701741670557	-0.7732077315965358
Si	1.2075640902073683	9.734311659611425	3.966521555182656	14	1.0312875703170394	-0.11888431045619895	1.042617145910272
Si	-0.1409882850445509	5.4686938780123455	5.72672904120709	14	0.49359771403564406	0.6260340635238115	-0.37390633361945064
Si	1.3910169565328454	6.867430183871047	7.015729818805626	14	-0.9514799469585791	-0.5571006730063854	-0.32311929023056557
Si	2.448176134716764	8.064973807934491	5.377236724477253	14	0.4090170907608608	1.085657963190615	-1.3001606520609927
Si	3.946594862736841	9.287095318012184	6.619937726098085	14	0.44352595214682417	1.1232426378710714	1.2214112956523053
Si	2.6489608170761936	5.557082875790014	8.415771722858977	14	1.185396537880331	-0.8556839051667778	-0.20673280859289048
Si	4.098974492029695	6.776446309681514	9.886054809784389	14	-0.8854220806312066	-1.7523936523744985	1.0843091613396652
Si	0.18317542670911438	8.26649288927841	8.441785766887339	14	-2.524004984677754	-1.182547238964543	-1.3595169323713994
Si	1.4961176112020096	9.56861492873316	9.596032490820768	14	0.44596464554298465	1.2741966020960096	0.928905128026615
Si	-0.19659044815912258	5.560265271389469	10.829741184875962	14	0.6267506305765368	-1.8207835112272452	1.480234183810332
Si	1.2596084982415243	6.666155902188625	12.294867158932515	14	0.3483120085995045	1.2429481593665257	0.24915656059639782
Si	2.6912295586279225	8.250009712070979	11.02329611723253	14	0.06554827325291916	-1.4734528935284414	0.4065621994011833
Si	4.220215604380195	9.341310283044944	12.330183590097743	14	-0.033037932032306774	1.3717237690998665	0.07143687576765431
Si	2.609760231281887	5.350814681013064	13.759829933214737	14	-0.7871845172273928	-0.4584082810714374	-0.4485722605586789
Si	3.953155493664947	6.6351642650431675	15.10645655112955	14	0.8260909971529374	1.675274376738785	-0.5693622742781715
Si	-0.0406041038535528	8.191959552341444	13.649066246376288	14	1.2522959269789882	-1.71703169824331	1.7896901061485666
Si	1.1557318418798428	9.720798718296818	15.153735525753241	14	1.2919207737309824	-1.5122655281098007	-0.9230280954858205
Si	-0.1801888708388571	11.081199397165168	0.1028484977833962	14	-0.44504778938581985	-0.04863425690432501	0.29585940318422754
Si	1.2388821269014871	12.321191282532105	1.5675664724041212	14	-1.2144268880501232	1.4766006977718986	-1.1890094550762031
Si	2.5748681195299192	13.594524881794868	0.0327868346630979	14	0.08135671431384961	-0.44432068080128206	-0.2518045419656183
Si	3.9954895151264083	14.893333965830697	1.3875734412944614	14	1.0306604777294555	0.5404990459541893	0.05127555339971314
Si	2.720736077826967	11.096817615568645	2.6433793847940734	14	0.7123679235164039	-0.9975171303790223	1.3387172045524653
Si	4.149909141598401	12.571458136468694	3.855888428163671	14	-1.2201738226617183	-1.0058840213118485	1.195235900830006
Si	-0.10614513322488241	14.056461843038761	2.7634944187016894	14	0.7722613077281892	-0.9653502888291821	0.334378160427494
Si	1.4812501117604553	15.22001095410906	4.272227372459485	14	-0.47626794995678196	-1.283562367445713	-0.9243573569363369
Si	-0.0351858713457636	11.032435304595065	5.554014720032592	14	-1.0571978841808318	-1.6141882567689827	-0.8191842369314237
Si	1.3628160355284487	12.206951440500406	6.811077301794553	14	0.7019408058905432	0.9356987596140421	0.09401657979972675
Si	2.6697851082808293	13.6154960527964	5.443234713216709	14	1.0796834857581867	0.6534955252272491	0.16346187738639434
Si	4.018125323826118	15.142180981730606	6.964909409078953	14	0.1250588198825346	-0.4227097692538413	-2.162981174264906
Si	2.676623178825298	10.77655437842149	8.03037545577632	14	1.300929155441185	0.025388379483802206	0.4351598325455944
Si	4.058011348672615	12.229734128997015	9.500168943378739	14	0.5518126806944369	-1.8900740282736401	-0.19089068605226606
Si	0.0632235925758294	13.622595242979799	8.103603194518639	14	0.8954532480377643	-0.8770346208558195	1.74300166175053
Si	1.5032820812951404	14.895814602400527	9.630810362730704	14	-1.192840144892692	0.9061765569965059	-1.5686907483552384
Si	0.13235501698244098	10.988093925909332	10.855706268972025	14	-0.29419049872091946	-0.6305296411760903	0.6914774356796686
Si	1.2894740569440972	12.406789564168715	12.29946939256865	14	0.7540990197466633	-1.274773815240383	0.12540746176394665
Si	2.7377251743348245	13.449913561760168	10.81709320236531	14	0.4188227722308415	0.8162891723409369	1.851186317416932
Si	4.250750282157525	14.736972262044166	12.27440190723141	14	0.23341059739474693	-0.43976776750036384	-1.575681326610189
Si	2.636508674294738	10.720625815758256	13.547931346223367	14	0.036515094867275034	0.9932712070533298	0.2918610773008653
Si	3.976950020762407	12.09932118932911	14.983844560674669	14	0.0062799247444616825	0.08379463637841403	0.10730302365212395
Si	-0.2039181180265845	13.710494641434476	13.495560538640548	14	1.5467949583383254	1.2727243871896927	0.25242520678990205
Si	1.1700281421112384	15.065689247501666	15.081846025160436	14	0.46150826275593987	-0.6011043692291237	-1.0672794452516643
Si	5.592301387090645	-0.094982268660642	0.0739131777945099	14	-0.6244034685297737	-0.2705980363032407	-1.44783491433955
Si	6.7881640534784795	1.5766566998343579	1.1311376358881609	14	0.9108870790535493	-1.8870750910282192	0.9944832261012476
Si	8.280413830028845	2.8736216264202477	9.79198645986e-05	14	0.3331879957747975	-0.8414728918412555	-0.23125086892582256
Si	9.553992228953103	4.057325909620424	1.4582715835346505	14	1.0696209508667234	-0.11029836135009648	-0.0476893756991706
Si	8.2788634321727	-0.0716120609764428	2.554582387580576	14	-0.7483196892080343	0.8258822234009414	-1.115524436810519
Si	9.407487791536163	1.3905110372324194	3.9400015918538682	14	0.22661465181253151	-0.3912972900049322	0.7933279162793546
Si	5.488326810864365	2.704285540574402	2.5962636099447134	14	-0.7612549200736993	-0.4166044225606177	1.9424551569610171
Si	6.77252951509757	4.0883828266756135	3.98581176850858	14	0.3847371147805744	0.02397401444718875	-0.09192292873753016
Si	5.548041608292077	0.15402794701359782	5.562582708184969	14	-0.5277869870303131	-1.29177756316465	0.026351772647261688
Si	6.950254069344029	1.4195932370182036	6.8928893486666825	14	-1.8597730378546309	-0.207575616916835	1.175634308090261
Si	8.04090184122067	2.6085199129969716	5.418281467721499	14	1.6892635036751786	2.2410926394436643	-0.9538139963682095
Si	9.483685766171307	4.178518062038625	6.784785818149829	14	0.07617053777257893	-1.1477265025032455	-0.47967106495853
Si	8.1483525726402	-0.0346146721356051	8.234619973351567	14	-0.12680871416342737	-0.14636454122847364	0.4453565791347696
Si	9.543057844072926	1.1401299434537993	9.59205041632709	14	1.2178354023730433	1.577573660125818	1.027615260588272
Si	5.379227761724091	2.7875663854155115	8.145839296115502	14	1.2236155042432684	-0.03479836784501216	0.5621554660657966
Si	6.877646489744167	4.208563140492962	9.465978590656395	14	-0.15504947788940182	-0.8232203580629922	0.8065572815936444
Si	5.442173914683558	-0.0366220293598764	10.713689825349189	14	0.5434375622245865	-0.849818699710456	1.5223018377269988
Si	6.690652188315708	1.4133590056387593	12.130247546564837	14	-0.8713265099345586	0.3910473785678138	0.23822576343832028
Si	8.229936139828267	2.6495156963089186	11.03372458281228	14	0.15006487600523075	1.017042875511823	-1.8362913900762505
Si	9.39183693317782	4.227837033841452	12.39913549475259	14	0.6547198855807036	-1.9171271984522384	-0.3124394329517345
Si	8.185627401097399	0.2318415994146186	13.382936374374726	14	-0.04263869640827171	-0.7339600659950073	1.1406796170417839
Si	9.517925078825952	1.4058681359969665	14.958107956262673	14	-0.1418077712695752	0.03668221671308466	-0.2654951635743428
Si	5.432381928223698	2.8119484317005634	13.657373114889735	14	1.218138792800821	-0.1349007539375294	0.22850364289124434
Si	6.849478208694637	4.2144383323688785	15.231614458063994	14	-0.9822936157784258	-0.7128384357899908	-2.070032374504636
Si	5.2527968965498655	5.2876726883244	0.10529649439836121	14	-0.3589628123882179	0.28607583322000013	0.24357160561997215
Si	6.666547581647019	6.669011898239416	1.2720280010681133	14	-0.32192424047776075	1.5076989879506857	0.6401118935937503
Si	8.03458600995406	8.171102621181943	0.10702641200626979	14	-0.1432313922853412	1.214581925700928	0.3713802226424051
Si	9.576872837314308	9.560324380197146	1.4207193154610875	14	-0.43422472154065656	-1.3184095862918077	-0.1881012938904374
Si	8.147797693407474	5.515940212681169	2.5266752261699748	14	0.3907810120566464	-0.30738901077136765	2.2083472991967903
Si	9.39009069559248	6.863056429918976	4.196584277057066	14	0.2493283104317837	-0.2867566619087753	-0.7102231074583363
Si	5.702265395034872	8.285668862762302	2.79655869298115	14	-1.9480941051491658	-0.5035424923034448	-1.2434351267141617
Si	6.708832643176181	9.951546879223418	3.9329024016704697	14	0.7505136133777168	0.37943343872617286	1.5600477207110286
Si	5.457286213786608	5.4904647279081	5.3296313503049	14	-1.485671814451913	-0.07663745049871781	-0.3222281451266022
Si	6.627526515604477	6.903595253862796	6.662418627356445	14	0.26793539963369534	1.1318751239834686	0.5536456216771705
Si	8.049535109282779	8.44553936169695	5.375865846372872	14	-0.2906518864687997	-0.313507212991192	0.18447680672062466
Si	9.664804875723853	9.521776593500164	6.764402166335887	14	-1.3057633476641275	2.3281209549832287	-1.6659376648791993
Si	8.06996772102902	5.640608520292621	7.945609492988798	14	-0.3537157006508597	-1.214304760547416	0.19205256854644098
Si	9.455240045505416	6.7611055308944	9.318168555044808	14	1.0617094026860956	0.2489909814137803	1.0733012310219832
Si	5.151286636915984	7.901006994664136	8.36531035263583	14	1.7754173862953606	2.161851687697765	-2.989411557320103
Si	6.667787899931934	9.572221643745875	9.259253436511317	14	0.302585928922799	-0.9663905580417138	-0.42581592159111226
Si	5.627046619045715	5.3172608074106105	11.26005002985451	14	-0.7275042776466476	0.8174816509884217	-1.0708928766686003
Si	6.90919300612235	7.07097294241667	12.350501962001953	14	0.9678658582744148	-1.9993560316906822	-1.1076229159406399
Si	8.096406084470642	8.234309893780337	10.545202378329863	14	0.060307075057797296	0.16929083025770206	1.5096450575675058
Si	8.12935611890807	5.476609067067399	13.784685258845348	14	0.038152888956209365	2.124421022225985	0.4768045396370968
Si	9.50612573514182	6.911151403414322	15.335327914651344	14	0.6886386782956931	-0.7684054210795632	-2.737341934395977
Si	5.587176914176651	8.11634909689389	13.78901005286512	14	-2.4525030599455	-0.9077657571948895	-0.1348159074619645
Si	6.712994237421621	9.588835380772771	14.965272426355803	14	1.7639160608667424	-0.1284189974254361	0.618593541837835
Si	5.504646788297465	10.826183429795547	0.031171156897221	14	-1.6657633439384931	0.9100524982666292	0.024931494068411893
Si	6.900233338511578	12.303418827107459	1.0233931448748348	14	0.807852347343403	0.8090006029793813	1.4077693801356823
Si	8.446828639914166	13.488967267757577	-0.3859511463153819	14	-2.313680599063149	0.6733506289515607	0.4033490890825943
Si	9.530262981765375	14.728159474230292	1.1852873210111867	14	0.8633869367059416	1.8011644349713234	0.20886888289286948
Si	8.3440943819728	11.050925839026768	2.537413771320955	14	-1.7391046374167813	0.9243545287204848	0.7988663342494856
Si	9.350286270633148	12.589736511193765	4.022172678229527	14	0.7701568580236481	-0.8983603968232557	0.19814917348157612
Si	5.688948293449463	13.730976213113015	2.67368558288734	14	-0.5411564775845511	-0.46600101219236667	-1.763654322345151
Si	6.801285315334693	15.200231141460142	3.961674521885025	14	0.06905140425162092	0.35088619924603676	1.031717459126568
Si	5.067336673000117	11.25520299655688	5.563333427146892	14	0.7785854554841576	-2.031061359835556	-1.2491108417083887
Si	6.564710922464475	12.542147456998846	6.709403842386339	14	0.6005001594788889	-0.7562713466316563	1.715084857294894
Si	7.992251988492598	13.847305012256154	5.449093585115192	14	0.07911625313787259	0.08176680561241324	-0.44631174476120467
Si	9.414897061290791	15.093302649318472	6.802133954161214	14	1.3166370662840978	-0.24823533356018873	-1.5487903931772924
Si	8.214122081695592	10.898072930388352	8.059767735133333	14	-1.3400027572125395	0.3575011390137138	-0.8607358700103368
Si	9.39772844503117	12.283149415135549	9.471135703525254	14	0.24353766702974622	-0.2675960137314358	1.2343002466222077
Si	5.202515046078484	13.817847452989406	8.337762230728758	14	2.0066037204776475	-0.8291881506215879	-0.28000365378540637
Si	6.951788147222741	14.81406783543813	9.614947344665731	14	-1.4121333171955697	0.43419592516107086	-0.12180277210509906
Si	5.651085945804671	10.774155341738824	10.862544339516495	14	-1.0938705878042319	0.6252285362270091	0.9122412802256712
Si	7.513130091011648	11.6339243928694	12.497153279215791	14	-3.482870688778991	0.21592605277561194	0.15231819270780855
Si	8.175394775246845	13.528592172965142	11.155161534891977	14	21.53065423776169	36.20860445781305	-15.194330241218307
Si	9.667856711503841	15.09103417245527	12.355756994735412	14	-1.5691643459552096	-1.947632334633667	0.8321030127230397
Si	9.36856464535822	9.631952761151021	12.134017461351883	14	2.0491945943269645	-1.573354733405987	-2.373778129037354
Si	9.69564963307241	12.009920352950589	14.788935070191158	14	-0.09638508202064716	-0.09790434815432265	0.626719005981099
Si	5.62970677536731	13.301010087660563	13.637315862624455	14	0.3025121382001107	-0.6680968323403701	-1.436396838101807
Si	6.926492182201436	14.976059931439082	14.669929794748992	14	0.5053065276635983	0.17035526786024335	1.4600522925998296
Si	10.914409227798886	0.043084740423384	-0.0698005434813687	14	-0.12027682109759115	-1.553996367229528	-0.379782080607585
Si	12.383876315852643	1.1525657662578215	1.286993420374266	14	-0.4620006294247483	1.0381243964738454	0.6943177357268362
Si	13.736084366049576	2.585247625177371	0.0213302105050617	14	0.45603977885051694	-0.08831952463134263	0.2549266351558741
Si	14.946928771720998	4.053963994269205	1.5312708425929067	14	0.19129177848220918	-1.0902913520880537	-0.7986303067810959
Si	13.905387811940555	-0.36413133648732715	2.2518631261740043	14	-0.130744047966446	0.2394748064028482	1.2840076828871623
Si	15.084669381256361	1.1791020495640419	3.9336857605872586	14	-0.07461836149080553	0.2594067861762322	0.208947301605134
Si	10.934352240222134	2.5989237662663087	2.8027113244734285	14	0.7123751226113001	0.6853162960009977	-1.4654135614134025
Si	12.315054971017261	4.151280019702781	3.8890506223077304	14	0.08756002011977089	-0.802988073188215	1.502826229147941
Si	10.95028053819684	0.1451825192448576	5.181299075415454	14	-1.5114083215960632	-0.4043698178946931	1.7402120124781686
Si	12.173642366559449	1.2673441675448136	6.787870293884684	14	0.9219968251419091	0.5476351487702602	0.5080131302341182
Si	13.579135143075455	2.5022278999751912	5.333009585633552	14	0.43343719198109515	1.0931761322572597	-0.1415681442537374
Si	14.907989305565621	3.950674857095116	6.923929945744439	14	-1.5183251091283256	0.20106043603557977	-0.9798469519557728
Si	13.730715093474085	-0.0828238854729825	8.26796168724739	14	-1.9686765745685466	-0.788230957092693	-2.143230714527124
Si	15.023697945566301	1.012817799498186	9.603719200191758	14	0.03421961203744683	3.8009835227301645	-1.4737048618498159
Si	10.882471031962309	2.7591859446593507	8.177092052899889	14	-1.710169418143835	-1.6667869009664442	-0.9054347931116432
Si	12.079068097334634	3.9839839310360725	9.55998166067105	14	1.673697260735406	1.1948103828995214	0.03862520100352056
Si	11.109204478440367	-0.2235347309011707	11.062398783162237	14	-0.49931405249392924	1.6765185346032045	-1.5946506845517097
Si	12.364520822616987	1.223851427685602	12.314353211987637	14	-0.06567580007679852	1.4732801152509274	-0.2540018085722169
Si	13.628796834404378	2.53707105179486	10.625121307819756	14	-0.8835032647307801	-0.21382365995532687	1.2638648724775265
Si	14.878156386817915	3.7903310788149085	12.093217517769132	14	0.6334424463932862	0.9206696205756486	1.1236128770371727
Si	13.718981029699687	-0.1098824080570623	13.61960868710954	14	0.5531889933723121	0.3362465826636456	0.8386441617680285
Si	15.245731238543625	0.8058641656690448	15.326923126273298	14	-1.358313140860506	1.103407331657725	-1.1961365590236537
Si	10.866167374506642	2.6461864209125667	13.529538731656263	14	0.6832424424497664	1.1597723880386714	0.6992920531897268
Si	12.32494487734172	4.043633448554053	15.131426116602194	14	-0.03798885243678391	-0.2865759132047689	-1.6525524905825084
Si	10.951830936052984	5.436690402266036	0.13473773368767358	14	-1.169141495825291	-1.2932148110386128	-0.7294966271592302
Si	11.913599846140434	6.891795910178665	1.4336936975204018	14	3.0809264516433257	0.5153436086123925	0.37645429899171734
Si	13.355127132828724	8.046369033660758	-0.1701357647400675	14	0.20768977399304958	-0.03340354320883183	0.16114865392985714
Si	14.764455104041506	9.349045952348233	1.2279640619987433	14	0.6011848448256443	0.9329286507421145	0.5355758934871697
Si	13.649637445586446	5.588449872416433	2.6378795523991183	14	-0.46858034504953916	0.3733566313020029	0.1807548746591783
Si	15.192332272382522	6.8015464349736225	3.9970235930051197	14	-1.064425775456832	-0.02794148706670925	0.5545987304193493
Si	10.86420897721467	8.263245213769224	2.8922916806037144	14	-0.9668546425520005	0.0066128828834208595	0.38451831371782974
Si	12.180480437103917	9.709293134206483	4.1377344384333075	14	0.5654058574115277	0.26938498881319484	0.03353312691696729
Si	10.968036673644052	5.394372700782008	5.41170451681596	14	-0.3589342731191643	1.0787987684175238	-0.0904805386529271
Si	12.294410199564387	7.118578316589023	6.637824421364763	14	-0.00881400614799963	-2.253853806479156	-0.062008889669203315
Si	13.729817494715265	8.242257722790256	5.189997623387296	14	0.05496226131827347	0.2847476002116116	0.7775909519463242
Si	14.95747147714278	9.390890374486702	6.903432054088466	14	0.2654563398840086	1.102310755238682	-0.36140099156331434
Si	13.445800927447026	5.475026029256388	8.049584069215078	14	0.18216821125366373	0.4805850928998426	1.0361194485451937
Si	14.841273237819108	6.961792293389231	9.683017970539192	14	-1.0593105614223974	0.30824955972202117	-1.2303430584239679
Si	10.853568351928288	8.218675355399428	8.065561327122083	14	0.29388273741409776	-1.352217564367499	0.730568263856668
Si	12.122103877825719	9.380869908342778	9.531911299486119	14	1.1150454398893752	1.0016792356712783	1.2723415496075228
Si	10.743294264412832	5.336763180443165	10.922471296650837	14	-0.27098524476445496	0.8748270698279405	-0.8622062851429296
Si	12.013592347873036	6.720256627379351	12.299012433200522	14	0.43269028588559216	0.4205608394272615	0.693307034225486
Si	13.445441887943499	8.201082419726546	11.24240813424933	14	0.973080574084739	0.7710264058429221	-1.2976705365584293
Si	15.238240368901833	9.704462420886284	12.502130872332886	14	-2.2364875327047473	0.4948315874787831	-2.1770263512972785
Si	13.634933145919222	5.373940089035767	13.492753502522056	14	-1.274832950662746	-1.4422201345414105	-0.2577831331665586
Si	14.937185745193437	6.560304528557538	14.881812061762929	14	-0.25871747283990043	2.1415579534058358	0.35584329030328227
Si	10.703734639114998	8.32418400950442	13.606944384621455	14	0.09030030416998472	-0.5511459930849225	1.045828713565669
Si	12.168827973216684	9.783320551843024	14.93214287216661	14	-0.07111188805518759	-2.084263185341124	0.21732884783828474
Si	10.840545009936676	10.930680245299685	0.1171447980147918	14	1.3184404395556495	0.3257554445153134	0.1964494157544262
Si	12.22487077572195	12.357715392027384	1.5236494131316491	14	0.9722879023145374	-1.5083872728448893	-1.0212731150950627
Si	13.686846994133912	13.802816753773522	0.3494923167298365	14	0.3888863645462293	0.22396152823267074	-0.0798407906170903
Si	15.83875025853018	15.37767825609024	0.687723849030834	14	-7.982530742085239	-9.268051006232245	1.8920715199968632
Si	13.618058289253398	10.91705306414305	2.7444653250146946	14	0.11654589016752429	-0.5779181414520285	-0.5971050149036334
Si	14.902130433667137	12.291129884100336	4.1430384310990656	14	0.42525619196291603	0.5489736661999294	-0.8154157678636827
Si	10.960692683799158	13.700816894816647	2.719430479632319	14	-1.582990464814306	0.44234992857338845	0.46835665888668626
Si	12.239819875050669	15.053889903817536	4.001789026415585	14	1.3430451461378707	0.2042804883385332	-0.9201114336106445
Si	10.909725394275586	11.312143397820964	5.3395702165616585	14	-0.9896240941566998	-1.9146147143333891	0.3976088393448317
Si	12.195201056748575	12.312460094605397	6.941114881981494	14	1.0504942412796097	0.17710416221510006	-1.3014060954780726
Si	13.52288018086356	13.686895954066214	5.313441932691265	14	0.11934556675063353	-0.25114736744578847	1.9907034909567876
Si	15.009026285853944	14.840783638496116	6.895141505552451	14	-1.1577864662893889	1.039699969814032	-1.7552902596281772
Si	13.488559268321747	10.824681991871703	8.197769464307626	14	0.7325022492784834	-0.5893155942257128	0.06975460155668141
Si	15.068741083281656	12.124192834937157	9.435068553398104	14	-1.1524827902349877	0.7205517517504352	0.20451368759107064
Si	10.633444496310636	13.509677319120179	8.01041612337564	14	0.7408711970955654	2.1123787362380075	1.1337805701362305
Si	12.199150491287384	14.991988229413787	9.474416018989306	14	0.40231344785963863	-2.6055707298541324	-0.3809038538587656
Si	10.930614965389953	10.9995668700448	10.794734833281963	14	-1.293582221988862	-0.8527685288442619	-0.045327558352082575
Si	12.183630192748504	12.154613272872455	12.3168501685349	14	0.5343541042390353	0.4175757861505697	0.4061240830546301
Si	13.583427297140359	13.375445504732934	10.972638907280187	14	0.18562300547234667	0.9848364389400522	-1.9066982810526534
Si	14.871269356341147	15.010282924116293	12.02566913117353	14	-0.4145814768947252	-0.9809335010640675	0.8182928347169284
Si	13.679780443905383	10.94564566460584	13.726635099115812	14	0.27164473327907296	1.171329506452737	-0.20577018676102704
Si	14.910404662225721	12.627337739199628	15.004717811811604	14	-0.8516079319027471	-2.005122249592178	1.1222730740548437
Si	10.904078682083734	13.586560732807515	13.738059083318982	14	1.4553829082279086	0.6980522662043513	-0.636267834029597
Si	12.509246382493718	14.82932701433808	15.016615075360335	14	-1.8951912991923308	0.789151669907838	-0.15554801521097855
H	7.750148387268046	12.786000559804226	11.443091632748674	1	-20.286658610087738	-33.84407150928589	13.32399638826117
H	8.644989069902353	12.193569059005265	13.445941279252953	1	-0.32803241538683653	0.30474668583385145	-0.5976696296319379
H	0.26562884869436554	-0.038665290534500525	0.49001874641303067	1	7.634593857751943	8.924938286811143	-0.9424430259793227
H	10.569806376308007	13.029111103636401	15.81239675897121	1	0.07895015973419103	-0.361655530990009	-0.0834171981174163
H	8.454799316892492	10.500585192025513	12.886667076604818	1	0.625384088098878	-1.0674933612143007	0.7075147051140923
H	4.814000031308362	14.226702055634403	14.456048330499499	1	-0.8473018447125632	0.8833258584636898	1.1464064970318817
H	7.684052478663991	10.487852345632207	14.045710241905836	1	-0.9096454922944498	-0.3031646847303643	0.9336393042526036
