224
config_type=interstitial dft_energy=-23326.39179830619 dft_virial="-68.18563353627898 -6.848495589596414 -23.582610978394648 -6.848495589596413 -40.06529558505735 -19.64352872493797 -23.582610978394648 -19.64352872493797 -57.56966717944539" pbc="T T T" Lattice="16.3199774331 0.0 0.0 0.0 16.3199774331 0.0 0.0 0.0 16.3199774331" Properties=species:S:1:pos:R:3:Z:I:1:dft_force:R:3
Si	-3.2167328319737423	-0.3342820977621873	0.5499669195180369	14	37.77206583505765	3.8009639823297308	25.36905737021076
Si	0.1977165266020065	0.09974770207110721	-0.1067489723899071	14	-0.6259420179533501	-0.6827472475651059	0.6480391255168307
Si	1.405819176064667	1.3619347567470612	1.3167936991671065	14	0.5829629072006909	1.0300917492326385	0.29351686912704067
Si	2.7859343876722016	2.7522989141825827	-0.0847822827649545	14	0.035546045272111214	0.4889553262695847	0.29357934698632027
Si	4.078672440102919	4.267706738710516	1.3202208944280576	14	0.19328849887383617	-1.267278271900555	-0.1482406767805857
Si	2.8205816997626734	-0.0459896964064758	2.4651978711794875	14	-0.01908840011784337	0.05048211029791544	1.2950721775218876
Si	4.073809086827855	1.2663486489213944	4.033286582861468	14	-0.1606051222651778	0.49425617410813394	-0.9433015180457202
Si	0.0983441840118606	2.7839270304479307	2.700890985268318	14	-0.07639139571957965	0.051845567449189965	-0.4831641686464831
Si	1.3510330118217504	4.070855170912464	4.239440537796387	14	0.37770822705635354	-0.6750863821531926	-0.17421089739833742
Si	0.1872391010899563	0.0295881190862103	5.365094661267026	14	-1.0011393035540472	-1.0778903969079154	0.3437575526353942
Si	1.2765812747719483	1.26432497171969	6.9237341060152415	14	0.11749848468863915	0.6425356745790539	0.5426582602020497
Si	2.6542158498096518	2.42772720299309	5.521227885369494	14	0.43586174429799485	1.5982453468998086	-0.6511023403952552
Si	3.970797389270128	3.9735391454788886	6.807144187233176	14	-0.4957808395629818	0.16440855836527288	-0.08425897799923276
Si	2.7583046658779633	0.07180790070564	8.317607058598881	14	0.1023605878952033	-0.9374797642693088	-1.2385667387904615
Si	4.15012130130503	1.3705680248091712	9.576220038216986	14	0.15910693919512753	-0.3739513279625532	-0.06195541067854423
Si	-0.18738598088685418	2.754175711587389	8.08917633446778	14	0.595483418778216	-0.0774550619905249	0.609757938405146
Si	1.273921118450353	4.029271868412925	9.5774603565019	14	0.7116048194573839	-1.0437255494137878	-0.9914372376284686
Si	0.13516205310093418	-0.0472952946011238	10.801377064097236	14	-0.6787954586880383	-0.19065080192589623	-1.5553238289063205
Si	1.4811195519409905	1.1665030269856886	12.079035457379767	14	1.0037926842444398	1.2106787307144111	1.7133308492454886
Si	2.8558818109504687	2.6793486150566252	10.894988454653497	14	-1.5902270978483948	0.5628679193500096	-0.9567041758585879
Si	4.010422294477695	4.033808822139327	12.241043873358151	14	0.5362173842645466	0.8145107387909907	0.9631157411954413
Si	3.0178249470191196	0.0859736411175708	13.617536049975538	14	-1.8047722099565553	-0.7941900078932003	-0.8679755883708098
Si	4.286050393345321	1.3849459249277323	14.946635012127203	14	-0.6153943154879747	0.26214321356846576	1.11161841360815
Si	0.2120128268334021	2.633897477905442	13.501598930290795	14	0.36178588602974054	1.278637415204969	-0.5377659609988719
Si	1.4026204604877794	4.236486621880996	14.891440848448458	14	0.5697625953765186	-0.7004395374941088	0.03898129909036107
Si	0.0373074684120666	5.601897533821307	-0.0366709892921757	14	-0.06264806645179212	-0.7466171032650323	-0.32849470012339915
Si	1.2137656816319462	6.847258691763735	1.468455249452905	14	0.4750127363394857	-0.45277936019403714	0.07471297816658698
Si	2.540987846378804	8.145137537085878	0.14217964339716718	14	1.062467621645007	0.6396766054630493	-0.8018213055939316
Si	4.008333337366258	9.548900395993975	1.4071574142141812	14	0.7039061587972645	-1.1118127891703533	-0.6682724388337361
Si	2.577838355422744	5.415376511738407	2.7114336906901	14	-0.03444355531083173	-0.47444452206373294	-0.06872101721798188
Si	3.8678509716221328	6.754071620620735	4.020752840192847	14	1.3446659709316922	0.43535883609737386	0.6979954447767761
Si	-0.0865938002600286	8.120592291026496	2.8379787957063574	14	-0.3570424538245993	1.0116535816502605	-0.7125291318199771
Si	1.353089328978321	9.503188139203862	4.056281431064706	14	0.1788113761476784	0.5493570180031635	-0.2550575044166697
Si	-0.0436885795884087	5.440949916376075	5.520444526452705	14	-0.6113594799090664	-0.08304901583557109	-0.02141525043257738
Si	1.227278622946553	6.84017582155777	6.891273670900806	14	0.6939888913563893	0.4252227675937541	-1.2085071751610141
Si	2.7026698628085257	8.215084960364146	5.417612348646742	14	-0.9354881860883221	-1.1603496011830445	0.2906192334312338
Si	4.125657655132814	9.3536645059618	6.755540418589713	14	0.1513293456016796	0.6759633861778952	0.985007674554374
Si	2.514843242530978	5.410480518508478	8.111387823754228	14	0.9786413606711555	-1.067046760220191	0.29101338387681247
Si	4.0576033492367864	6.523323459694134	9.475329937725562	14	-0.2503292417329174	0.7246881459894894	0.18505401986499792
Si	-0.0196982127617517	8.18468084240628	8.237573889266958	14	-0.27690675742728804	1.2030160655287738	-0.2845480824387681
Si	1.2766302347042475	9.60340912062053	9.636408114990257	14	0.8271155826230165	-0.8071944014919772	-0.2660494938813667
Si	0.2346975954654111	5.544271693505031	10.85541250937823	14	-2.095116335118533	-0.60229067722384	0.4924466301838138
Si	1.3800172917429359	6.830987674262935	12.261704964788455	14	1.1592437687848491	0.7627533602542816	0.5584939549793736
Si	2.8436091879207774	8.051444546642452	10.87963135588895	14	-0.9007540958763135	0.3895947040619301	-0.7298635238884154
Si	4.069027333439957	9.44763493602159	12.229962608681076	14	0.08479248235316349	0.17449320476248967	0.25728202473966183
Si	2.884066411977432	5.599906496574469	13.611481338347858	14	-1.3996498295346547	-1.3371359747805744	-0.7631901910481749
Si	4.047223843589335	6.979727948588208	14.931685912798482	14	0.05874410013367928	0.4892790284293913	1.566736451201394
Si	0.019339173258223503	8.176667733486628	13.603598789247672	14	-1.0608390835352255	0.762013139032611	-0.12878615126515325
Si	1.2418360428168782	9.569104528056153	15.066619486215354	14	0.6718115653069199	-0.8042846816011655	-0.37096858868064936
Si	0.0318565959494112	10.942414309074085	0.0894171563559549	14	-0.41501805057808633	0.20125584003991104	0.5050959541378783
Si	1.4673944509197534	12.39033902691615	1.3079482713983666	14	0.7884153053441476	-1.0061935823923944	-0.3637774642107272
Si	2.848962140518834	13.548388305591494	-0.28360856783241184	14	-0.9887776862853073	0.3374282626687857	1.30372574669791
Si	4.120239422625025	14.900008836600836	1.1508032086950464	14	0.6672578806744057	-0.13203679972141646	0.19741666557586593
Si	2.7994962889191077	10.896196132983546	2.71706408290452	14	-1.314055162321605	0.8862039537590637	0.4634327350880707
Si	4.136118760667431	12.249481301691064	4.09442121832586	14	-0.078706933170905	0.2698860972400917	0.4005638106892779
Si	0.2465295791044086	13.722032865479678	2.6883898825545627	14	-0.40950688632434895	0.22936522028402598	0.40489792292745147
Si	1.6056899396878428	14.983616080990608	4.098272733000072	14	-0.3363545690870918	0.6053927157925987	-0.9157886342358795
Si	0.0641048713572168	10.964332038766738	5.329680310237199	14	0.4950750711526011	-0.4157508155943286	1.4439708001538993
Si	1.447239278789875	12.308575939976318	6.806279228429221	14	-0.4856758814337358	-0.36015374837251046	-0.6590295723183358
Si	2.832054643898142	13.762098410077938	5.562239988658875	14	0.18434490901770106	-1.7262956478223357	-0.5293594750441156
Si	4.202949068255975	15.090446653267678	6.7610565709621016	14	-0.40063888696462624	-0.03668067404989257	1.6881317031132497
Si	2.675023821036854	10.8434662858972	8.121424609875584	14	0.37759484131173504	-0.6517111781350664	0.043400257804099576
Si	3.941192950206484	12.243181790401888	9.479263052286937	14	0.14404746111395622	0.9885838249441681	-0.18977739744864197
Si	-0.0715304610892773	13.576572906618457	8.048245831065564	14	0.38011606718867225	-0.21448880490164918	0.037609100180998035
Si	1.3518979706257046	14.852305542563885	9.336724369386241	14	-0.3615565434351833	0.655559865688796	0.5986006268683636
Si	-0.1657783307654298	10.94096183108254	10.933405681531013	14	-0.304200840174384	-0.9863901578850178	-0.5586268811244254
Si	1.2355691714825678	12.08647736708926	12.263141122802567	14	0.6182577554830236	1.1203750841075104	0.3643937581559667
Si	2.436719510558728	13.586674972649545	10.879435516159752	14	1.8875872552079929	-0.5872846781333279	0.1896254451242212
Si	4.100133210427446	15.029230417916121	12.057085087732249	14	-1.3111955789845364	-1.0658933623735725	0.717893485959934
Si	2.6235016522805576	10.711176548824492	13.574043310116327	14	0.5445125413589404	0.7525697263022391	0.15208550767633514
Si	4.120957501632081	12.221492540393298	14.7392570588848	14	0.37138819306889753	-0.8526973092268938	-0.06362765757876855
Si	0.024316766375319	13.740539719888812	13.432908145274878	14	0.5214875218854184	-1.0158403695535898	1.5663890948726418
Si	1.4404175282228393	15.03833696532379	14.905573948905522	14	0.6838487090842573	-0.509084509821024	-1.1533945041815121
Si	5.6293150959089155	-0.0360834701045841	-0.0763122144771756	14	-1.1515415085772813	0.9795227355749021	0.7867561710810561
Si	6.774602152231574	1.3667491500898257	1.37461537921258	14	-0.3546441267819652	-0.430135892750025	0.16798882252357905
Si	7.949852687121404	2.806318039486144	0.1010043403334559	14	1.611357726922032	-0.1358746886328015	-0.8460749132537885
Si	9.548263916874085	4.134780522517917	1.3769980959178125	14	-0.630383345283374	0.8930976013434446	-0.8050246457123041
Si	8.11171422330289	0.0271890824035446	2.663485596991652	14	1.0899540230700502	-0.4563969053794855	0.33355566383557866
Si	9.552148071503163	1.3605475586652476	3.9874274462744568	14	-1.0155439211101767	-0.9121615759607467	1.2799561351236732
Si	5.4775229858036525	2.722335435615411	2.693808115062352	14	-1.477006418191418	0.4893098816932331	0.07864034154311317
Si	6.648562966515742	4.178909741497018	4.029565628006721	14	1.294864946433084	0.3392928282469571	-0.09799330839839979
Si	5.447347347529851	-0.034157712767478296	5.323462398835188	14	1.3101074872130496	0.309357449004473	-0.25162147926682377
Si	6.77584247051649	1.4382306512468037	6.629794992467677	14	0.5221683505741935	-1.0540397955160938	0.6931738509699022
Si	8.11523933842844	2.7932294175847976	5.297121955258165	14	0.4234836719552059	0.10665150556399845	-0.2127062575831905
Si	9.632834039932408	4.001381026979757	6.680321642600555	14	0.5846012155106892	-0.6851180637808144	0.45642467331694314
Si	8.309642909611528	-0.0785154114306441	8.023618985119017	14	-1.0311970674097704	0.5005088451362021	0.3345087725777575
Si	9.612793107644562	1.3161409000697826	9.517109079954297	14	-0.6066211899145655	-0.7782023607914554	0.2651724898566642
Si	5.3574569118283355	2.624431890994244	8.119205092944684	14	0.9639217827133075	0.8606692783825449	-0.04266517879306924
Si	6.821473127419437	3.949842538246027	9.49858590556773	14	0.8387770879130801	-0.3787646942324024	0.027537566420913987
Si	5.481782499913692	-0.026519963328787498	10.83258086094932	14	0.673582542651438	0.39186756116494104	-0.403709043827415
Si	6.704214089562614	1.342465023669373	12.333300705787465	14	1.0183711085202116	-0.7870911861042714	-0.24325150300761375
Si	8.209405608217427	2.5570793441278403	11.014907648831915	14	-0.2451474360706909	0.42492271960289274	-1.0951211734319517
Si	9.609186392631846	4.011091413552451	12.204846163411537	14	-0.044197043342813463	0.5008443743804815	-0.1622421450225161
Si	8.231649737458742	-0.0204489317236743	13.65918463238481	14	-0.6222527389294698	0.2481103778416295	-0.9768338736310913
Si	9.471608982870814	1.4306745016952784	14.941918538649036	14	-0.30779344563822686	0.7492581426498884	0.5016162201975899
Si	5.429525932172905	2.759871383711541	13.592354324796265	14	0.1675321942187208	0.5310450916920048	-0.13980282334092373
Si	6.708000324327093	4.112112073863341	14.966561704573017	14	0.6548268435620217	0.3228688645723832	-0.479411126210663
Si	5.4537774186384915	5.603937531000445	-0.1108616067030483	14	-0.2898710417830707	-0.16094476527796936	0.7185827992962658
Si	6.8370913458229134	6.814830896604166	1.3776835349700027	14	-0.6765110316110866	0.74098663972444	-0.6809870688629325
Si	8.12166940953708	8.22538286612443	0.0084047883780465	14	0.13997508739737366	-0.38632631497895786	-0.28371632986770023
Si	9.575518279187362	9.46854082711339	1.301697720041489	14	-0.34615407990430425	0.7786037103319305	0.8937853720165843
Si	8.20684337176043	5.6300005349611055	2.715921684484203	14	-0.37005301807614466	-2.24569877462471	0.24216932477836334
Si	9.572352203565341	6.636943142583375	4.206506823336391	14	0.5150173353472656	0.7186961850408843	-0.14562714822265518
Si	5.402973328889251	8.102199676459392	2.726448069928552	14	-0.3199241776492176	0.012186524996437865	0.053915564342441186
Si	6.917369314816333	9.277874530762483	4.111997834021309	14	-0.6360117519397102	-0.22640664939213156	0.08581115428100616
Si	5.298656033136876	5.418542587360429	5.483838817070262	14	-0.6805944610805458	-0.2986719352939376	-0.7776166629995257
Si	6.768922800084855	6.561055247519461	6.816005934979349	14	0.7623214145604967	0.5312294399434594	0.8093158204916314
Si	8.206468012279467	7.903112271753006	5.524671400607878	14	-0.0963668271728741	1.1692520533540574	0.4481459712965983
Si	9.492221114368819	9.651096094680048	6.698094098025201	14	0.24576655823178253	-0.9189449231268932	-0.26789194795378485
Si	8.366958670356574	5.271630150507662	8.120510691139332	14	-1.3371994810819818	0.36347278823028967	0.3397754247155489
Si	9.53538745467937	6.869421221117885	9.422828570323277	14	0.07972817620406783	-0.3399790562569046	-0.27415361785047343
Si	5.45908141130425	7.946164372221523	8.225627665785927	14	-0.0713605139396459	0.8702523021318009	-0.04536586782135278
Si	6.648595606470608	9.540822007164591	9.702357143797416	14	0.4616247338269426	-1.2079626150542069	-1.2484492963095146
Si	5.437277921453628	5.248896421943355	10.878113597987673	14	-0.5380184435413105	-0.48935898980484793	-0.9044451746739183
Si	6.710627840693822	6.59258544392021	12.16654317637605	14	1.0433542818055586	1.3558176260367705	1.588649981845016
Si	8.095639045531287	8.001587015584331	10.825661190517687	14	-0.3290505730936152	1.2073609764092923	0.7704831312887749
Si	9.437173830486973	9.642854506076333	12.149407200071295	14	0.236033896152894	-1.0252452157041594	-0.6143656162493835
Si	8.261139936680355	5.324115197932512	13.588290650415423	14	-1.0476459708059496	0.3353783203970316	-0.04362162997216432
Si	9.447553336134426	6.833908950223459	14.945819013255548	14	0.40917727062230597	-0.05752642465405715	-0.07044185800875699
Si	5.467861559163257	8.230654218835323	13.667654700672587	14	0.3683681727598516	-0.6643998400005291	-1.4015848433985982
Si	6.787821333952385	9.561368858752864	14.968373222068092	14	0.09398366965162887	-0.04213116021807448	0.33771416958038614
Si	5.376518645470196	10.836220215916905	0.0101020660310889	14	-0.20350658563716864	0.5432149045038617	-0.5939703232973088
Si	6.748016908993055	12.11373172940254	1.4070268543947164	14	-0.07767874815337779	0.402146068903297	0.6436217094662845
Si	8.125635164053325	13.489212067419073	0.1008901004914242	14	-0.6974655399702935	-0.015647489867889195	-0.6203074406442457
Si	9.47159266289338	14.871742635686706	1.3437216619317216	14	1.038812424257517	0.783091574668249	0.10461673281363325
Si	8.115565737977102	10.746215540373358	2.8317445643269132	14	0.6184888978513049	0.05739555539326161	-1.2732046696634962
Si	9.42436264820199	12.189864424127949	4.107444560317474	14	1.2824621914792216	-0.19106526410350413	-0.2435793189359326
Si	5.460011650017936	13.672126374489258	2.724457032681714	14	-0.006772548523802055	-0.7480525513652709	-0.4061760193820972
Si	6.950270389321463	14.886838614812325	4.080483957597993	14	-1.0094948816234643	0.55565159804795	-0.0935609799369965
Si	5.4783716246301735	10.677867474883534	5.317211847478311	14	-0.6383211187382671	0.16241260930524193	0.2860634919144634
Si	6.6111575782390775	12.023123214693967	6.796030282601235	14	1.135702985584105	0.21924972062296738	0.1635858046628255
Si	8.02869449810071	13.416979847300171	5.498559436714918	14	0.41229396449138944	-0.11180040107812698	0.23549550669885502
Si	9.536464573189953	14.589031666613115	6.860037234093853	14	-0.583433162363746	1.662966495571236	-0.7259387316172093
Si	8.082142424194114	10.709528231103748	8.164656230095867	14	-0.732652144718648	0.6774625976900734	0.4375399047404555
Si	9.42331816964627	12.100904227140122	9.543008884140628	14	0.0319845501826421	0.5227445352764387	-0.6206447696622491
Si	5.516495091913895	13.592076885179901	8.073688675883767	14	-1.6203406546895651	-0.3768116826312179	0.413397740005329
Si	6.765169205275242	14.957520437075079	9.401171960269554	14	1.6197359307182664	0.24010884097479673	0.5206030616552874
Si	5.24386986889396	10.959533965401407	10.893552296639385	14	0.49968969098120286	0.0849418635722641	0.29354258018024215
Si	6.664589184355047	12.333349665719764	12.207065680342437	14	0.8921097826794439	-0.2094005874730761	0.3397134610773333
Si	8.20974832774352	13.601673031910565	10.884657908938344	14	-1.3180439751152828	-0.3814622979343018	-0.9020759011214018
Si	9.518610517878143	15.012225001430831	12.071299788076479	14	0.5508976243109961	0.3993361078989072	1.4065568468667007
Si	8.099539520137798	10.862201619990397	13.583818976598755	14	-0.5991675555914562	0.6637503787966597	-0.5457507856811238
Si	9.38261614592812	12.074335303879035	15.082368264438296	14	0.6650737267049399	0.8943906102089472	-0.056345515980513135
Si	5.424727858807574	13.811042022399803	13.542496793738144	14	0.044009352654442654	-0.9932861194641868	-0.1876891457076177
Si	6.865210666940145	14.968536421842423	14.975717211912986	14	0.9834668111360092	-1.3130254346408856	-0.34876169491999837
Si	10.865269775747823	0.0756757353572847	-0.0830360451796128	14	-1.891583267096567	-0.18921432538352953	0.407233772110806
Si	12.30779258105953	1.6014630655326698	1.3498416534691342	14	-0.9500689243588819	1.8694213676790186	0.9941896058736868
Si	13.763828327685847	2.7220906359539145	-0.1223835107708169	14	0.21921243959582523	0.6314094734166451	0.608559289104893
Si	15.117293016145128	4.089247785479567	1.202113217744713	14	-0.17441967115033347	-0.14005402033070222	0.4822809939690123
Si	13.495119899249854	0.0364261896306792	2.825314493218272	14	-0.139459837891216	0.09797865309807494	0.7034958103881688
Si	15.095946485662633	1.3657536314664065	4.056444630839037	14	-0.3300288786679315	0.21440138732076414	0.22685170772304922
Si	10.774742860926416	2.781234234171469	2.7583209858553963	14	1.0705123530812186	0.23692529836738935	-0.3769793186980916
Si	12.240945953493554	4.091271462681272	4.034739060853013	14	0.4435418929998091	-1.0405921433601233	0.48205550803243524
Si	10.75107889364842	-0.0776994125589891	5.5833906794121715	14	-0.41128197743737915	0.5207334166950189	0.031772176883197875
Si	12.28182749696347	1.1963685856882618	6.881677524170143	14	0.35366170743913666	-0.46634194075781826	-0.39666061570276107
Si	13.574581869371618	2.5976997679588263	5.410627398305375	14	-0.4272652536600798	0.4893975563846501	0.12473846015964411
Si	14.729269232695744	4.119570303550268	6.800322436666139	14	0.8057962344188807	0.27287397873263575	-0.31202342811093453
Si	13.673366692774172	-0.2503158138688878	8.217304477295047	14	-0.1735496091099953	1.7287916768671352	-0.10209910648414425
Si	14.96009899350951	1.3029380383264049	9.507088613810375	14	-0.3238140028880696	0.33526879131039333	0.6152706453220755
Si	11.01245965221695	2.5655494124156193	8.202126898282264	14	-0.42697471875890297	1.4042472229576117	-0.6408659987841497
Si	12.328926951835394	4.132887405135677	9.378128152134016	14	-0.15769411682170617	0.3755909218252116	0.7542280892337347
Si	11.057372230112842	-0.087964678364409	10.788386362060487	14	-0.04536226827390457	0.5548296156770985	0.0444963200020787
Si	12.210851915106916	1.5733437444154388	12.164813258768142	14	0.6576568591879087	-1.296149213540498	0.19465581268309093
Si	13.709825522359719	2.921129080728002	10.928819767872312	14	0.28726676920429267	-0.33142704574102805	-0.44409930863321717
Si	15.180027009397966	4.244679250552412	12.366968819231952	14	-0.5157117908942376	-0.5444066118197504	-0.8176850254192455
Si	13.678279005981535	0.0358876303753869	13.462382024519057	14	0.3610749754087196	1.0625139015407699	-0.254890125460328
Si	15.21979879440243	1.3808659305694573	14.919201130062161	14	-1.6063057620784729	-0.1244898342751858	-1.0203351758742727
Si	10.9250172131304	2.7941922962533505	13.68846267189979	14	-0.20292962960332744	-0.30250930998425857	-0.355733504106112
Si	12.339290137505413	4.086114349812413	14.987745035281181	14	-0.6650719269312159	0.5189097316914378	0.43924146224132943
Si	10.994475037085675	5.626100060354595	0.0034924751706834	14	-0.39406765598739174	-1.0688683883395158	0.2754013752623413
Si	12.298718673606727	6.814667696829835	1.5946739549205002	14	-0.3384520768072687	-0.5090575132151625	-0.4040833967620286
Si	13.509660999142746	8.11786685479517	0.1219428713801232	14	-0.31117033536570937	1.0551772525097274	-0.9568250178086348
Si	14.890608529599369	9.537117372287277	1.354541806969867	14	0.616145592462522	-0.09653112080283156	0.40284875198729353
Si	13.700914814681246	5.2282026905581835	2.6851422070453763	14	0.01106860840323748	1.062184542949259	-0.16460087704321996
Si	14.897283400369508	6.739481560795543	4.0800759581621655	14	-0.061846652923501964	-0.45875229496327313	0.4967599164688942
Si	10.745138421862773	8.120543331094197	2.8052898809078584	14	0.9191881496901794	0.11874958453742322	0.23115573802897707
Si	12.25987712731595	9.49664382825319	4.095677856588209	14	-0.5081871940642924	0.32476145519854416	-1.184385065047385
Si	11.092656021323204	5.444360791659593	5.501513352630309	14	-0.4736011995187244	0.14294779936852886	0.25059175158610447
Si	12.250754259930845	7.119704395031907	6.740166999847733	14	-0.5702953283988533	-1.1997656741830427	1.5480725405719071
Si	13.62039204602633	8.249569072680286	5.394062621210779	14	1.0661481589107993	-0.20758538711705157	-0.36691189870651975
Si	14.970625378953859	9.5822421098898	6.7470213903696346	14	0.515770926316601	0.14863431300510038	0.4701937136379321
Si	13.644578252582184	5.706459629235179	8.16893206418334	14	-1.675019065980494	-1.3036457853224535	-1.3528929937351017
Si	14.974068894192243	6.816577134189508	9.51381244451281	14	1.0268105046230656	0.5833298039298761	1.391908231415689
Si	10.816211923583923	8.42979058347401	8.186622919720818	14	0.15960804762202438	-0.766075999659509	-0.3679182293288257
Si	12.178832119383175	9.62784012683788	9.660806481252742	14	0.9205845169895517	-0.9032077016833309	-0.8736793284130263
Si	10.873087044938275	5.476217387609005	10.767349911149223	14	0.2722512570240959	-0.5612200979503266	0.12458933605107554
Si	12.206298641403082	6.81643025439261	12.179044279089805	14	-0.12018348997446977	-0.48368070370530086	0.4535278089527323
Si	13.581534179758119	8.14572505627347	10.869561929812726	14	-0.6157249596321458	-0.2123049080427154	-0.49382834218286137
Si	14.727914674568796	9.524110350273098	12.226290613758628	14	1.7389339160235233	0.40918421260667037	0.7807518688269143
Si	13.570795634607139	5.444523991433924	13.635961304497508	14	0.8717036910850244	0.9934717532683015	-0.3503503808973179
Si	14.938638223184984	6.935500809744507	15.042057920178538	14	-0.5366195051366177	-0.6492514016752807	-0.8149164592105099
Si	10.729601803346462	8.170368222197451	13.4569801119887	14	0.16349787286087641	0.05502782450393724	0.25836471718997617
Si	12.051111975991732	9.490507516738344	14.86723832191517	14	1.3343748647772673	0.2048178493504442	0.9596300937129163
Si	10.961051723302685	10.945107105350546	0.09101651414439871	14	-0.2874770856194808	-0.7976684562808286	-0.7142098633677578
Si	12.450739263396054	12.240586913990024	1.3206288938638853	14	-1.449922137638446	0.3410419511962538	0.8519617159947994
Si	13.646308170190094	13.612085177512883	-0.0312690767618196	14	1.009436517532697	-0.46546210851726366	-0.8511111943548946
Si	15.047345592866861	15.065754527411398	1.3763126568656223	14	1.2923288081452897	-0.9862950269881722	0.8240451686496957
Si	13.632224029665327	10.903246363234645	2.756068828969629	14	0.7900620983017025	0.017689718823682813	0.41301104576517883
Si	15.17131214144869	12.337560219897505	4.029679867848753	14	-1.4764896260220683	0.20933528139794433	-0.8789500943193298
Si	10.917118344052781	13.519322425783143	2.7113684107803677	14	-0.3852045417277773	0.3550591031806371	0.09245000532816051
Si	12.08473112950392	14.96378730840939	4.2787390434552925	14	0.5695401947663258	-0.6347274848322961	-1.5872119626394572
Si	11.07405124704947	10.944519586162956	5.398322135320818	14	-1.616182920276354	0.21536220937890346	0.31371213008520776
Si	12.357127872839792	12.276605104184878	6.8287518373545995	14	0.2785221828999371	-1.2112106924051498	-0.42504253311081164
Si	13.615398132931801	13.557935492389856	5.3817573582262215	14	0.8455732906058275	0.6994347495349948	0.0637448999813673
Si	14.975864091709884	14.970804898705623	6.754398020169396	14	0.5800187344985893	-0.18937270547125065	-1.5891114952499827
Si	13.58886184962558	10.843874285333028	8.236447810824075	14	0.09301796249338123	-0.13402632101814704	-0.7941213593811524
Si	14.943060937069355	12.248110423586684	9.437190150464406	14	-0.28636739656330495	0.30499479749724573	1.075348602188417
Si	10.892246698444735	13.327921730447747	8.14461529780802	14	-0.02397607133144487	0.7592792827456976	1.3820210459070594
Si	12.370869293838462	14.7160337309975	9.47590113693572	14	-1.364250851486856	0.07340942776927191	0.3723559571114013
Si	10.955470291020566	11.047286484059185	10.86979040949679	14	-1.0481838460389246	-0.30213110039166474	1.5042724758905244
Si	12.096220393616823	12.321223922486972	12.493073284857514	14	0.3633424331905582	0.5954211980294685	-0.3909797584978939
Si	13.58496137501907	13.534402084931328	11.021696759444085	14	0.40285260864527367	-0.3788693382189324	-0.25939264509697135
Si	15.066244126734393	15.031090895343494	12.096073513819924	14	-1.1925346975806583	-0.18146732794339135	-0.004378592360212178
Si	13.610779579318235	10.987326886969976	13.6762390088024	14	-1.2481929571090957	-1.2680871416342738	-0.01879863654826268
Si	15.111695263885576	12.192296100765482	14.894149964702352	14	0.03507810410384427	1.5457809144000592	0.23974451535093172
Si	10.587683279588223	13.725198941101699	13.828488078275788	14	0.21959707695171937	-0.7704736181990903	-1.0663834150475928
Si	12.449074625697879	14.802284811731433	14.661622926235543	14	-0.7229161402028433	-0.16025056684152938	-0.7492020925539092
H	14.098967224263271	14.19243989501135	2.3328918141293458	1	-0.22836660297768044	-0.15875341221360717	0.030336471672427184
H	-3.2167328319737423	0.7421493417724792	-0.5264645200166296	1	0.9626683688697354	0.05499182902945517	-0.5152798452004528
H	13.780758672274944	0.3066360559905159	4.483815879879626	1	0.1958153811824777	-0.14360240278303857	0.4286526220908316
H	12.387102775391167	-0.42103909779654686	0.044525794430726726	1	-37.9934637141756	-6.146731975788328	-25.527357239445895
H	17.89502335116171	4.244679250552412	12.366968819231952	1	0.014938121910060338	-0.06454631350965745	-0.014497691568718971
H	7.001046735109067	1.3849459249277323	14.946635012127203	1	0.26681105527719456	0.06776148071250263	0.050165350122473196
H	3.988917460214099	4.029271868412925	9.5774603565019	1	-0.08696480923815661	-0.09173960892820361	0.15395058747557058
