70
config_type=vacancy dft_energy=-6844.155747152354 dft_virial="-6.251008657682641 8.91595602397708 -0.9246703495149744 8.915956023977081 -10.007778321288992 1.5174077530502144 -0.9246703495149744 1.5174077530502144 -5.203048928232337" pbc="T T T" Lattice="10.927966935741408 0.0464334422778303 -0.0202716016534185 0.0457121885262801 10.858551726198273 0.042182416378542 -0.018064128050189098 0.040051439385325495 10.881172866587802" Properties=species:S:1:pos:R:3:Z:I:1:dft_force:R:3
Si	6.855429483787494	9.042629299746045	10.95147871523323	14	-1.1404199354044489	-0.04027096551894735	-0.17434459487498513
Si	0.07556007294459921	-0.4098852285798352	1.385065105832999	14	-0.7347895045712871	-0.23527387742025824	-0.34985004380201706
Si	2.636602100462337	2.3433862230480336	1.2269280351881884	14	1.3174474786810084	-0.6161522773363545	0.6660697729059653
Si	4.076586308241026	3.5765924443008523	2.8414425371374517	14	-0.359293456532389	-0.20971786186958236	-0.8238741901459059
Si	2.511674393841556	-0.4357367115293376	3.9917646814412935	14	2.378448798961935	-0.5751768289596865	0.23440252982726006
Si	4.008087965209332	0.8788772020992094	5.368426088260017	14	0.46132391450448534	0.20802427479520086	-0.1393348821726568
Si	1.3404774174739083	1.1147850977179916	2.9006432636264354	14	-1.4823262922093363	0.8406251984172026	-1.3523314643331816
Si	0.839330640339969	3.093012567252018	4.9965148696993005	14	0.7378504054549234	0.9509384721781557	-0.06849681683406497
Si	-0.0037975102827832495	-0.34034871726939464	6.614665146241605	14	0.5716078776647889	0.2449281207868823	1.601833324374075
Si	1.4800159766071537	0.7774175626216712	8.167964875241118	14	-0.4398641839498693	0.18876361062090757	0.14651700777395843
Si	2.548507511562767	2.252695120642883	6.6569459154044495	14	0.7455040717719402	-0.15477616939387012	-0.0009441098735583747
Si	4.099291594901569	3.7978381253975906	7.893679723187578	14	-1.723720171623143	-0.23113439785481985	-0.2766609597586819
Si	2.7646475903455014	-0.6269246889345785	9.74830397026276	14	-0.6393665301614394	0.08923329546212326	-1.631501565773796
Si	4.099099260567822	0.7932294119113377	10.90224877545507	14	-0.8445970419157673	2.212287003878853	-0.33516671842918344
Si	-0.034485764602529785	2.175194219421385	9.385932971779367	14	-1.0755005545128378	-1.400193104088802	0.31815268608363556
Si	1.22100719757319	3.5495650991745804	10.650072236503973	14	0.7272373969144161	0.5792517737815891	0.3211441671236278
Si	-0.060080437504131654	4.726475279501477	1.249618022526729	14	-1.1356451357144017	-0.2161983328290156	-0.1109118270794838
Si	1.2990534103432085	6.1562854381484495	2.502158215555951	14	-0.039783483950247264	0.376900128654231	1.8934861421440086
Si	2.78435202427611	7.431469720550204	1.308664662986972	14	-0.47074238751325176	0.5995161974728682	-0.09289454943801413
Si	3.9425052358278436	8.897178645467518	2.6700190981421152	14	0.8594824561667647	1.126723914474552	0.6594347785167912
Si	2.5237783431630256	4.814238747360562	4.102219229447635	14	0.22492080762761799	0.34127283645400314	-0.2279372283892157
Si	4.078094384266994	6.393007476259513	5.219777875682951	14	-0.18349695848311626	-0.2498852118441278	0.5460672887460339
Si	0.14311969329056354	7.825281918557615	4.014036123042192	14	-0.42298513463362913	-1.299019595519911	-0.15168570079905214
Si	1.377569530860449	9.16796134559118	5.483012546015769	14	-0.3291107369581066	-0.766874842082479	-0.8852073933369741
Si	0.05925755254213575	4.7767838214808185	6.636001143582918	14	-1.5434802893595905	-0.22074301859290935	0.2242145249961733
Si	1.242789060870006	6.396159136592044	7.8595436573736785	14	0.6983705690429857	-0.5358808265781392	-0.04640433726016059
Si	2.700039646337321	7.768006721023528	6.652138649869497	14	1.674947846363126	-0.07995957568288116	0.8323544668233501
Si	4.192970436332081	9.192999778857118	8.181221737756353	14	-0.9242349723230978	-1.9102687750107428	0.5805308986783628
Si	2.452986194639659	4.938543553014096	9.171490024930204	14	1.415836480188179	-0.04801616318536142	1.2802623537673026
Si	3.930556465343829	6.114533588403409	10.788594483532762	14	0.6959843261953562	0.2908082096722647	-1.3207513490173988
Si	0.09168555833531852	7.599001667713314	9.39783475148866	14	-1.6244392536804133	1.194437829738632	0.11337905974469789
Si	1.310526809036429	8.844386149280187	10.930572191716704	14	0.3768067975311096	0.7422410820101404	0.45574101641231574
Si	5.38298994999776	-0.4286924665558639	1.4017850791643898	14	0.4463775650574005	-1.8651602748319371	0.36248111290830853
Si	6.756882179534017	0.9159343456068871	2.6579916454306587	14	1.127850829936373	0.06769257508992266	0.12806932710189595
Si	8.376759093845184	2.2916056677303014	1.572435902398596	14	-1.3314780004130566	0.30763455132944173	-0.9572680192552964
Si	9.483908737075174	3.726829600748759	3.0087253239136618	14	0.49573455966721913	0.8602612439682374	-0.7134596148353386
Si	8.373889378160987	-0.2318972876366774	3.965736163480047	14	-1.8337881619365541	-2.0903489916339146	-0.82971162766477
Si	9.693870075386297	0.9967573853203737	5.226227632715752	14	0.1858502911826478	0.8411836424927387	0.21353749593319438
Si	5.5732413903347	2.2371072971396826	4.053761905430606	14	-1.261967396751257	0.051732438815103456	0.8971776883759877
Si	6.866078904710004	3.4724641659425783	5.578944759015519	14	-0.35053987135941284	1.9852514621254138	-0.9724797067714207
Si	5.43107353343444	-0.2367012747454875	6.971773177956113	14	0.44660305099397746	-0.3364247602623319	-1.973857094678113
Si	6.877403681418056	1.0534643223229365	8.18953801207347	14	0.159305942746907	-0.22640382117627939	-0.2639267893290525
Si	8.341157571545182	2.1462096538874973	6.697127399026798	14	-0.902358208485554	-0.2972156612406057	-0.009020723015739534
Si	9.388668271991685	3.492556546966824	8.116197433627958	14	1.9940598118417088	1.3403426573358632	0.03991820986902303
Si	8.076796215427743	-0.4550149500613028	9.522110051306901	14	0.057939344168472934	0.3395373403629031	-0.16715886972623525
Si	9.310395847817771	0.8935700152652585	10.92686975579208	14	2.1958838661573727	0.33081358001164074	-0.2538619404428008
Si	5.582050521382043	2.2886146502787974	9.674885802398522	14	-1.6510774474603396	1.62858361834596	-1.1164860302002544
Si	6.924234906067953	3.7989997810610725	11.025775501303901	14	-0.6475434164111062	-1.2544062902257658	0.6797035730871145
Si	5.349920465489183	4.9376387073985155	1.3935759001012913	14	0.4664216450227429	0.2707235062428639	0.3251766887077481
Si	6.858396459447279	6.383827883057965	2.6460636383122185	14	-0.6841065909478682	-0.06256167731303515	0.5740350010870087
Si	8.28264640735503	7.650771294943901	1.3050955497255132	14	0.08697766476475735	-0.015335614792555232	0.006034127075855527
Si	9.588889406230734	9.050922625080158	2.6203039512947317	14	0.39402189031269313	0.7935544306580595	0.564333449382494
Si	8.144295731294411	5.253489931715636	4.289031600760137	14	0.1385776916558732	-0.6732488131808828	0.48611734021720526
Si	9.750453525004124	6.623445864262372	5.61785858452908	14	0.02441033102001788	-1.201574189665235	-1.6530708254150501
Si	5.556090850369808	7.809277734934202	4.050481293669766	14	-0.0733276666200912	0.37324041734153224	-0.27395589985135405
Si	7.004241617671731	9.23563461804345	5.50957981867325	14	-1.9597820928240268	1.6494052005601152	-1.4506888412449142
Si	5.5213613894239515	5.180649859661353	6.690843748918595	14	0.7002821858485158	-0.1855864957768006	0.16303815922963394
Si	6.941864096249783	6.520889044835506	8.240286955964743	14	0.2965042363985207	-1.3250474088968343	-1.0089343806636721
Si	8.174406982612918	7.845122953577533	6.679777967875872	14	1.4202657233231981	-0.3267689742325158	2.8319264713609247
Si	9.681871035701414	9.419257080718415	8.172745913366924	14	-0.5220531650558509	-2.1854976291061026	-0.18445006722529514
Si	8.249127778464805	4.892439046159321	9.57547627206933	14	-0.05848673249113246	1.1529494458505944	-0.8523664079721908
Si	9.600285215505227	6.342710955176031	10.800364033387604	14	0.38574678783979655	0.18156014484544866	-0.22286392337149952
Si	5.476664420193413	7.636146235918149	9.54557921125886	14	-1.0176355152881174	0.6485834285131062	0.6592460593862923
H	1.745066895023422	3.9936683542219003	5.890807231524824	1	1.3266618059273552	1.3012428302902432	0.814935999610943
H	6.413238643990496	1.4755977509745515	10.44817801212307	1	1.8301688169773818	-1.7537460537728962	1.8571242851538143
H	3.186575570958796	4.736559718318606	6.856335422211789	1	0.23698366245815675	-0.26865402357067675	0.24414161966944897
H	2.249426529777903	0.21999769354481358	2.0423032156982606	1	0.6397838205548995	-0.38011940962558843	-0.5806023754062628
H	10.592938011294052	1.9842138756718934	4.377263883557731	1	-0.9049120874000572	-0.8313666481593494	0.08832620950517502
H	8.509343018319543	4.5670574370433075	2.0092370096158274	1	0.2586118004112424	-0.10611491588368353	0.28608277520436454
H	9.639227454045367	3.7989997810610725	11.025775501303901	1	0.1120595684943979	0.06487850031702058	0.3774660289351956
