223
config_type=interstitial dft_energy=-23321.931670090235 dft_virial="-80.07587270432394 0.7807663759027007 4.432229325831493 0.7807663759027007 -77.58372952467492 -0.9424402214179063 4.432229325831493 -0.9424402214179063 -71.16015161383906" pbc="T T T" Lattice="16.254729908999998 0.0 0.0 0.0 16.254729908999998 0.0 0.0 0.0 16.254729908999998" Properties=species:S:1:pos:R:3:Z:I:1:dft_force:R:3
Si	-0.28114180850606396	-2.8960402089668937	0.494322591262599	14	2.2124746945672245	-1.209266165451522	0.5512267257919751
Si	0.023114225930598	0.148649505017805	0.0024057000265319995	14	-1.0775235001787304	-0.07765997908454071	-0.5596203562201305
Si	1.3591229866111258	1.3955010721474679	1.307384181310779	14	-0.4550488748601319	0.3676420926174418	0.8793815257920506
Si	2.6900277621002275	2.7592729115125674	0.12202425742686299	14	-0.23592282440306364	1.2184113299647565	-0.368895506461014
Si	4.1346831374925115	4.100515695223794	1.368924588746253	14	-0.06114371272897348	-0.26823416207189654	0.17785518207911533
Si	2.7208142205478736	0.09070139289221998	2.5681172877827274	14	0.1431324047305155	-0.8355999730689733	1.215904502277612
Si	4.078539300386826	1.3447863148313879	4.035106662069977	14	0.11673795173493935	0.49793722559499	-0.7386536187569377
Si	0.05082854042544299	2.7420103883492097	2.6822742559336348	14	0.4365430872078341	-0.5327615616037357	1.3652888067045998
Si	1.562095798984809	4.091104206606483	3.9566938449889615	14	-1.6668123549091134	-1.2715671326850941	2.014272042094989
Si	0.05448585465496799	-0.036085500397979996	5.489059742970209	14	-0.1265873419953626	-0.8705652056492629	-0.2251799750438889
Si	1.3731508185225927	1.3788562287206518	6.701678848911518	14	0.8603540608702948	0.4308761139716957	0.12060026614686578
Si	2.9446906155845305	2.7562170222896754	5.5000479403886935	14	-1.0754231642427015	0.4179881914439214	-0.6859505876834783
Si	4.233999537236501	4.237152954838848	6.842558593032821	14	-1.1440621632009706	-2.2300841949049186	0.3703841764413798
Si	2.6759349112691244	0.07753506166593	8.096594750782263	14	0.15173506602119896	-1.4390499616816679	-0.7980867751164167
Si	3.9844081594838068	1.31386981854447	9.462268393546715	14	1.1277233031124936	0.3357884116955952	-0.36692578267524856
Si	0.035874188909162996	2.583234186598098	8.143652193868816	14	-0.5576819999192709	0.6734192774636086	0.4403259544653679
Si	1.395566091067104	4.009911830711028	9.424508655968108	14	0.8995343635124354	-0.05846359254325112	-0.4914498126511923
Si	0.08644265365606199	-0.018822977234621997	10.798098352198245	14	0.7807698665641553	1.1207826043007538	0.11318699817728284
Si	1.4556598275406767	1.430351213072364	12.18126208434478	14	-0.8759616986057218	-0.8898268982656842	0.2549626306303562
Si	2.8037133430837735	2.6445470278148457	10.838215025613655	14	-0.27991186532547707	1.781535331404653	0.05740481137241414
Si	4.064121354957543	4.1524170478232305	12.21588465905095	14	0.9635047494303798	-0.954290936405097	-0.8101424308520591
Si	2.7756414245309307	0.068643724405707	13.577397090958698	14	-0.2401882881291893	-0.10046131239520992	-0.15429228737261824
Si	3.8828486070123747	1.3979880458235447	15.101456821956448	14	2.204132743356004	-1.0163635894862397	-0.5157531856898919
Si	0.0023894452966229996	2.7998934815551584	13.480567664890787	14	0.5902126528719124	-0.9003337201564694	0.03169015862348515
Si	1.384951752436527	4.021371415296873	14.861699555798698	14	-0.312656177130223	0.8314391533293776	0.5949802534670631
Si	-0.080412148859823	5.365328738902901	0.049268086354178994	14	1.469627603033125	0.5605752647360335	-1.5883501909646867
Si	1.326369705844491	6.749012622406526	1.3083594651053188	14	-0.33114370993474773	-0.07704291380770517	0.9950889785146745
Si	2.591719155610596	8.139263416793387	-0.017213758973630998	14	0.935001218740686	-0.12731856434841274	-0.3633108085951204
Si	4.132342456385616	9.324314500809031	1.3821234294323608	14	-1.141152957531223	0.5345320247271895	-0.17862291412771153
Si	2.7571923060842156	5.424756031450205	2.731070955120453	14	0.7256754504324263	1.12950173666244	-1.6213642117175162
Si	4.13081451177417	6.650102590910261	4.105083274328223	14	0.7482788086334441	0.7653599468278478	-0.0071931813541782795
Si	-0.053933193838062	8.107761750229745	2.7836387516461585	14	0.5470718195946158	-0.5724149476247834	-1.1476249438430997
Si	1.3258820639472209	9.412886524083174	4.03164440459936	14	1.0040551940976272	-0.09713893010051457	-0.24508881486939152
Si	0.020399686035795	5.44240866813138	5.3485213481769955	14	0.3100501047777209	-0.4977083972214969	-0.05684302485996179
Si	1.251175325285457	6.862974533798525	6.758326582644383	14	0.35612251234105036	0.4607359027177674	-1.059145496460844
Si	2.8710079249070337	8.155485637242569	5.353056417821606	14	-1.051404669673474	-0.5084373626119427	0.9034565846783212
Si	4.05228791158379	9.541006305225912	6.814502929209887	14	0.1345513407245213	-0.3131999659054343	-0.6836270798056605
Si	2.6729440409658687	5.469749123838318	7.878505039593209	14	-0.06763549655181537	0.23083923496406686	1.8363294424349885
Si	4.072785125999039	6.827035325969726	9.297965583626542	14	-1.2990987855637717	-0.23149409548910854	0.48128597621011504
Si	-0.150339996928341	8.162215095424896	8.100333338661331	14	0.40495551568662286	-0.010534075607178695	0.2982055367888627
Si	1.252865817195993	9.544663619455436	9.405669424003577	14	-0.21147392680324353	-0.0870792234249032	0.30761218271315643
Si	0.152062998298695	5.4676034994903295	10.699025773402887	14	-0.41426368827715493	-0.26349175830888344	0.7336620748884022
Si	1.4147141628999058	6.951562811802575	12.030922087416439	14	0.05594648043482616	-1.403298227983945	0.5370275395509253
Si	2.7183272468717967	8.228875742781703	10.682706024574252	14	0.6514828639826372	0.47398018044291423	-0.17381211896318244
Si	3.9728185370586893	9.634861115720478	12.175459145767267	14	0.18097933215362724	-0.8479844731750624	-0.140709909297872
Si	2.671741190952603	5.416238552977889	13.452365708498672	14	-0.7596940020338374	0.7818726136359667	0.414231292350121
Si	3.9941284879693884	6.713918660532996	14.877060275562703	14	-0.10684151024715736	0.5653171542779827	0.11505747729769056
Si	-0.004291248695976	8.235572691504212	13.302805938605962	14	-0.2868523070266848	-0.2255738683789356	1.4576012578981323
Si	1.3255082051593137	9.528246342247346	14.81664144449095	14	-0.3051886588383849	-0.171217616584621	0.09547311096359062
Si	-0.11747293305234298	10.688947840859308	0.073097520400773	14	0.5362572363970088	0.3140605148560878	-0.7598451830266622
Si	1.3196890118518918	12.194022047323346	1.3621463663742	14	2.635970707827967	-1.6298547728162411	1.6129129885301894
Si	2.654608705628517	13.695520213207402	-0.026462700291852	14	0.5116257903194583	-0.8385783414718327	0.25099412956870765
Si	4.0659418847073505	14.864381586233684	1.3531249912747048	14	0.11847576182082745	0.11262855410174669	0.5967180635529511
Si	2.776340377917018	10.7391424468183	2.7433107667419296	14	0.13673652313611515	-0.06057035624258045	-0.0841047116800239
Si	4.194159194229543	12.175020268059724	4.126149404290286	14	-0.8862618036287668	0.6841847525496005	-2.568437541267893
Si	-0.10144576936206899	13.609093814281248	2.870682830308854	14	-0.7877046518336587	-0.31919989728053183	-0.3656461435574109
Si	1.4130886899090058	14.902385144760926	4.013861730078914	14	0.3682252193040514	0.8665851346136737	0.019190215888521232
Si	-0.06929391360206699	10.750309446265783	5.1959544532511215	14	-0.02715704283353207	0.2171270160706531	0.9889067557723787
Si	1.3672178421058079	12.032888909735428	6.483897977590736	14	-0.38873338377968053	0.5790615119878982	1.6858868710582282
Si	2.72933169902019	13.435021911685768	5.2994483185817245	14	-0.03738669957080523	1.0551016620133151	0.3500814432808304
Si	4.095330436382822	14.801118177427854	6.70213398134897	14	-0.8517411151583307	0.1844775780522207	0.7489928045808492
Si	2.66398768478601	10.818936915941583	8.09176709599929	14	0.02714624419118745	0.867995900102839	0.2391081667841951
Si	4.130765747584443	12.144022498123261	9.540291097109915	14	-0.8940036588582648	0.2624895414550897	-0.35540208863034484
Si	0.074788012311309	13.515710390954045	8.037492552833138	14	-0.6071850333112739	-0.90228878864191	-0.7305672354145398
Si	1.3037268670812538	14.906091223180178	9.353036608558236	14	0.8958481698149391	0.2764879243706359	0.3203039299050034
Si	-0.04535069644610999	10.896325685038331	10.873991686143365	14	0.41219317716283965	0.7995913859497672	-0.7559134487710917
Si	1.3289379531701129	12.313120453366588	12.22597884632444	14	0.5032321598913029	-0.10865413949786178	-1.0292641104300828
Si	2.764198094674995	13.70792257212797	10.750423229375146	14	-0.0072759709454870486	-0.8933937926763257	0.9618492147147362
Si	4.1734019041357495	14.899898171084848	12.31536360609403	14	-0.2199829998602736	0.02765326616032065	-0.7280115567263127
Si	2.6502199285530867	10.961734718192146	13.570586359126828	14	0.6472906767581358	0.44458319065446916	0.20285840998595933
Si	4.0704606996220525	12.287779329438457	15.00698433172534	14	-0.14893358966436562	-0.9030269529793246	-0.25862002794826683
Si	0.05565619520841599	13.647682543085216	13.585752022131924	14	-0.15055415734765495	0.4595765913289126	-0.2500235373103517
Si	1.3680630880610758	15.033430777287284	14.965420987348027	14	-0.39569850809196166	0.11131523350421504	-0.9232525529802694
Si	5.488295770664487	-0.07574704137593999	0.130834321037541	14	-0.42498802567802463	1.390205645472687	-0.5983008359880343
Si	6.97245013973564	1.348053515543097	1.350638017598628	14	-0.4241143640902382	-0.7270736175055228	-0.00019668955699132803
Si	8.171317744173935	2.7644419156236295	-0.026397681372215997	14	0.008945132519327182	0.1444590950757119	-0.18027742040122682
Si	9.491413124273553	4.105099529058132	1.36247146097238	14	-0.7000001355948955	-0.049054632624169224	0.12131760453118712
Si	8.227103977221624	-0.15035625165824998	2.7210580414965087	14	-1.3717443379424277	1.5139092357409714	1.1814493769928398
Si	9.56038194327744	1.2488671536383789	4.0664945455242565	14	0.7312578343035316	0.268346005153323	-0.1609015707085909
Si	5.555151474780203	2.643262904152035	2.6059257895510615	14	-0.4639806376317943	0.15802347541321712	1.4810319977911737
Si	6.75902553603047	4.038373862781686	4.138568017940763	14	0.4062690933946865	-0.5641007643510205	-0.4156464287183306
Si	5.334834865593617	-0.0026982851648939994	5.3957250838327315	14	1.7340698989788672	-0.05166661851890766	0.33006076037390136
Si	6.850312099199415	1.3483461006814588	6.876010827185543	14	-0.5911835022408004	0.2883569178600355	-1.7467117667275034
Si	8.290351131297543	2.6750896653138567	5.390426041882397	14	-1.474262791704288	-0.3141533317581452	-0.03824981962677894
Si	9.465080461820971	4.134114221945696	6.74667194129963	14	0.20475382882797247	-0.7714107860882844	1.3524235099036428
Si	8.15873658322437	0.013914048802103998	8.14750456485725	14	-1.1061273039759096	-0.8427149928214189	0.8061641595901937
Si	9.37083553780859	1.3486061763600028	9.55937415002308	14	0.0841098538906642	0.5821252410873866	-0.040748419776898845
Si	5.413361465783996	2.6763412795168495	8.102023830571868	14	0.2488017480622174	0.4957875244368141	1.086633183438547
Si	6.824743409052558	4.110674901416918	9.497703704748336	14	-1.0232520948599808	-0.6225502158150109	0.22077772851473135
Si	5.395269951395279	0.015734578551911998	10.751300984790232	14	-0.07879589341498212	-0.48667629851380534	0.9805846020721234
Si	6.536595811955714	1.3592205149905798	12.329131362326955	14	1.0392052891504355	-0.3848996086368077	-0.7437413219644468
Si	7.997912285504722	2.6342252743226306	10.9571346296279	14	-0.43598490024282993	0.289198697741852	-0.4389141605340746
Si	9.366999421550066	4.020591188261241	12.15883055707036	14	0.6411341650690412	0.2554061462980817	0.1833084964631494
Si	8.102560236658865	0.028283230041659998	13.553275071773744	14	-0.4797553972130308	0.43074087383185583	0.24977028343631716
Si	9.49845142232415	1.353401321683158	14.947914643236034	14	-0.050169978112049464	0.23846256223830592	-0.5757165039663855
Si	5.351317161721344	2.6939126425484785	13.757011856453149	14	-1.132558780888096	0.5208815123614595	-0.6349192892891792
Si	6.808504933873466	4.105018255408587	14.813325479589516	14	-0.07689481814126464	-0.0025968163733495597	0.9816202432950789
Si	5.429031025416272	5.431387961253077	-0.013150076496380999	14	-0.2964510145183936	-0.4245712495056285	-0.7552619306829662
Si	6.738008170258134	6.723086328201671	1.3212332111932468	14	0.015294477107432864	-0.0026122430052704483	1.0586855257190695
Si	7.945572055197743	8.032729916969801	-0.022984188091325995	14	1.0392523403777942	1.2206960141522403	-0.7380902895812932
Si	9.490161510070559	9.43146568036916	1.2104084626736848	14	-1.3066976873374692	-0.03326650329526794	1.0450563535274964
Si	8.053194621925233	5.437467230239043	2.7423029734875715	14	-0.1394048162373648	-1.1394825104047228	-0.6083194049785233
Si	9.428767395204266	6.593422347717579	4.073256513166401	14	0.18707593708876236	2.145502543188007	-0.012298882298928336
Si	5.509784523604185	8.106315079267844	2.7363537423408775	14	-0.655073669672756	-0.8323896909662363	0.20547193854388984
Si	6.661432137656834	9.618915225679748	4.023842134243041	14	0.20568816850131433	-0.01565314629959352	0.2651884307096491
Si	5.536377261735308	5.411817266442641	5.588164831225383	14	-0.017243889161169135	0.4809201079230579	-2.55052567894455
Si	6.845468189686532	6.808830028471646	6.690137990676128	14	-0.1781012368582535	0.5258689424614826	0.9340697072831964
Si	7.9681011108516175	8.145131374290536	5.280544067697557	14	1.0510781392978152	-0.13788683565634938	-0.8226264327340379
Si	9.378052637888185	9.415649828167703	6.558003291245867	14	1.2129222772167725	0.6033083207095546	1.0291700079753654
Si	8.04331174614056	5.496601937647985	8.121740817951485	14	0.912307614742931	-0.6828948290104824	-0.46020728346394496
Si	9.335465245526606	6.848524078909424	9.457489502953468	14	0.9203950265274567	-1.2477340148094493	0.1690676583159132
Si	5.397041716955361	8.06982321062214	7.974147870377765	14	0.5535672029649059	0.9303662871800552	-0.012966598350570792
Si	6.76195138741409	9.572491717059645	9.314691700702904	14	0.026883477227468314	-1.3636145029201194	0.9206588219333038
Si	5.363459444963366	5.570008297917029	10.708047148502384	14	-0.02477774197026704	-1.3816207248087122	0.6202657887380593
Si	6.59859135182864	6.887779251639659	12.1357813500594	14	0.045819925020890925	-0.7704376227246083	0.7977358192402164
Si	7.992190620576755	8.023172135783309	10.816742527403868	14	-0.25125638231136277	1.8029994328383132	-0.8158880799109938
Si	9.444697030515085	9.286018357143428	12.078938559567625	14	-0.5601713440902382	1.4294895636592293	0.8912538617183664
Si	8.033688946034431	5.47847791379945	13.425122781171188	14	0.049270091249997636	0.03418541633668886	-0.16575041823185815
Si	9.38434321836297	6.70930231723884	14.889934021650632	14	-0.46499571001218876	0.3289862954606115	-0.12300270695801216
Si	5.286330751545162	8.185654415953673	13.542742006792713	14	-0.8570846433451945	-0.24858577521532493	-0.4072371145477222
Si	6.503224851452537	9.477889188989263	14.941819119520158	14	2.6297661164693857	-0.6201014951081019	-0.9961894115916979
Si	5.396895424386179	10.760192322050456	0.05786683847603999	14	-0.8817374295969025	1.664213995872572	0.84304692251825
Si	6.942622710352625	12.157660216516913	1.2190559789852728	14	-1.1922359351424572	0.8259480436971371	-0.34142016078884757
Si	8.290399895487269	13.61138573119842	-0.06438498516954899	14	-0.8389681210383672	-0.7570334222485483	-0.30038249166343206
Si	9.457375719844105	14.915665259096578	1.3458103628156548	14	1.7903071714254022	-0.859662947760239	0.08701417446030346
Si	8.072423967407579	10.93109455231368	2.6935225290306626	14	1.2621648576398445	-1.497738783050964	-0.21524702386056085
Si	9.555310467545832	12.169656207189755	3.9500944246459078	14	-0.1923078793047317	-0.5691990090903422	1.442677277067333
Si	5.515229858123699	13.50358436244193	2.5851847541871775	14	-0.16999942688393485	-0.4193668181165848	0.6209535594111989
Si	6.745306543987274	14.841624964361083	4.103766641205594	14	0.2322170903051342	0.06255447821813873	-0.286820425320715
Si	5.360175989521749	10.952680833632835	5.492213160572556	14	1.5055446588029335	-1.4122806415304143	1.1187316335868718
Si	6.921068938493291	12.03236875837834	6.9035300849214805	14	-0.13003699400340527	1.0515270542867132	-1.2775673211707237
Si	8.22926585629952	13.501601285393033	5.3962777446496375	14	-1.4800161540791832	-0.5804383388868374	-0.013248134383127006
Si	9.327386644761832	14.884456177671298	6.8026207216464085	14	0.7808038051543812	0.3276637188839273	-0.3183264928032775
Si	8.338513896017908	10.779226610773893	8.16897706306704	14	-0.11114502633202122	0.005027282232485539	0.03481405158746507
Si	9.506822608227283	12.274174120504624	9.589104051026641	14	0.1152405399964851	-0.6600292180668095	-0.6073578115887879
Si	5.467245895432331	13.42053894733685	8.079527284377813	14	-0.1920967915579475	0.41681576741793386	-0.2998495015305654
Si	6.684351306828525	14.834229062252488	9.430766726983073	14	1.0147440502450786	0.4420722491988125	0.34678040116029235
Si	5.513766932431889	10.802324581974583	10.865506717130868	14	-0.14406905839864545	0.4112022731724546	0.012792020299332739
Si	6.859593549977453	12.160862398308986	12.254099529067009	14	0.26538460604557645	-0.06725137341698524	0.09217258306411653
Si	8.167286571156504	13.604477470987094	10.881111257843507	14	-1.719570664746956	-0.5020671920707438	-0.5838576518521025
Si	9.368592385081149	15.014298960184389	12.110098876803178	14	1.1683981892772362	0.07410696864262807	0.8984390726460523
Si	8.172991981354562	10.746083216489446	13.655208483033084	14	-0.2249123229800615	-0.2920667657264771	-0.4311507080198875
Si	9.620898302728646	12.154019157017297	14.951767014224467	14	-0.3030315014747806	-0.055419146733663785	-1.148409388076277
Si	5.569309344530943	13.516409344340131	13.68583239418164	14	-0.84373983540203	-0.1735542370995716	-0.8953897417363568
Si	6.789243078931301	14.942843167504426	14.951962070983376	14	0.8034783829727672	0.019440641546703656	0.038415398809396484
Si	10.827226828195172	0.0008940101449949999	0.024723444191589	14	0.4751616033375223	0.0367542076620488	0.07904914728901671
Si	12.269021371123472	1.3569123433435017	1.3485086479805488	14	-1.1299905037838	-0.21627160933063982	0.584355160731551
Si	13.45794108085746	2.7024463757507036	0.0008940101449949999	14	1.401857637673066	0.8031824487504182	-0.8097557366119087
Si	14.988567722738443	4.010740821936387	1.346899429719558	14	-1.8812463952674436	-0.38680145524212123	0.1469196428670936
Si	13.5430833561208	0.12236560675495199	2.886449918320584	14	0.24223925884307143	0.8748304122648566	0.6887713473302127
Si	15.035283816496909	1.4376983509912318	4.311973476609975	14	-0.6262181546647342	0.473178766914624	-1.646957508295334
Si	10.870740740161564	2.7948057510936417	2.6483831440733696	14	0.28229322307299826	-0.8419917408948612	1.0763449054999743
Si	12.182838793145955	4.202124011884952	4.118233350824604	14	0.7963304530722235	-1.1461121054727246	-0.9787655450581185
Si	10.854030877815111	-0.06310086150673799	5.628118957341705	14	0.4571972904656476	0.31314443003051906	-1.237394571875006
Si	12.225198619288808	1.409626432438389	6.843403838988089	14	-0.04674012361497193	-0.06173326717888344	-0.2751800030942766
Si	13.589360572171724	2.8577440653012895	5.511637562813811	14	-0.6832074754174123	-0.5368573323787315	-0.29799444904207856
Si	14.987348617995268	4.081188821361993	6.849466853244146	14	0.20600570000835258	0.4248867241284107	0.00644396126388713
Si	13.536353897938474	0.06986282914888199	8.209695161489083	14	0.1636727080226465	-0.30684933576466855	0.37356180550655077
Si	14.896549696723595	1.388820378154869	9.674246326289985	14	-0.5137101854025024	0.22361648589870686	-0.8710557725443472
Si	10.780494479706796	2.60498301521634	8.198804492450055	14	-0.1320565972323816	1.3150398956592217	-0.34566299878815593
Si	12.200865288615036	4.030051441068279	9.48135144645988	14	-0.9638780739228652	0.390703364675978	-0.8153772012838805
Si	10.764288513987523	0.10544443291968299	10.836101910725485	14	1.3629025638569703	-0.4466033081045095	0.5303606634557814
Si	12.285649959820379	1.3822697220015419	12.290640161902441	14	-1.287802634339701	-0.5022674811751834	-0.3596662668038104
Si	13.423822402778468	2.8432611009523705	10.945138638955058	14	1.4027336132556405	-0.9648795194450629	-0.2997368871175429
Si	15.021158456205988	4.063503675221001	12.066926314164874	14	-0.30703676934250734	1.3455602013620396	0.006756607670817137
Si	13.651274838395103	-0.034281225378081	13.552072221760477	14	-0.3380484132720054	0.08000431291545172	-0.02191867285426237
Si	14.893867666288608	1.4574803572904846	14.797021985490789	14	-0.025666830189974246	-0.13718826634086514	0.926648211776589
Si	10.79247421564973	2.7052746987548697	13.522667415355098	14	0.5557981510511983	0.5067635730485264	0.4986211396101493
Si	12.297678459953039	4.168395447323777	14.802971216637482	14	-0.9284495281638847	-0.41968640650787925	0.06980910898946854
Si	10.7506995597836	5.386752472922963	-0.064157418950823	14	1.0181440799204424	0.18530958773382064	-0.055434830476116685
Si	12.09691629084698	6.74634684670145	1.347533364186009	14	0.12054961537205888	0.013297756715805865	-0.03578592939848104
Si	13.580501744371318	7.97292876563459	-0.009265196048129998	14	-1.1466445813845274	0.4234615604494526	-0.7693107072627873
Si	14.834147788602943	9.320267073061691	1.336528912037616	14	-0.5014953782475429	0.7087223532829658	1.0217068605625717
Si	13.578258591643877	5.420643584783229	2.6237247188014168	14	-0.5262751771020661	-0.21164002020692507	0.19118353494823093
Si	14.842860323834167	6.754620504225131	4.025776447102212	14	-0.25628006499640005	-0.04534247076293944	0.6441490431674468
Si	10.732282950796701	8.137507905963215	2.7252517618130305	14	0.3416405045147843	-0.2799943978062539	0.49925645973475796
Si	12.12908440133689	9.479547171439982	4.232536611544692	14	0.07422986747693117	-0.26676348982877185	-2.0697541809089963
Si	10.833679955969044	5.415051957694533	5.460093814272371	14	-0.2191116522672754	0.38550201861331845	0.09891890631365308
Si	12.035083298273143	6.82566992865737	6.814259108261252	14	1.4730186338398683	-0.6535050383169337	-0.22101221331992885
Si	13.47562622699845	8.111711649597632	5.429242336905089	14	0.4805195297141788	-0.4054561098924557	0.5660967134110516
Si	14.871046025496373	9.548727301932686	6.711090337528829	14	-0.723067321195668	-0.05762952597739508	0.21111782871640303
Si	13.512882067949878	5.4287221855480015	8.109891119847823	14	0.0710339835639871	0.19042223066293507	0.17464721397116653
Si	14.88817851082046	6.748833820377527	9.54393215660953	14	-0.6796549791965637	0.37835614559703085	-0.700598946023958
Si	10.703154474799776	8.098805394049887	8.099162998107884	14	-1.046161157483564	0.46740380725503944	-0.7573728081508078
Si	12.054572719434034	9.367389535067883	9.360627567425738	14	0.5607030486704448	1.0763773014270084	1.0352938666268943
Si	10.711103037725277	5.32976338986201	10.733404527160424	14	0.5364223013585624	0.9201577135064072	0.48560131937945145
Si	12.219558228010385	6.782221035610613	12.143697403525081	14	-1.3862487143849789	-0.7749715098461574	0.04983393464670611
Si	13.440776086073553	8.159240479851547	10.800341504925687	14	0.4391607295342769	-0.06833689408315176	-0.36954599610701144
Si	14.810074533607715	9.573775840722455	12.072647979092844	14	-0.22206508094852948	-0.24237167076705904	0.31828381245496307
Si	13.692903201692053	5.516270160837875	13.421270410182753	14	-0.1519528386418155	-0.6124072053270266	0.23875052603416247
Si	14.986373334200728	6.81152831363654	14.854189870580742	14	0.5154443959409423	-0.12378252320161308	-0.45277550353605694
Si	10.705121297118763	8.040304621107394	13.523463897120637	14	0.7437680614597763	-0.5671320975234752	-0.4452892161753818
Si	12.215120686745227	9.299558547157625	14.70334597702522	14	0.7396216399099734	1.0009508415340804	1.0906592772593668
Si	10.926380680640072	10.673684649474758	-0.07538943731794198	14	0.22074404703503744	0.2365928544494942	-0.41823347489146345
Si	12.032823890815793	12.225897572674896	1.2813278492666518	14	0.18993294932051089	-1.734096381363665	1.511175122343526
Si	13.33290969839743	13.505437401651557	0.011817188643842999	14	1.6493753757384013	0.32092845138726733	-0.26187941816261856
Si	14.71293626767153	15.171514707864239	1.3764017645043929	14	0.04116236773344269	-0.04124721420900757	0.06833663697261975
Si	13.45303215242494	10.770481566082854	2.7005608270812598	14	-0.36580966585577224	-0.052981996000695426	-0.5342430324892049
Si	14.73731836253503	12.12776776821426	4.07228122937186	14	0.2569105000209004	0.1905528428131986	-0.4461590211051879
Si	10.849869666958408	13.542108072326261	2.7814606178383525	14	0.6222223998866919	1.5586922339862466	-0.8452043369923862
Si	12.31864706153565	14.921273140915185	4.172312837231846	14	-1.2479355894665491	-0.8510690282276441	0.41749865299096517
Si	10.936377339534106	10.910109696001163	5.4736665137463865	14	-1.7602332096061621	-0.1766308217256608	-0.07984027639602628
Si	12.07625652913264	12.197289248035055	6.976578841132526	14	0.9000922933669075	-0.4081215747778532	-0.4163385702705144
Si	13.50816819627627	13.392450774054097	5.570268373595574	14	-0.012261344161254174	1.0774407105874215	-0.19493940559990322
Si	14.839040462305553	14.904156910321005	6.836983220674035	14	0.45501005116979765	-0.078272673482332	-0.035432659527492694
Si	13.505388637461829	10.821277597048477	8.258914483653536	14	0.14102152726267395	0.07046859750408653	-0.8060001230707683
Si	14.840730954216088	12.318582042616013	9.489738887092926	14	1.3801333403810068	-1.1784818072323249	-0.6864892342480493
Si	10.696311233508087	13.590010761368083	8.077430424219552	14	0.49818430881625625	0.3771554394125217	1.4222938111997308
Si	12.121314640440389	14.908578196856254	9.502547614261216	14	-0.4294247250184721	0.6312852890296818	-0.5447583390275466
Si	10.779242865503804	10.766759232933692	10.827828253201805	14	0.7151118071140657	0.04657145910597022	-0.043777181844033286
Si	12.235796703189475	12.26352727241423	12.040804963201111	14	-0.13977171296654994	-0.7527684727434866	0.4197159742190609
Si	13.593375490459247	13.645862013335408	10.758826924738099	14	-0.3347489138146594	0.784236744977843	0.9828749426913113
Si	15.037023072597172	15.021499805534077	12.129116910796709	14	-1.1481479066652178	-1.3578002053491365	0.6958022919386897
Si	13.571610407111097	10.922414526542276	13.50540489219174	14	-0.7392184905957742	-0.4685628615333622	-0.09420195649330942
Si	15.022393815679072	12.194964821658068	14.86054546997516	14	-1.349024251559875	-0.551378678116396	-0.1663050056494141
Si	10.78842678790239	13.53076227084978	13.34510074582918	14	-0.2557912978750399	0.16159499781343484	0.5991431300909148
Si	12.099955925339962	14.87694649245334	14.816511406651678	14	-0.13506839000440307	0.6322617948302741	-0.6212237825803465
H	11.838950476245166	13.588460060134764	-0.2611598690289303	1	-1.6706690128893356	-0.16118902028338344	-0.2248135925357678
H	-1.2989983661507258	-2.1555104747186538	-0.05746534664728769	1	-1.3850585497322823	2.408376979109523	-1.7777601774630796
H	2.257463391653883	13.176110071803253	2.2032733730832588	1	0.11156951582037766	0.4953355241215321	0.1386406837362168
H	6.810331965515238	14.801118177427854	6.70213398134897	1	0.02583060959886767	-0.10215129992214325	-0.04286675345016885
H	3.9661768544178724	6.862974533798525	6.758326582644383	1	-0.09162905139943724	0.0574405497363642	-0.015586040450737653
H	6.793540829519241	1.3447863148313879	4.035106662069977	1	-0.07452477325715215	0.09239729766909749	-0.012678634554714206
