226
config_type=divacancy dft_energy=-23061.28705023398 dft_virial="-76.85427199073872 28.595289183820253 -11.015765852571153 28.595289183820256 -72.2052720958768 20.46741902865062 -11.015765852571151 20.46741902865062 -78.8044880483291" pbc="T T T" Lattice="16.249967316 0.0 0.0 0.0 16.249967316 0.0 0.0 0.0 16.249967316" Properties=species:S:1:pos:R:3:Z:I:1:dft_force:R:3
Si	1.2982748887445041	1.357473519676692	1.213157559943296	14	1.3653515416744113	0.317154325887822	0.15936404972714233
Si	2.695609578247344	2.872571722318584	-0.103951040920452	14	0.7444056955791729	-1.6330609411504655	1.3378589695966
Si	4.107065489347788	4.082674288406472	1.3290035769390598	14	-0.6320656194943469	1.6760485365506816	-0.7079692765346944
Si	2.740605737745348	0.2100308275593	2.697315824815524	14	-0.0410446111097799	-0.8494150361751927	0.44934204949153117
Si	3.9874819798693437	1.55536562165094	4.225495251146796	14	0.697906484532699	-0.2898363318612487	-0.10451928792199963
Si	0.02713744541772	2.69985081971682	2.565642339653976	14	-1.1824528793992937	0.10683071160481276	1.3547238778335793
Si	1.328174828605944	4.101832999872036	4.038978126293748	14	0.4869017844503824	-0.3432983532252158	-0.06107223600107337
Si	0.03989366976078	0.075529848084768	5.32860803242614	14	-0.41483061700024754	0.35328529762026695	0.8724575391648919
Si	1.194470097529896	1.1849151167480878	6.987225946402943	14	1.023866846142028	1.7763627817215792	0.24451828659885066
Si	2.5664548380197756	2.7966193750836	5.688414808737011	14	-0.8233681966189007	-1.4537620834340872	-1.5804946928800383
Si	4.058624336778792	4.019721915024288	6.781663859855543	14	0.5379829622878922	0.7531201999512828	0.5137747201460381
Si	2.810058098053932	0.020604958556688	8.420976812660939	14	-1.5868733480687935	-0.48401134784947186	-0.8383651968407924
Si	4.280793889923144	1.41358465681884	9.46536221206026	14	0.09667895935874009	0.46773985072038277	0.27423872143657035
Si	-0.07429485056875199	2.8339942999103998	8.249344657869347	14	0.5772244572366523	-1.517411852518609	0.38042871359560226
Si	1.416688400576196	4.13066044189062	9.616779407510746	14	-0.010839008698148257	-0.25028630427407084	-1.3201959902682467
Si	0.22850704039759198	0.036058677474204	11.019216586750812	14	-1.325027097164805	-1.0113067395425726	0.16750134095487898
Si	1.634600462283756	1.4196946445296559	12.291524027724348	14	0.4636924167254056	-2.5582816752533084	0.45377000707389026
Si	2.7374857440206757	2.590943538764988	10.760387107341563	14	1.1710099180614428	1.4536643814319214	0.16208993558756332
Si	3.965024525038632	4.086395530921836	12.271747817500776	14	1.0026212886605805	-1.4048617171291269	-0.9239768333489552
Si	2.8211568257307595	-0.16968215871367198	13.842453408298018	14	0.7323662378070476	2.8225288243052513	-0.9311543309606806
Si	4.278925143681804	1.464755803896924	15.128345821947732	14	-0.8722842466663139	-0.6724263165889673	-0.8998644934355424
Si	0.133785980912628	2.659290901296084	13.308056983144043	14	-1.41575240504421	0.5729991027535211	1.9543130946975398
Si	1.241530002877032	4.024726904957616	14.931916217031922	14	-0.2248896972532442	-0.5577244231570533	-1.2658945030172515
Si	0.261933223166604	5.463759010593312	0.049529900379168	14	-2.0418353195691044	0.36215432542211773	0.9096552624946661
Si	1.4083196674084562	7.0083184039791115	1.416444651066456	14	-0.5102610476155237	0.21329195537512022	-0.6673409273762465
Si	2.8673067329081996	8.296940812137912	0.10668103542954	14	0.21791428851968248	-0.6078789746371819	-0.01546108473217846
Si	4.207555287229932	9.655048080539927	1.4557695719711758	14	0.13178457428950993	-0.060486281098611615	-0.31966912400145886
Si	2.624402221468632	5.588412509874348	2.615822238725784	14	1.7764404291022473	-1.4397138210753304	1.4243514667874455
Si	4.103604246309479	6.821167530400739	4.153702895544708	14	0.1683418352840354	-1.4053702817614524	-0.5939983483452984
Si	-0.058191132958596	8.173343560732416	2.8294443090619197	14	0.5978223532879546	0.45119890175374217	-0.25057889605950373
Si	1.4147059045636439	9.529874582304778	4.179459093740568	14	-0.18997974343733762	-0.3183840855624489	-0.9058394850890346
Si	0.172233403582284	5.37158919597696	5.59600124461092	14	-0.6005019592526131	-0.03636854186402659	0.9449758218302003
Si	1.492169498759016	7.053363313379063	6.889238643487464	14	0.1257069955337439	-2.045190612011898	-0.5482740684423171
Si	2.8939891792410717	8.203763499547968	5.358556722189528	14	-0.5389021324398453	1.3076453967584758	2.2319392473934054
Si	4.404017392080372	9.395601102372673	7.083133253501976	14	-2.237769742927905	2.115270972612642	-4.604580690768722
Si	2.804191859852856	5.424060340440324	8.121701164602168	14	-1.2516384953486264	-0.3043268243350713	-0.42138899245088124
Si	4.22677899856476	6.591880491571979	9.3490124460777	14	0.49894741287527616	0.7682377850126896	1.7954038735015314
Si	-0.110158528435164	7.771595618778948	8.376890651332632	14	0.6759669857253433	0.9585196333251446	-0.5135978281000119
Si	1.291092403190832	9.294380055961307	9.508359625578395	14	1.8979040724156193	-0.8638343090316473	-0.34691409863694
Si	0.032077435481784	5.413124112436656	10.91193430253058	14	-0.45697206163960263	-0.6131857360179674	-0.7423092163011242
Si	1.330563573801396	6.591002993336915	12.236680388032848	14	1.4415593604741326	0.8971720319442833	-0.42263803541540923
Si	2.848651770429432	7.7995130626278355	10.83453570820447	14	-0.48971303100743235	1.42960706317236	0.0090531189427734
Si	4.1476741576704725	9.467864707026925	12.08680693947738	14	0.93663258506632	-1.282246732853393	-0.5401671162573581
Si	2.581534807689024	5.26230816577686	13.609331377182682	14	0.9381119990675332	1.485547372954418	0.5678147259859745
Si	4.016195672116716	6.91208609753376	14.80396397438574	14	0.2468903883672193	-1.0006525933169432	0.4427463930137553
Si	0.108419781932352	8.053987550796396	13.38412308015024	14	-0.5443269075548257	1.4628990204102974	0.8734245318757995
Si	1.5546831230236677	9.390059863517916	14.865535100546063	14	-0.5354920754537329	-0.15143681780406176	-1.6259585198140885
Si	-0.032548684533948	10.606906166041945	-0.31817436004728	14	-1.0406618203142994	1.4304290455432116	1.559361749811613
Si	1.34964103543038	12.088366936339716	1.0942727990594399	14	-0.4792581454441141	-0.454512799400881	0.5902681887468277
Si	2.6958370777897676	13.453152941308607	-0.179545888874484	14	-0.5155279568638471	1.5597307034250545	1.4074942718664267
Si	4.019201916070176	14.834643912678347	1.4033471774097601	14	-1.561753906201479	0.2557002807467067	-0.6251020378452579
Si	2.649589670808432	10.876606873585596	2.730595757878692	14	-0.6293777859926641	-0.311683785098143	-1.0832426668528676
Si	3.915088375476564	12.13775058701304	4.08101679174024	14	1.6893586345720244	0.6176872272124828	0.3219684634892673
Si	0.153675940907412	13.600052645845247	2.55806985488472	14	0.4836436797886908	-1.5466959707834997	1.7602455509116988
Si	1.4058659223437397	15.014059801814303	4.195774060925832	14	1.5039924825211601	-1.2421228345587583	-1.8305979344553145
Si	0.04096616760363599	10.857318162381503	5.4466477950095635	14	-0.6013128858705878	-0.5143131096000771	-0.6992784263315298
Si	1.296194892928056	12.041323280959896	6.7967275795574755	14	2.14725372302156	1.7882274043319344	1.4767842746917572
Si	2.8541930092841876	13.49173036371679	5.5643138083447194	14	-2.0300126059754677	0.3526507488272544	0.04168044545545252
Si	3.92420460714084	15.075403428432203	6.832802506998996	14	1.995889153276994	-0.7745598758844016	0.29308209521740364
Si	2.9227028714884438	10.742300893718856	8.160782335997148	14	-1.8701343351842956	0.4284376776860673	0.6786640752061787
Si	4.024255655905452	12.29695151680789	9.638781863256613	14	0.4083154361189924	-1.001623442685831	-1.230396280304095
Si	0.029071191528324	13.546671503212188	8.234215938298151	14	-1.2394326870622874	-0.9468632702457211	-1.6533564752161187
Si	1.348308538110468	14.737209108651612	9.597279446731548	14	0.8484197613057635	1.3522476462997448	0.7526751416203652
Si	-0.017241215322276	10.697255984318904	10.674099780893604	14	-0.16180942799713519	0.4916243907024304	1.0746124947352587
Si	1.2013600836718799	11.869008627541032	12.238760383849296	14	0.2845154294012023	1.1188658452845834	-0.4468107963038454
Si	2.606868506734668	13.406775534588744	11.017364090476788	14	0.1806155207508263	1.0276039477248633	0.9826085761801437
Si	4.111371730686528	15.065767197813816	12.29399402275638	14	-0.4947099741971401	-1.7857583718929964	-0.6681523682152852
Si	2.79401938031304	10.721565935423639	13.374860598780119	14	0.2908763439632486	0.6361109966050679	1.6908581031947343
Si	4.073395557069036	12.405777547923142	14.729262874634086	14	0.9112742875147636	-2.602596475219785	-0.3161572512446686
Si	-0.17639339521518	13.20207469630909	13.623533848616868	14	-0.2550940141122157	0.46831372142783984	0.14480362318861176
Si	1.279473676559892	14.755246572372371	14.694747944054905	14	-0.9637130089613115	-0.7494046956531369	1.3774709608219933
Si	5.414294110083407	-0.185022127859976	0.10107479670552	14	-0.0736577965431982	1.3598249507887532	-0.14102075593107785
Si	6.599745475752924	1.267286201072892	1.481720769774828	14	0.0632936709976813	1.129714624182948	-0.20790934638739025
Si	7.941554026936991	2.668455882862308	0.0820623349458	14	0.8377303909372479	-0.11816080141910928	-0.37371298649937545
Si	9.442514758013964	4.0990055055590515	1.268423698785012	14	-0.6282740104787246	0.18728959594086667	-0.3794804899535316
Si	7.98783393385296	0.050586148254707995	2.8076368529238476	14	2.1688754332113453	0.6243332773545336	-0.2194217275688853
Si	9.53515582168248	1.5725743370385838	4.051051852009536	14	-0.9418061631915219	-1.1327762963981804	0.8304523631075047
Si	5.406331626098567	2.9298528571074836	2.783960650544436	14	-0.29462372996736447	-1.6453186857642719	0.3880404708959006
Si	6.773473876328279	4.239161473659552	4.070681812527264	14	0.8008987930050626	0.1348102510302602	1.2117048588476824
Si	5.520162647147147	0.06849361223693999	5.558203820633904	14	-1.7681223891705047	1.6526507068057377	0.4116344759767715
Si	6.910802350115796	1.457394568702776	6.90851110472424	14	0.15044077160303643	-0.8195675887346577	-1.2417214850182834
Si	8.282202091782299	2.8712554749659875	5.6206361950619765	14	-0.34905814336341145	1.0917684520944788	-0.9364274108617722
Si	9.548123295600648	4.4955047080694515	6.96603598902288	14	0.06754113698656593	-0.6137251539141346	0.09650309575484195
Si	8.005400148521556	-0.122622253366536	8.175846055699079	14	-0.3616709576219299	-0.45828332535287813	1.1438801289443041
Si	9.252845139501611	1.311713611714836	9.456310980265247	14	1.9753910161121135	-0.4805560394097249	0.23936656286886995
Si	5.575315036217652	2.8274780630166836	8.061673785336863	14	-0.9878664865598468	-0.03821588103655299	0.5341756695298171
Si	6.847167478106339	4.033128138059988	9.523732094659332	14	0.8416646962981384	1.0770221346413016	0.35979842161726605
Si	5.471006496016248	0.071516106157716	10.946481733044395	14	0.08605849461280442	-0.5066242191401743	-0.6046393819337953
Si	6.835191252194448	1.3747797348682318	12.277614055701852	14	-0.10384745810184494	-1.461410864650996	0.4311129127716813
Si	8.016856375479335	2.543217384757896	10.854653167741679	14	1.1266928041001782	1.8364173742369378	-0.28919329842067965
Si	9.55026829128636	4.02812314812666	12.015177083548451	14	-0.9390751351204607	0.6265703960935944	0.17626135389115552
Si	8.266407123551147	-0.006873736174668	13.545176506219116	14	0.08491152452948636	0.5904548509930703	0.16090079937699484
Si	9.499990892410656	1.45242207870408	14.895142540995817	14	-0.8975006192041982	1.4213846683585267	-0.9432781209873068
Si	5.578402530007692	2.7395982397717558	13.539034018573668	14	-1.735349795207237	0.29727813909988526	0.4381513135855867
Si	6.954027263176356	4.115856721665744	14.74538284221156	14	-0.3884924712111827	-0.2535665204415158	0.9894220052785363
Si	5.551573833968976	5.475296487387672	-0.202117093476408	14	-1.4032339503509412	-0.633630394192189	0.2242908868241817
Si	6.7651701430298035	6.59578048372782	1.373983486469748	14	-0.9442947360308932	2.478162433930046	-0.7406068874686542
Si	8.028653851750752	8.160278587010351	0.0012024975813839998	14	1.096300796552836	-0.5120793332979324	0.5266225334308181
Si	9.687889264485564	9.448023496934088	1.214132557982256	14	-0.39169221178210695	0.30577487085137867	-0.6566142759805886
Si	8.214179728597523	5.548616339917463	2.6313084575779317	14	0.5614867215720261	-1.536649890966085	1.3987373442565343
Si	9.481417179768467	6.7783326165557645	4.123234206827208	14	-0.839902974932773	0.8231247129450827	0.7101452029671357
Si	5.406640375477571	8.080572497325372	2.763339442020432	14	1.389794268621463	0.7525280743960527	-0.5862719197477215
Si	7.032774604789691	9.625131890711172	3.8284922996496	14	-1.0423453800779323	-0.997944962304295	0.9219585156726389
Si	5.404706629366967	5.53376386979064	5.668427348938332	14	1.146725828312644	-0.14111614393845537	-0.8076798261764211
Si	7.080907007979683	6.697570278995244	7.129266910712099	14	-1.7174433322050657	-0.014294060027363248	-0.6262464368232559
Si	7.901416607666472	8.228463449868288	5.6596361166203755	14	1.1905570033684003	-0.048829403798124255	-1.9655236281144495
Si	9.591234458889994	9.260352624401603	6.815463791872824	14	0.03781118905916168	2.0614914197416363	-0.627291591135896
Si	8.476551700881659	6.035579110476036	8.881208386984692	14	0.29988369723132335	-1.2694189741901103	-0.20810115084427327
Si	8.199782257555547	7.869225422413476	10.785672056485259	14	-0.17276285088203003	1.0765297679724932	-0.4045595654673201
Si	5.547511342139976	8.142354873060803	8.264424627538595	14	2.5848267950206454	-1.9586672615572107	1.9186135544378156
Si	6.950582270105365	9.62477439143022	9.5188246045299	14	0.09284698398959139	-0.8567411436744228	-0.09569756845803956
Si	5.474110239773603	5.28010187998788	10.898560579429512	14	-0.9311800420138818	-0.0058420655084404655	-0.32591151060824636
Si	6.751991419536528	6.62129293241394	12.208177945360584	14	0.9657238704321995	0.20470214961103753	-0.433468816576533
Si	9.409511074395168	9.494498403457847	12.257984095184122	14	1.1928033780866136	-1.007857344645062	-1.3963431309824121
Si	8.285305835539656	5.468666500722744	13.489487868227183	14	0.8127947831003237	-0.2772034629812331	-0.20821350814676373
Si	9.554395782984624	6.794615083806395	14.992642344891815	14	0.18945960883107163	0.6217063790489382	-1.1009449840926193
Si	5.5998687368321285	8.048137562562635	13.492900361363544	14	-1.6082780569695585	1.373696321101484	0.10730610897850813
Si	6.828545015562204	9.518028356131415	14.834952662057352	14	-1.1372734167136516	0.13142076288670898	1.150615910662028
Si	5.539792607664876	11.087287699837535	0.027088695515772	14	-0.5314284434952388	-0.5265302307498247	-0.4216710427045015
Si	6.796516329982368	12.407061295341107	1.596510538895052	14	0.04391782130504539	-1.3060417983702994	-0.7772361394121438
Si	7.915505329329444	13.68913496667156	0.094461060007908	14	1.282926790210572	0.895102549272096	0.027181982555137506
Si	9.5350745718459	15.010598558775994	1.361276012028636	14	-1.3306621886949734	-0.656444840139991	0.9107376978344486
Si	8.474179205653524	10.929403017395279	2.4793875131406478	14	-0.8754418211099879	0.7729519066171809	1.281758994174161
Si	9.488063416400712	12.375113859597851	4.175900350898364	14	-0.6196368963767511	-1.5726955020019011	-0.1756571441409207
Si	5.29553934893808	13.64764880011381	2.822765572495044	14	0.1292350662540511	-0.7616135892658601	0.9553404615967813
Si	6.6312054124767	15.074769679706879	4.11416672506488	14	0.7027548178349021	-1.808782105813858	0.19697469257133246
Si	5.528953879465104	10.830261966800364	5.275438139368188	14	-0.5887453230657039	-0.624078737927839	0.4259570752731884
Si	6.681645311025564	12.261737837634119	6.676705320961499	14	-0.04409239935628344	-1.3093834639548958	0.9594177204134723
Si	7.968090223564019	13.5991913975775	5.50865767028742	14	1.5725977999997354	1.7362093157157623	-0.8616401277514328
Si	9.498252145907843	14.929657471574998	6.938362294683731	14	-0.0727270564173046	-0.6220892166311083	-1.0326047475725513
Si	8.209857237291468	11.001682872016847	8.016628875936911	14	-0.0890309494734276	-1.068072374132398	-0.13843113865262474
Si	9.364953664014696	12.315200230103759	9.554704532363628	14	0.33697189147445944	-0.3541039375542021	-0.753576571145609
Si	5.472485243042003	13.505689085641235	8.175911055568344	14	-1.7666450320535472	0.5500656146293963	-0.1250577914404065
Si	6.686211551841359	14.644633044852359	9.736460416793088	14	0.4010636335635147	2.2650152317844503	-0.8523106149867435
Si	5.526955133485236	10.939201747686827	10.797274533148883	14	-0.2648531585759018	-0.11793942925104456	0.523981494045962
Si	6.849832472746163	12.349926410258051	12.210940439804304	14	0.0723187648924651	-2.0134153498023157	-0.9385573145089828
Si	8.254008398489038	13.654928785471379	11.035011554981963	14	0.8938956724348187	0.1609275388723244	0.19532147185047724
Si	9.75570037809523	14.855996369731571	12.433646241870083	14	0.32747140020598026	-0.026258955745204347	-0.36673937753953784
Si	8.018172622831932	10.813963249582415	13.456402934771809	14	0.9687482616202897	1.3738264190306835	0.7053323509183506
Si	9.26218887070831	12.415966277430275	14.957509915554622	14	-0.5069111544939028	0.007175697838001274	-1.8862824192580177
Si	5.540653855932623	13.568056460200044	13.446067955558831	14	-0.9226653125251475	2.0289507394782462	1.0112080090982791
Si	6.7984663260602884	15.059315960789364	14.839356403199988	14	-0.285483193443706	-0.9753392901084891	0.018902252092664645
Si	10.694574739711763	0.140334717740976	-0.040771167995843995	14	1.6148552014890294	-0.8332749225279633	0.7593751849741391
Si	12.122508117670632	1.52782192705032	1.239807506341536	14	0.2523614433779624	-1.4076153709270056	0.06335177797791665
Si	13.637996319528106	2.5664223380851436	-0.040657418224631994	14	-0.19009852850312844	1.670241952295659	-0.46723874229348594
Si	14.84458889267574	4.07898554582574	1.2739324377051358	14	0.9241205581363514	0.5887679487925213	0.3585056698622956
Si	13.526099044590133	0.18971836841429998	2.5608973491977043	14	-0.8060325189978023	-2.306596946795609	-0.7384579576420744
Si	14.751200330510688	1.192715101059768	4.082804288145	14	1.6100027544183138	2.157255322716936	-0.42461675806979515
Si	10.759460859204552	2.765484437706144	2.5244811724425475	14	0.5104873048836968	0.7070177104557076	1.4689462601232859
Si	12.11958312355375	4.154287894368084	4.00147320172842	14	-7.068701804324375	7.866445079770021	-9.084346302439261
Si	10.760468357178144	0.19394335991645997	5.5950587465065915	14	-0.15334406373054763	-1.2677868365328804	-1.5867689611927958
Si	12.139830582829486	1.2915799022103118	6.995740929276527	14	0.8834762681249185	0.4964416136302599	0.8350011626399106
Si	13.657073781157091	2.5411048890068155	5.633083670026032	14	11.76511749202868	-13.49598250822598	13.042425645783132
Si	14.643186797761235	3.909140887438908	6.9726334757531765	14	1.6906907242383928	3.2440736257385336	0.35424637678893833
Si	13.704702435360288	-0.155479687279488	8.41252682965662	14	-0.7228552050067557	-0.12717124001356825	-2.58254699593327
Si	14.991066098062165	1.211808812656068	9.592404456536748	14	1.0358728795449914	1.2229372466598134	0.5179669073705395
Si	10.734777158851548	2.794051880247672	8.256592143292282	14	-0.8452411037984645	-0.6253444930769478	-1.0215315111797374
Si	12.153561805211508	4.093009267619448	9.397664848221805	14	-0.7888989302548675	-0.31106877670556354	1.4708496493917915
Si	10.875160626494472	0.12114350634077999	10.950982973990927	14	-0.6346688636309968	-0.5149913671835321	-0.7437930011813817
Si	12.27907655276029	1.428973375867092	12.23525039090904	14	0.12457699474553882	-0.03472457712232391	0.3017608612255635
Si	13.5837539286273	2.727573263957916	10.648018583351423	14	-0.18569062554226656	-0.8807277565376802	0.6770319375489486
Si	14.953106174411989	3.9536982978193795	12.00214460976102	14	0.07961864711742953	-0.16364802541157306	0.9635021783250596
Si	13.364281870057404	-0.37110050359549196	13.614563866658436	14	1.038950749723741	2.3434521988967396	0.29625072541395414
Si	14.986792356658055	1.345058544647268	14.871677588191512	14	-0.38312528885537356	-1.380329772827466	-1.4093225848595838
Si	10.908099310244003	2.9488978188018358	13.507249082503572	14	-0.7792007209872689	-2.3259830809095257	-0.07751265474969622
Si	12.263574083940828	4.012783178980356	14.89264004602915	14	0.40190849877171536	0.21679560059488603	1.5388487002358755
Si	10.930004266185971	5.373571691989511	-0.007426235063411999	14	0.1337566120700635	0.41004758977317607	0.347451973869915
Si	12.205935449870976	6.806168810568072	1.449318334946724	14	-0.1381478028463444	-1.0575064168192496	-0.5582152471626696
Si	13.556015234418888	8.128932400057787	0.10136729611720799	14	-0.42009341248005866	-0.45169821040691494	-0.8270500194373527
Si	14.883068815280028	9.480962180683619	1.319318596418724	14	0.8727987248408756	0.6862102693208133	0.3243341374943356
Si	13.609233877378788	5.47445148908724	2.7843668997273356	14	0.797779785141191	0.022497171551295693	0.27703299869850734
Si	15.144449539557888	6.748221427119216	4.302893845472903	14	-1.3749314800972832	-0.04045197133348577	-0.8060911401991017
Si	10.795633286449968	8.04324632240052	2.729052010983672	14	0.39730390625386214	0.7989082432662039	0.02790446315009911
Si	12.411887535633959	9.359639924702364	3.8377222810850875	14	-0.30229873645853844	1.2862926241851782	0.11149263977130525
Si	11.072743979089717	5.63890115832516	5.38702666492716	14	-1.8773172321171934	-1.0103140357784635	0.34081903636499694
Si	12.341573927057627	7.032238355868264	6.57774302000706	14	0.5363575095044947	-0.02653123579860803	0.7138799905551829
Si	13.8579721270848	8.384983135056	5.445152798016492	14	0.5036859599803091	0.3494607784565467	0.22712861576602916
Si	15.365904094140335	9.572969495626813	7.1276094140458675	14	-2.301294042072804	-0.4554034302837803	-0.7820207093024073
Si	13.236443377182432	5.541190104854052	8.155728596161872	14	1.439048676129008	-0.03181588567364039	-1.1716161846959334
Si	14.678985475758383	6.517764390643704	9.685045520205263	14	0.3545675078434248	0.7304744185124826	-0.5643900136995372
Si	10.366471649634407	7.672795817497668	8.329343246966015	14	0.2037780943589763	0.6632029904740002	0.3931068339292524
Si	11.944847225004803	9.262643869793159	9.187975269976139	14	0.739840955193782	0.5451339775148202	0.9621914288328479
Si	10.700132228533835	5.5494613382178954	10.61158615662895	14	0.5400581013917838	0.2150714173671947	0.395027192492871
Si	12.377258855283564	6.866374939473852	12.005053353910585	14	-0.7726099496096013	0.028680936956783833	0.7147528808113731
Si	13.661575022103623	8.351638202123567	10.67403478102434	14	-1.1592093159735588	-0.38073698912348797	0.2612703233122755
Si	14.898262534720487	9.609970671205344	12.221860417840656	14	0.6576167499449145	-1.1549376815946648	-0.04665167759195884
Si	13.539570267495096	5.158162125248616	13.428290491315128	14	0.5176560607373337	1.7246092598428504	-0.7831645940593412
Si	15.099632129700359	6.860053702187927	14.975222379929063	14	0.15072230763559263	0.5281646824018429	0.6503312659097429
Si	11.018144088907956	8.230868445031055	13.49814910080661	14	-1.466380297013778	-1.3325887179113605	-0.19454988314390081
Si	12.117568127606567	9.465427211929525	15.014319801291359	14	-0.10929537316470671	0.2702699632643898	0.7091915800038928
Si	10.714432199771917	11.17136503073052	-0.255595735913364	14	1.5509485789830246	-2.1495726029098017	1.497026072656219
Si	12.126733109172791	12.578059701407375	1.078689080403396	14	0.21234707416996582	-0.8958854508420813	1.133440412902375
Si	14.94598868872758	14.53778950974966	1.12189774349664	14	-2.5200699079852678	0.14532710023179388	1.957145681428747
Si	16.284287246971388	16.156546253900316	-0.051106147208819994	14	2.577162587171816	11.10096293547569	-11.3411152281304
Si	13.544217758147472	11.039317796320702	2.458506305139588	14	-0.19865311012432513	-0.37717009471284657	0.20694569611339872
Si	14.915503750042763	12.157234297824923	4.037174379921672	14	0.014311286433008236	0.9932246700470353	-0.7325354165371133
Si	10.844708187744287	13.54621650412734	2.814721838673624	14	-0.45624958104464103	0.8358951359597261	-1.4135574524323997
Si	12.069598224089736	15.053904721673135	3.93687958164732	14	1.237848886185076	0.8045081106534865	1.3524844450997302
Si	10.918125540077975	10.726148426206752	5.14059591058002	14	-0.06616816674560685	-0.21086740305822058	1.3788544725947651
Si	12.19218797752164	12.117080628587088	6.6476828793351235	14	0.4133748571679797	0.3878810623660514	-0.08070725310998021
Si	13.609851376136795	13.705677433399247	5.315770558246499	14	-1.2419055761592057	-0.9868002491835814	-0.328109291435909
Si	14.972573635256555	14.988856102507187	6.593391738532367	14	-0.15261515537228565	-0.7278930287710539	2.4969402445252156
Si	13.495045357049255	10.732437163558044	8.104719948756948	14	0.43102086720122	0.30988632536882743	-0.21649992348306896
Si	14.8207826905578	12.121029370644875	9.605696929801235	14	-0.6593507033728224	0.7635023232340408	-1.144749676763578
Si	10.883350610021735	13.449171699316187	8.209662237683675	14	0.16743834887453538	0.48711132953397446	-0.5579334540195814
Si	12.20835669500106	14.83776390640302	9.626415638129137	14	-1.4020584409985695	0.9159842953507428	-0.8399615961340724
Si	10.686319756315235	10.796868283965983	10.641469846523076	14	0.3238294295199905	-0.7387353799061184	0.9394618293606108
Si	12.090593181862006	12.086953189183223	12.143958074527752	14	0.23208133594423036	-0.7726965958588903	0.10990009713600553
Si	13.431702984451487	13.54540400576154	10.903305569885783	14	1.3601491671696238	-1.457662707315284	0.8227570448843015
Si	14.849528882739804	14.694179195198844	12.32080646882778	14	0.9832377256519842	0.8507291281043204	-0.7915569389348366
Si	13.380986836458252	10.66196105530855	13.60084889424373	14	-0.12233370535370962	0.8055890033300768	-1.3593441540938853
Si	14.404231028379455	12.109296894242723	14.99043234933684	14	2.71690293265346	-0.2730079333198155	-0.1918306821573122
Si	11.291371039359179	13.44026671722702	13.87287334711357	14	-2.487707919541628	0.048045730896543126	-0.4841553297474002
Si	12.425326258604292	14.747219088518268	15.454921415097383	14	-0.6288779631184274	0.32673914941080207	-0.1698611014177109
H	16.168033355795995	15.344085263025141	0.7258486650808932	1	-0.8609904094370313	-9.574877459159563	9.821709483436015
H	14.077629435282098	15.255547316103916	0.10644866089692119	1	-0.27952774219064697	-0.16836009013180844	-0.8187654038747716
H	11.690211862159815	4.566736439799138	11.571926725069918	1	0.167952827049097	-0.17753996456686513	0.09567417139962621
H	13.338387547139357	6.038445604710579	5.763674907364335	1	-0.06284244201399532	0.030842465199432324	0.041075207263089664
H	11.234475028795668	11.492561884698576	1.9561661905098853	1	-0.03407100214994227	0.14784704055607104	0.08446929441442089
H	16.07900790985529	7.9287929276037366	15.873195573811223	1	-0.4523656693480253	-0.3816769852285341	-0.2469271551732974
H	12.744041742563194	3.4068153977797895	4.785192875411784	1	-20.913104307573306	21.133813130465455	-9.662188853394875
H	13.598534898897933	12.954421944419789	15.9908112122477	1	0.378045298963825	-0.08638348232527113	-0.14019157446533015
H	11.462590444980945	15.446065182910163	14.326577309566485	1	-0.32366744988482116	0.3506527428829673	-0.16608157659709322
H	9.4262924156424	8.594677588291859	9.261142372813161	1	0.02229508267313205	-0.31218077975652764	0.27910402403388657
H	13.025556176345578	3.110190119390257	4.950385168156045	1	14.830833798819071	-17.38376988900126	4.173965801097553
H	12.56268885732317	4.295139361069709	12.536968409055406	1	-0.523704586002982	-0.23031215837343652	-0.6417455739141723
