225
config_type=interstitial dft_energy=-23350.819585776506 dft_virial="-12.177730291924638 7.694386801365316 5.586003646345529 7.694386801365317 -13.349054266935626 4.188492972711724 5.586003646345529 4.188492972711724 -10.905430112171315" pbc="T T T" Lattice="16.3852778749 0.0 0.0 0.0 16.3852778749 0.0 0.0 0.0 16.3852778749" Properties=species:S:1:pos:R:3:Z:I:1:dft_force:R:3
Si	0.049221374736199607	-2.6813524125601362	-0.2604931476551602	14	0.6390286869223719	-0.1394500676909994	0.6412310957396108
Si	-0.0889556735828321	0.2550040795670687	-0.20748677372985874	14	-0.07309832402553398	0.16807392610967598	0.9721488055167173
Si	1.3683837111665238	1.2772815661820798	1.2828525606595458	14	-0.1162509843873033	0.8206680218116811	0.6300838115135767
Si	2.7932802457235777	2.6273465366844655	-0.0448628908214762	14	-0.11936125049308641	0.2458316071963823	0.3225850145450388
Si	4.144426644565707	3.9757893646772358	1.3769368262172217	14	-0.8374560539995881	0.14724797301647652	0.2992537764278871
Si	2.7266249353284846	0.09003710192257551	2.8016367374397766	14	0.011553518866617409	0.002933631170288958	-0.6848660954594398
Si	4.129352188920799	1.4260107334525471	4.072560815806395	14	-0.12219872232440185	-0.1714695849059955	0.2936724209989096
Si	-0.0705222359735696	2.6521374621091893	2.677862348372782	14	0.2823819262065434	0.6314868636867815	-0.46610642751049275
Si	1.1868676028683816	4.059862225453347	4.105708232947318	14	1.134883574318574	-0.6412902311619743	-0.5598844087365098
Si	-0.1281164877038431	0.15081009756057961	5.268997420953719	14	-0.44888670673933295	-0.36851806820001626	0.3951801732594198
Si	1.3863419757174142	1.3601255311175742	6.669905908701919	14	-1.0420509885187752	-0.5388946762344169	0.20555755635105077
Si	2.672111115838692	2.7159089635983	5.414859164596079	14	0.7092314321363551	0.8256181708845622	-0.496461411141225
Si	4.036398507536491	4.059239584894102	6.809410164528817	14	0.4932999800395709	0.051862793854834964	0.48278030262218496
Si	2.6513181982154443	-0.06554111149960001	7.96581753582776	14	0.296578284231741	-0.2224049810718531	0.6665356571899762
Si	4.0581745418322335	1.2235378547524078	9.377065133915021	14	0.9769863401765762	-0.05212427526589402	0.017783564167868218
Si	0.058331589234644	2.628100259466711	8.114661400043351	14	0.029374878282691804	0.42735909900426505	0.7801957387461661
Si	1.421783331760823	4.119586563307358	9.476130523946667	14	-1.1159304143405702	-0.7028869726483578	0.2263914798707427
Si	0.0867928169033453	0.08363045827348961	10.739894235881955	14	0.02222437727682798	-0.7940000032100413	-0.14999082817201048
Si	1.2575045357870756	1.3884229060075266	12.231642704168602	14	0.32102923871581723	0.9170700731274414	-0.25892290415498026
Si	2.6915276701204487	2.579583451679132	10.672796522984239	14	-0.0007507627534832391	0.4535596906587021	1.3463369322792562
Si	3.85385012673223	4.016342927417614	12.240589065888297	14	1.2042442825402087	-0.3881116905132687	-1.17273744372605
Si	2.8246580528540113	0.24541869201025224	13.487033539109815	14	0.6366470720643188	-1.0867324281039046	-0.2913118892044817
Si	4.223878856981097	1.2999424054830666	15.057611579252605	14	-0.1377153429314955	0.3688867647029255	-0.2540586299997921
Si	0.026740773491836803	2.8445825507498896	13.687146937795967	14	-0.8250944367308481	-1.1292199435193517	0.01624475763375959
Si	1.435694432676613	4.047917357882546	15.01653368762023	14	0.3969382950773371	-0.24889816451172292	0.220546071925386
Si	0.11427092789955261	5.435209679716704	-0.12408570934661771	14	-0.7565485117851682	0.6401502030630205	1.1582598067788283
Si	1.4945339655253789	6.7990218983561315	1.373250138695369	14	-0.24438227512741484	-0.23285986663517122	-0.7163006862141023
Si	2.794574682675695	8.192933872451748	-0.05246565975542981	14	0.5698173599198378	-0.9441286426272117	0.2511149715187546
Si	4.123748423887583	9.512669693607695	1.3876200273916564	14	-0.46060117679899165	-0.942016993827774	0.0027019745809436163
Si	2.6888077139932154	5.3392411072034145	2.7828428237172664	14	0.7015656816243337	0.10901897934279078	-0.061742780268567984
Si	4.109214682412547	6.708362155874309	4.190289037337552	14	-0.4482133342559862	0.08132354705521971	0.22737158521878312
Si	0.15561098397792533	8.168355955639399	2.690954185394827	14	0.23260121343996432	0.1620930209139475	0.8953324060877174
Si	1.4687435381502862	9.551650269672082	4.202659922133101	14	-0.47171709354011987	-0.03527762187668776	-0.4104589666243998
Si	0.18009058912302592	5.547039201212897	5.477336229133073	14	-1.7234617755384682	-0.11939261797799225	0.8088676768343296
Si	1.47634630708424	6.963825023221876	6.819814815979378	14	-0.4293617329381284	-0.7043489031333939	0.6343402763710818
Si	2.9298515368108693	8.254542517261372	5.623705916389554	14	0.38212898554381614	0.45956707823922804	-1.0381243964738454
Si	4.2110164138493005	9.647602456907496	7.0617270585244025	14	-0.2244312691746618	-0.603368227463514	-0.5045963883741734
Si	2.6792550969921485	5.4685045643585015	8.185003397960298	14	1.500239954306404	0.8433138032504814	-0.2649495750254074
Si	4.1964499018185135	6.831612216049306	9.650502651091353	14	-1.5570608676606126	-0.1745633959377297	-0.20290160455533782
Si	0.11310757317043471	8.175598248460105	8.296439672787493	14	-0.9870627590367684	0.998011553932087	-0.18146604239073125
Si	1.377706934277342	9.75184559474761	9.6223363584244	14	-0.07834415021023212	-1.483325166626214	0.22962438770029686
Si	0.16264026818625743	5.5321777541803625	10.933502679251774	14	-0.1952705639651383	-0.499170841927597	0.1370224300477156
Si	1.4434774396671906	6.946374702285106	12.27845544305719	14	0.3294205551491845	-0.7651123493855175	0.16291140373735064
Si	2.8372419462619347	8.314168543448135	11.014101861118407	14	-0.1873335618418412	0.02353461254797544	-0.8172332822144953
Si	4.133743443391272	9.70345986918303	12.360267135486566	14	0.049429499779846814	-0.12212544582277765	-0.4008052374788398
Si	2.692641869015942	5.366391512642124	13.612430070686424	14	0.035913199111828366	1.521837753216712	0.41660056590263744
Si	4.218570026949629	6.656043963619753	15.029084810472403	14	-0.8488542781048685	0.3849664573751316	0.01438250605037634
Si	-0.007651924767578301	8.130292955136007	13.600059185890874	14	-0.28390273500341096	0.8628444334833901	0.3548369596809763
Si	1.4193746959132125	9.500462661590895	14.96567378509654	14	-0.8125489854317176	-0.03221594966145543	-0.3396543256549699
Si	-0.1368989966447895	10.763259642131562	-0.1338513349600581	14	0.6694350926595072	0.8350397292197129	-0.5939389558124031
Si	1.1933397876289673	12.153337461204455	1.2542766360457203	14	0.7736677023383103	0.38422109394282067	0.21665393269174585
Si	2.7143523622001844	13.782935272252633	-0.0171062301013956	14	-0.5919934004166469	-0.07222440532721565	0.459721858779501
Si	3.998712368424221	15.056366298134114	1.4958447877553709	14	1.4352534675659372	-0.28654326016720305	-0.46250533739909333
Si	2.6787307681001518	10.798651842341346	2.5747334094281618	14	0.16432628299502813	0.8423218708179683	1.6453551954598178
Si	3.9797382166450865	12.29182582980311	4.064106012422947	14	1.3372478178620009	-1.4260003166292563	-1.444885085205744
Si	-0.015451317036030702	13.790898517299835	2.5216287238356108	14	0.37593365016438735	-0.5102957575373458	0.9785498293217583
Si	1.322816253396427	15.141553357805718	4.004447215680436	14	-0.6126571167641451	-0.5717765421737906	0.14422949537062268
Si	-0.07861656324377021	10.984084032051591	5.369160624602982	14	-0.15651835035880243	-0.09522294241594022	-0.07787698037356121
Si	1.357225336933717	12.325661428614778	6.6852589140707	14	-0.8054013126417059	0.04443615613758724	0.597809497761354
Si	2.6525962498896862	13.603795029246353	5.2325729482378165	14	-0.5961015124971796	1.3213393608041166	1.3040684750370857
Si	4.009805201545528	14.992594796645001	6.653668098327893	14	0.5615659116158865	0.09765957892784455	-0.7530590076446633
Si	2.6782392097639045	10.97251602587191	8.196915494975348	14	-0.006131571967489139	0.547648518517925	-0.7105025866066363
Si	4.132875023663902	12.332395777821361	9.369347668035944	14	0.32756884509761386	-0.4519998010609682	0.6493989831206572
Si	-0.19269086780882402	13.741251125338888	8.012384495548226	14	1.0964128967447941	-0.3096646960902307	0.3208137800899888
Si	1.409150282519275	14.917140592031085	9.421682245568375	14	-0.47759644007570246	0.1458253804428386	0.06752416769145295
Si	-0.18130309968576852	11.03047075371543	10.807450736560169	14	-0.3709374783062756	-0.7185162076684739	0.07207502410811506
Si	1.2508848835256159	12.310242882134498	12.022288008761002	14	-0.13016812037473283	-0.3214699261676906	1.8976893851213867
Si	2.7617877416480203	13.449675105555043	10.842842936769951	14	0.4073800680035224	2.0852270927256478	-0.7483184036553743
Si	4.1396749139819855	14.941620197176187	12.126694999379867	14	-0.4461014283460165	0.4864004189129535	0.3793501349138001
Si	2.5471406014868303	10.926457009765567	13.510349789525797	14	0.41558497930117905	0.9531295681319861	0.8019945980925097
Si	3.9505068809162656	12.322417143595548	15.053859350619252	14	0.03367633748329954	-0.5112812622065585	-1.0512902554867276
Si	-0.029231335728821604	13.79399533481819	13.536959480794634	14	0.9551980223620452	-0.3931070910397844	0.35172335113827696
Si	1.3395783926624496	15.393214840686307	14.947617208878402	14	1.2061201609817886	-1.2154969820843686	-1.0409220161726984
Si	5.58413547032167	-0.05687329950377791	0.0358182174345314	14	-1.1032566648859645	0.14506227638381863	0.8489902895763043
Si	6.985830451407866	1.280542236479185	1.4366447787933574	14	-0.5598676965519288	-0.0612882088479658	-0.07474717386734495
Si	8.348086068649177	2.525053246911465	0.022349519021363604	14	0.2707803276704392	0.3556352878828823	0.12191692918131364
Si	9.698658982765686	3.9434448261521835	1.4374312721313525	14	-1.7607358606962509	0.19729505229422295	0.3127708484275016
Si	8.321230598212216	-0.09854106113964861	2.7694068958598486	14	0.852908139863146	0.5705097585825536	-0.5913938186559885
Si	9.561284813062523	1.4596988647633415	4.084735077267446	14	0.2587043602027677	-0.8413859884814343	0.5254485667416383
Si	5.519020376046818	2.685055485359863	2.733637834258942	14	0.02623838690264316	-0.39641404670255886	-0.4540124623055801
Si	6.716210703976387	4.015425351856619	4.177459364761505	14	0.6240329722531403	-0.6411025404736034	1.0011241340326582
Si	5.512793970454356	-0.040012848570505806	5.295689038611931	14	-0.7511162804647594	0.5523734387647612	1.3695902659052077
Si	6.847981108646332	1.28300002816042	6.83520059190391	14	-0.6241646128455318	0.43200148677032457	-0.4008638586801392
Si	8.239861308285464	2.691429358453199	5.538191151160451	14	-0.6867440307852759	0.33873798371886915	-0.15542640192933554
Si	9.530349408434711	4.169971292772677	6.85319162701055	14	0.7945921287652713	0.25691281401568855	-0.06074724828860665
Si	8.168503423140272	-0.047648388060209206	8.160458251703696	14	0.2993599630776092	-0.08505396376422256	1.0328055508980547
Si	9.54321185156651	1.4673671748087946	9.544194968239001	14	0.28978696663910186	-0.6969610891064805	-0.2574874560547416
Si	5.539846064225816	2.742141793476015	8.225163714031678	14	-0.14192681344589808	0.1612283581947817	0.02077607364998857
Si	7.029644684445349	4.155388395464016	9.727611768770632	14	-1.520102514236144	0.08493980668800798	-0.9343106198516943
Si	5.586331097556907	-0.12356138045462091	10.734143003347866	14	-0.8856938464635462	0.5295844467596286	0.5637672919909973
Si	6.784996100495216	1.2857363695655282	12.310537817136245	14	-0.46021782499575753	0.9665535661190112	-0.7101698855782091
Si	8.281856775478833	2.7371278984462957	11.018542271422504	14	-0.6091074487591487	-0.4977569911120475	0.414247490313638
Si	9.613816013929453	4.084259904209074	12.376537716416342	14	-0.2733012964368444	0.061248870936567536	0.15971809092972675
Si	8.094196187977602	-0.11300926150318531	13.60682630565321	14	0.3730594115269938	-0.4056972795714856	0.6455793490570452
Si	9.571001282842339	1.132058848376841	14.971851034855378	14	-0.32021394121879826	0.44134616905640267	-0.5499144336365714
Si	5.3266572137954915	2.8208730536649096	13.610201672895439	14	0.8296694615375196	-1.1479920976828168	-0.1658656037502008
Si	6.887207463878843	3.8751509879696	15.033426909109252	14	0.009714921452179516	0.6571269543814263	0.16345159296511375
Si	5.528081434711638	5.2573311031067895	0.06906394624270351	14	0.3536308541752949	0.7378938571348338	-0.44166318634237695
Si	6.806788520068833	6.615654253658125	1.5465080669445617	14	0.1661347984772203	0.5164849222640062	-1.1310672826918782
Si	8.146432453842783	8.15498556889348	0.18675939721811022	14	-1.3857303795524372	-0.8039640647677431	-0.5343039676852925
Si	9.533642849287567	9.379244375872384	1.4373821162977276	14	0.199518801285619	0.3225631601498175	1.1663886133590085
Si	8.067488185041515	5.211583407280068	2.8436158193552705	14	2.062844849582163	0.6885317203143749	-0.3934523904842803
Si	9.466889227225224	6.784553697992594	4.178966810325996	14	1.1020695855596523	-1.8098807391171574	-1.2186756395916678
Si	5.356363722582685	8.01012332720149	2.719202404451155	14	-0.31213552830289304	-0.05342833988427312	-0.10324556234639828
Si	6.771543787359924	9.360696241317997	4.0788527625103566	14	-0.12946543729073634	0.3270109152431417	0.09721503481799096
Si	5.543876842583042	5.428966888846368	5.574845017766602	14	-1.3038776990223309	-0.42601261114810357	-0.2616192223042195
Si	6.777508028506388	6.7017588888907245	6.998627353428162	14	0.41598889994697424	1.37366006851647	0.017195038160086322
Si	8.133029296541116	7.974026560043085	5.430752884134731	14	-1.8777198672103286	0.6614937196571656	0.9550589255642252
Si	9.314899389657652	9.448259166281463	6.663548420886458	14	2.1915063022392887	0.2905169034394919	0.8771222955472365
Si	8.331061764937155	5.560049111845568	8.267781821784292	14	-0.5113979903880932	-0.34012509503908894	0.784654806702899
Si	9.601117423576406	6.910474558461201	9.749502500011499	14	0.1656228914079788	0.18037332262966835	-0.7137421793100229
Si	5.518922064379568	8.230079297394147	8.423523887985215	14	-0.15069145437175085	-0.7676824262635376	-1.4452249853290675
Si	6.836462258300277	9.554058905519693	9.658564207805805	14	0.5627992708379617	0.4347109175566965	0.14351524231268556
Si	5.397933172551307	5.444778681995646	11.028864996483692	14	0.8888743037445693	-0.38285969367580225	0.35945260795170614
Si	6.829367432980446	6.885568936091353	12.36606752385428	14	-0.4127837600548777	-0.05435239513633435	0.6284961539783852
Si	8.210498890333643	8.328735055478921	11.055523843586153	14	0.2701030985291122	-0.6648528687579391	0.45624521016559677
Si	9.471985048644319	9.579144765946165	12.646403243015945	14	0.5050352760523228	0.4007311896456195	-0.9163054264052293
Si	8.228850401553531	5.405470400373761	13.781362285576643	14	-0.7301381179366071	0.10035641129814789	-0.5817136071256309
Si	9.435445878983291	6.810606289813686	15.180173457756856	14	0.40807246666623836	-0.020458799253482294	0.09981082274921246
Si	5.338913401645917	8.345562735856443	13.813411889099946	14	1.4008147973552139	-0.9069720569825597	-0.14177383267934926
Si	6.666251991735816	9.626530989560376	15.376813177533531	14	0.5623354434382069	-0.9343977803220473	-1.1651783940848148
Si	5.2844815085454995	10.980053253694363	0.1561189275920472	14	0.10109740385141455	1.2086187611319088	-0.411938123515081
Si	6.790780103585056	12.302967818758042	1.3579299038823378	14	0.4361044566402168	-0.3881248031504015	-0.11831301085406205
Si	8.173877794283241	13.71319952961706	-0.0407829566306261	14	0.8666165020985794	-0.10484093319755017	0.14811829216734665
Si	9.727497071825509	14.94453677663792	1.334466185965481	14	-0.9553186072015603	0.7289569521525312	-0.6572848202480834
Si	8.06673446225927	10.746268108975292	2.6636563124552435	14	0.22683525264900026	0.5835997699884915	0.3302314817671592
Si	9.509064932475217	12.188844358359363	3.936776018057099	14	0.058150689025789105	-0.01989315608304972	0.8097395386483918
Si	5.535831671146465	13.59670020392652	2.7664411605644914	14	-0.9654490192734756	0.6991524421708426	0.34222980185416224
Si	6.905001875650984	15.043192534722692	4.081785727249964	14	-0.0496791541064332	-1.0688755874344122	-0.19941518574121703
Si	5.393378065302085	10.808155303508789	5.398916289223801	14	-0.2491136231375513	0.16143173262560542	-0.34799062043448603
Si	6.85981127927201	12.264052783805154	6.702889473064093	14	-0.29643970165498507	0.013291328952505494	0.361116627314906
Si	8.260490373129961	13.6694999935247	5.425968382995261	14	0.4059464196770079	-0.2496448134966939	0.014680754267513516
Si	9.621680947309406	15.023333577938313	6.921714859083382	14	-0.16893524639192556	0.41071170627737036	-1.3433032851120137
Si	8.12160875786231	10.789410545619903	8.139616178246824	14	-0.024252465153360783	0.8909563848328254	0.1754278015463635
Si	9.512473070273197	12.112374266517204	9.622729605093397	14	0.7081834496078628	-0.2848113636235513	-0.24278150495509063
Si	5.4222980807512835	13.709578383206706	8.013236529997721	14	0.3484878722034026	-0.6431177728235354	-0.3116696440188822
Si	6.857091323144776	14.77878330565543	9.494350952943556	14	0.8578240932352691	0.5931879359483877	0.061560488901369496
Si	5.468963352138998	10.98000409786074	10.861735162159713	14	-0.020600210046090438	0.2898301612084803	0.3367605466171432
Si	6.9376905050114095	12.163414407097518	12.326480692508522	14	-0.798631849444288	0.7754358514669761	0.4885128390439872
Si	8.333437630229016	13.5427270986066	11.004237923837717	14	-1.005528951667136	0.17355500843116767	-0.6422875629156596
Si	9.58284783874589	15.09855838866198	12.19171178198747	14	0.08118213626261156	-0.6610093234148499	0.7648179578263606
Si	8.074222534248099	10.923818980027708	13.993584404612347	14	0.14131540460076686	-0.314879669011087	-0.605294242458837
Si	9.61617549394344	12.228758895262619	15.163362162657208	14	-0.8109114484533152	0.2700177378324833	0.15934605198990132
Si	5.391231593900473	13.60361479118973	13.61823045905414	14	0.11285918224896396	-0.5261378800779701	-0.1359736761876272
Si	6.699989278880236	14.928085957651518	15.016926934289227	14	0.6768604448240948	-0.03271731519888431	-0.673634993199969
Si	11.057260683040893	-0.0336717460329195	-0.1281820288153427	14	-0.48417461303730136	-0.5802565617407031	0.5606092033262595
Si	12.223171515507278	1.4521124811072628	1.2724970650426088	14	-0.6492210626325029	0.4485318942051526	0.20542334465333908
Si	13.568091508756945	2.8678168747764983	0.039750684124507406	14	-0.6902597602000464	1.1100783215213814	-0.23128275063179238
Si	15.068032615981041	4.136053767571633	1.324438395906042	14	0.007631811921795543	0.5075927545142741	0.11809575245450954
Si	13.644577985876978	0.12919791604358652	2.4330662969217762	14	-0.424179413054838	-0.7838186832527868	1.3460301994145627
Si	14.762201404446033	1.5224053231905839	3.9358584424961047	14	0.7699917930620945	-0.9400590971264814	0.4142158657182001
Si	11.02662021341483	2.8055528188518775	2.9018490969226653	14	0.4147444849720226	-0.5126593746581579	-0.6610309206995391
Si	12.39148108983825	4.310950223608316	4.097466438176244	14	-0.8750898367916595	0.3354842499362217	-0.00026148141105905966
Si	10.98826227790969	0.19278917947607344	5.561474631020684	14	-0.8441226729842	-1.0801933359431721	-0.7281149151601828
Si	12.145112051711255	1.703282405651605	6.875967163256661	14	1.0648350954237997	-0.8029595339191613	-0.1599919136463225
Si	13.559128761759375	2.882481698474533	5.383579669132895	14	0.8088597064078371	-0.06834255051485609	1.2700627789622752
Si	15.061544045942581	4.024240631353315	6.9364779944486665	14	-0.004224326041003294	1.0963622459699873	-1.4647856974942222
Si	13.512578187316784	0.2050781378822484	8.158311780302085	14	-0.07627955263815321	-0.7220090542458951	0.002981453729243712
Si	14.972981619028747	1.425388092893301	9.554124446631192	14	0.11733496239027773	0.5972009171320749	0.028399400924227627
Si	10.939811011233608	2.9930495535743584	8.330111418820412	14	-0.425916708919662	-0.18081452430260575	0.3767309499241653
Si	12.427348463106405	4.262253177764113	9.728021400717505	14	-1.0894858247912513	0.6527841003851641	-0.7667599136746683
Si	10.971401826976416	0.04728791194696141	10.862177564662334	14	-0.368964412083594	1.1523562918532362	0.40545842388724374
Si	12.420794351956447	1.499416778332099	12.181454598037782	14	-0.3484300223336993	-0.49005678778873607	-0.5493001965755882
Si	13.812133837425707	3.021871257356308	11.03535356652215	14	0.1658553193289202	-1.6224353341938897	-0.6557290444188617
Si	15.140144223908475	4.286110142349967	12.38833511648627	14	0.13980308045145576	0.5229975320399413	0.09070885280535623
Si	13.656195147890283	0.13711200525716322	13.571319408498299	14	0.5710304074098836	-0.716676067590844	-0.2590931113271741
Si	14.78563235180714	1.5195542848403514	15.080944214946461	14	0.853410276732171	0.4575302486046068	-1.5583980995376217
Si	10.86052265159697	2.4914634272679197	13.513889009546775	14	0.261174935304898	1.3944050317920846	1.494249536020991
Si	12.108654808439601	4.197711568214882	14.959070518112956	14	0.23821959278555194	-0.5446904618470947	0.1271355016496182
Si	10.785150373372428	5.502389319003794	0.21137008458621	14	1.0537415472989566	0.13104718128369147	-1.3531087094714624
Si	12.3261693722289	6.8647432479123545	1.374266025923613	14	-0.11287923687046111	-0.01089788700997965	-0.024260435579853242
Si	13.694651395062673	8.325671008516315	0.08836580357933571	14	-0.4069280676882404	-1.4516285802394284	-0.831500602746529
Si	15.139275804181105	9.470969161416074	1.3846379068184247	14	-0.0872980244876478	0.4135982862203006	0.41778558834469376
Si	13.730928400277701	5.620265008035825	2.7394546079045314	14	0.7030826337632211	-0.6080085583453173	-0.441420474000155
Si	15.163313006823584	6.903494430086494	4.094844793716259	14	-0.46222045892962094	-0.06968903837101764	0.5083517448047817
Si	10.906811061593562	8.038830334038314	2.8155806089113167	14	0.21665727512866204	0.9064357244127769	-0.0794031884916011
Si	12.368164839422269	9.624450059270263	3.9331548716467464	14	-0.3387742363038832	-0.9306665922814484	0.4881652256047032
Si	10.997864050744381	5.576712939444341	5.54564645259353	14	-0.48715349566122496	-0.27931254067535055	-0.1217708903991292
Si	12.373424513620112	7.007999732372606	6.834135548842042	14	-0.5279088574224882	-1.3844044605388366	0.7305826620464607
Si	13.636401732217402	8.231127955178142	5.442976301429407	14	1.3030495459987113	1.0678080645054868	-0.8559428154725167
Si	14.943242339685803	9.659776718368546	6.894662765311923	14	0.5727389068951221	-0.4903133840996869	-0.12135771377418142
Si	13.736532165310917	5.535258186420843	8.204223328907556	14	-0.06776688003367493	0.1478766082672527	0.17063474700854345
Si	15.064558937071562	6.824206070449852	9.71325826535222	14	0.7485402900445031	-0.2420487399388484	-1.5487531121501503
Si	10.921574196958847	8.215316162028863	8.19440854746049	14	-0.6678595193193204	0.5377749598674924	0.3351176103175686
Si	12.294086998149846	9.519567895593028	9.67486755929133	14	-0.6192108642252024	0.6460010103295495	-0.7671630629888676
Si	10.925555819482447	5.537945371992327	11.121769522034374	14	0.4469450080015571	-0.08856557941048081	-0.6128190963993144
Si	12.300100395129933	6.956156713176422	12.364035749397793	14	-0.9947256813329378	0.8055571216241068	0.13432482634581625
Si	13.69347165505568	8.161146433374443	10.903960023243329	14	-0.5320287965874934	0.5172423698913219	0.7098251003547773
Si	14.96664051649116	9.567937235879732	12.27009895134099	14	0.9220109662211698	-0.33297716513854536	-0.22314854473043993
Si	13.593193754461291	5.621362821653443	13.617411195160395	14	0.294893953136512	-1.2719777382047217	0.9834297872193992
Si	15.007816719790783	6.839870396098257	15.00894730396415	14	0.00764929543797255	0.32354789348743423	0.4898901801639905
Si	10.863947174672823	8.235158733535366	13.958880386073309	14	0.24805921284575863	-0.7863540502089849	-1.0678790270123228
Si	12.183535528327894	9.612275797809211	15.235948943643017	14	1.0394755123195831	0.6023084178505491	-0.4562824911927389
Si	10.800847469576583	10.87279522472527	0.2789757410980474	14	-0.03847813377920809	-0.16640296476211175	-1.605668127959076
Si	12.262496182407038	12.207359722358	1.311510411662746	14	0.06973120449826807	0.5044482927077328	0.70198888556003
Si	13.433338983513767	13.656145992056656	-0.0083073358825743	14	0.47024436441273904	0.3077042282836178	-1.0610342304290246
Si	15.006948300063414	15.072423870451514	1.0808876255735285	14	0.6892703988728535	2.242987801175146	-0.45855329141149365
Si	13.723604181067621	10.935681921209136	2.5051451342934614	14	0.37445886415275037	-0.09465189992433534	1.08102765961956
Si	14.922613274841304	12.449304735458773	3.888767153883642	14	0.7052261642686285	-0.7778395778307826	0.4221898917581074
Si	10.954311982152896	13.558751900368252	2.6596419193758933	14	-0.221847565438445	-0.050688055834059303	0.708397622681031
Si	12.168592154905987	15.09380665807826	3.9592074634678376	14	0.794411380061265	0.40376380837073417	0.3936161698931737
Si	10.919067249443986	10.781299833071827	5.3634913184582675	14	-0.9661501596942801	0.43264452021089356	-0.012225348686772101
Si	12.19428427061383	12.181028580813035	6.772330280697919	14	-1.1194024349648983	1.1709165869383211	-0.3473799829209508
Si	13.466207850930816	13.57402297934766	5.316055939010431	14	0.3384824158500464	1.3350940029353127	0.5493130521021888
Si	14.863740971436787	15.17242322132203	6.722568191791848	14	-0.37369267476734624	-0.1723874695052884	-0.591143135887274
Si	13.469976464842043	11.023113763949603	8.200684108886577	14	0.7558039196844535	-1.408788052063525	0.5284976405408021
Si	14.872392398154735	12.36365888800667	9.439214492894518	14	0.29859120258688493	0.49166064328744447	-0.14716466920410376
Si	10.782020785298323	13.587589989428075	8.257868728669978	14	1.1929499310898624	-0.4856704821125635	0.11668498696534431
Si	12.20000273259217	15.056022207298739	9.587468487106612	14	0.571331740953405	-0.45010232533469896	-1.372622370409258
Si	11.019738396707373	10.917445106934371	11.143414474107118	14	-0.9098987461684843	-0.580603660958923	-0.26526427831659355
Si	12.38428795285117	12.297331283169076	12.46087274163845	14	0.14763363881449876	0.7187846310638973	-1.513102937112573
Si	13.66632124961697	13.761093696845391	10.86868251997867	14	-0.592757275807263	-0.5613023733205714	0.677178490552197
Si	15.141668054750841	15.116401956267746	12.090581846943588	14	-1.161639267611631	0.9783310282590135	0.13421195482226175
Si	13.69604414368204	10.868043494141547	13.650624153412817	14	-0.7442491152651759	-0.1936818779878188	1.2558412241049404
Si	14.93457452768998	12.48330418704919	14.901001093324309	14	-1.3323676028538278	-1.4042626495895325	-0.7955259542175492
Si	10.812202467143889	13.514528035383897	13.631076516908061	14	-0.019093028107419634	1.3135800220584417	0.11754193636854965
Si	12.322449914151298	14.991038195246885	14.739556950422921	14	-0.12859306125561012	-0.20094139385925694	0.5399012639672549
H	13.984990326366963	13.72650929083484	13.924948114122179	1	0.06410665449991212	-0.07943352753437885	0.3319320108259052
H	14.238798280649165	14.138364719914964	1.848442859400919	1	-1.5845228435851142	-2.078247827334106	1.2528212037958943
H	-0.0790786280798424	13.851224194851854	11.892685376353908	1	0.09752331034587672	-0.05016355034874909	-0.8097937889706469
H	2.3728389310370064	14.491210209256424	14.05783107915983	1	0.04558184066824522	0.01809106836415793	-0.1557105090672119
H	4.183743118826529	9.551650269672082	4.202659922133101	1	0.04552964723024621	0.24234930215077374	0.17882808833225933
H	9.70083003208411	1.280542236479185	1.4366447787933574	1	0.01969543808393033	0.000772360038172483	-0.14267191976767696
H	9.414988859556479	14.928085957651518	15.016926934289227	1	-0.06931082877842386	-0.1488310025620917	0.08138448225130722
H	4.209533546201622	6.7990218983561315	1.373250138695369	1	0.17299167925552322	0.14422563871264246	0.1317822602947218
