67
config_type=vacancy dft_energy=-6794.55710694761 dft_virial="-18.695183880837657 17.556907495181594 7.188179878233468 17.556907495181594 -19.85120885878566 8.905060372606597 7.188179878233467 8.905060372606597 -31.19019285435954" pbc="T T T" Lattice="10.877257047329985 0.031262080830208795 0.07327118179272318 0.031196815525761593 10.886035230778134 -0.007505510011427998 0.07409787564905439 -0.007287958996604 10.884022883891012" Properties=species:S:1:pos:R:3:Z:I:1:dft_force:R:3
Si	7.34180831154831	9.57504344606171	10.644012990051657	14	-1.3886406136643126	-0.8977726421470699	0.18315371592287646
Si	0.366274327333057	-0.12864661710602415	1.2251918399799877	14	-0.2528805495421003	-0.17543654330445202	-0.33253236391815966
Si	2.9773118174550377	2.815615937932025	1.30126399108857	14	0.5953175824850664	-1.4020453283614367	-1.23947768140539
Si	4.377402708047706	4.09509437039612	2.4905229299500773	14	0.5005001033781136	-0.31790174620438905	1.0030938578184236
Si	3.097021438872092	0.040734252015645754	3.826818073200682	14	0.6126175217422147	0.2596150457071641	-0.6868196212816884
Si	4.582467382375882	1.301690391077625	5.190788968802122	14	-0.7228562334488838	0.6325824116636967	0.33091076779274237
Si	1.6150519605851885	1.424289089971542	2.537592267517398	14	-0.10142316289547731	-1.01469828457038	0.24046648172482935
Si	1.6716021713785392	3.8803704310097578	5.292853027406801	14	-0.8618478730613008	-1.6271831372780752	-1.0766686076597811
Si	0.5494903532424591	-0.09649257711503695	6.421195506607441	14	0.34053621477978063	0.4171029598821945	2.176962844995871
Si	1.7590631181131577	1.3357295106120621	7.978600799284567	14	0.565531584461683	-0.19447454975802048	-0.3419580360218226
Si	3.286961966649704	2.7469231172462734	6.786376640091007	14	-0.4298037059426619	-0.9742159741941164	-1.2443509544291986
Si	4.549550826077937	4.277109514703693	7.980135621694149	14	0.8595444198049801	-0.8308143747365814	-0.1171171897696612
Si	3.1421121499595883	-0.01280722824268888	9.347640633531405	14	-0.1419934050736899	-0.4271539247997173	-0.33834331905222637
Si	4.538389371262392	1.398417923288672	10.624054859951704	14	-1.4548095517415156	1.8536404374450137	-0.9159171895018868
Si	0.5208008131625441	2.613558906383791	9.481518264788873	14	-1.7969663342045854	-0.1757874991806522	-2.279738152179214
Si	1.7416405450909775	3.9656493410656917	10.724250155339044	14	0.848584054935721	0.9285616283558431	-0.036854737880066595
Si	0.46374914728002425	5.373672141658843	1.1597361783948168	14	-1.271914746124378	0.03121347569712969	0.7124270589387672
Si	1.7696959239626806	6.7312328966084936	2.544948755083672	14	0.178718045024557	0.08091294153559207	-0.08081421109129837
Si	3.1580901842433367	8.112867846858569	1.1527995642871534	14	-0.4344046989130669	-1.3022612451075537	-0.2120632241426215
Si	4.470636370960679	9.488668078891063	2.3670300963852338	14	0.5607994651199504	0.6832864083507408	0.9963902149172015
Si	3.0109136594496784	5.2699275014646485	3.937698386681104	14	0.4163547682340314	0.9784994356574832	-0.15069633947185912
Si	4.543708493574838	6.788022413518151	5.117047876817378	14	-0.13721757694151485	-0.46193249513376433	0.16919518513979254
Si	0.3848945186918431	8.136174087076663	3.8335588913950036	14	0.2211669938602018	-0.6131476836592294	0.43282526891489986
Si	1.8305079591364333	9.520410947464033	5.050889525454326	14	0.6945974719856683	-1.3529053350406388	0.46508621291945795
Si	0.41774907295056357	5.432285823827799	6.556686278639829	14	0.23399860918146478	-0.8166576117333142	1.1887891113502664
Si	1.6920443524864763	6.902111604467227	7.92189612727069	14	0.4934455046006913	-1.3681872137320028	0.4753595784471736
Si	3.205214997319438	8.082901282321636	6.561421276477471	14	-0.44322101905585465	0.721399959395552	-0.38987212632597407
Si	4.517855818728228	9.507628737588048	7.90957186228091	14	-0.1789576720403948	0.3184681607064177	0.11390639344586027
Si	3.012189596151621	5.313760767686462	9.322744095394945	14	-0.18485475920268646	1.3575469514751017	-0.42421155187133985
Si	4.447771759302677	6.667267459474868	10.591051283247829	14	0.7565482546746363	0.7299985069177233	0.06445246816547205
Si	0.36685518854263705	8.108938875530846	9.429186368172958	14	0.9740077146631845	-0.12056761310929993	-0.3553820340088477
Si	1.8681638642923197	9.346593125395028	10.664627036461304	14	-0.17465724128191512	1.3645485854829291	0.33420821036583226
Si	5.628902992250359	0.009619018120443159	0.9171896397226134	14	2.134871279799727	-1.065259327801624	1.7462916481181912
Si	7.148857965480607	1.2971892605809163	2.3652983903072347	14	-0.33165638833558525	-0.5521512952651003	-0.14273388340589258
Si	8.534384903385885	2.6260104387172425	1.0805443457336583	14	-0.9533452838683465	0.7859809828270313	0.5680476681279798
Si	9.87166772824379	3.784149792663251	2.583477039809002	14	-8.462155527148006	23.32491011273778	-25.23547482197087
Si	8.688645976977286	0.32612528754728776	3.8780709167830683	14	-0.04220906470927497	-0.4386699055286605	-0.13467372533776034
Si	10.816466767257715	1.9685930270205967	4.304827689502419	14	0.9014711771501029	-0.9699427971520304	-1.0158138871687923
Si	5.835528595109898	2.654859878793053	3.705848831407797	14	-0.4669309809866642	0.10574879048609444	0.2193060278294786
Si	7.19931783561396	3.908960985377928	5.110949921871862	14	0.5094804600403268	1.143443298150411	-0.14573642019876148
Si	5.881646146987364	-0.04811140692832759	6.574719082258589	14	0.0032434493613668017	-0.3979919340375338	-0.3563014612713326
Si	7.330725175098101	1.2539771025064252	7.795864473362851	14	0.6949620547200653	0.5151983411618041	0.5408641429096502
Si	8.792578798799303	2.581698560262816	6.167401580468837	14	-14.384557792421818	4.798051738120289	11.390276818735886
Si	9.86172782237648	3.9537123168822985	7.832227037735607	14	0.5305200719856306	0.6209684718220557	1.4479411009892722
Si	8.70129112971393	-0.14435380037631693	9.302978497943112	14	-0.2873323323899565	2.159865251727418	-0.14540988982310266
Si	9.952619548614873	1.333264657614106	10.764574323691747	14	0.7535775995877372	-1.7897587546606146	-0.5959783565523444
Si	6.010905170200117	2.7848955591287283	9.223620238755613	14	-0.8468943245193196	-0.9105412653879892	-0.7622347683112078
Si	7.2357663326375725	4.009458676675875	10.66977429347204	14	0.8200136755077035	0.45235538492674476	0.16554395847465025
Si	5.711574553393628	5.253298989646576	1.072275231660198	14	0.6977406482395493	1.6388965788956058	0.35418775558763893
Si	7.222960192149959	6.706806268664056	2.5610758118125747	14	-1.1492162009257394	-1.9812011999145842	-0.15472114774001894
Si	8.299220958401731	8.14537975826894	1.3116748949029724	14	1.9007081198777727	1.224496879147015	-0.9504841578680857
Si	9.790212277273387	9.444648806551575	2.723054507654858	14	-0.09925006467888817	0.8460689997115521	-1.2527340433255414
Si	8.705653027561151	5.395150953352417	3.8702695373914793	14	-0.6726209492617026	-0.024434756520559285	0.5748788378530812
Si	10.01671660411247	6.8012179703223	5.405042997996464	14	-0.16529147593221172	-0.4366271623518029	-2.246584520407501
Si	5.951664941108468	8.165047457764105	3.7674908237031035	14	-0.562995446173889	0.7280866330016611	0.4974605426686345
Si	7.3616783334872595	9.615416563392747	5.1518908473515905	14	0.41548470619369327	-0.28782392772716875	0.49197097569958637
Si	5.97223221404993	5.453440484509286	6.4865478314605705	14	-0.05885080100446542	0.138956672580063	0.2876791744976444
Si	7.250891566943212	6.888366731350646	7.948205659248431	14	0.7433142613707701	-0.5661481355174545	-0.6025884112199131
Si	8.818638147109995	8.199907832379504	6.642369833583334	14	-1.7180233735652912	1.0506824461890445	0.6538199987186517
Si	10.194343744451043	9.555501926155143	8.075788451891965	14	-0.4666265621167587	-0.36818176762414084	-1.4696008635377955
Si	8.553325982491534	5.507809746379025	9.412772144104489	14	0.5010852869489792	-0.3357182205203552	-0.7505480661890066
Si	9.925645398286845	6.887857661975958	10.889586751095136	14	-0.6429339387931449	-1.2174327672799081	0.01557729869264915
Si	5.909208772810491	8.215533434019235	9.236487293527379	14	-0.4695637928344958	-0.4697288577960493	1.0165325111057737
H	10.114631964864454	3.173108818551712	3.278908228080919	1	8.905296070607339	-21.16836261531548	24.214882021343524
H	9.660885813246038	2.2746318293691847	5.556593385943159	1	12.248901297057317	-4.320905498586144	-8.360875317708329
H	-0.39640514288618095	0.7613350049476255	5.614618592617015	1	-0.21568256910179393	-0.1430629848868715	-0.0030645004310844953
H	2.4809800546848226	4.80878570309729	6.036694755252429	1	1.3596475445216627	1.6259994003886789	1.4758885015982177
