226
config_type=divacancy dft_energy=-23073.007273462335 dft_virial="-74.91587542440645 -9.747140457532558 9.203443859658874 -9.747140457532558 -82.78371677189737 -7.840262534555291 9.203443859658874 -7.840262534555291 -73.5487542688835" pbc="T T T" Lattice="16.249967316 0.0 0.0 0.0 16.249967316 0.0 0.0 0.0 16.249967316" Properties=species:S:1:pos:R:3:Z:I:1:dft_force:R:3
Si	1.397220939731628	1.3763884816325158	1.3215610919083318	14	0.03960504924102899	-0.599354989169295	1.3603923937329097
Si	2.773999420579728	2.559759851485584	-0.091357316250552	14	-0.31609734449070914	1.1848771746056614	-0.6534857550270325
Si	4.161307880248596	3.940828323705108	1.1891888581521959	14	0.08025833812108235	0.44984110103417196	0.3014739258718349
Si	2.9415528335750043	-0.0804373382142	2.761909444896624	14	-1.6740608150276752	1.4097594156534767	0.47762420801316
Si	4.3022925966822125	1.349901034907436	4.131992939210531	14	-0.92131933889005	-1.3391743470783877	-0.09228519747713902
Si	-0.085377328278264	2.781246906002664	2.7421494846403682	14	1.6471063752933708	-0.5299454299465775	-0.05646610082002808
Si	1.460287062885024	4.027749398878392	4.0884430268036525	14	0.10929640160683476	-0.30079309718305974	-0.7149876227271026
Si	0.048457402536312	-0.00950623087986	5.538931359397128	14	0.3286836763644301	-0.2622031203224252	-0.9749731647109001
Si	1.425837132175104	1.4040459260043479	6.776837619562691	14	-0.6393012240863075	-0.13134362972710453	1.6624188501380446
Si	2.8108218465177837	2.536879897504656	5.403504131785583	14	-0.7997343394055675	0.40014009253251753	-1.3711398710816607
Si	3.9117733821440996	4.06354807687554	6.578604268274807	14	0.5087091284442823	-0.015932882558425628	1.2714074670447129
Si	2.78711314420374	-0.010984977905615999	8.336866981833325	14	-1.4271478009336387	-0.27578009907599915	-2.3369473024367653
Si	4.1022554990222515	1.3499172848747518	9.454165984579536	14	0.35577258490697816	-0.07866271015939846	1.60149830935086
Si	0.041421166688484	3.0908737832417277	8.105109947972531	14	0.12452505841807186	-1.9527897147953523	0.1539739845339839
Si	1.405492173095472	4.203801544779935	9.618566903915507	14	-0.006662762326631732	0.7661081384760109	-1.3419292864289265
Si	0.426009143156256	0.331141833965448	11.056689011381508	14	-2.7146359890926854	1.144586668686281	-0.24268997360569336
Si	1.67691537717462	1.5833968152710398	12.4328499934716	14	1.6286802919059973	-0.506186874125217	-0.9631828470442971
Si	2.8712229750313556	2.83943803896126	10.702114724546387	14	-0.9524888486862052	-0.9813258517359221	0.7166938082175528
Si	4.033128138059988	4.12724794875426	12.11925812420743	14	1.2405673158400685	0.5793867568108969	0.25848890157693927
Si	2.892672931888476	-0.021433706889804	13.665198764815091	14	-0.6917592288227569	0.18265235038544758	0.34184593582986417
Si	4.343323764155112	1.423529636816232	14.813242705723175	14	-1.0459999491799907	-0.6703730318802972	0.6622930763011998
Si	0.0463124068506	2.637678444765804	13.410951776188956	14	-1.2465731607574027	1.062237507718854	2.178022397498304
Si	1.18836010981908	4.094033015560356	14.95208242647108	14	2.1094703018998557	-1.4994004884193757	-1.6398936535387594
Si	0.052601144201892	5.272805644662996	0.130064738397264	14	-1.796034822747096	1.8303007146803056	1.1669457718818845
Si	1.391045952151548	6.815187542428452	1.394133445941588	14	-0.767881944036381	0.1787216445720052	0.17657297185595744
Si	2.733602001832152	8.082034994383811	-0.07632609648325199	14	0.2964363592180688	0.9872733325624886	0.9036923550361788
Si	4.27138515884718	9.448332246313091	1.400730932671884	14	-1.4692835891412892	-0.7528180950761655	-0.30380694683933734
Si	2.825316817363656	5.367835453526964	2.5141786931642036	14	-0.9672359374709785	-0.9804084813576932	0.49544248210285025
Si	4.045234363710407	6.464643247487699	4.053684346714728	14	1.143962147204017	1.5928848494178318	0.7298882064994888
Si	-0.144835958687508	8.190519776185427	2.9652127859871	14	2.1336793153733065	-0.832836291960346	-0.9294653718758753
Si	1.4365133607017158	9.539478312988535	4.120146713037168	14	1.0480912862473992	-1.409169604093035	-0.7240690238283977
Si	0.11053227768343199	5.3311917772293835	5.480853976209743	14	0.1481136641777704	1.075902418274377	-0.3736983311990506
Si	1.319302346451408	6.991174688460732	6.637672899468467	14	0.254160702881002	0.08707690943011508	0.7527255352846401
Si	3.043878877763856	8.210165986670471	5.3420467553964714	14	-1.4232181235623242	-0.6299724826532144	0.5398213025917983
Si	4.324002553016388	9.513250865740511	6.873557425027524	14	-1.6719543084388775	0.029148363903986757	0.34165001760446884
Si	2.664117141588936	5.504985177674004	7.866787927316076	14	-0.27551604655962	0.35499071177912117	1.3994870785678895
Si	4.163339126163096	6.800562571844051	9.262286370512209	14	-1.118856846415963	0.4964809515416581	0.1659404229150171
Si	-0.07166235586356	8.087836232715624	8.400485603875463	14	0.49928397056168344	0.3588478839804073	-1.1533271412221242
Si	1.2361025137934878	9.67978053079488	9.62461189175706	14	-0.5360633750558699	-2.6511204317058756	0.6138387967692852
Si	-0.113944770819792	5.316404306971824	11.012602850053199	14	1.1818275865854337	1.835641928872381	-1.0166788069984902
Si	1.210200065891784	6.802512567921972	12.282310296256174	14	0.7474881937474985	-0.21751371031080335	-0.8619147217996247
Si	2.604024762454368	8.034812589363515	10.743048392215393	14	0.11488341346751653	0.8173950047391327	0.6712230392991381
Si	3.9560545430802	9.68712551602171	12.157429297432715	14	-0.6124056626638346	-0.9841142154556226	-0.33167104363591016
Si	2.647005926005188	5.430755326974516	13.49649160414038	14	0.1011102593780153	-0.050160722132896934	1.0939598051588408
Si	4.159991632896	6.864977442284675	14.791906498637267	14	-1.0997072539915	-0.7220113682406832	-0.3708852848682766
Si	-0.02144995685712	8.0733900117717	13.714338665978675	14	-0.5828636625353332	0.9419704568214795	0.6733783968890181
Si	1.34151605177238	9.602284436664876	15.011508556945692	14	0.38420283909504765	-0.4281808242645844	-0.6195078268896796
Si	-0.032873683880268	10.994061637345643	0.032678684272476	14	0.27436419137619356	-0.6339540963519956	0.8500128181621271
Si	1.4687532958566598	12.34518141980178	1.204821326710188	14	-1.054444230382953	-1.298361906779017	2.3586188920697615
Si	2.73698199503388	13.74105361224618	0.08807482285272	14	0.8398944902852166	0.33597121728385776	0.7857326140531051
Si	4.225901500329696	14.911067508965496	1.445499592627464	14	-0.39429674147141697	0.0865704016820459	-1.2275091861401006
Si	2.811585594981636	10.732242163950252	2.718197032816584	14	-0.8232262716052284	0.9117226882825973	-1.299102128000688
Si	4.137014179111175	12.022912067990868	4.068926816057136	14	0.9499905056466174	-0.1118142850468558	-0.45104360699240514
Si	-0.34040431533556803	13.945039451963927	2.6642633912947797	14	0.9596254657233404	0.8710004937799639	-1.8931012476775826
Si	1.498718235587364	14.757196568450292	4.0360856321115	14	-0.6256980200584682	0.9394255767755967	0.6807718673476361
Si	0.082029835011168	10.72843967159831	5.376366686367864	14	-0.33900280756684437	1.8080616821031528	1.3915660172975772
Si	1.383912216499824	12.024504564787836	6.996813427119384	14	-0.07169398629966911	0.12376529679596808	-2.2432891347186668
Si	2.725070768991252	13.181307238079242	5.329193031249516	14	-1.3654510434503013	0.9554942136949263	1.4037438005359266
Si	3.784991137144668	14.822066437975764	6.676429071517128	14	0.5663720787908394	-0.024462010236952856	0.365944391774548
Si	2.6383284434584438	10.76300335207944	8.372844409470947	14	2.6734682220380703	0.7905678347181755	-1.5165767575106248
Si	4.0709255620370035	12.403957551583751	9.450590991770015	14	-1.2310555117081807	-1.0664140112009024	0.19279896042087996
Si	0.055721137926564	13.558858978699188	8.02886510132586	14	-2.214464472974487	-2.0475853395070835	-1.477632996557938
Si	1.4580445673954159	15.17007573801522	9.852241433919588	14	3.3001221790545694	0.39606951858965905	1.258663269304335
Si	-0.003136243691988	11.082461459544684	10.890224346196403	14	-0.3520367688768031	-0.19811214956496598	1.0990889031620044
Si	1.532258168127588	12.2467878677034	12.225386660748228	14	-1.4872928963562664	0.4487951753899357	-0.04556975647324052
Si	2.76436318996134	13.63031008498764	10.952299221343523	14	-0.04224685995748114	-0.5981949064488442	-0.9845618448918604
Si	4.076596800630288	14.965716149049204	12.177871756316243	14	0.272374412968931	0.6774412575159162	0.13937164897873489
Si	2.7586594514334237	11.05875275723064	13.664630015959032	14	-0.1662623253010996	-1.4710957041709296	0.6206871929000315
Si	4.003488197675604	12.418582522168151	15.082878413397562	14	0.7564945185734452	-0.6081854503913435	-1.1625610088689042
Si	0.0373749248268	13.67356749798283	13.394409309461269	14	-0.1947925954861228	-0.2081224910184305	0.14380166344535006
Si	1.3979359382935321	14.779426523738579	14.949092432484935	14	-0.5892801129722948	1.6879571250620113	-1.4105556869711269
Si	5.474418989152608	0.005134989671855999	0.053998641391068	14	0.10242049464916275	0.9900853504511344	-0.21793382892011556
Si	6.870437431302851	1.311242362662672	1.3767784808480998	14	0.46178851323583603	-1.5297981523984223	-0.5243342496958863
Si	8.207240992553592	2.509514952544512	-0.008466232971636	14	1.2089825725347096	1.3693611804211825	-0.7924979634820107
Si	9.477825936991632	4.176534099623688	1.2724211907447478	14	0.48929882594035645	-1.0509922643801224	-0.0492572357233969
Si	8.19258352203456	-0.235998275330268	2.529746161852932	14	0.056576401238262436	0.9874535670454309	1.2844586547603165
Si	9.433073527003367	1.289889905609448	3.997183210356996	14	-0.47333714700234514	-0.38003841980800374	0.33696083572158275
Si	5.490230207351076	2.5108311998971082	2.618454733430976	14	-0.4382379598348757	1.715398532143952	0.026347144657685423
Si	6.823442525824979	3.81971731729896	3.9739620070624317	14	-0.6419497196765921	1.4996874237731044	0.21587514489027299
Si	5.369119200944928	-0.24509825702722798	5.450905286446355	14	1.3713373319702482	0.748558287781744	-0.25236452870434656
Si	6.729826464117504	1.336283562296628	6.759531404371152	14	0.10655817444087706	-0.3268389082972238	0.37864179539809933
Si	8.15025235717638	2.7914518854771115	5.44122030592602	14	-0.26340511205959444	-2.3446017400853774	-0.15933628178968476
Si	9.496253399927975	3.9528207995843156	6.816146290500096	14	0.13247568739956572	1.6480065192659543	0.8863003702085691
Si	8.229942196894044	0.088659821676096	8.294048317955664	14	-0.6678767457249654	-0.29560846330498114	-0.8882932339422159
Si	9.619801901431524	1.4650645532759279	9.63915561250488	14	-1.1904425891816537	-1.6312457407944412	0.5781824510789396
Si	5.110842220424424	2.662199645445648	8.015686377832584	14	2.4524158994751475	1.029646176680657	-0.9281906178581457
Si	6.68921779579482	4.05461059485174	9.290008814753303	14	-0.4270724207610686	-0.8169800283404609	0.8772349099602591
Si	5.4347528189342516	0.12135475591588799	10.936991752131851	14	0.3233861709627969	0.3476864586751125	0.0959515936636702
Si	6.934933551580055	1.413600906786156	12.300965258734943	14	0.7909329316736367	-1.3668571809498902	-1.948432205498765
Si	8.148659860379412	2.7784519116243116	10.790043297693265	14	-2.058665517884262	-0.9010469447722784	-1.3044335719925468
Si	9.236237672904661	4.076580550662972	12.121143120416088	14	2.0882535407979943	1.9639922777857692	0.4770477662003829
Si	8.265740874891192	-0.110467277814168	13.446149205395411	14	-0.3005593837094583	1.5565407330543468	1.3063865835937314
Si	9.719446701013236	1.494330744412044	14.594046896597652	14	-1.5827541802353844	-2.428367580084206	2.4208972335765164
Si	5.541255104723316	2.70756955419192	13.339793169312191	14	-0.48767543004121505	2.375400239383836	1.9509554882599585
Si	7.039209591846827	4.084234285268808	14.971062388296167	14	-1.9350825124554925	0.2950914140250993	-0.5677365643842419
Si	5.433696571058712	5.600063736439919	0.009798730291548	14	0.9549532531355671	-1.5441629178220897	-0.31503444955136
Si	6.678866566614527	6.859956202384033	1.5461843901174	14	1.692393567291927	-2.25994141254567	-0.8960859970570527
Si	7.861847937252011	8.310038285794606	0.236144525036112	14	1.8190184474249638	-1.5943256968392427	-0.44391084661325036
Si	9.57301824552876	9.402442338612708	1.313517358086912	14	0.8433981355049823	0.09431945600644018	0.95986663540237
Si	8.200481006150136	5.3076293246211845	2.8473192731095196	14	-1.4252760362605705	0.29366984989358946	-1.3321164058640493
Si	9.305446283703505	6.646220382276684	4.271742658128132	14	1.170010272312969	0.12917927326860387	-0.11490732474699392
Si	5.449979038309344	8.028101352862008	2.852405512879428	14	-0.6045015706886354	1.567117231899308	1.7572345294712732
Si	7.199174270105532	9.434958523212023	4.013709427117368	14	-1.896689482262381	-0.1396794102855566	0.4101578901914104
Si	5.497656442414488	5.209154522686224	5.447216543865624	14	0.8067310883132864	1.0268518994187201	-0.4728267825962958
Si	6.684099056090279	6.6088617074172	7.270511626622772	14	-0.17992080809332228	-1.6168940880079066	-1.4943631788761416
Si	8.304025797887688	8.13912112956492	5.647318641394848	14	-1.7933649869826545	-0.2688136892110579	-0.45597910076496145
Si	9.463704715394027	9.469343454052678	7.0433045836104595	14	1.1604876695387365	-0.3444543221771544	0.7293572732508783
Si	8.34175822199544	5.473200241603907	8.490104173623203	14	1.7630524265897045	0.46009364060879443	0.18748499994519793
Si	8.395854363190404	7.81672177801548	10.773533330900207	14	0.1911603950003496	1.075050096860748	-0.32977022547272467
Si	5.66295110995284	8.302075801809767	8.260004636428643	14	-0.8633170026412335	0.79373697913579	0.5709902981668894
Si	6.919918581780071	9.474055944574319	9.808789021316604	14	-0.17784335499464263	-0.43348064366100564	-0.30477805331875724
Si	5.407794123157007	5.471201495624039	10.65404732122566	14	0.20720974862977792	-0.40241912028829674	1.0225051887644776
Si	6.788033847043415	6.803195066549244	12.078941955296436	14	-0.7618197919125359	-0.36224148589247074	0.42269048596394027
Si	9.62233689633282	9.460763471309832	12.108451895942292	14	-0.8310380608994343	0.5308093213341472	0.2252805052619067
Si	8.172563562301248	5.527133883125711	13.480469136366803	14	-0.9990636502290915	-0.1258908295641345	0.6680163567438495
Si	9.305153784291814	6.916051089558864	14.912221256644932	14	0.7313043713098264	0.1378886354300735	0.8749980483317303
Si	5.3185493026575354	8.205518496018096	13.317481964187325	14	1.003656415662472	0.25903140479949055	0.8392668834765683
Si	6.682457809391364	9.433008527134103	15.006991066031844	14	-1.4130283189575135	1.0917247433040362	-1.6204298720441743
Si	5.321718046284156	10.947001731998508	0.006694986534192	14	1.147507187219437	-0.4052460505877995	0.4873594411973687
Si	6.681385311548508	12.085913191274999	1.641864197674008	14	1.2814052100821087	-0.5209203360517937	-2.433413374274997
Si	7.980537698528076	13.485132876986496	0.09618355654340399	14	0.15345410703825	0.17001408218425973	-0.47681148162146125
Si	9.640260610282368	14.754629073614364	1.258413718918356	14	-0.8841198157865516	-0.6576563449668448	-0.10316225853402548
Si	8.445205513929096	10.91526554583036	2.619640981045044	14	-0.8496922013287047	-0.1295384566818286	1.123094542204631
Si	9.601991937253187	12.096036920912868	4.3330537848113995	14	-0.512625693178464	0.9344119214013081	-1.2064376924888272
Si	5.405405377961556	13.505624085771972	2.7155482881440762	14	-0.41845073329101606	-0.4907466153461319	1.5445881786420423
Si	6.861077450128836	14.711290410782592	3.991430721927132	14	0.1600405075368733	0.4660825162310153	1.3588055075293144
Si	5.53100137534692	10.656907315473276	5.355956727418968	14	1.4943721777447623	1.0983756785461953	-0.21002819428172426
Si	6.747587678393892	12.147549317304588	6.884899902214092	14	-0.6268555316735989	-1.2734764354958361	0.650335379678255
Si	8.118321171400439	13.440997965756239	5.697189791087651	14	0.33958721980611406	0.21880209118672958	-2.092592281025744
Si	9.51711835796172	14.767872796976903	6.88047991110414	14	0.41577112732635774	1.1144335168231803	0.939391381074839
Si	8.157873591847585	10.751189625840707	8.389776875414219	14	-0.963665443512889	0.9756164552620012	-1.075534235992532
Si	9.470984700751595	12.085913191274999	9.66353056347888	14	-1.3755318331895376	2.028478941651999	-1.005046098088012
Si	5.312423064979404	13.62413509740756	8.05692879488059	14	0.7216293019901092	0.4943693027422205	-0.7268499313426698
Si	6.596056733172191	15.032016015698483	9.492142158197028	14	1.465403276992122	-0.7394136374895734	-0.13107392077902102
Si	5.249113192316268	10.888908098843809	10.672686033737111	14	1.3979500718075049	0.3544196692875163	1.5422793260645493
Si	6.665769092957832	12.250216610807076	12.305953998700955	14	-0.8994292053048412	-0.3167331788363818	-0.7443894976156561
Si	8.003710151920691	13.487700371822424	10.854393168264624	14	0.6485425479385158	1.0690905318391768	0.38199503095663645
Si	9.717496704935316	14.890868799591708	12.319961470527346	14	-1.733043770845596	-1.285544689647547	-1.2460041751500537
Si	7.915147830048491	10.85018442672978	13.623257599172495	14	1.1171653162258375	-1.265992462129949	-1.087253591152299
Si	9.287880069034909	12.23435664270666	14.753491575902244	14	1.5764770837067748	0.3736613072824405	1.6661366684309784
Si	5.316128057527452	13.69945369591722	13.606520132837016	14	1.1447252512630366	-0.3325968986616954	0.5234240784125538
Si	6.802772567399027	15.088240902611844	14.90677751759407	14	0.4116481028349682	-1.7648303459185868	0.05943238502788291
Si	10.879743117277584	-0.14048096744681998	-0.09652480585704	14	0.17237229998389952	2.0085906706690575	0.2502551938996971
Si	12.387918833842859	1.08046032684084	1.466120801151468	14	-1.1565037418451674	0.36649512253412375	-0.4722197446302088
Si	13.198239704022514	2.554511112042516	-0.145225957903092	14	3.709489454360035	-1.7803096854985383	2.400935171870886
Si	14.764785303186862	4.016325671855244	1.4696632940263559	14	-0.5727191093841568	-0.01834509356978856	-1.6803510241934174
Si	13.980513130614757	-0.27568069551594	2.644064681920992	14	0.11979448173953139	0.7902140506261233	0.1523559879560147
Si	14.96370115310202	1.376567231272992	4.065855572234412	14	-0.11225805782511333	-0.8735080927987044	0.8266514981127299
Si	10.755577117016028	2.6558784081597238	2.67246962478936	14	0.8843473586073847	-0.07406017452580138	-0.26880057657392514
Si	11.982027150223812	4.083275537197164	4.111794229836743	14	1.7468184675982894	-0.027308480936888795	-0.23128352196338844
Si	10.771827084332028	-0.090544817884752	5.378495432086259	14	0.6167994245454356	0.4309565895682163	0.23220783432598166
Si	12.05284450778694	1.4478720878556	6.773278876720488	14	1.4640634740097926	-1.2427864368418884	-0.48636930853857974
Si	13.658861277561853	2.7341220007862637	5.518440150611651	14	-1.1222036542111997	1.1130800869826543	0.026961638829200815
Si	14.829005174019695	4.506960935027232	6.965775989545824	14	-0.09958173726518726	-1.9240182749312988	-0.6458338884837398
Si	13.577773940655012	0.004224991502159999	8.102672452875131	14	-0.30696092173556294	0.5956096600494353	0.6324746823507824
Si	15.096430886139107	1.4288921260305119	9.542110807693726	14	0.1469692651997725	-0.01750871300914439	-1.0918347866117386
Si	10.771502084985707	2.6569996559045275	8.210929735134323	14	0.7309346463647891	0.7654874736517271	-1.002751129479248
Si	12.03050080272744	4.134527934111828	9.404847333775475	14	0.8921630045595709	0.3683859133865606	0.9129223660249783
Si	10.838273200687151	0.069029861158368	11.052756519291036	14	1.0070312485056985	0.46255110307379194	-1.5988289878074822
Si	12.36573762845652	1.509735713427612	12.002160859728336	14	-1.4767333668064182	-0.07527630734223142	1.5723689716262423
Si	13.615977613814927	2.792849382666288	10.691698495496832	14	-0.595397286749991	0.20770314374071436	-1.5057714302921708
Si	14.874358832798652	3.935465834490828	12.133509345543564	14	-0.4826247507503161	0.028586834502066415	1.7130233450491992
Si	13.5423165119715	0.151400945483172	13.44432920905602	14	0.7193070796649513	-0.6200395314698862	0.36052270198595177
Si	14.996964836197872	1.27586618381574	14.91088875932502	14	-1.0538739592229442	0.9042289447164937	-0.2670470827455842
Si	10.818448240561631	2.920704125508576	13.34057316774336	14	1.2182933162305618	-0.049817222462125145	-1.1281256810950968
Si	12.143389325671691	3.9406008241626838	14.923011234942754	14	-1.2299280820252958	3.143516925335946	-1.7995389821879257
Si	10.897650581259816	5.523737639956668	-0.050846147731764	14	-0.6435409767592318	0.5468591891846396	0.1074320931391954
Si	12.068346976606405	7.173158072432615	1.2924899003800079	14	1.1707011283124928	-2.384975806927663	-0.21444355344801455
Si	13.591050163952183	8.315384525041571	-0.09662230566093599	14	-0.043220023321157194	0.2558825721139052	1.655536001196008
Si	14.953674923268048	9.519864602438124	1.544039394431688	14	-0.4931027762615155	0.6336329652975091	-1.5581528160900797
Si	13.530177786386448	5.5173189028668475	2.6989895714490717	14	-1.7964947934888706	0.002087994630492255	-0.08474517401527276
Si	14.926586227752274	6.630132914633844	4.14114167080944	14	-0.18097881793256324	0.2735668916164157	0.7863820752569745
Si	10.851809423461379	7.931316547527912	3.020576424632712	14	-1.3240505913642129	0.7539498956380947	-1.1430249793148228
Si	12.291166528443394	9.300945042756972	4.142327918423508	14	0.21990818069545728	0.24411333751092731	1.1914851723889737
Si	10.777612072696524	5.470908996212352	5.561323814358576	14	0.32565825673421184	-1.024870605659014	0.0026708642065698244
Si	12.066786979744068	6.863076196108704	6.8834049052210196	14	1.6291816574434264	-0.20398198301086404	-0.3983637158668272
Si	13.790063513671235	8.154038599561009	5.628777428687291	14	-3.0532035085288287	-2.514314231615584	-1.9567391896776316
Si	15.02236353511278	9.44383100536656	6.7474739286226795	14	1.5751277676347613	1.2710367136575476	2.282318513478515
Si	13.450796696047787	5.661748612371456	8.407180590409656	14	-0.7184043645870475	-0.07390950775404072	-0.9876032053750635
Si	14.728954125255083	6.872549927053932	9.871221395744676	14	0.7799201162558463	0.5303498648134366	-0.02424038095835609
Si	10.808828259910559	7.9579014940568875	8.371024413131556	14	-0.7697166847928386	1.0603498021928013	0.5634518173682153
Si	12.285072790699894	9.54620579945736	9.371161151529407	14	0.9975402703269036	-0.2607147074525915	0.14633343085409986
Si	10.845439436273509	5.6202949457483395	10.8878843509029	14	-0.6947751353632906	-2.061752901152696	-0.4473743825900218
Si	12.225029161467274	6.767087639173091	12.214612932417719	14	1.185223502492285	0.8809401298371246	1.159072018949463
Si	13.577757690687696	8.503429146822324	11.18902874520301	14	-0.7741752385285076	-1.044873805049766	-1.145368541814138
Si	14.984403611462604	9.74567414826126	12.505536097276067	14	0.7804669903574418	-0.3407089930572946	-0.6084857554927368
Si	13.633251329071836	5.314373061057324	13.617683860383108	14	-1.01053052284642	-0.00971723544696765	-0.5014478127991201
Si	14.728856625451188	6.685789052691144	15.079579670032416	14	2.109159969487714	-0.2784753887831104	-0.27853272443174965
Si	10.816416994647131	8.103484951240931	13.541861512886651	14	0.055988132341012554	0.02830658402217028	0.40837225754656764
Si	12.168073026024695	9.510683370904584	14.838153905618604	14	-0.6153395509446555	0.5489734090893973	0.035560443461904054
Si	10.856099414832803	10.879743117277584	0.011602476663624	14	0.09293877244952066	0.28865979406674896	-0.5687472658855922
Si	12.448108712781323	12.164303033607382	1.409180915676204	14	-1.1889814300282135	0.9454627891778365	-1.0631512785496346
Si	13.781028531843539	13.813560966410172	-0.07367735181074399	14	0.13275722343212196	-1.2979960384919602	2.113239028078129
Si	16.282808499945634	16.18093745484163	0.033848681919228005	14	0.6721622640725882	0.47251799284734597	-0.24372535771811701
Si	13.51935530815399	10.787800802203655	2.880810455747796	14	0.7207949783137212	0.10563591896253993	-0.7897659069688214
Si	14.983672362933383	12.226280408950606	4.0316168910996	14	-18.284380774311245	-19.565805010572717	4.863852493915647
Si	10.914306797758716	13.451641694348218	2.708690801936724	14	0.6356224865942397	-0.04910528339897614	0.7918711280049587
Si	12.326770206832752	15.003659822732063	3.926122103284128	14	-0.9106533655799477	-0.36298736354584576	0.11033435682457855
Si	10.848283180553807	10.58092246830366	5.480853976209743	14	0.5949691977141863	0.42736552676756545	1.1543992921406259
Si	12.029087055570947	12.208746694216643	6.790812591454452	14	1.919924561040559	-0.29922035205872516	-0.6947260272516758
Si	13.577123941962371	13.61536011505692	5.256474427510415	14	-1.1317810215287514	-1.0122169108259051	1.4137446288997066
Si	14.854777622182871	14.809050214155647	6.759157655122884	14	0.20780521662192425	0.9496367215545649	-0.258866082727405
Si	13.807629728339831	10.985449154668164	7.973143963399296	14	-1.641103872812953	0.05728834030141143	0.5277425069082745
Si	14.943518693695546	12.443184972684575	9.506848378618006	14	0.028502245137033543	-0.9344054936380078	-0.33924372013534226
Si	10.877955620872823	13.430224237425731	8.380660643749945	14	-0.6476796849930742	0.6675347887173857	-0.88936949862923
Si	12.144023074397015	14.96695114656522	9.577308236900183	14	-0.35063088848774604	1.0870232201156134	-0.8620980416089512
Si	10.933433009289647	10.877988120807455	10.648538582305536	14	1.3131419057118885	-1.0551132319872556	2.435734311047495
Si	12.335333939608283	12.236664138065532	12.097109418755723	14	-0.8476718267681324	0.6574622265151736	-0.14431511317778362
Si	13.593113909801316	13.785497272855439	10.762272103550218	14	0.6195625914329989	-0.5433282902484802	1.2303471721924801
Si	15.041733496153451	15.245004337309295	11.967028430391144	14	-0.5733680563669623	-0.9345772434733935	1.3693177287412717
Si	13.454192939216831	11.000529124337412	13.650151295080475	14	0.8447932172516947	0.36006993033907364	0.4389198169657789
Si	14.970818638786426	12.36874387240998	14.940512449742087	14	-0.12791248967736693	-0.356463955127566	-1.4163540436891249
Si	10.983889157805828	13.578147689903279	13.6146288665277	14	0.25666881612080644	-1.342074553879515	0.21026653574490195
Si	12.373212613421881	14.951416177811124	14.94606993856416	14	-0.7527319630479405	0.5032578709445045	-1.8391448027605506
H	-0.56440198980297	12.949907703499404	3.905240895283068	1	17.838954518222298	17.51958030000106	-3.440184426922296
H	-1.5828378163953694	13.316334716494813	1.8632797523348976	1	0.3990234614919772	-0.2908416340414266	0.6587493218384397
H	11.734207023671154	4.601985868901005	11.780438180685174	1	-0.18684839426792926	0.08608034900802568	-0.057859639903548345
H	14.691662075261595	14.727494878190107	0.8400566853712044	1	-0.5865506275644256	0.09800462126180844	-0.6363825053268756
H	7.484036197155012	4.726296493871673	7.547597944311546	1	-1.0092765947817837	-1.2900155846887527	-1.2576687657665016
H	5.717414500409145	5.772851263907679	8.246588663412554	1	0.04471152151737509	-0.17126646758570382	-0.4280478981195328
H	2.529045788261612	15.989543714797051	10.678906521225676	1	0.4238433695894946	0.5605030166765373	0.5581954496517044
H	7.535504718634978	8.723001955189579	11.789799786855921	1	-0.16154357570703184	0.0904406865204648	0.39268105888823585
H	0.8753597393652143	14.439340707762407	8.760521504725492	1	-0.16736558659397519	-0.1258543198685884	-1.3235235147735824
H	17.257621289278234	17.107869715477637	-0.9721672946535528	1	-0.2979900781630343	-0.312586500176047	0.40463001375309204
H	9.376830765125959	8.874419150640067	4.837083896041967	1	0.5738401113037415	0.34670146822696374	-0.5251567462878016
H	9.945737245868925	7.02980736075779	9.447735872512594	1	0.7777938121560839	0.7384954957797485	-0.8330232113171206
