67
config_type=vacancy dft_energy=-6801.36518148804 dft_virial="-4.609174470283452 -6.055789575781959 -3.578902248806467 -6.055789575781958 -7.238956076701876 -1.8864801863574012 -3.5789022488064663 -1.8864801863574012 -10.580284137450862" pbc="T T T" Lattice="10.887852713791368 -0.06178986173786251 -0.03430834437638851 -0.06227982539922001 10.876485556847873 0.022516552259718003 -0.03252269903277451 0.021199094414734502 10.817308834637252" Properties=species:S:1:pos:R:3:Z:I:1:dft_force:R:3
Si	6.575007469139472	9.193293792439999	10.680040615271334	14	-0.5364552115066604	-0.08205991161891012	-0.9365415679379867
Si	-0.041336600896527756	-0.47650490398407774	1.1271330939413837	14	0.23063663186483918	0.8351510580800753	0.41808460789342694
Si	2.4506305576572176	2.3522142790206773	1.1830945657253646	14	-0.4333094080466838	0.2266838145456435	0.37219397747623195
Si	3.9466268056068454	3.751627801235378	2.322880699019272	14	0.10414544920845009	-1.0645813273287008	0.6203454930029839
Si	2.43171142748	-0.3010870251367292	3.6678298606374735	14	0.5437777194584421	-0.08504136534815383	0.8720075957338661
Si	3.854575699335407	1.068347253851711	5.039649718252656	14	-0.3140440597820389	-1.3751718784447169	-0.0720115178067074
Si	0.8787933789701304	1.099363042423777	2.747261091091866	14	-0.20402209225385837	0.08715687080557168	-0.9625655246569296
Si	0.9465793071148724	3.666575553664398	5.110684649876267	14	-0.4300075945945497	-0.9449416261294427	-2.011661855973975
Si	-0.005813146639972651	-0.11869315255978621	6.492516098305187	14	-1.0491369547811034	-0.6414370412757546	-0.274927520551838
Si	1.3573670184132731	1.0677429653360366	7.853816980515093	14	-0.4678360100593563	0.8581624506954006	0.3187846637713279
Si	2.56104985718888	2.3700489562940903	6.368660906370966	14	-1.3027281578336927	-0.213479131842427	-0.3520745641250092
Si	3.772299912512119	3.689564648655292	7.6675077538798355	14	1.6597179039992291	1.1221154652987184	1.0590022858945116
Si	2.7454656464750253	-0.296980040846417	9.009492090942757	14	0.31434333644130413	-0.23012883856410993	0.9059847525396227
Si	3.8162812283718415	1.3041373662433942	10.445934889066583	14	0.47378863309656316	-0.8282674378064427	-0.237527194122836
Si	0.012681348364068453	2.359965504143353	9.382697411798762	14	-1.3743668653689787	-0.6683413444563162	-1.6961579225911558
Si	1.1332021104933987	3.7907911410917516	10.637371313215914	14	1.0506726759888279	0.7051942825626586	0.4371928055222355
Si	-0.2656702740775364	5.021414359585067	1.133040966889219	14	0.7234187912929323	1.005233017444787	0.45977508065962813
Si	1.1818380811360167	6.531480186272608	2.4888346575454663	14	0.4663347416629219	-1.2866793184253285	-1.0258525107807785
Si	2.566014822290636	7.645238361067069	0.8757643147348046	14	-0.46224437020909825	0.880324350112949	0.9389062135009268
Si	3.6804208379262247	9.207771674229045	2.357553794121338	14	1.3241809464039442	-0.5195633066638196	-0.5808139773741112
Si	2.6355482874942195	5.048260012994912	3.694956426546497	14	-1.2698516912154911	0.21306286989109505	0.32603595210574154
Si	3.924050368899628	6.404565443475244	5.110493019644269	14	0.3995484811983514	0.02192690039128685	0.533655020702487
Si	0.024320707341649952	7.818335989775855	3.9687862287978404	14	-1.5746778242037354	0.3870770777324411	-0.7771962872796815
Si	1.2555003067926398	9.241595498984758	5.256326892618851	14	0.21931039870852287	0.2353859776122167	0.4587355827786922
Si	-0.0274401426522927	5.333279496463525	6.493582041470674	14	-0.8304965861190112	-0.5035203807976915	0.033961730173835976
Si	1.3446225191772965	6.608495940989189	7.896770461494101	14	-0.721469122128664	-0.16487495687034773	-0.6369149812386782
Si	2.6617101693944374	7.87401001621184	6.57581972000919	14	0.6977069667598554	0.1337080181795127	-1.20923659774034
Si	4.14883045341654	9.276586526062639	7.6776608897513	14	-0.5951908269927831	-0.7807449268425498	1.522704215709602
Si	2.4486837687094236	5.069927294908277	9.106915376558945	14	0.526830278740686	-1.0152958094467825	0.3794208403101042
Si	3.910960717484428	6.315562999985587	10.377281180837173	14	-0.17559595183430118	-0.25595559150499736	0.8786029951011098
Si	-0.07060703002602481	7.914850120598192	9.08761625234214	14	-0.060332786110998786	1.4419038885870321	0.643700128178549
Si	1.2697767590764608	9.312891744561092	10.505867244123834	14	0.5705735219944934	-0.7758366867863872	-0.5370108273663443
Si	5.132470611876493	-0.23514444916682778	0.8853719577299571	14	0.38442549681577237	-0.6887338091925386	1.2433888468183991
Si	6.632604330744252	0.8480062401066978	2.4360231076999455	14	-0.6098893218870056	0.518426621001782	-0.6096136993966859
Si	8.150267860607244	2.1451175274462253	1.1863882103378236	14	-1.0269110348410835	0.1259134552909518	-1.7353778202552266
Si	9.519548617648459	3.382189756531141	2.497226101852316	14	2.3554957704373773	-0.5434036236343606	2.573561239949884
Si	8.240121752059528	-0.20506068035947728	3.7292647709228857	14	1.1827984359543215	0.11499834187532718	-1.106651552350688
Si	9.936837602329005	1.4046506893505444	4.664051197112951	14	0.1336275425829921	-0.2814588993966102	-0.10397215670987213
Si	5.209818453074661	2.240603823387848	3.7202810149898617	14	1.4122626437931733	1.4232613181317026	-0.655853485916357
Si	6.722620454608851	3.6689970629596402	5.035290130474711	14	0.2354692814245895	-0.6639596667697198	-1.1143178170837735
Si	5.36563778546771	-0.19694905974366977	6.31767964300265	14	1.3751471958336436	0.4464166458582667	-0.33305326985602174
Si	6.7473135343331325	1.2217298336356082	7.752555646218271	14	-0.4735464349754051	-0.7725801247878876	0.09655837451922514
Si	8.23242170091926	2.561261085967332	6.488095537271606	14	-0.44219077715407135	-0.6745351371725529	-0.43057940841775055
Si	9.572141317058573	3.8274088475253385	7.871117052993559	14	0.8718201621560272	-0.17250419768682315	0.4235746890835391
Si	7.8858943570201	-0.31985263336672143	9.19183478953729	14	0.006106632245883702	0.4386845608289854	0.1711062877242586
Si	9.475707758038327	0.7968594779016565	10.554996444852218	14	-0.5138724221482037	0.8200118757339794	-0.09857772063766942
Si	5.3336507800380195	2.599979103295938	9.140784931256386	14	-0.08558798233921731	-0.20870510348397608	-0.29019242994808925
Si	6.865942447212874	3.8934134855590115	10.407514116359202	14	-0.6944840862410498	-1.1279896696236609	1.144870518713625
Si	5.3074007046787575	5.030415536448272	1.0253153786868863	14	1.0819334600238484	0.4856475992752141	-0.8383821661359053
Si	6.715210026432854	6.4932510437972235	2.250985608967945	14	-0.767689882468966	-0.5515673972468946	1.283895582695204
Si	8.115618719284178	7.746202450742668	0.9431288741307792	14	-0.14680548579087904	0.6651485458697562	0.4707166764600502
Si	9.424051433625474	9.024431627381615	2.4074767359811218	14	-0.04666016223951532	0.06864722649529363	0.9716620952796134
Si	8.119270581773495	4.97951375607391	3.614859344804046	14	-0.48840665239426506	0.5066491588617797	0.45388416415010474
Si	9.315952384232373	6.472792338915208	5.087107598491744	14	0.6990737663480461	-0.6124234032905437	-0.19249685554576257
Si	5.232167328881381	7.870851383808289	3.8023041983255164	14	0.6656794791183668	0.3863147450050172	-1.2065405367016326
Si	6.808897611333226	9.378201723003775	4.927054980064566	14	-1.3725771189556237	-1.1358585374559742	1.5781848118604171
Si	5.380459730627843	4.8974383099477095	6.362681172086131	14	-0.9952489012655877	1.7417857860446315	0.7206286277995075
Si	6.636547993814111	6.525380683092775	7.681901797442383	14	-0.2259438504345049	0.10168541563813242	0.0664571589835915
Si	8.10882564532149	7.951546221217597	6.377344151258358	14	-0.874926828714362	0.40643287280357987	0.6940089459778864
Si	9.329999097999425	9.362427070724335	7.965111681788382	14	0.4398672692762535	-0.6851394039549716	-1.729500273493368
Si	8.09916029549511	5.256770037530346	9.021302392797745	14	0.6186575623603067	0.37910382302413	0.3816607872650172
Si	9.546110092134716	6.586754620122552	10.445656154183679	14	-0.895415452789558	-1.3802498114520094	0.013816605769411745
Si	5.212577492892172	7.777732156755092	9.265716954437456	14	1.44147862776708	0.8944124646041683	-1.4426361393822105
H	1.8580630615707752	4.42950123718857	5.9002937543979685	1	1.7452567782268316	1.6780583695794413	1.7021162020600669
H	7.340600732597703	3.4896725405190683	7.332361721429943	1	-0.5313525958882944	0.521341997324298	0.48689792779240215
H	10.340931321205128	-0.05138412237876556	4.28595495010846	1	0.2765730279567328	-0.7948708365819754	-0.17996657376802092
H	8.670386063300958	4.101505407770087	1.6468364607351478	1	-2.237385619793075	1.8538738938080832	-2.277878728811683
