67
config_type=vacancy dft_energy=-6797.543317654096 dft_virial="3.029404358247685 3.791212201965522 4.085952210143406 3.791212201965522 3.414467917318791 -5.427732328017724 4.085952210143406 -5.427732328017724 3.716338732146139" pbc="T T T" Lattice="10.912221103340991 0.029845044097814 0.013389348851194801 0.029277606330689203 10.846812988415106 -0.0157900470967228 0.0158009593614752 -0.0185072010200704 10.936108050883995" Properties=species:S:1:pos:R:3:Z:I:1:dft_force:R:3
Si	6.905628145337848	8.809976572470555	10.581928673815348	14	1.0956222818588486	-0.28494403265807094	0.31399906543893635
Si	0.27427322719272257	-0.4812090510513352	1.2262177375860395	14	-1.0362518604691813	-0.18523579701113238	-0.49818687992157634
Si	2.864505507978683	1.8725271718882364	1.177492293013623	14	0.24140082139817112	1.4107580329598226	-1.2196390327551272
Si	4.295061950412264	3.3640569848523274	2.3348230856707115	14	0.9746386639087488	-0.5199595139936543	-0.4975880694925139
Si	3.019052639987499	-0.6673831999920317	4.056914866908837	14	-0.3129791079584336	-0.23301953227555242	-1.0087484897490253
Si	4.457838021270864	0.859618020776211	5.142081761531829	14	-1.336610440853136	0.2809392790114083	-0.3117213232358171
Si	1.6186140482705418	0.7609013089200997	2.691131445592552	14	-0.1583703175209051	-0.40590219666550137	0.8920876711736904
Si	0.6592230084101869	2.5222805169462905	4.31129830913736	14	0.4723290166063151	-1.347964956167974	-1.147193769480911
Si	0.1070165804267868	-0.8824966750560929	6.673476260089388	14	0.8968246756155313	1.7677243820669455	-0.6305977754670743
Si	1.440150505603891	0.7780226523166153	8.05152506698737	14	-0.5226900278436516	0.059632931242854466	-1.7938169872979361
Si	2.58809347689449	2.151337718765007	6.162024958503251	14	0.48904428651366183	-0.9699474251416067	0.7637517204500952
Si	4.0997149517207	3.2313867612191234	7.769517226538148	14	-0.22024216727654453	-0.17721343419120636	0.10921104091020584
Si	2.86501511074262	-0.6556481504773006	9.114931814467603	14	0.8557222146360481	-0.9992348858434135	0.3099063799903246
Si	4.184243536945741	0.7914021801295328	10.474518160631	14	0.6314616668546441	-0.3946482115686812	-0.3462502392432778
Si	0.09005455609565625	2.2405312971716986	9.342405611816707	14	-0.6106963918470002	-1.8859072949918079	-0.592950365816806
Si	1.436082413304196	3.3454984961879206	10.751791169404157	14	0.5726468613246607	-0.5000231633412261	1.1243924361702415
Si	-0.00475883865852164	4.8029744045391976	0.9636828335874736	14	0.04284798438133176	-0.8321570059347629	0.5065954227605886
Si	1.6993822670619054	5.840899922596099	2.1054669226518183	14	-0.49238235255081	1.979818716583941	0.849072307836017
Si	3.093580134566965	7.609597986591725	0.8877356533637201	14	-0.3853423529729372	-1.4818328970984	2.052439329240991
Si	4.302572862241341	8.795046411836323	2.4025325972328786	14	-0.4549910249904286	1.7532274618298225	0.11833023725970705
Si	2.682080813206911	4.3440329209416095	3.6207592833407354	14	-0.24863951131651602	0.5323260163625025	0.8485876544831691
Si	4.127269511446985	5.844554440061679	4.813987062127319	14	1.0649947610641808	0.3998750115740102	0.9817048326601119
Si	0.37774550402792983	7.333020089083296	3.710619601123799	14	0.3004814792182578	0.6407546699237874	-0.4966550153718321
Si	1.6082048389232273	8.710654229920687	5.28276267871977	14	0.41213789839845655	-0.3625991266425033	-0.2512370990214617
Si	0.2682038255374377	4.365451514197621	6.134396195376651	14	-0.10368239314029143	2.4534286578607536	0.8785238050572494
Si	1.5068964641884208	5.96023317624892	7.908013508322657	14	0.4453645495612621	-0.006515695102319263	-0.07310809422575056
Si	3.064548054193205	7.198415120909491	6.483177275072285	14	-1.384513989625475	-0.7149698821003937	-0.71962846782997
Si	4.379067838155665	8.681494476049323	7.530547358272389	14	0.18203477088754802	0.8002706719753503	2.7584756487959985
Si	2.7899059924518506	4.488270145212357	9.33853503150903	14	0.8135512022855114	1.3715795300914062	-0.6294217518936386
Si	4.161205563600474	5.9188887875550265	10.832472090077502	14	1.2869459420470277	-0.6225108779036126	-2.338698482270318
Si	0.32929068362137287	7.555089041700536	9.511095038944632	14	-0.4408975111780368	-1.2862923670746462	-1.2426871921765308
Si	1.6748722292015397	8.872400182986661	10.818650615542111	14	-0.7784630708709185	1.9045424092417091	-1.4639793988658236
Si	5.483980475848125	-0.6003720733740184	0.8920907382264028	14	-0.21091342584345127	-0.534331478512218	0.40516788898606704
Si	7.0763014221977585	0.4766455419318815	2.1919127927938553	14	-0.37096601757532927	1.7271983629002392	0.5083946822636283
Si	8.466635256753994	2.0866956448247396	1.0279953571322182	14	-1.684167315820113	0.27141487646345175	0.8246272668941772
Si	9.679285775573373	3.3654111969081004	2.5510266959835377	14	0.346652874336413	1.0359772664209896	-0.32298302164859777
Si	8.291832778911772	-0.5253317023511894	3.892048006123677	14	1.59882230293365	-0.05101638598344222	-0.6190658538851462
Si	9.993555726763068	0.7064665674292274	5.164909128167375	14	-0.5327029404024363	0.17418338657141183	0.2141543040994979
Si	5.768933536554021	2.052874171451151	3.6072640855214426	14	0.840651937912532	-0.14686256432898634	0.3198953812696319
Si	7.2560133279520835	3.4489544046259994	5.084672336669453	14	-1.0453391751127128	-1.1054811852089566	-0.5098766673701616
Si	5.641827476718066	-0.5592339264839458	6.4483987960799105	14	0.42220737527428437	0.4515002352972635	1.341066937704549
Si	7.119247731357305	0.8475479647335813	7.836257728990301	14	0.17287469396345648	-1.366664348050879	-1.2340881304332956
Si	8.605166457785712	2.1354385490207597	6.501516427215168	14	-0.5228324670783877	-1.4970931785050747	-0.2065145217512099
Si	9.803336401278656	3.4924343235319375	7.803397626141398	14	-0.2586663078440295	1.182129434350019	1.1245081359096483
Si	8.245239590871975	-0.656400005518741	9.210618190401972	14	0.6944984844308426	-0.15071253743537605	0.2432322197177126
Si	9.582250643715607	0.736355260586051	10.61585490493056	14	2.0519973562364577	-0.9668325310462474	-0.7174715675768978
Si	5.77203807587608	2.0744400802813194	9.096099427957911	14	-1.8225452325926106	0.5599833962913354	1.103023465633427
Si	7.099038217035859	3.4522149893340166	10.510816718103383	14	0.6039341277444786	-1.3398410346879022	-0.349691663714296
Si	5.860078227898442	4.681888641167141	0.9785584328979452	14	-2.148520763723329	0.39989917996401964	0.5673120748958855
Si	6.993973840773277	6.2471657217809025	2.1616301668794704	14	0.6077144238966925	0.5004335117503217	1.7961325247492617
Si	8.570283221051714	7.685202521702253	1.2058248972167545	14	-1.6677706058619328	-0.5489407560518315	-1.881270306546921
Si	9.820226404662423	8.95637006025638	2.551158734387042	14	0.9723889467536192	0.4020028583369647	0.8995045386907218
Si	8.31073936882178	4.971003639649603	3.7575674377680497	14	-0.5582358160052308	-0.446647016894952	-1.3720721538707465
Si	9.789389435698615	6.111565555061678	4.954741091489102	14	0.4018012836798652	0.20073750520736916	1.6649341624727452
Si	5.681297138327497	7.580545172914936	3.6720141908827584	14	0.361759660755475	-1.3866935156053646	0.8629506201331124
Si	7.023272180406996	8.98718520469068	5.193071501040369	14	0.34889744928090227	-2.052780772027507	-0.17674163636495918
Si	5.565794089602768	4.357029428261718	6.360086928665212	14	-0.9488090827520093	1.3817076281685334	-0.5769161817087666
Si	6.5864040259505625	5.841971506994785	7.823328877711657	14	1.8264587120004083	0.6882514698344788	-0.2705023911853312
Si	8.24023849993595	7.26970494653692	6.5892903199775725	14	0.6196119566551457	0.6646428094532831	0.052423551925159254
Si	9.841055735621804	8.760289757373453	8.079692895992741	14	-1.9149553857883088	-0.9294232057486247	-0.09358257722168575
Si	8.312952376113568	4.886053841005119	9.175593094226194	14	0.4590320312221053	-0.024536315180705134	-0.7592563999083483
Si	9.648316768206062	6.223143462154969	10.610097594047193	14	0.14619921915638814	0.4587196419257073	-0.1487806088978168
Si	5.647267240697137	7.288487136628751	9.33868889444204	14	-1.424709621758542	0.37748788333041683	-0.5417748284140468
H	8.658439043080453	4.254266448635417	1.5534798311899414	1	0.158020904307897	-0.12965775596868342	0.241225214904805
H	3.6851514664181724	5.311848229190817	2.7203119327669447	1	0.2182243638212923	0.12299627919471179	-0.17325650310349847
H	0.41885746148259684	2.7919367649222724	5.8819540450475785	1	-0.19212327394274506	-0.10414570631898211	0.7728099816035089
H	9.834253029775157	0.8475479647335813	7.836257728990301	1	0.16021328581438724	0.03839431574577126	-0.2324880848058778
