224
config_type=interstitial dft_energy=-23335.453313584618 dft_virial="-69.61833518465747 -10.962275378835898 9.601849117793313 -10.962275378835896 -75.43465035868012 11.530105470401498 9.601849117793313 11.530105470401498 -69.66565435895461" pbc="T T T" Lattice="16.254729908999998 0.0 0.0 0.0 16.254729908999998 0.0 0.0 0.0 16.254729908999998" Properties=species:S:1:pos:R:3:Z:I:1:dft_force:R:3
Si	0.6334305698238208	-3.3833407569088045	-0.7369894540740599	14	-0.35227845277689696	-0.9843258174234709	0.8695352208580116
Si	-0.018189042768170998	0.08493096377452498	0.09465129226010699	14	-0.5141519012965039	0.12931734162429584	-0.4272112604483566
Si	1.336919025555432	1.3992884242162646	1.473198681112488	14	-0.2831972237035623	-0.27474574340570357	0.22958093602038637
Si	2.6068197996960567	2.7605732899052877	0.10947560593711499	14	0.643198248420056	-0.29378734940672024	-0.6211312227888212
Si	3.9162358222454605	4.039609222254771	1.5153471957665248	14	0.9307244421511517	0.008050644978447666	-0.5880434113133034
Si	2.8312000913598925	-0.04793519850164099	2.6997806000456275	14	-0.40274153689544334	0.060624863675367596	0.21172255268770182
Si	4.169338221658499	1.348915016228274	4.049654645338532	14	-1.271357587601502	-1.0426436282950695	1.4530532296973224
Si	-0.25625581701538497	2.7259994793888445	2.7268772348039305	14	0.6422276561617002	-0.3673451299529647	0.0778281293724784
Si	1.2322060554816539	4.0637962603593625	4.02741817482302	14	0.2493092842524146	-0.3435693477259593	0.1269845777673255
Si	0.06729458182325998	-0.05362435396979099	5.599835727300045	14	-1.1266501237518636	-0.675006420777736	-1.074511707406709
Si	1.3767918780222088	1.3142924415221038	6.7956799519752655	14	0.520178829277463	0.8231406537980677	0.479133961057151
Si	2.7071602474243135	2.7416527842912117	5.470838190742221	14	-0.2437109595283242	-0.4908389180271251	-1.1771522886712764
Si	4.006222007021685	4.150759065372513	6.754051588678316	14	-0.39670303894054354	-0.19212353105327706	0.1910472663662631
Si	2.7968213376023576	-0.05422577897642399	8.052008026641875	14	0.3260948304175729	0.4481541988336228	0.332832154798489
Si	4.1905343894598355	1.4349513016366109	9.351671211245879	14	-1.305340915060027	-0.686172731183139	0.5235606041050537
Si	0.07376396432704199	2.7435870971503826	8.13258272280079	14	0.07988321385487276	-0.3865512866944708	0.5093945851226338
Si	1.528627310102178	4.101230903339789	9.443526689961638	14	-1.4960431390923263	-0.22029770315145972	0.40269165745223245
Si	0.11535981816417298	0.08546736986152198	10.72259513177094	14	-0.6725278752491133	0.6837646339402884	1.229388407018597
Si	1.507057283512935	1.523312013421935	12.143502346766175	14	-0.4848731823527856	-0.7469189510296177	0.6588161705767636
Si	2.8817848108367006	2.810572839105372	10.809818012462634	14	0.5683587718717178	-0.201168165348494	-0.2618830177100668
Si	4.35738919197572	4.069241594878878	12.17007883016739	14	-1.8060595623903533	0.1923497883214501	0.5029801915699285
Si	2.853810420663312	0.056550205353410994	13.582663623449216	14	-0.7631549669052888	0.7728048393928685	-0.595588319875278
Si	4.083366955169799	1.362487715702289	15.076343264247043	14	-0.749806816525208	-0.021901446448617384	0.5876094087352625
Si	0.16625337750925198	2.8655300809277007	13.630127434783494	14	-1.0767333995138488	-0.41722483027436946	-0.864298650652466
Si	1.5448820400111778	4.239428617026108	14.907326582653262	14	-0.6562458365882115	-0.3940794830718644	0.1792299520937985
Si	0.09811354973072399	5.56885421209349	-0.06682319465589899	14	0.17113431277224825	0.2847434864430994	1.0133281425452734
Si	1.271705049160524	7.11823881228946	1.4674932709144288	14	0.34470629049852886	-1.0639989719736873	-2.179550919611132
Si	2.9153670828286944	8.104527058977855	-0.00292585138362	14	-1.0644149768144873	1.1856117393956276	0.5257403871954752
Si	4.28117076343242	9.533041487570502	1.2549301678944358	14	-1.0301454853338297	-0.41759224122461863	1.2840063973345026
Si	2.4220360300905446	5.516042594619149	2.5572103640137884	14	0.7325564996007384	-0.8399148020172458	1.21322695319721
Si	3.9910400892866784	6.686935808884056	3.8499977978662856	14	-0.3675377057414438	0.5186140545796207	0.6770609910390664
Si	-0.06836739399725399	8.31218123356533	2.7838175536751577	14	-0.22247105847858092	0.36946114963144655	0.742808010733233
Si	1.4364304820583298	9.645751784759508	4.049150748711353	14	-0.7424591117412889	0.09064328961969245	-0.7525494145702099
Si	-0.09806478554099698	5.345302911655014	5.455331178409034	14	1.315527377227922	0.8934920088995554	-0.03611734487424813
Si	1.4247920954434858	6.916615142498225	6.603906648508883	14	-0.5337470662729483	-2.0690923783995907	0.7129474506555652
Si	2.6819491613354547	8.207175678353188	5.240232337523238	14	1.2777879220071922	-0.28037106473565554	0.07358631981529809
Si	3.9115544600316685	9.66941867150701	6.648964759816631	14	0.39613533888585484	-0.9418010209808816	0.11179294487269854
Si	2.71388970560664	5.4874180152494	8.131054778189341	14	0.09958019460199517	0.9514030709095068	-0.9378718578306313
Si	4.002207088734162	6.847321228896158	9.516071549545504	14	1.2991833749288046	-0.4260648045861026	-0.7911015961826384
Si	0.12244688040449699	7.97682990081275	8.153957692631122	14	-1.1986079054573802	0.8458959643235061	-0.5973276726243582
Si	1.328742896411205	9.507163957555374	9.324363264998759	14	0.37291080163948925	0.17224554449161625	0.7995949854972154
Si	0.03649186864570499	5.416092260408709	10.814044242238973	14	-0.03599136071356087	-0.4900783850734254	-0.6703673754485929
Si	1.3578551176782239	6.675199893889758	12.135943897358489	14	-1.2035449418931283	1.260470499233867	0.5417311196236042
Si	2.533917336054192	8.029722791936637	10.748895284763702	14	0.18845919175100204	1.50377805233746	0.034766486139042325
Si	3.7609218779649654	9.49533051418162	12.125475851297093	14	0.7062924016448939	-0.7483870521674223	0.2730927797953804
Si	2.7424817755165707	5.474121646183838	13.383884531392054	14	1.8293424637274862	-0.8208852802112336	0.8235764561498325
Si	4.072199955722316	6.685667939951153	14.96520967585921	14	0.6937001562289367	-1.0121418345505568	-0.8718219619297513
Si	-0.10411154506714498	8.062427308513543	13.503681890821385	14	0.8782263281717081	0.5224226328903561	0.02702180269369228
Si	1.4183877318593399	9.424459891778382	14.979091215201496	14	-0.6807137603674007	-1.0191434685583842	-0.5487877752852827
Si	-0.023179244850233996	10.774398955990922	-0.0037873520687969997	14	0.03573553573420613	-0.10826590259451942	1.0528347184525404
Si	1.296818606869929	12.203336007561202	1.6192636840747618	14	0.4804220848225451	0.09612694304650429	-0.18070885187394767
Si	2.774779923845754	13.581655830194858	0.11357179787418299	14	0.4037846343238274	-0.6354476514324697	0.24939310228585143
Si	4.302805808941298	14.779840735976974	1.442298439555479	14	-1.090764949688025	0.7993466167232892	0.09916907486130348
Si	2.9732989402243706	10.893822456632344	2.8058914768915795	14	-0.8402053369184224	-0.682073875081759	-1.415296290960416
Si	4.197410140211343	12.232236917339405	4.119907588005231	14	0.6988971314125518	-0.3293922729906628	0.9067825665204647
Si	-0.16051545785137497	13.585085578205657	2.926127714028453	14	1.278946204953919	0.6905783201492128	-0.7592178333285461
Si	1.4272953238494719	14.945476433749684	4.1542375775730385	14	-0.3159217379973431	-0.15002065299372422	-0.5038494822786705
Si	0.063994871651733	10.915636304170222	5.41573465635071	14	-1.44492030934863	-0.7841403285283374	-0.36337174379120785
Si	1.404376154677782	12.276287235392795	6.574193002235231	14	-0.7742498005827918	0.6079995594766968	2.2024301574130014
Si	2.8146040121228038	13.589474355281087	5.4334035477617935	14	0.709906604393426	0.3483788573378283	-0.42479390722635335
Si	4.262087710519253	14.85711572196436	6.763381803646082	14	-0.19372610099932536	0.5072911638602207	-0.2382316769805566
Si	2.6481880873144616	11.0154728552713	8.099325545406975	14	0.06951600298297167	-0.5503314669194995	-0.4991790694646215
Si	4.151848132276415	12.167819422710037	9.41602368695561	14	-0.4174413173423259	0.541917524759315	0.7933852519279939
Si	-0.08023334683082399	13.61722117923575	8.081656653995891	14	0.8600550413215616	-0.22407799930367345	-0.3866975825871873
Si	1.3424293789945827	14.940437467477894	9.425500194492557	14	0.4712234413186514	-0.4541885830200103	-0.5826476896884407
Si	0.06583165613144999	10.885711346407755	10.747497377991527	14	-0.8502385612092361	-0.05560580897990654	0.0795332864208006
Si	1.432155488092263	12.144558904210259	12.208505011672266	14	-0.06473169020324013	0.5976925124692871	-1.5170354426997392
Si	2.7427581059250237	13.579120092329054	10.727357767634276	14	-0.2508300930492822	-0.468420422298626	0.515666539440603
Si	4.073272767896309	14.921793292272271	12.133554452061865	14	-0.6091506433285271	0.059035149255920044	0.07264041016801562
Si	2.599505171237007	10.826235289670722	13.624958430672434	14	0.41577164154742174	-0.18379829202663758	0.3656368875782583
Si	3.9983059535560015	12.19023469525455	14.843071635322985	14	0.10485430294521492	-0.2505814671648239	1.195325118184615
Si	-0.005022711541880999	13.552771175146564	13.372359927886574	14	-0.43827086998297354	0.008122635927411812	-0.26824290382998506
Si	1.3821559388921787	14.945931566187136	14.905099684655728	14	0.3292300362449615	1.9980080011713282	0.3628392678794052
Si	5.463409779173808	0.05144622016198499	0.16859405861614796	14	0.5804699634822753	-0.4356617123040873	-0.5686094546404322
Si	6.934869204186032	1.3249717990723169	1.493289527280012	14	-0.8772927598299625	0.8716119026250951	-1.390501579695036
Si	8.10151993394469	2.7477808174669045	-0.07030170685642499	14	0.16919801335564472	-0.19150955110282572	0.38638956416983355
Si	9.456384181319656	4.060772880596288	1.3376829978611546	14	-0.5320293108085575	0.010332500950079086	-0.08868847824478389
Si	8.265253828318047	0.010646848090395	2.7346469957004325	14	0.5856607680131222	-0.7751581720924001	0.2440313192512146
Si	9.481725305247787	1.461869134365915	4.063389892111638	14	0.7957095311374077	-0.28918712776791133	-0.03028170712910803
Si	5.38858925740268	2.592596911025682	2.7322412956739006	14	0.8193475021192532	1.5966944561706953	-0.42649417917456733
Si	6.650525213887895	4.013439107101281	4.188453784031484	14	0.22724817216341603	0.03433325489259737	-1.1292214861825438
Si	5.653037458292201	-0.072236019715596	5.269328304060347	14	-1.4516779454615751	0.017445978039332777	0.7113906463842156
Si	6.779539005175628	1.2707785295557108	6.744640100061005	14	0.6383923383556352	0.9297075699970331	0.40589036958102864
Si	8.154087730470394	2.7266496685852046	5.416791213794795	14	-0.707788013609624	-0.17971743366249857	0.5901481181283766
Si	9.518347211732765	4.021615236245507	6.760976103619551	14	-0.56099975422439	0.24160779537644306	1.306604099103816
Si	8.205533950632379	0.018400354256987998	8.205891554690378	14	0.10058652522430114	0.936702004909964	-0.5928521495935765
Si	9.506188673760832	1.3016950258426288	9.68520201424865	14	0.21473485968078732	0.35351643998854826	-0.9151597418745713
Si	5.384119206677705	2.807874553940478	7.9986762578104456	14	1.1519901664556471	-0.5246186139442945	-0.099420786072146
Si	6.777003267309824	3.9917878068624923	9.488259706671206	14	0.11212950255910593	0.0777553670919182	-0.2540457744731914
Si	5.361330075345288	0.0015279446114459998	10.783452840550234	14	0.9988235089921896	0.6580628367179602	-0.08130272110212651
Si	6.715722935552894	1.3835375909344438	12.194379651381343	14	-0.7348620097413153	-0.6260448621661561	0.6246940034309503
Si	8.098431535261978	2.6692379625466165	10.92834750295906	14	0.3963361422113584	0.8326923100624176	-0.35313360240637826
Si	9.488048395182387	4.2084308470896445	12.1029142861834	14	-0.1778901491114693	-1.1626476551181928	0.35553887143337676
Si	7.994303735464925	0.055769978317778995	13.637767157840726	14	0.8716520118680896	-0.48230696213274576	-0.23829364061877217
Si	9.511666517740165	1.431050166458451	14.886943151347376	14	-0.14642367665083705	-0.7726675423687727	0.27647609728616324
Si	5.348163744118997	2.6352330675769884	13.697519544986209	14	0.8377206207370312	0.14400786609202593	-1.226336247893049
Si	6.794347064122727	4.074833221967574	14.724412106987286	14	-0.007632840363923603	-0.29382334488120226	1.2207551495746034
Si	5.42144006654877	5.156455459572252	0.019196836022528998	14	-0.0984224258763325	1.4590421053195435	0.03726945716820648
Si	6.884869654985948	6.8634296662359775	1.1155621136546698	14	-0.7096592640616278	-1.579085212943533	0.4357828113646663
Si	8.231915377274687	8.146187931734621	-0.280686676068612	14	-0.28356180643795936	-0.07727894127609476	0.3795537664551558
Si	9.401248137468329	9.407506208483294	1.3174458591244498	14	1.8711512073384142	-1.5154403289591196	-0.9736135642176059
Si	7.94757138697655	5.293564106354666	2.619856093083075	14	0.6256627959155822	1.0355183241213433	0.6950422732060539
Si	9.46525926384997	6.5892448821309655	4.221775980344933	14	-0.8159377022436728	-1.1639280655676267	-0.43472531574648937
Si	5.452535364864686	7.982031414383631	2.5839981589038206	14	0.4042422910708137	0.7018734429311554	-0.08550236453205638
Si	6.925880338546356	9.225469488232402	4.010789586126114	14	-1.619157946242297	0.4482724696783496	-0.5004268268764893
Si	5.256357029592965	5.432753358565434	5.36892103421279	14	0.6081821079544273	0.5517329764295122	0.07554858739563511
Si	6.601208363343989	6.779165146387721	6.843940245075086	14	-0.04276236657417084	-1.1348362659806832	0.05683788264932149
Si	7.964004918914549	7.87865133216239	5.431062866654897	14	1.6320530678649678	0.2830717537639391	0.8150465571397094
Si	9.31638219261344	9.337887200283047	6.802230608128592	14	-0.12324824751608632	0.36472568785279785	-0.2849926265486217
Si	8.0849238547076	5.448861795905252	8.228079261016163	14	0.1815706863772613	-0.3371582966101701	-0.9874965045042774
Si	9.304158635721873	6.887551685420933	9.606220281620818	14	0.09454108528503695	-0.6302740733072677	0.41242971885229324
Si	5.271035050700792	8.255338443073557	7.969466508163973	14	-0.4612634935294618	0.4152211678983781	1.5580183472818359
Si	6.558035800705685	9.651294647658476	9.529693013209247	14	0.4198602132275212	-0.5054764777252602	-1.1653722554259538
Si	5.53276871169551	5.470464331954314	10.803950054965483	14	-0.3408843424401288	0.20596867609174246	-0.6350838400296688
Si	6.751093227834878	6.857009047921923	12.168567140285852	14	-0.5951671728238378	0.59329540815077	-0.11924297964835961
Si	7.928683390822292	8.308312607846988	10.828023309960713	14	0.34726402607101214	-0.2917183809555971	-0.022393041785829695
Si	9.369145045898053	9.604269714031739	12.111821878173531	14	-0.3627611062776727	-0.49786626308815385	0.0029503433548699206
Si	8.058233588197021	5.51457966892734	13.419628682461944	14	1.2932225243545734	-0.09246800306540155	0.3375683879087338
Si	9.626327382518252	6.750199217689883	14.695478687749265	14	-1.4743239840109077	-0.8307099878605836	1.2674466792990247
Si	5.214159750749202	8.107745495499836	13.462362367392705	14	0.3019976600255491	0.8105319533080614	0.8156841912591062
Si	6.786089661328956	9.539900983592098	14.75113488295768	14	-0.9649052304982644	-0.9864505788600411	0.10559632394060967
Si	5.519797437228129	10.870431900293294	-0.033192158474177995	14	0.20956565243462963	0.565915450485981	-1.187425911309524
Si	6.959365082158896	12.061887347893084	1.3560670973882338	14	-0.4514249019113832	0.26882551629553064	0.7226199488699622
Si	8.125479405830555	13.615286866376579	0.07246358593432199	14	0.5187333538664757	-0.4030084176276747	-0.003883654586083673
Si	9.633707029896938	14.887333264865193	1.3948346282211987	14	-0.2931941954093621	0.15151677917951842	-0.0677630233756947
Si	8.254168102520108	10.570304567253517	2.7319974747252656	14	-1.1869404866250801	2.1366114038804027	0.4379669653341321
Si	9.468087586854137	12.084318875167506	4.043136498645024	14	1.0173159268968228	-0.38777127616888113	0.5112156990208946
Si	5.592976231278447	13.427837321065992	2.7706512224488677	14	0.42504484710559987	-0.3487272421087084	-0.5895714192050675
Si	6.9564067213154575	14.802873688258027	4.007181036086315	14	0.07459599287452025	0.394333508277495	-0.23191035744044053
Si	5.577631766244351	10.629162944254007	5.359899659113295	14	-0.2161715933336861	1.504755072359116	0.18767988972846514
Si	6.780660581539349	12.207058340710363	6.824954720541374	14	0.06481139446816472	-0.5956353711026368	-0.6266380161635142
Si	8.169789799562489	13.465840879593232	5.405169081909861	14	0.41609405815456824	0.06428817453551458	0.8009368453638007
Si	9.483594599187322	14.946549245923679	6.822223925916663	14	0.44855272015824565	-0.35293614151779085	-0.9807792347448586
Si	8.139165888413933	10.905525862166824	8.20698062159428	14	-0.5318917566739295	-0.6949972788629514	-0.333508869718752
Si	9.447021456892072	12.237617232939284	9.541168852525	14	0.5141639854915085	0.805785692887068	-0.4830836930499625
Si	5.549332281472781	13.589766940419448	8.238092174640109	14	0.04309583893419404	0.08761632732628213	-0.42737786807310213
Si	6.922336807426194	15.016802188590377	9.5267183976359	14	-1.097811835149487	-1.062287901383129	0.6773898354095134
Si	5.278430952809388	10.853787056866476	11.00490728083045	14	-1.0258795073866398	-0.5392163215099673	-1.222587576336273
Si	6.500932934535368	12.282756617896577	12.16274794697843	14	2.1370857728119703	-0.37941235566254766	0.9416464975511408
Si	8.038549110277224	13.514605069320233	10.940571059850628	14	0.16292580192714348	0.28685924901104926	-0.6526516884611765
Si	9.380409573724991	14.854888823966828	12.274694271861712	14	0.2856832254376135	0.5072536257225465	0.12002279589196055
Si	8.083054560768065	10.882135305827774	13.484289998039948	14	-0.7037804317471091	1.2053267178799911	-0.4734461618679194
Si	9.351281097728064	12.076825444679455	15.012657232463582	14	0.21616259446506558	1.5755311740594924	-1.1669095192968704
Si	5.275261280477133	13.559208048190527	13.544627555462156	14	0.3084737601059381	0.7416597550972548	0.5124642277643585
Si	6.682985909516168	14.837886376482013	14.951750759494558	14	-0.0459549080501987	0.7270036834408147	0.05723871796873258
Si	10.928900163775966	0.08710909758233099	0.07862412856983299	14	-1.1525092726197852	0.18383454461165166	-0.5328749473483542
Si	12.120453139755211	1.559852646257367	1.3496952432639058	14	1.235364427114217	0.62986218223498	-0.5872625666275745
Si	13.515092711217502	3.0761263616287047	-0.21222175369190396	14	-0.521376450135588	-1.1992928479146676	0.5594167246787748
Si	14.87176123361237	4.282796236423319	1.2777192992268538	14	0.4804511383126629	-0.7876599146010881	-0.1042009850833653
Si	13.423416034530742	0.13870161031349698	2.693798859439116	14	0.2414525006151061	-0.9237279503539647	-0.0759216547775886
Si	14.848679517141589	1.153094285014551	4.176392774439005	14	0.4622258582507932	1.1917862488219633	0.032290511715739725
Si	10.85765568258482	2.876502023616276	2.750121498573801	14	-1.3645169608874914	-1.412225362766031	-0.8781687354125368
Si	12.245078153967514	3.928085520349122	4.065047874562355	14	1.0545694432120445	1.0182453814700563	0.9656966167158058
Si	10.86204445966025	0.14434200159191998	5.480704811796983	14	-0.8114814625027921	-0.6354209119371401	-0.30570056590762634
Si	12.117413505262228	1.4840893501515178	6.866046677751326	14	0.21129034988338496	-0.42267814465840353	-0.41466375226497
Si	13.538922145264097	2.6416699406209525	5.490896527449927	14	0.6008999663561719	-0.10035615418761587	-0.22382500254017088
Si	14.90165368191502	4.02759697685202	6.826271353664003	14	-0.23996691596112454	-0.20204285537840835	0.005435059536261024
Si	13.484956441966215	0.11108482419810599	8.045246058999732	14	0.5396079008502259	-0.4069684340417667	1.4862212596588285
Si	14.865551926787132	1.4298635711750938	9.503360350756665	14	-0.17922198166730605	0.4569982869138682	-0.4146262141272957
Si	10.83213575662769	2.700170713563444	8.248755277460411	14	-1.1301167450550194	0.6048658963125003	0.4751891141644478
Si	12.12617480468318	4.2542041665133885	9.42626416679828	14	-0.5072114595952961	-0.2620529677717286	-0.0821411585470268
Si	10.894293843799707	-0.121536615529593	10.86139427046389	14	-0.7429921018741554	-0.6354545934168342	0.18322442131918057
Si	12.177214656597439	1.2928687075020417	12.106685383522288	14	1.0630216948414992	0.7149521414736846	0.36177431605579985
Si	13.388598403065664	2.9349540323690397	10.738638550191121	14	1.333168759271586	-1.7062248283616634	1.1424446808440654
Si	14.913259559070045	4.170346014912858	12.152865071193757	14	-0.4782289319844589	-0.7642885672409421	0.5965555696967176
Si	13.6115320237676	0.09265196048129999	13.674974234602427	14	-0.6811138243552157	-0.5162339823847597	-1.440023382155876
Si	14.888861209476637	1.4940209901259167	14.890795522335807	14	1.1277999220510337	0.6870209388282559	0.791963687796484
Si	10.84302642566672	2.65683560362605	13.418637143937497	14	-0.9092760244599445	0.39938881555797023	-0.34041665838239377
Si	12.028532642119817	4.2510670036409515	14.55705340784422	14	-0.25403240472552663	-1.4600278670992883	2.1450739399311383
Si	10.7848344925925	5.366108965938533	-0.022659093493145998	14	-0.01969903763137854	0.26006858868563826	-0.9067918224996172
Si	12.072127827735756	6.677735631755562	1.3362525816291628	14	0.3770428249994992	0.10372841592552208	1.4059364391529487
Si	13.491507098119543	8.02398487227876	0.078331543431471	14	-0.15256476170801075	0.33947691938787966	-0.6732670680286559
Si	14.819648569524116	9.49585066553871	1.3361225437898907	14	-0.04516069361680496	-0.8421318661348094	-0.16923786548810701
Si	13.550934390666848	5.368173316636977	2.817383570937243	14	-0.16632865981835945	1.2585167163010864	-0.6664580098093077
Si	14.964023080575855	6.7983782371401595	4.123808723183391	14	-0.6974146320849546	-0.2750061963746346	-0.289408499935976
Si	10.647091911343635	7.94106949501295	2.858280471388287	14	0.7312156681762813	0.5426338347015082	-1.7627251248824496
Si	12.213804053622598	9.241512906652586	4.001768211026619	14	-0.7066970936222852	0.20285506754904317	0.6649654831709617
Si	10.956256874212814	5.225521806955593	5.467229640702422	14	0.0593557660893425	1.3154471587419332	0.18444132546720665
Si	12.232822087616128	6.7691359780338685	6.855351065471204	14	-1.311087078340026	-0.7509571290454423	0.715235477279965
Si	13.506152609767552	8.003568931513055	5.487011647001675	14	0.9590567372265235	0.936268516552987	-0.49270965425806496
Si	14.97772581788914	9.38318913253943	6.781522082224526	14	0.5313759929467079	-0.16988835513410447	-0.5651042667574743
Si	13.630485038841494	5.410175538721832	8.187101086915574	14	0.06371353249646149	0.8233658826241126	-0.3074579163939476
Si	14.917241967897752	6.821151113742668	9.575921465070442	14	-0.004699466304166659	-0.3060641201998953	-0.5233207199786839
Si	10.643662163332836	8.104136945460038	8.251502326815032	14	1.6333990415000652	-0.08348044730829193	-0.827507161963275
Si	12.08552172518077	9.644857774614513	9.338114766501773	14	0.3966516168341406	-0.6948419841016144	0.14409142701493072
Si	10.900194310756673	5.601965096918123	10.875779706433354	14	-0.8685546012889072	0.42088531291866427	-0.6888824190800431
Si	12.102231587527223	6.957138184161362	12.27506813064962	14	0.5118134810078292	0.8014950323288049	-1.0800030741494813
Si	13.436501092107488	8.226144948156993	10.730153581178623	14	-0.6872600516230297	-0.4586399376607827	-0.2842580617586554
Si	14.87322415930418	9.454661179949301	12.054215115376037	14	0.7352903558876519	0.29968546501113996	0.23020237217626616
Si	13.39223946256528	5.535255685371587	13.443636918537539	14	2.3109971364405104	0.5077382790753944	-0.343545436446482
Si	14.860399177405979	6.728938030968911	14.89123440004335	14	-0.7264501244653868	0.21687581908087467	-0.19216106919095122
Si	10.652472226943512	8.273771306790362	13.47235902628674	14	0.7693305047737524	0.015106015087466007	-0.5545444800970941
Si	12.110976632218264	9.42026617146186	14.883529658066484	14	0.45723148616640563	-0.8267175755194576	0.5835928280041272
Si	10.765702675489607	10.755380921997391	-0.09939767339353499	14	-0.22642721823469272	-0.481738490746461	0.9951609694636389
Si	12.057628608656927	12.004524406044224	1.3031904609942568	14	0.4211434518928071	1.0905818869892305	0.802780070767815
Si	13.447765619934424	13.494189128554527	0.12301579595131198	14	0.4236464229219713	0.4632489010576801	-0.4398832101292384
Si	14.878978333691967	14.942176723578157	1.4283031171038298	14	-0.4199365750555296	-0.32251688025405484	-0.17360488787437853
Si	13.404137924858668	10.671571534586588	2.6600377854181225	14	0.531362623199043	1.3316736615279197	0.6574809955840107
Si	14.765292752708419	12.22531240239817	4.119549983947233	14	-0.6646422952322191	-1.3474401935721319	0.12647447047180813
Si	10.934930668572205	13.517628449083308	2.8130435580515396	14	-0.8174294575504226	-0.726556568225641	-0.7004580494524139
Si	12.171590520048925	14.945167593881413	4.134861939521511	14	-0.3471192728414878	0.9084833526897428	-0.5323123895043057
Si	10.832769691094141	10.554878828569876	5.432542047076616	14	-0.19843945127222082	1.0420095937231209	-0.13169767092968895
Si	12.205757962317644	12.063642858723256	6.795387366836903	14	-1.6279364711368787	0.038927562989169974	-1.244667971715173
Si	13.328017024694821	13.523220076172002	5.447106285075081	14	1.3390614755548333	-0.06825718981822718	0.11100335842888108
Si	14.715910883244877	14.871241082255281	6.810244189973729	14	0.6773924065148335	0.23568011206084163	-0.613853709180142
Si	13.618456538708832	10.815767243609326	7.934340036830624	14	0.4951144090639994	-0.04632514721630003	2.0520644620853137
Si	14.861260678091154	12.298978838345759	9.421469021475124	14	0.12978733967681894	-1.1263922418882528	0.5532108477675334
Si	10.942879231497708	13.56127239888897	8.016962828958071	14	-0.6675664133128234	-0.26267234704335224	1.5844382542200814
Si	12.314193265540583	14.861878357827697	9.505115861586837	14	-0.15753959339196527	-0.19429148705922594	-0.1922556858667327
Si	10.749415436120788	10.838653903321198	10.828283385639256	14	0.3064384731345089	0.2721800374067278	-0.9684664684772014
Si	12.078938559567625	12.039667132107482	12.202100648088118	14	0.6439855208690854	0.9830628904902142	0.3248596714217738
Si	13.592546499233887	13.466799908657864	11.049900373218563	14	-0.7642111769708055	-0.20669269934989618	-1.4417002570456767
Si	14.889738964891723	14.99072960181634	12.127182597937539	14	0.3835778033917196	1.1570315897673935	0.11090668486884352
Si	13.396351909232257	10.601985035846159	13.439687019169652	14	0.9479027681266572	0.415011879925318	0.2090758568711414
Si	14.663294322529444	12.227978178103248	14.720169622481036	14	-1.1275250708923101	0.3073869538871115	-0.16168807182602418
Si	10.786915098020852	13.467108748526135	13.521432055882013	14	-0.16631837539707883	0.30090262626969805	1.320166422557065
Si	12.145615461654344	15.010609136495047	14.93614621878192	14	0.4605019321336339	-1.45328385784454	-0.30199046093065274
H	-1.0243356929863892	11.711921387479324	0.8795027985512175	1	-0.0859456230892499	0.07067762836661458	-0.1388440581670405
H	-0.9942709445467028	14.522081356445007	14.173472665978649	1	-0.1872834252880983	0.2897129188058816	0.1617418079272153
H	13.729929850951764	13.093090664266027	13.809114767703457	1	-0.004202471645782035	0.3565580575822834	-0.3811277971321505
H	2.2447359381351366	14.087426627732365	14.015455560114285	1	0.7847501947102765	-0.7295462494919092	-0.8752299620316076
H	12.019160164854288	6.887551685420933	9.606220281620818	1	-0.06749639975399535	0.05760227226100152	0.1463740543181582
H	4.1333892609917555	9.424459891778382	14.979091215201496	1	-0.16674055089064718	-0.17706173897731758	-0.0428155884542979
H	9.466094756967292	6.857009047921923	12.168567140285852	1	-0.008822233685024102	0.04937627789971976	0.022450120323936982
