224
config_type=interstitial dft_energy=-23336.34326215474 dft_virial="-69.98111552093549 1.837561268538679 -9.913367015249442 1.8375612685386793 -66.02207793807534 1.7310931263701295 -9.913367015249442 1.7310931263701295 -67.26814952789984" pbc="T T T" Lattice="16.254729908999998 0.0 0.0 0.0 16.254729908999998 0.0 0.0 0.0 16.254729908999998" Properties=species:S:1:pos:R:3:Z:I:1:dft_force:R:3
Si	-0.10196592071915699	-2.7151413198096326	0.031420392914097	14	0.6290008619527303	-0.8022938747517749	-0.11580464050372559
Si	0.033305941583541	0.035581603770800996	0.07740502382665798	14	1.0920103931051048	0.21674854936752735	-0.470835204415309
Si	1.5703694565084898	1.2493060313459219	1.4367718313864188	14	-1.4351053718994968	-0.3645793919600814	-0.26357171968434
Si	2.6786006869742005	2.574066518929422	0.016303494098726997	14	0.14839777131564674	1.0041240997202072	-1.5262248302244807
Si	3.9096526566323155	3.9814985628300956	1.2651869024670148	14	1.028849134031411	0.4925109078168175	0.19868679160401906
Si	2.683363322837538	-0.22753370926618197	2.7345819767807966	14	-0.2787342990888493	-0.2547186327354741	0.9179319076307548
Si	4.045347141912647	1.101729338502111	4.051702741307067	14	0.3913443412322909	0.6095962158805088	0.17025679452648168
Si	0.0014304162319919997	2.552447728150452	2.5474737807982977	14	-0.39132788615824193	0.5754851044875722	0.7352592455132781
Si	1.2541174313989858	3.9207708918900717	4.050044758856348	14	0.7761537040723615	-0.1347876253034429	-0.598869821595383
Si	-0.08257402793772	-0.05928099997812299	5.4432051498969205	14	0.20810963549182976	0.8783911360227296	-0.6321126707217055
Si	1.3461517121437439	1.258636246313688	6.871638304840022	14	-0.4684273642829904	-0.6717958815644671	-0.846413784934984
Si	2.5993426239379165	2.4044321575990977	5.384736886414248	14	0.15640316484045982	0.9512354348426331	-0.9615910757405934
Si	3.9561249294421463	3.8590029182358716	6.5692028001531675	14	-0.17046145450996547	1.2884150716269605	-0.08298113865511918
Si	2.8319152994758885	0.021781338078059997	8.098480299451706	14	0.5315397723556012	0.26201131586554216	0.12232213537976895
Si	4.149930074147153	1.4803832717322658	9.419827293754315	14	-0.3335201825821606	-0.7434302182207086	-0.21039097724239714
Si	0.10861410525193799	2.8125071519645424	7.938761323365872	14	-0.8055036426334479	-0.25800321978196333	1.6108453056317265
Si	1.317754698992721	4.188616331330574	9.399200041499794	14	-0.06044540052402127	0.05132337595866789	0.29601032706652025
Si	0.03559785850071	0.12675438383038198	10.852551697393393	14	-1.133687496123641	-0.015797128197521815	-0.237283196227954
Si	1.2253953236497828	1.5067484436446639	12.170615236254386	14	1.427678477071717	0.7406721935437859	0.36909425290226144
Si	2.7223746746191377	2.798788159921347	10.639939830183675	14	-0.8344638016279996	-0.2836209418603227	1.321071708740289
Si	3.9825226108143625	4.010903369235477	12.207513473147817	14	-0.22939478799520763	1.0052127057127578	0.2574031238002407
Si	2.645961189316929	0.21188040436381497	13.602640686507376	14	0.5634261063150137	-0.31936727623687355	-0.19559863700398922
Si	4.285023134420852	1.5201748505494976	14.90147487988602	14	-1.2420899244106602	-0.6698300144366819	-0.5288159433794364
Si	-0.018871741424348998	2.9291185843317087	13.549390191325493	14	0.15015229358611581	0.2969143276970843	-0.28149823730800844
Si	1.357725079838952	4.2050173538087545	15.02047575754981	14	0.6296323254193588	-1.1932728619180728	-0.9048238984875758
Si	-0.12098395471268698	5.454014545286405	-0.10531439508041099	14	-0.01414467880826264	0.5972726509705071	1.252797549626949
Si	1.2652844308464688	6.721428345750953	1.356034587928416	14	0.5688279985926448	0.32563743078111856	-1.3623106954122723
Si	2.6899464884506825	8.178502334793713	-0.0074934304880489985	14	-0.31304544247569344	-0.2386250560945392	0.018416570297688676
Si	4.087658203865774	9.612283295876876	1.185067338745554	14	0.11178960243578236	-0.6509521878445587	1.2335744235903299
Si	2.6586236239160397	5.362858019956733	2.5604450552656797	14	-0.7584719556751711	-0.43833720450023334	1.5803651091719026
Si	3.9644473511555547	6.738479557425494	3.9413818894146835	14	-0.8306099718636297	0.9324632806791677	0.06139131017130374
Si	-0.0064856372336909995	8.156200845358565	2.551098585568005	14	0.13177608964195345	0.19957485138159822	1.5587246299132804
Si	1.18106867518794	9.578310910367065	4.075515920623752	14	1.0547787311851042	-0.19930488532298268	-0.2772325164713508
Si	0.012857491358018999	5.366125220668443	5.392571666230385	14	-0.1566373925351253	0.2456297754287507	0.07529533352160052
Si	1.3726306671655049	6.73594381955969	6.727979001904281	14	0.7858801954984815	-0.5728828887930504	0.4603931743785917
Si	2.596725612422568	8.203323307364757	5.412890078616636	14	0.3263275154490463	-0.5542742569279465	-0.9312587178366786
Si	4.076832553746381	9.449719742056967	6.723557715369032	14	-0.5942253769450675	-0.03222314875635184	0.5386277955021855
Si	2.9024608272809487	5.343596165014569	8.12734869977009	14	-1.5866270361791235	0.05211399084461343	-1.154402634577542
Si	3.9066942957888777	6.754522975845678	9.578684769154972	14	1.3024965012443475	0.056216703603973725	0.07011867007001439
Si	0.12306456014103898	8.18666220920803	8.042791594783472	14	-0.44201259955538513	0.08228462622389106	-0.33874698258748964
Si	1.381863353753817	9.467729982796138	9.520980477978023	14	-0.22623309978302156	0.830889708122462	0.05850241623358536
Si	-0.077583825855657	5.564888057995694	10.853429452808479	14	0.2516631311730102	-0.20889845060405118	-1.3070738400458068
Si	1.2535810253119888	6.764357087440622	12.277571359055605	14	0.326616764797563	0.9263111398691176	-0.24162296489783197
Si	2.665418101018002	8.12749499233927	10.931793505699767	14	-0.25737895541023137	0.25534932487050643	0.5659265062388577
Si	4.081465151770446	9.536357452471938	12.287860603088001	14	-0.8973928898912841	0.5472767366886316	-0.9354750734511893
Si	2.6623297023352914	5.617049486273675	13.641570764639432	14	0.8689713774613032	-1.6659122109365296	-0.22508818658395963
Si	4.163470264161351	6.934804185266396	14.840470878537543	14	-0.5909104508558006	-0.44813491554372165	0.7251478596207318
Si	0.000373858787907	8.155843241300566	13.674714158923884	14	-0.5641167052040055	-0.26018043176706473	-0.724595586197964
Si	1.2835710019940938	9.572475462329734	14.931302309269036	14	0.8714468376635417	-0.42224259941717046	-0.029325770171076973
Si	-0.128298583171737	10.814645667245605	-0.05221019246770799	14	0.8716358139045726	0.3875470757849642	1.3647766425248262
Si	1.4281568245346488	12.131831450691513	1.468956196606239	14	-0.27296705274522515	0.07911239647989236	-0.30027656212424203
Si	2.8719994634314827	13.609337635229885	0.130883085227268	14	-0.5685652316289256	-0.984763676659492	0.10221506333408291
Si	4.192468702319006	14.90002820892412	1.462389285723003	14	0.7401446027320916	0.31876615181302287	-0.3936935601633102
Si	2.839880117131299	10.818221707825586	2.8364341143905905	14	-0.16255761964529827	-0.07931551380018406	-0.17936133557565806
Si	4.195784667220442	12.315282332444484	4.0886334876603145	14	-0.6187822609683339	-1.448165044262657	0.8138350523128556
Si	-0.15845110715293198	13.388208289547848	2.8624254275150816	14	1.5245327858132913	0.6135076384040501	-1.4237030340257042
Si	1.1916667590886079	14.740748110545828	4.135707185476779	14	1.0723301245425634	0.6456482546796252	-0.05509775856864528
Si	-0.075438201507669	10.949592434950125	5.494878936277631	14	1.2650681497673557	-0.30922683685420943	0.5207922950068502
Si	1.3066527184648737	12.31160876348505	6.935096770404758	14	0.6244248087039308	-0.9043055636550341	-1.1236419305272904
Si	2.7378816869523237	13.558102726556717	5.479469452323899	14	-0.7359452164126936	-0.8183936220454782	-0.3692739731641398
Si	4.109228230455018	14.869696882913928	6.701873905670426	14	0.27790948850214575	0.6023544406357797	0.5079498810432426
Si	2.7080867670291267	10.825585100474363	8.079852378975993	14	-0.3205502417946736	-0.2208823725012614	0.11418330148884022
Si	3.9278579541303955	12.248280335759588	9.415747356547158	14	0.25633585798184727	0.3198023072570425	0.19323399144104902
Si	0.027519257735936997	13.699648914604287	8.185313066625584	14	-0.13799713607458375	0.3185548069557067	0.8726984517333898
Si	1.4264338231642948	15.192320762147759	9.522102054341744	14	-0.24438921711177922	-1.845051145901995	-0.20320576631471132
Si	-0.11303539178718598	10.919618712997927	10.812500042897618	14	0.9917943641574368	-0.6570287381581966	-0.10534127029285098
Si	1.278076903284852	12.26562413257249	12.161073709797803	14	-0.1801570926722439	-0.44595564667436416	0.5549502005166136
Si	2.622977001225603	13.607712162238984	10.869489125958571	14	0.9464668058053542	0.5361433364313264	-0.12397612743222021
Si	4.043282791214205	15.08029316361493	12.188446674964558	14	-0.4841486448735678	0.0028382431629114645	0.03876635468559669
Si	2.6737405227314097	10.921390478558008	13.591132337731805	14	-0.2604943637266548	0.14971263457637046	-0.6449334874006241
Si	4.043120243915115	12.243241369487796	14.92457285108671	14	-0.1396994649070538	0.8744588875460952	-0.935663278360624
Si	-0.141286112369028	13.643277511279877	13.48507022507558	14	0.9107736933089307	-0.36706745057838874	0.40127163598391463
Si	1.4198344028212408	14.781141114369696	15.002172931672277	14	0.18495914607868447	1.5174884714571495	-1.2092736216569504
Si	5.4803309530090765	0.092960800349571	0.017977731279354	14	0.049207870501250056	-1.2151791934667984	-0.15341219802153155
Si	6.858667030372641	1.332026351852823	1.3318800592836417	14	-1.2174384237116125	1.2804279329499204	0.6577355350107054
Si	8.065710763955162	2.7241139307194007	-0.04578957415365299	14	0.6215189454710994	-0.5030619527191091	0.08876792539917647
Si	9.509407110282815	4.0630810522433665	1.1687475899169177	14	1.024873176764334	-0.044869387384032185	0.17470300695661375
Si	8.306053200389636	0.15633799226476197	2.594059836717492	14	0.5564776941873135	-0.6322257993557922	0.6931090591158345
Si	9.628326714297058	1.4814560839062598	4.010123142199845	14	-0.4243156816368058	0.23004347786748103	0.5784601304535155
Si	5.21533009130265	2.706916426475679	2.720895494197419	14	1.099242398149617	-0.7588591641363853	-0.2747460005162356
Si	6.688349970386138	4.0819690483976245	3.9469897712332886	14	0.37232407540543144	0.058821233293283724	0.20442009935741726
Si	5.575973783793632	-0.18351590067260998	5.342084475133031	14	-0.34908051197969675	0.932951533579464	0.32605549250617466
Si	6.8230041529522945	1.2310844791179327	6.769477327361957	14	-0.320330669400333	0.14818488379513847	0.2920960763271268
Si	8.053487207063593	2.7246178273465795	5.460353889950915	14	1.1381288234536648	0.44486266980276923	-0.5964131304619815
Si	9.508545609597638	4.080213537567452	6.943988107664982	14	-0.06339394410516708	-1.11963743399116	-0.6669220943195945
Si	8.256508783627003	-0.09273323413084499	8.165303494107604	14	-0.9363093971275774	0.05471055010743097	-1.7236911181330252
Si	9.451670309646047	1.205336986942077	9.47473577138692	14	1.2419559698234806	1.091790820710764	0.5882102760485811
Si	5.334412242615984	2.745862759337643	7.940338032167045	14	1.325273409054475	-0.9121638899555348	0.11525159574936175
Si	6.605125753252058	3.97493165194686	9.41470705383298	14	1.1698423791355634	1.3041641201549954	0.5759923835672374
Si	5.470090473166406	0.10370517681941999	10.76792957348714	14	-0.07678965993367058	-0.7335944548184823	-0.17818505489169031
Si	6.981097656047228	1.274972249872233	12.031149653635167	14	-0.2578011309037997	0.4606664828741234	0.9395983550531107
Si	8.245114217960795	2.717270689427712	10.696051157829542	14	-1.1513515038941224	0.3487442114038214	0.19540606121551016
Si	9.347217415250812	4.148158308587073	12.200507684557037	14	0.641946377239676	-0.1333380361239434	-0.7822670211920775
Si	8.22048830214866	-0.072284783905323	13.549877833222762	14	-0.09715204273764733	0.3691767853830382	-0.011455816864451782
Si	9.516851776581136	1.395127213359561	14.892355976407071	14	-0.4143133106098338	-0.0343772207935719	-0.5849030632752746
Si	5.557703467375917	2.7028527439984287	13.329805044984813	14	0.034097741645271816	-0.032087137284916016	0.5502067683114723
Si	6.66978706883006	4.023598313294405	14.979952715886673	14	0.09769454596019857	0.18695586647031143	-1.3714993116054175
Si	5.335371271680614	5.384883178983428	-0.018026495469080996	14	-0.03686913606985943	0.5855823493008577	0.5032218754700224
Si	6.807936018326651	6.737959406068406	1.3907872004738577	14	-0.2994149847314604	-0.30744017576723853	-1.7791156641878618
Si	8.13630505594995	8.050122477972431	-0.11087351270928898	14	0.3090586865662718	-0.081102689108219	1.2299103413985868
Si	9.438211393281396	9.33475003741061	1.4545219964470468	14	0.9203029809569956	-0.7184753270938835	-0.8425401576596488
Si	8.24826763556314	5.395351225044825	2.5182315216920066	14	-0.4445428243009428	-0.8175500423899374	2.1314661079137225
Si	9.41309783557199	6.65241076255734	4.186682018471402	14	0.42198985976419984	-0.23028516176757494	-0.8153643457572797
Si	5.375390416716573	8.008104001157667	2.5667031262806446	14	-0.40409419540437325	1.3672793564434584	0.5820591636806588
Si	6.8027345047557715	9.21334345972029	4.082099086236896	14	-0.034859560151631684	0.23237881282977152	-0.562493309304864
Si	5.222758502871063	5.416449864466706	5.29172732187495	14	0.7202959267710803	-0.9254066250174894	0.20727634025756975
Si	6.5959905950432	6.586855436834342	6.781960959932069	14	-0.9460824255599921	1.115422106818777	0.01819159858217572
Si	8.054901368565677	7.912379896723565	5.576656482449811	14	0.4990731399254314	1.0059925219563586	0.15416861720671912
Si	9.499491725038325	9.375500645292473	7.028626486301144	14	-0.6950296747899852	-0.010768046191312169	-0.9839864315212112
Si	8.06460544232135	5.4776326678441825	8.049439779316252	14	0.15668187265716385	-0.7731377975318278	1.684619316135395
Si	9.531204703090784	6.840396713954925	9.389951100181575	14	-1.3798710876383518	-0.09243303603304755	0.5113753646612759
Si	5.276626677789488	8.094319088595002	8.214669108841239	14	0.6148986063822501	-0.41129431874291594	-0.17269548792264214
Si	6.660245542373477	9.386131238652958	9.642874697565613	14	-0.557963278841295	1.234045964306045	-1.0455592617281173
Si	5.356486165832405	5.46857878328487	10.955883015424906	14	-0.10283341416357854	-0.7149161459992025	-1.020564004247766
Si	6.727588888386464	6.820858528604306	12.22256535304355	14	0.6675273325119572	-0.4692403477852212	-0.1421016486076681
Si	8.12245602606748	8.202006674242128	10.917846947437848	14	0.7832926351042846	-1.373645670326677	-0.20326310196335065
Si	9.369177555357872	9.61938661284711	12.210309286692164	14	1.2832715754340043	0.5454131995525884	-0.8941201299292676
Si	8.035737042002966	5.386118538456513	13.594123208035061	14	-1.1135400577244288	0.01967255524658101	-0.37193481005996104
Si	9.411244796362363	6.799174718905701	14.664675974571708	14	0.5141336464487308	0.30291914417229016	0.7048613244236994
Si	5.480395971928712	8.241603196300451	13.49186470217754	14	0.2312832648528564	-0.17417721591864346	0.5544951148749474
Si	6.904781699124473	9.433009879710514	14.864836718671135	14	-0.9207164146924752	1.774593089929721	-0.31774670855358417
Si	5.442782526919286	10.973828237244444	-0.13208593524053397	14	1.0305589190693096	-1.3616182967495565	0.2970176861309543
Si	6.762325246201997	12.191567583107087	1.332253918071549	14	0.6836103676210796	-0.4990952514311847	1.0790095990537758
Si	8.144611222933447	13.602283082449379	0.09037629829403998	14	0.04744306380950041	-0.48737409649769364	0.28127043737664337
Si	9.589998061171636	14.908431904287072	1.304295782628069	14	-0.8970128805249661	1.029406292554287	-0.32819645190626195
Si	8.19272522346409	10.639761028154675	2.7892791429245816	14	-1.602939928103867	0.8776285461847736	-0.0541083972414523
Si	9.554709042539198	11.96686219684507	4.1249302995471115	14	-0.7001700856565573	1.0660370871609688	-1.0088870723257815
Si	5.575908764873996	13.583541378864302	2.8283880230856355	14	0.8842406577365985	0.5403254963450793	-0.6719691740630451
Si	7.129942217823941	15.00519631143535	4.030669120804821	14	-0.4519658624707423	-1.2402209879534447	-0.09606369385562863
Si	5.4716834366974885	10.611754128521468	5.346619544777643	14	-0.1499422342814597	1.49204172788258	-0.3779907915310378
Si	6.678987245958554	12.188983081051555	6.621201681132059	14	0.35876329461537443	-0.335802038553792	0.8717887946711214
Si	8.303647500363104	13.454365040277478	5.443709046524099	14	-0.20258612993255565	0.5127167103067971	0.002226577207248237
Si	9.672377032350449	14.878474437064787	6.834154897669868	14	-1.0275406985339877	-0.5116964957157624	-0.25544239888309583
Si	7.937721020651696	10.79344949944427	8.163613002197069	14	0.1278476978232992	-0.22292151613067085	-0.20603423927740624
Si	9.355165978176315	12.179604101894062	9.398891201631523	14	-0.10631211966173888	-0.582705539558144	0.9329083390100853
Si	5.3853708208806985	13.56733541314503	8.12005032604095	14	0.6369057252595257	-0.34799859086097845	0.056205133630033044
Si	6.896150437542794	14.893770137909156	9.48738195125612	14	-1.562762036597509	0.01804298869467116	-0.19619821876464774
Si	5.268515567564898	11.003460609868549	10.842441255389996	14	-0.03215681423909202	-0.5339920926099586	0.38696574887207874
Si	6.582921792196364	12.426838543809954	12.139617466317924	14	0.17667298785291125	-1.2633138846074188	0.8501637420444198
Si	8.079250953969359	13.52847035393261	10.869050248251028	14	1.077968301399116	0.026372598600354895	-0.20453605620735593
Si	9.539673417373374	14.787009071866843	12.216177244189314	14	-0.23748939887462986	-0.08710930535714893	0.6572771069321229
Si	8.049602326615343	10.98408497181702	13.442190247575638	14	-0.2223355612282091	0.7754160539560109	1.0371471193416568
Si	9.463828847617979	12.304407918135364	14.997312767429484	14	-0.11560820805726629	-0.8935136061842445	-0.7496216969421574
Si	5.369457440299787	13.75226547531972	13.600901430407113	14	-0.3185812893405042	-0.382959709672756	0.050189775623014604
Si	6.899677713933047	14.871712469422642	14.980570395623216	14	-1.1847918139090323	1.1702725250556243	-0.4990638839462788
Si	10.874007940873273	0.05739545130867899	-0.039108880161053995	14	0.08690490248419716	-0.41871298603367113	-0.14348593171203586
Si	12.214535516468503	1.33630134581889	1.2601479361952248	14	0.7493581586468422	1.3620772390492029	-0.3380327295295525
Si	13.728956192630214	2.788043783451498	-0.05661522427304699	14	-2.272945034812851	-1.2394997929111433	-0.8609330737883921
Si	14.902726494089015	4.064056336037907	1.2864318344580778	14	1.2371824556860938	0.03619010715480832	0.9717456562025183
Si	13.366914593367058	-0.006225561555146999	2.6689291226783456	14	-0.153715331338777	-0.9347865314464537	0.4185263237874284
Si	14.773452627122737	1.2460063211743948	3.919958155394622	14	1.0454034527457163	0.7008360019344756	1.0209810375306938
Si	11.022592426971444	2.796089874756453	2.625691541120406	14	-1.053780628099823	0.36680596916732966	0.0728137026665936
Si	12.269265192072107	4.0904540174101225	4.123971270482481	14	-0.7125401875728538	-0.25925560518340746	-0.04297576831574313
Si	10.873374006406822	0.042246043033491	5.500356780256964	14	-0.6555822343050813	0.7229256532925278	-0.4552656190386204
Si	12.258943438579891	1.329718180205745	6.801856749340685	14	-0.2730231028412044	0.31892581745340404	0.7952120222579591
Si	13.514735107159504	2.6507563346400835	5.408468792081388	14	0.9848150987658949	0.19059758004576918	0.008264560941083984
Si	14.869111712637203	4.087430637647048	6.78422036738942	14	-0.6058223474915955	0.07898384121388496	-0.5118913854990296
Si	13.598918353358217	-0.007769760896501999	8.183199951737414	14	-0.5259023668306445	-0.4484498759454399	-0.03989815524752587
Si	14.93890952286645	1.4478413024544479	9.412626448404628	14	1.0638742733656603	-0.28282132810575666	-0.5920422514177298
Si	10.890295180242093	2.643262904152035	8.31964215459356	14	-0.3066603595236377	-0.1864706988963995	-1.3893013877315907
Si	12.166177694989228	4.080116009187998	9.60589518702264	14	0.4968331929705184	-0.11556758459320793	-0.15619259131473967
Si	10.749740530718968	-0.06531150477436198	10.897707337080595	14	0.9917298294139012	0.48177988554211537	-0.19373047187836961
Si	12.135391236541583	1.5140468173738049	12.077459379145907	14	-0.13917958741131983	-0.4650743858349853	0.4730903208916109
Si	13.689782293549525	2.7315585970177225	10.7700264336454	14	-1.206420723193714	0.5493781010667886	0.6179991022878167
Si	14.792698227334993	4.26020216184981	12.115674249161966	14	0.3762437254659972	-0.8677567873080652	0.8392278026757022
Si	13.546935727109235	0.152534385466056	13.438744244834929	14	0.3738875645506135	0.3300998411747676	0.5992480311879768
Si	15.080406946724294	1.3948021187613808	14.894143996697062	14	-0.8973880047911758	0.11135585696827338	-0.7946474075296546
Si	10.7555759787563	2.8550945443261226	13.52097692344456	14	0.25561209183422556	-0.9356020860540046	-0.5218965847418539
Si	12.121249621520752	4.093769982311558	14.857083212504543	14	1.1218298154976503	0.05157971515908666	0.13221754842542285
Si	10.779876799970255	5.541172407058463	-0.211669092874998	14	0.39566456950173573	-0.47207010630057616	0.9958091451148482
Si	12.33976195568744	6.608961869510582	1.2655770159848307	14	-0.6727428196538776	0.6435589744964728	0.1964471017596381
Si	13.46491435998842	8.323998422209172	-0.021342460370516996	14	0.17922223877783805	-1.3821740266736082	0.417738022896271
Si	14.857668382781267	9.52575936857127	1.4088299506728479	14	-0.4710632614572062	0.21852724002800575	-0.6305738641875969
Si	13.651177310015651	5.282006993389368	2.7674978048465215	14	0.11398969725823307	1.15891595285653	-0.33582672116486545
Si	14.995979879576947	6.794867215479815	4.019502121357338	14	0.010956251100747008	-0.5421226989638628	-0.5568885568174732
Si	10.876917537526985	7.855000700144795	2.7097610042097537	14	-0.7631331125100675	-0.14800979152283641	-0.5794893439131709
Si	12.035489666520869	9.18358104925691	4.115177461601712	14	0.924719111454882	1.5501078275433362	0.031370570232190746
Si	10.845253323664252	5.363865813211091	5.503526452589219	14	-0.6154850755057759	-0.7876126062631974	-0.6817931103807988
Si	12.288608320663815	6.600932032935536	6.705498710440133	14	-0.32950154496676914	1.3526415396347913	0.9769935392714725
Si	13.565531138125131	7.973026294014044	5.364792332815904	14	0.18881734672209866	0.4609125376532615	0.18221371981783033
Si	14.907066506974717	9.428604847905177	6.626468213622576	14	-0.5240416579104534	0.23344273621124878	1.2135180023194507
Si	13.498984273877683	5.431241668683897	8.231980396194324	14	0.6545597057192584	-0.7171301247903821	-0.31409676744110193
Si	14.934715802549928	6.919313427663119	9.300761397170891	14	-0.1216716457337715	-0.4125220215332866	1.048731234361584
Si	11.044536312348592	8.072895354574941	8.221349802833837	14	0.3188162883667658	0.3669000716220471	-0.7627479609331094
Si	12.311007338478419	9.628391733216695	9.507586580533006	14	-0.40225405532674324	-0.3488640249117403	-0.8587849152934086
Si	10.746928462444712	5.47215482386485	10.786004833145947	14	-0.09803624585724625	0.29989963808430825	1.1342855352211076
Si	12.11981920528876	6.960064035544982	12.0687793533745	14	0.39297210801047666	-0.33685901995090495	-0.11824359101041806
Si	13.65332293436364	8.282841446079585	10.733420781890333	14	-0.5337691777787017	-1.3647992682516437	0.1361369413754566
Si	14.96457574139276	9.414625780183435	12.152133608347853	14	0.2943097980077743	0.5924045201573387	0.8830391802204933
Si	13.418620889207586	5.525584121075732	13.488434954166742	14	-0.4491096215705898	0.22857409117701638	-0.19423595118431072
Si	14.758319473577458	6.8140803062322535	14.904612042758458	14	-0.09897469929910031	0.749702172538678	-0.26081472344954526
Si	10.738167163023762	8.240351582097459	13.461370828868256	14	0.2699197787197856	0.1392598058973085	-0.045713738371168815
Si	12.00798666351484	9.591883609841082	14.999604684346656	14	0.2489251611175845	-0.04680825790595585	-1.1173836030675182
Si	10.708323478910836	10.884719807883304	0.15963770243628897	14	-0.24649469525844847	-0.31193961007749776	-0.5341535580240637
Si	12.166437770667772	12.140852825791008	1.4255398130192998	14	0.2777462233143164	-0.0021982950487266077	0.6575187908322169
Si	13.635849099711463	13.553730204211195	0.089661090178044	14	2.4781989436255922	-0.2265966540752905	0.11776459408927448
Si	14.975758995570152	14.959959398098603	1.482236310941892	14	-1.6009025842481814	0.3206140052066133	1.196888607329797
Si	13.499276859016044	10.744799092826632	2.8230077074857567	14	-0.37906474222326364	0.04911222538334054	0.716469350723104
Si	14.875938699198983	12.16986751867857	4.189949219183111	14	-2.4997787447986592	-0.49718080640980233	0.08935670851749036
Si	10.673408319066306	13.489085143363104	2.6176617045453594	14	1.2323086684412212	-0.8387336362331697	1.745091456154746
Si	12.005532199298582	14.826378027706442	4.08091249095354	14	0.8143775555354069	0.040420089627515934	-0.6586955857372485
Si	10.783956737177414	10.680105267788813	5.480103386790351	14	0.1828801503168127	-1.2455058949390092	0.19660959561587144
Si	12.061724800593995	12.173150974120189	6.626955855519845	14	0.46927300082278706	0.28185407828431697	1.2867225129947069
Si	13.476162633085448	13.593895641816335	5.47491812794938	14	-0.25526293573174946	-0.2919739488244198	-0.8778077522255879
Si	14.888666152717729	14.875873680279346	6.750995699455424	14	-0.5106256303499208	0.1374060389614817	0.9158572827479274
Si	13.498171537382234	10.925876784012894	7.997505917256998	14	0.5787648064339531	-0.5448161888972498	-0.397944368589111
Si	14.873419216063088	12.211105768457704	9.395981604977813	14	-0.21425997652815598	0.7575435295440656	0.06329958453991764
Si	10.808956511777456	13.458509996404274	8.227932968446982	14	0.750189654107378	0.05050345047207267	-0.8449595677659081
Si	12.13331063111323	14.84118608665354	9.546126545147246	14	0.7465111737258422	0.4819896877362395	-0.03981639409834516
Si	10.904323012153558	10.922056922484277	10.741320580626105	14	-1.4719660233217997	0.05602464203655866	0.7414144716497126
Si	12.233894899790123	12.236154307247473	12.160959926688438	14	-0.7391223312568007	0.043068328107268454	0.7460846273532297
Si	13.588515326216456	13.568619536807839	10.908142873682174	14	-0.37620772999151514	-0.5228646058948896	-1.4686852929332908
Si	14.832814900750405	14.983414973357291	12.102963050373129	14	0.7039807208515487	1.0122601053952835	0.49215738083529703
Si	13.462394876852525	10.72532592639565	13.41091614723072	14	-0.17162693655158862	-0.5244594625249774	0.7159304470480009
Si	14.78528607049649	12.133343140573048	14.8273858209608	14	-0.9800215300070111	0.31033164081027703	-1.2791333814212258
Si	10.929550352972326	13.588482816756638	13.696999393629122	14	0.6392462024324566	-0.04727311374783862	-0.2749488607259952
Si	12.438785770293066	15.034584863110823	15.024913298814967	14	-1.0094974527287843	0.04703065851614866	-1.565506434416235
H	13.822820755962727	13.079698392294	13.840528658725592	1	-0.08367585131262319	0.21612197100100722	0.006940698811739739
H	12.209829772159848	13.561742160583341	0.12265819189331398	1	-3.024464721702342	-0.08629323652853393	0.11523951155435705
H	14.005624699465322	13.976462088535586	2.5207932671256654	1	-0.0057155671266891795	-0.1758255515393904	-0.001647821399682904
H	9.403351499518553	4.0819690483976245	3.9469897712332886	1	-0.0668338259129932	0.021967780965877204	-0.08430602922659147
H	9.538005682084709	1.2310844791179327	6.769477327361957	1	0.10628743705066547	-0.09357049302668106	-0.1406911402290349
H	3.993078432417267	12.26562413257249	12.161073709797803	1	-0.018668795729595206	-0.061016957236690185	-0.16067479921935382
H	9.442590417518879	6.820858528604306	12.22256535304355	1	0.06007876090536816	0.12113994115356487	0.004721320699387918
