68
config_type=vacancy dft_energy=-6816.442766619196 dft_virial="-12.052277451283308 1.0335189529458975 -3.7852923276630217 1.0335189529458975 -14.325785847774908 -6.076298223357991 -3.7852923276630217 -6.076298223357991 -22.378134981167154" pbc="T T T" Lattice="10.834369898 0.008255789862276 -0.0055580317576740005 0.008244955492378 10.821520335300972 -9.7509329082e-05 -0.0055580317576740005 -9.7509329082e-05 10.836190072142864" Properties=species:S:1:pos:R:3:Z:I:1:dft_force:R:3
Si	6.913946649786761	9.427512882063834	9.656336941183573	14	0.5997403978567851	0.7068963542845966	-0.004552913300918219
Si	1.2637447405164957	1.2207637116941399	1.3416741963188301	14	1.638270000529086	0.7471930308567455	1.762366712800821
Si	2.768100251164765	2.6726852057840484	0.2148813084980034	14	0.05626041239441624	-0.3976371215033533	-0.7705996023597775
Si	4.1977321960635186	3.989746964005592	1.4641014927292402	14	0.014523402621920454	0.15516054963923223	0.6076100370206944
Si	2.7430533548345686	0.0288280914245984	2.8095427994616045	14	0.02394778917292324	0.17201568767599498	-0.14166610336643504
Si	4.1264582936895255	1.320400911024107	4.24642618813309	14	-0.12000017016514324	-0.037262515183842077	-0.24375132588185053
Si	0.0322344173205296	2.599513121803926	2.7618022319430575	14	0.137689631878294	0.7767170332480059	0.4204302272769981
Si	1.4694861745685461	4.0613816508971885	4.197855707880356	14	-0.06996800329825371	-0.6523392991647785	-0.7811511614831332
Si	0.2283321787263704	-0.0067465621354846	5.633637241133213	14	-0.6727412769906855	0.11200994616171905	0.0719577817055163
Si	1.4698686278259454	1.4205614104201476	6.98405477395973	14	-0.004193472777161518	0.43991946271425253	-0.36747445655056815
Si	2.8296134696976503	2.7323013261477933	5.57433965124447	14	-0.28415598887744553	-0.10644658846998263	-0.052609957060869995
Si	4.147298204188329	4.076611524662807	6.939293658163133	14	0.4559773009912373	-0.2278158722181047	0.20355929329623165
Si	2.729615485850079	0.05942651889053	8.313020254388205	14	0.33274756543345607	-0.5950046789676045	0.3987702076179426
Si	4.144653534496227	1.3610568840663522	9.623559721931153	14	-0.5062758343692941	-0.32402971862443	0.7711670453039342
Si	0.1684625341070122	2.7361453605876043	8.421568722959279	14	-0.25583680643920653	-0.5986466496535942	-0.3140707992773684
Si	1.4865524740318758	4.10016327794708	9.721809038477186	14	0.5404118854838362	0.03203674362064111	-0.47509758281505055
Si	0.13911439292730982	5.407443767024708	0.176416045049134	14	-0.6425454447792704	0.004895127419029928	0.4953576356272854
Si	1.4595012192705494	6.723349497978135	1.5760562871962436	14	0.027672549450221757	0.4879222561519492	-0.3679333988502146
Si	2.757502070530542	8.115706876679809	0.1356289761311232	14	-0.3095600521037007	-0.2159527922709415	-0.014681011378045531
Si	4.071262596244164	9.464213226656318	1.4462854548689692	14	0.7420266518264399	0.4343476203749596	0.36435750557095264
Si	2.8652596300990596	5.366818130218178	2.8104225502973224	14	0.18718392351220858	0.1319527245774476	0.6440644538024138
Si	4.26706132904082	6.771707624580868	4.162274553698333	14	-0.5315739680563591	-0.14879963507718588	0.1494683795709564
Si	0.1045906732473328	8.179227703954794	2.8483547627472103	14	0.3480379287723767	-0.44752942024082676	0.4749392027273295
Si	1.5256277125060027	9.505783620517954	4.244919127280278	14	-0.5486147398972367	-0.08514061001351154	-0.7075848962893323
Si	0.062464476209929204	5.369279699059003	5.4796526755208985	14	0.055435087586648696	0.377126128811872	0.4578578074223936
Si	1.4929783388183797	6.7872300263337335	6.78600032535031	14	-0.4985620041877859	-0.16925560611481605	0.231223615209429
Si	2.8762966027141523	8.202830378777586	5.512797179912861	14	0.45542451334740547	-1.0835157182378674	0.11743112172925127
Si	4.128184208814277	9.490666424199274	6.98270156115947	14	0.4203610645438861	0.0596871815651096	0.18966683991987557
Si	2.770747087730846	5.4293335279666275	8.23693914209047	14	0.2712693519023313	0.32992012091288925	0.46426217366435046
Si	4.173214016984344	6.825846970961175	9.609315775826254	14	-0.44978299405393657	-0.42946226315614616	-0.38115196552215985
Si	0.12801783127777822	8.1243115332528	8.233363800024131	14	-0.00705948387753058	-0.29448694716433255	-0.11487801414634424
Si	1.2749832324116912	9.555680227646205	9.732708414594574	14	1.249605265261453	-0.9217569410155392	-1.1498060124861813
Si	5.523665136357543	0.0215777310888568	0.1450256251436586	14	-0.2153858635478488	-0.6507264447974497	-0.14758324515022384
Si	6.8742235159927345	1.3763030093868178	1.4576463751440119	14	0.4596645231308617	-0.4041271055524711	0.46857468861783486
Si	8.375830346997882	2.486188862981815	0.049636582250697205	14	0.26239878143728845	0.1648325336325653	0.19102695463423391
Si	9.470045367972412	4.044368439846359	1.4384998766602661	14	1.153256950046884	-0.746836675659373	-0.4043410215151074
Si	8.325558870671161	-0.0227987645763614	2.784366974129622	14	-0.6045167402100242	0.05000954114007223	-0.0890360916840679
Si	9.652031362586108	1.2433436219985616	4.222288295437336	14	-0.3325189941704949	0.47690944073415886	0.20378709322759683
Si	5.48436345955255	2.6243259957443255	2.8836325545720882	14	0.37100098460768327	0.45121381416459905	-0.07061489339680295
Si	6.855824589031951	4.000038531971702	4.242056686753227	14	0.02385420093926985	-0.2624167791745295	-0.23698314823709268
Si	5.492244380216354	0.0047432871413444	5.616199322782382	14	0.4460003839069347	-0.22361185790913057	-0.0991935003618449
Si	6.869819344629198	1.3550405584619927	7.035347931367831	14	0.10067574257891027	-0.20189218860664765	-0.7643052794255231
Si	8.213825097350078	2.61931726654048	5.568847709143173	14	0.3774572871771071	-0.054070087772182085	0.09880989144807882
Si	9.616800158551792	3.9863525559165485	6.922445129534752	14	-0.23699574665316145	0.17603972461255873	0.014916010404307066
Si	8.33130433702807	0.0588057094953746	8.308943280995589	14	-0.07183565420280927	-0.3566812135271185	0.8570635602815693
Si	10.031366488328862	1.0262336836125396	9.809687696156853	14	-2.884725661773358	1.4913565283147605	-2.1001045365501527
Si	5.479861778859931	2.65626355132965	8.34956891780212	14	0.19544977000595262	1.281616554939425	-0.4277288239493024
Si	6.987352756156681	3.948721538949825	9.639580504699325	14	-0.22371418790087247	0.5570456513525341	-0.39630631738964467
Si	5.460380498346336	5.368398864786296	0.067503541649489	14	0.4643663034298165	-0.6475596143746232	-0.2923804405755352
Si	6.816905365484355	6.804678779054462	1.443511856175081	14	1.2017341124161482	-0.963720722277272	-0.3414777535480189
Si	8.385996236273176	8.099923366612403	0.1474796099255556	14	-0.9346464062065055	0.4198722974225259	0.21355806477575556
Si	9.84974669541772	9.619006036263023	1.3141841495766347	14	-0.43223828557031013	0.058256618564979205	0.023804321496058975
Si	8.17170973468257	5.281705487173469	2.7926704352194496	14	-0.6992784263315298	1.5061573532007249	0.4871326697081316
Si	9.506381677736323	6.7662752715140115	4.157538850615918	14	0.347364813399562	-0.34791760104339375	-0.4697687099285116
Si	5.55239896876403	8.13130836933293	2.7538649725557827	14	-0.7302890418189	0.4885375216550606	0.41095416150906033
Si	6.849192871217385	9.476306550336465	4.145735888049037	14	0.3017930000420653	0.4739526696159886	0.20317131350342135
Si	5.542772631109657	5.375706647282497	5.576144657269476	14	0.1404617976344777	0.5816889245145574	0.17368690613409124
Si	6.94044968543125	6.810416661352443	6.903974695732643	14	-0.1071595559752597	-0.36065279991515126	-0.49041597120196084
Si	8.279365451174048	8.195944053270418	5.507673606388097	14	-0.48524779239793114	-0.22483673248364916	0.23417190168004282
Si	9.599024207860142	9.514543208580486	6.935086672331739	14	0.17333852136321118	-0.08742426575886707	-0.3828136708905716
Si	8.27978582472609	5.435545955666141	8.232996514884588	14	0.052169526719528625	-0.44893144397190354	0.4847453984183742
Si	9.6603597427267	6.777080388613286	9.644189445653934	14	0.085547615985691	-0.5163622805402351	-0.7387788315860289
Si	5.598975924955533	8.107802120402228	8.275170383149543	14	-0.5620245968050009	0.35272736776579483	-0.08548385257375132
H	8.956405226100069	8.74734630798525	2.1886608140278883	1	-0.7622771915489902	-0.6480820629756774	0.6684341613583735
H	2.273992311344536	8.637581139674632	8.772561137048866	1	-0.25474768622559185	0.15303733086585397	0.2606697131094889
H	10.997655770169747	0.028108689263371203	10.735255998736106	1	-8.699804591663018	-10.551643198499669	-21.001359297461114
H	0.3432718421002728	0.2312227886151568	0.3244850446971408	1	9.198476896269035	10.63707202941957	21.42697775816364
H	4.201554561763532	4.10016327794708	9.721809038477186	1	0.2266802149981953	0.1444495819860274	0.17971023456760213
