68
config_type=vacancy dft_energy=-6813.453641572197 dft_virial="-15.072654293721778 -7.865122809177917 2.169933311808618 -7.865122809177917 -13.612258479408796 -11.583996548131752 2.169933311808618 -11.583996548131752 -8.026864301951466" pbc="T T T" Lattice="10.824647448784672 -0.074205036002427 0.0333300227354446 -0.07431328550790099 10.85893006716829 -0.0480952552820982 0.036350183938169196 -0.0514076901496026 10.940008946768314" Properties=species:S:1:pos:R:3:Z:I:1:dft_force:R:3
Si	7.048980472505384	8.437465486863795	10.859975757391167	14	0.9729291359813824	0.9195915561149105	0.08284358452049125
Si	0.06418979175597252	-0.7854573292242892	1.5191302600199263	14	1.0536669852446723	0.5912740051480696	-0.3801340649259133
Si	3.1418563792735257	1.8604073934327516	1.3370675817533153	14	-0.46814120026085787	1.791340755764102	0.5313330554878614
Si	4.251029524637593	3.4320018587757066	2.862645182319273	14	0.07645515913151933	-0.5024459158844017	-0.9239776046805512
Si	2.871006374122085	-0.9402865969037516	4.21896060864092	14	0.8911566739372648	0.8330712909866075	-0.7727971260769081
Si	4.2649731434376985	0.5669751873360056	5.562188669750761	14	-0.6265539410195454	-0.7095037121897588	-0.315799610494636
Si	1.7119951564377882	0.7399113497961037	2.6776251275631124	14	-0.7847514802629365	-1.9530252280426774	1.4882789152465432
Si	0.5222692240702983	1.9884914557947526	4.379457820427001	14	-1.37105810993248	0.7510666581320806	-1.175617853016212
Si	0.27984337406622056	-0.708901113962967	6.798014819014463	14	-0.6746860610548456	-1.8296653945556969	0.2904994199233149
Si	1.6232597893155858	0.46584525183703057	8.118564608727501	14	1.217132719289047	0.620850715198393	0.6708335168431357
Si	2.720852402584045	2.0725850841222293	6.5691071672539785	14	0.6051489750082486	-1.607624481997177	1.3240824730701826
Si	4.059257948225019	3.1216689289976793	8.122301381656463	14	1.0404278497301658	0.9979565322782359	-0.019422643809462622
Si	2.944120255109334	-0.98923377579393	9.649303545714458	14	0.8509412442932327	1.3577834931645556	-0.13080241205721335
Si	4.441666646232799	0.4126481973619427	11.101176222993281	14	0.5752452203612025	-1.3607014405923916	-1.5962157163600836
Si	0.26192916340532835	1.8830553549680218	9.374170107631413	14	0.28452905625939906	-0.23905005980395974	0.3089841245119875
Si	1.7733314912294658	3.0592663365770822	10.795376782504505	14	-1.035566918011894	0.4276812585008796	0.8314134422761761
Si	0.17547136587829926	4.540861080573899	1.2532261747735929	14	2.1262233670554087	0.14806969827679586	-0.9006450810107395
Si	1.4254349005569058	5.872636344004591	2.755183733245124	14	0.6393521319716466	0.624392155666365	-0.7112618340076761
Si	2.9097965019136383	7.301869719708579	1.454235763983318	14	0.05211373373408141	-0.8259156477701034	0.3694727196053872
Si	4.307768502931791	8.432642971394928	2.9406075586567026	14	-0.4984218789478379	1.3606677591126974	-0.8513086552434819
Si	2.792688939406701	4.781102455557512	4.277995558946221	14	-1.241128331020925	-1.6427527226547638	-1.2613297626318605
Si	4.193603161983636	5.872600621667785	5.521218396918962	14	1.4178949071074898	1.4059073856628312	0.04562863478507191
Si	0.14941570991070746	7.36537862207512	3.9759935111094724	14	-0.8921313799641329	-0.5689118166260816	0.4308732857558435
Si	1.4188327632180466	8.569406479105835	5.4868881487529375	14	0.16462890209120956	0.5803324093476474	-0.15039294904408165
Si	0.7189163582094215	4.094389242731551	5.850493907659885	14	1.8000331486304582	1.1158509671861778	-4.16873334466052
Si	1.6430261490151385	5.839810763964656	8.304274212833532	14	2.7278956934497534	3.8537482603313067	2.4119107062615344
Si	2.8069735441490495	7.204842440467069	6.80056517736343	14	0.5736503637311146	0.3077613068217251	0.6917206622429547
Si	4.283333342061145	8.504598582673607	8.24940037351865	14	-0.7329678764519623	0.076953182232032	-0.17370258987654413
Si	3.058396010553072	4.6045096248025015	9.674251809241053	14	-0.2573000224769028	-0.5606032897840231	-0.8440465682667238
Si	4.336108223464883	5.8438235731325765	11.085312257966065	14	0.829624981415481	1.1163847286506408	-0.6939891484669213
Si	0.4110861569979529	7.463674585520787	9.465763261698127	14	0.24879223497253278	-0.02290572018666722	0.3723988945702478
Si	1.6223320910536738	8.670710696308623	11.133473545446503	14	-0.9504165377981658	0.17141250636788824	-0.1846246452765332
Si	5.758136512084523	-1.0891469868513772	1.4411451512863473	14	-1.386752136806664	-0.6318568457423509	-0.6330169284628017
Si	6.9440996916417355	0.2140688095501087	2.77258267625996	14	0.9068111057895184	2.4213957708980924	1.0399030871343236
Si	8.239233579964532	1.8169711968662543	1.3413358597541551	14	1.2244863376152024	-1.1950566947891914	0.4449693706735553
Si	9.971147727904592	3.064035809788267	2.6247571515846655	14	-1.7391162073907218	-1.770046604392103	1.1693608111090996
Si	8.423315111508234	-1.0263406237753625	4.212540330471258	14	-1.8792854132397667	1.9375289191676133	1.7887300554220231
Si	9.775487829255392	0.5364087744753122	5.55840426703939	14	-0.4501581183201462	-0.3413710526772327	-1.4863171618872701
Si	5.496177038817661	1.8977946076333616	4.124341880896206	14	1.446916772629725	-0.3625189081565147	-0.36730656337316253
Si	7.012838127617726	3.3951244997458794	5.405620915013387	14	-0.5559231067697576	-1.7501876440098114	-1.265139626495256
Si	5.570819402822203	-0.9444791002507595	6.880266040758773	14	-0.03155928936268962	0.26089879859351406	0.01008361795508875
Si	6.899995595626464	0.5167171069345369	8.105690495041479	14	1.8476973274974915	-1.4673223500030803	-0.14579889805804108
Si	8.201044236928361	1.8446689978318866	6.621652559706113	14	0.16882237486837107	-0.026517094719347215	1.011189497139974
Si	9.710977618963215	3.085123895949657	7.94343747627661	14	-0.7161713596164988	-0.6856798502932667	0.7762969146386937
Si	8.553359572414369	-0.9289409662350215	9.540979348081683	14	-2.981166536779452	-0.011220817838190247	-0.32938121723778624
Si	9.77980157204853	0.377736649351523	10.806394417171648	14	0.40751582236442624	1.3399989005545594	1.7742357062902205
Si	5.485614052073509	1.7144405127664457	9.329676313396433	14	-0.46325610015257657	0.10955839723895786	1.1640177971433
Si	7.323110437672688	2.9818636101829536	10.591001716169592	14	-1.5665181643597132	0.860843085102187	0.404228921323149
Si	5.814023566770639	4.492222412774322	1.1791651106134462	14	0.45450997118502884	-0.46211581494309084	0.7555992597009696
Si	7.390232708531951	5.791287923135934	2.4880174587649635	14	-1.8774262469827676	-0.39505778864618074	1.1895231619191688
Si	8.588377204940153	7.269841938523987	1.240732016851784	14	-1.0201595693809067	-1.024852607921773	-1.8753922455639984
Si	9.389524217487844	8.574921791409736	2.7896839331347425	14	3.0688427708596935	-0.0945228304372639	-0.45640384736384987
Si	8.549350010731613	4.341699310422616	4.000877907427836	14	-0.1420268294428518	0.784688745293125	-0.730202395569611
Si	9.697987678306335	5.762633196541912	5.42074228843305	14	1.3401426253419557	0.1907888702815882	-0.751786567621722
Si	5.718014915375639	7.094605474072567	4.112806813592897	14	0.7324536553879325	-0.9629072245539773	-0.39564400065917454
Si	6.896627953511168	8.467203791007613	5.561965675769485	14	0.6492524301174087	0.45112999613116217	-0.49808017905079016
Si	5.537667991770792	4.462765557344737	6.721166330088361	14	-0.3359532195466167	0.06345565063285064	1.5370430129695358
Si	6.978451589708855	5.778112875824695	8.048404856744638	14	0.030981561997252337	-1.1335370864624124	1.4792209112036614
Si	8.309380342006738	6.999788649732835	6.763405287124315	14	0.9872301379931099	1.9061465218509497	0.39826267142774535
Si	9.714101699691195	8.618596136888275	8.188626936155437	14	0.33375209628203795	-1.1490632201591906	-1.5304877228452862
Si	8.716299975538998	4.527966399481836	9.413622722396466	14	-1.8458096219714386	0.3316101084398226	-0.29991326494250503
Si	10.043508192333743	5.883367117482228	10.75881551203066	14	-0.8863690187206171	0.3900765291989259	0.5024232901575842
Si	5.7641822469652455	7.154952408384212	9.478938309009369	14	-1.0607660641441332	-0.6859518732361384	0.45173574854458903
H	1.7854586833277182	2.931867493584732	5.636481387852623	1	1.7106134480326243	-1.5837589681944981	-0.22765697790931957
H	1.0958692811413129	3.844931504851882	7.419584561941226	1	1.7334528337020318	-1.0643509562920157	-1.3555116645036727
H	0.8207639879296891	5.030309054584481	7.643714080530088	1	-2.862088879203178	-1.0885684544130225	-1.0284184738902862
H	10.658275536336518	3.9130756510428197	6.972888647622547	1	-3.982771467506978	-0.6649749962606463	2.8048213648548592
H	4.338262388623816	0.46584525183703057	8.118564608727501	1	0.12507604628817956	0.2743287101227756	0.07933916796912942
