68
config_type=vacancy dft_energy=-6802.261295616269 dft_virial="-27.78614017935106 -14.706577977647488 -2.4246646653777786 -14.706577977647486 -44.278323918323274 4.315997083623042 -2.424664665377778 4.315997083623042 -25.179390715943462" pbc="T T T" Lattice="10.847462540535275 0.060813125087869006 0.07123792230682051 0.060650407129196504 10.85017450651315 0.011693997296597002 0.071856250549776 0.012160455444791501 10.871490559099248" Properties=species:S:1:pos:R:3:Z:I:1:dft_force:R:3
Si	7.466981762104611	9.558999910942125	10.390141548113432	14	0.0910276698650546	-0.5585273793485356	1.6677852611622574
Si	0.5943262592649151	0.12093307167179315	0.6262927446393234	14	-1.3619237440615901	-0.5864290142827825	0.7188399098282806
Si	3.151868555214148	2.7970425201737212	0.7372967664729205	14	-0.14759558645576054	-0.017678920181338192	2.3043680555935726
Si	4.619043234030915	4.018249478301963	2.2757679460616296	14	-0.7127026814290871	0.6143710155705558	-1.1826200012451031
Si	3.2214782131478525	0.18876042556483807	3.743370030716509	14	-0.028033018416106517	-0.1107696449552796	-0.5257771540015533
Si	4.556771071246948	1.6281059943030423	5.0141126746102245	14	1.138686753308137	-0.8402053369184224	-0.042948771709881574
Si	1.6788913539911205	1.3823584852519213	2.3174237434817893	14	0.006544748592436935	0.8868086777303625	-0.23027847689374256
Si	1.665652620873526	3.779529215492712	5.164882795970598	14	-0.7514577232512751	-2.502279401833035	-1.994275784688601
Si	0.5225882504317745	0.13786875681042696	6.203576613360635	14	7.470794908458077	-20.254873834788476	19.78643592897367
Si	1.8005967935734126	1.2235631141698198	7.740023581543459	14	1.6638573835646673	0.4852647616930441	-0.030664030490214052
Si	3.3295164289880455	2.7763317783938852	6.571473239628029	14	-0.7992689693426207	-0.49916749949068084	0.2836559088926767
Si	4.697400609422853	4.235079836524198	7.807228268047982	14	-0.8478091237922282	-0.40685222008129607	0.23948483371359675
Si	3.2490806028706642	-0.0444154939992456	9.176689727895521	14	-0.4730491832064886	0.4163969343612818	-0.35078515480695494
Si	4.568204719809669	1.4893346952151785	10.40107077100427	14	0.6018008816603518	-2.3479503476543386	0.7568819841451915
Si	0.5483237227754171	2.7550406758947843	8.849059287681225	14	-0.3027515081054165	-0.0647867118570913	1.104482053681547
Si	1.8803578825554985	4.056161677886265	10.278744833606238	14	-0.3173433021288529	0.8833389711008226	0.2685732908636241
Si	0.46449468482651857	5.261728185826906	0.9732096021018757	14	-0.2852258258011591	-1.1217141157582433	0.11917561668897174
Si	1.7626379481742918	6.640787835663339	2.3113934159333867	14	1.21843986923381	-1.4092511081316836	-0.33222743082719014
Si	3.2423245532265823	8.029173394104491	1.1602853544012577	14	0.270239110000548	0.11314251805524426	-1.1903178905736267
Si	4.524878351347138	9.586417886978442	2.386766543963271	14	-0.1290201218492867	-1.1524097708438952	0.7329676193414302
Si	2.9984081636037225	5.059431795673298	3.7042667356747248	14	0.5989276714650863	1.0738609606501794	-0.9733178871057889
Si	4.467563662370728	6.618747145767954	4.846299474258493	14	0.05127503917864912	0.30051901735593195	1.2076947058798475
Si	0.627975248331997	8.051138148952495	3.554081314179181	14	-2.483455054231571	1.0628260337266358	0.28780233044247955
Si	2.0293174954290434	9.37010063271922	4.769624602559229	14	-0.5173832664628659	1.4116486638427217	1.467418766452586
Si	0.6575280839860964	5.375273862174968	6.336531287819152	14	-1.943970823547244	1.6044609940112666	0.8400472139412333
Si	1.9083800846116854	6.854447363264244	7.731397360161034	14	0.4953589211799455	0.13826144570149496	-0.5639079314520095
Si	3.3821741299872494	8.245228130057054	6.286942447520512	14	-0.8675595835300098	-1.425128711925726	0.04162645224372941
Si	4.5571290507560285	9.647444714985367	7.664271863063062	14	1.6094227130580883	-0.6802131661615679	0.5018712738453486
Si	3.2915315487155374	5.593250839612648	9.156955293867721	14	-0.2857917260821237	-0.6166592993054876	-0.7406811924124064
Si	4.741188012101622	6.835082841395825	10.403609171159559	14	-0.9071970286980727	0.25109028890768115	1.8291370324124065
Si	0.5184530447087107	8.077538595353912	9.17018751826697	14	0.05013809640607963	0.17795159852862086	-0.842020280163915
Si	2.0100397564719166	9.345995594321476	10.461421777089507	14	0.13489252640050495	-0.055914855839388336	0.43463609839188017
Si	5.910101757458087	-0.16800086839740053	1.0817218695950013	14	0.41493628942890565	1.6491064381219138	-1.8093341221260941
Si	7.253753979487385	1.3687509247613359	2.2761530452304877	14	-0.9812764865137752	-1.4970538405936766	1.0937268630168355
Si	8.451979737919116	2.6221695299883856	0.981007046681462	14	2.5668395993114212	1.0468790100889493	-0.5656915072125962
Si	10.047536716555701	3.6222991911730396	2.6657399753889255	14	-0.6966492140311464	1.4423306920701768	-1.6291428337530924
Si	8.845480577376822	0.2964352379639959	3.6612278356058483	14	-26.557192649478115	-34.20596255352323	-5.648100294646365
Si	10.69767198128611	2.0261434104485385	4.341705660483115	14	0.9228334628130852	2.588419143373956	-1.0436301614064103
Si	6.079820927499069	2.870757009811537	3.6082132398839573	14	-0.49026967530924437	-0.5332894095259619	0.720638655110256
Si	7.372772403178799	4.227990757458033	5.057257883745433	14	-0.6308975663474037	-1.4516830876722158	0.5270148841026727
Si	5.964823806959648	0.01498632399373725	6.281947006189267	14	0.04312823486122791	0.5396210134873587	-0.5614988057670307
Si	7.306966006332466	1.469255299114992	7.650915973015223	14	-0.5669096969132824	-1.8862757343841854	0.19019185962624982
Si	8.718146181210852	2.668623337616602	6.3804184908459085	14	0.8499534256292318	1.0150811221525502	-1.337217221708691
Si	9.976227198347065	4.133233581404689	7.755432972229744	14	0.7485287200705624	0.3047929657296141	-1.0276132037040158
Si	8.656335052643126	0.01238283665497725	8.971697643559907	14	0.7111301934152844	0.6645916444574121	-0.39261626703416813
Si	9.955695446321768	1.5270342766668146	10.27448270787541	14	0.21457776514572632	-0.5805545528473082	0.6629291677574044
Si	5.909104838764621	2.6727075583792814	9.020200612681005	14	0.691015922274702	0.7883487137163557	-0.002769594650863511
Si	7.354821357978048	3.9357200144496622	10.399802655713014	14	-0.22662493623381216	0.28872741413666886	-0.28228910930448603
Si	6.011663798543116	5.383544273621095	0.7597995753709362	14	-0.5267688293235345	-0.022086051810604013	1.3608901597228904
Si	7.369608081275815	6.603843265539944	2.295182368104041	14	-0.7180876044116052	0.9374548245477033	-0.08416410421291931
Si	8.750068190343223	8.016765607362517	0.9800361628613826	14	-1.5402877478835626	0.6837324951237865	-0.2959781882500184
Si	10.02156584556518	9.559124661377107	2.064204225768427	14	1.4797217625200265	0.9299101730962608	1.440647132306544
Si	8.725399063022081	5.368005793354262	3.7346874004417443	14	1.300630650113516	0.5070181124752209	-0.7196608637570039
Si	9.95952582706892	6.868872852693757	5.119399872162461	14	1.0754180220320613	-0.3484673033608414	-0.5080838356304223
Si	5.884360861182489	8.079500973935504	3.6897349371788795	14	0.4524546295921025	-0.34110057239755315	-1.4684862893815114
Si	7.398225831060742	9.469199123909945	4.799271814629358	14	0.30594379247091236	1.0736475589086072	1.6657582017278527
Si	5.9312778725997255	5.481827005445677	6.358179285040942	14	-0.2645765076434539	0.22469969257008524	-0.6947710215947783
Si	7.203158457417758	6.717879265336806	7.806926697431242	14	1.328745429678803	1.3601635653594166	0.4693982136518783
Si	8.65316096766262	8.282263822237306	6.451519730067443	14	-0.6167971105506476	-0.9304660460664768	-0.18739038326941648
Si	10.199341724133232	9.556781522772223	7.605002389009799	14	-0.8058558840623081	0.13970075045971383	1.0545159642213853
Si	8.755628805384259	5.392912488895066	9.212940034728582	14	-1.859845800135191	-0.30222597417797825	-1.3362558854294875
Si	10.014964920375032	6.63850544509636	10.518183225006432	14	1.335168050768533	0.9022373665355069	0.5929858470702242
Si	6.0153325461179845	8.253781670751271	9.241911424877024	14	-0.36467066619894667	0.2597657124789248	-2.3377823974447494
H	9.40917138416927	1.0092603082389637	3.746735038101856	1	25.17986489922245	31.58253086923109	4.384272960306514
H	11.150073467424088	0.8503043887709718	5.550429981608393	1	-6.663962775705709	17.160510786742055	-19.172505600854986
H	7.798124740653451	3.5544197675332194	7.299249920732216	1	-0.36053452907042444	0.2910308673929895	0.3216074803023185
H	2.5317927213825056	4.729342144710264	5.821177477829957	1	1.5875876011267307	1.5549412484346827	1.2988002802361025
H	2.654117573994144	0.48362380804805766	1.5150343696079132	1	0.4228617215782621	-0.605207339099016	-0.27145832814336224
