222
config_type=divacancy dft_energy=-23017.149110664042 dft_virial="-67.410498475498 -1.0992126870054906 -2.45057452085095 -1.0992126870054904 -58.76651053539031 -2.0565914789134987 -2.45057452085095 -2.0565914789134987 -60.33456304230136" pbc="T T T" Lattice="16.249967316 0.0 0.0 0.0 16.249967316 0.0 0.0 0.0 16.249967316" Properties=species:S:1:pos:R:3:Z:I:1:dft_force:R:3
Si	1.376875980651996	1.1801701262918158	1.0718315941960441	14	1.749782180700824	0.24030578764232002	2.0457423712136014
Si	2.70919455092352	2.663710892406036	-0.0950623087986	14	-1.321277397165901	1.1644073195993023	0.4347844511688528
Si	3.957013291151844	4.027521899335968	1.222355041444152	14	1.402433565264779	0.017671206865377743	1.8107844826371893
Si	2.7860406463608838	-0.114367269970008	2.5794548118725755	14	-0.06251899696472069	1.993697285991568	0.5953386655486916
Si	3.8679147203582156	1.492526998039968	4.23823522552254	14	-0.18868184947172684	-0.8423136432809438	-0.5417048943493387
Si	0.13396473055310398	2.4637550445826557	2.554039862990352	14	-0.4632928669586547	1.2322351348290648	0.29452242841775056
Si	1.572688086809796	4.07727929925756	3.878672198721408	14	-1.3236764955401312	-0.7107933786183451	0.726817278305104
Si	-0.08921232056483999	-0.08394733115445599	5.224413241995948	14	0.34775613562928853	1.5563538136975719	0.5643043958923762
Si	1.305392374428912	1.382660969016492	6.690452793310836	14	-0.09304367354658272	-0.8553594316753751	1.0609979778440106
Si	2.65630090730994	2.955917804682348	5.6666561025008875	14	0.44395249851943674	-0.6196497519033518	-0.750291212767524
Si	4.266168919338743	4.061939330111255	7.018377133747715	14	-0.4483161784687921	-0.00821725260319326	-0.1992426645742351
Si	2.6800746094932477	0.164157169826232	8.53703407923181	14	-0.03765383741356862	0.6121904611485381	-1.400990146738048
Si	4.27959139234176	1.604911771997424	9.664846810831476	14	-0.7071552645903356	-0.574475174317818	-0.003622944506620658
Si	0.050049899333279996	2.729052010983672	8.167201073086968	14	0.06756504826604331	0.4954273125814615	0.07550410727359655
Si	1.311242362662672	4.2475302068272915	9.603746933723315	14	0.1378418413132468	-0.10962318909302557	-1.0924500521148501
Si	-0.18450212890586398	0.11756851353126	10.715017198595291	14	1.1955236075153304	0.5545498794182665	-0.6566577276604992
Si	1.3004036344629	1.311339862466568	12.124555613552447	14	0.5528627201071853	0.13590245657025907	0.5909896408996611
Si	2.6201122300972077	2.907899151263568	10.92924051772212	14	1.150315862671167	-0.96441209249786	0.07271677199602403
Si	4.3895224212345	3.960409534320888	12.106323150223895	14	-1.2630140937270895	0.7867625988443564	0.40332003559247664
Si	2.713354542556416	-0.238435770427668	13.462171673168989	14	-0.4116889834095587	1.1159509831831314	-0.46055592534535705
Si	3.8195548176258	1.3173523503734879	14.886611308154917	14	1.3851529092975319	-0.9191891781323074	-2.372606219232431
Si	0.20808083148137999	2.7902493878957277	13.668871257428508	14	-1.1916497231294634	-1.3099475644621363	-0.4387701786361463
Si	1.563133106027988	4.21532277160698	14.85108887960214	14	-1.3225431523150097	-0.5826602881045094	1.1227551563023714
Si	0.04595490756964799	5.238176964312601	0.172200903647652	14	-0.23979902278371887	0.7104812464324791	-1.342565377885131
Si	1.1999950864173359	6.7895288440364885	1.389274705714104	14	0.28718577938670803	-0.24380094821452936	1.10043719079189
Si	2.329221565173492	8.164292328937403	-0.043614912276144	14	2.1351996099491095	-0.8378419769081422	0.1976578352548958
Si	4.07825429729652	9.190461514975487	1.209761316774252	14	0.1808605470878364	1.1937163775857984	0.018955988193855744
Si	2.81904432997968	5.534088869136959	2.6791808612908676	14	-0.2138925655779068	0.22732839064940463	-1.1693474413614349
Si	4.049394355343304	6.987778445291688	4.016536921430352	14	0.5428966016652274	-2.322594621208102	0.8433497987249635
Si	-0.0065162368937159995	8.232948440847503	2.8412742852679678	14	-0.3657844690236348	-0.7579479644109248	-1.3946413163710063
Si	1.3551822742851358	9.538340815276417	4.03307938815804	14	1.0392942493945125	1.2596076362884252	-0.09108629106635398
Si	0.145502207347464	5.330363028896268	5.313966811874424	14	0.0002493972160543637	0.8365471682689157	0.13386279871978563
Si	1.427332129168176	6.7639513954811035	6.750187673164452	14	-0.04737544373958052	-0.13035632528416768	-0.3176497778830146
Si	2.7238520214425517	8.236458433787758	5.370516698134104	14	-0.7778436915992948	-0.21721571920419824	0.6260458906082842
Si	4.203037796316084	9.40003734344994	6.672350329720811	14	-0.06921364099732226	1.187404056914303	0.09338151678565018
Si	2.7740319205143598	5.4765314849036875	8.1396086285844	14	0.21914019153632905	0.3215141491791971	1.1665102266406515
Si	3.99091072297302	7.00105466858886	9.6715742973003	14	-0.015804841513482257	-0.37072896166481156	-2.024197794183421
Si	0.039308670937404	8.02797135312348	8.222905961046216	14	0.8045070822113585	1.0296878285868434	-0.23432154000967537
Si	1.501886979213984	9.472690947319776	9.52033585149029	14	-1.4280638857592074	1.56503746480584	-1.5286326703567994
Si	0.057411134527428	5.594343747944688	11.0576965093551	14	-0.7994489467150312	0.0100167692167649	-1.3448613749360232
Si	1.498620735783468	6.909827352076836	12.275192810571768	14	-2.1707256005997237	-0.2735967164381294	1.7733820993239313
Si	2.619072232188984	8.282315841553512	10.991104143294132	14	1.2203887670664824	0.1374060389614817	-0.33514229292864206
Si	3.95735454046548	9.708185473663248	12.146005570409567	14	1.0086595295049483	-0.5731790801259313	0.9185353460493938
Si	2.716458286313772	5.274593141067756	13.286265776973286	14	2.0663340966121355	1.026525883264125	0.5026176657197875
Si	3.920028365540628	6.790503842075448	14.859392612900615	14	0.3492805439736043	-0.058457936111546795	-0.12364316929326104
Si	-0.177108393777084	8.26099588443492	13.81052222252208	14	0.968496293298915	-1.146793705493096	-0.8571656331627792
Si	1.228806278468604	9.647004346718509	14.95715241627367	14	0.10584674959879208	1.5710168273383764	-0.7116739821904958
Si	-0.078422342267016	11.169057535371648	-0.007328735259516	14	1.3825704911139751	-1.2844432281283955	0.8113727047477498
Si	1.570998090208932	12.24288787554756	1.4320121197551838	14	-0.7932068172187755	-0.3276117825564603	-0.8631956464701225
Si	2.800421867435544	13.687038720887795	0.06430112066941199	14	-1.3030937690102178	-1.2345594140384786	-0.7957306142010329
Si	4.172374107990792	14.805540221215391	1.3605285135321	14	1.5181651863774124	1.2347015961626828	0.22395355780617826
Si	2.940480335732148	10.809559508439781	2.633274703623168	14	-0.40741092126736417	-0.11949006286962585	0.9936820696834896
Si	4.003146948361968	12.47610740646679	4.1515741498263115	14	0.3570599373407763	-0.9689606349197337	-0.33630083298590074
Si	0.24066201594996	13.704604935556391	2.6209409784303235	14	-2.06922890409209	-2.414573085820548	-0.20856060736498372
Si	1.326663581645556	15.004553570934444	3.9021696514603437	14	2.120078682450787	0.2662654667282592	2.602986254786319
Si	-0.148297201725816	10.864630647673703	5.235690719313252	14	1.040326805291084	0.6068322776613496	1.184387636152705
Si	1.335893563081044	12.318498973468909	6.6791265660915835	14	-1.0875253569846384	-1.239770273190823	1.3364338059176417
Si	2.7640056906803876	13.810652222260607	5.7596546654503555	14	-0.23626169608425912	0.4312345260533243	-1.8628051423586816
Si	4.095203013207108	15.164843248539468	7.164513089820504	14	0.17578621362799215	-1.1357914316071183	-0.49308657829799857
Si	2.93100660478692	10.850444426206836	8.052687553411117	14	-0.9453586594123704	0.04403480659711212	0.10054307354439063
Si	4.33882252320858	12.14290182665221	9.5196371028957	14	-0.6302509333593864	-1.627976837490405	-0.4016336476129915
Si	-0.36083052425177997	13.550018996479283	8.210117236768523	14	3.036296948385663	1.9515643259997695	-2.6024553215377084
Si	1.3628522588582879	14.836853908233325	9.66036181985226	14	-0.9996588611107058	0.038365262255653586	-0.7395002837388625
Si	0.03867492221208	11.026464072173747	10.735085908230552	14	0.14239038373512075	-1.3204978380328323	0.8062248376757493
Si	1.3973021895682078	12.357856394308259	12.182096747818404	14	-0.6222283134289284	0.09518694694145814	-0.6417039220079861
Si	2.9133916402163758	13.391728064854126	10.717682193235115	14	-0.8929209664079505	1.1219599134268496	1.0476431425900974
Si	4.271352658912548	14.77341403583166	12.071109471050123	14	-0.9173649789076623	0.6832157029544368	-0.13672598160430252
Si	2.6848845998187842	11.052204020402291	13.511555323842313	14	-0.018641284902669614	-0.6176823421123745	1.3605572015839311
Si	4.137956677215503	12.258309094530443	15.026621026549572	14	-1.398977228382904	0.46010032548262686	-1.0135433440605697
Si	0.089472320041896	13.784944773966696	13.544981506611323	14	-1.0085903667718363	-1.3765489624541885	-0.8579572764908528
Si	1.179113878416276	15.02686477605931	15.075647177941942	14	1.9747222716183432	-0.2728204997419767	-0.28370141745684335
Si	5.269961900382696	0.088838571316572	-0.15380594064594	14	0.794499054752682	-1.0747873298970287	0.7012566347648518
Si	6.690209043801096	1.2605912145387	1.256739972284808	14	-0.8380960021137729	1.1194895954352513	-0.2049453761743235
Si	8.188829779584562	2.5744660719065635	-0.033783682049964	14	0.12053727406652216	-0.2882808131425591	-0.2599575169358079
Si	9.51056962113337	3.7998111073368595	1.387470959342028	14	0.6372451111617852	0.9427515586177404	1.4494274569748495
Si	7.976913955816608	-0.06844486233499199	2.4920137377451796	14	1.7880551402754845	-1.0356535642611828	1.0283495682677062
Si	9.268022608974755	1.254026227743036	4.027814398747656	14	1.5812652531444868	-0.82519676672259	-0.5669279517610554
Si	5.334831769908168	2.55140736828516	2.822798072429676	14	0.48262526497138003	1.2450991460773617	-1.3730046937703642
Si	6.77753636815728	4.076011801806912	4.020956912540304	14	-0.2353656658801875	-1.4714564302473463	-0.03388613967742363
Si	5.243961952677096	0.14355221126954398	5.54513884691184	14	0.07681871342378827	-1.4459994022514961	-1.0973379804389836
Si	6.6074154603260755	1.3499497848093838	6.831372509875188	14	1.1671409187756836	1.6664377448639682	-0.25230307928719503
Si	8.084196240036839	2.63988844032078	5.39758914368256	14	-0.7985133214890292	-0.1433910579257224	0.3088249730926703
Si	9.390173613289127	3.937432080536064	6.781663859855543	14	0.17074067654773356	-0.09720037951766611	0.0032115676553969652
Si	8.04839756203969	0.063992371290408	7.994122671204252	14	2.7033748049009687	1.0597805594749206	0.02027779343894387
Si	9.627114386723724	1.30942236632328	9.511967118322548	14	-0.5879045716260155	1.5453890779492685	-0.45475371196937886
Si	5.82268828866912	2.918477879986284	8.386543131918335	14	-1.5721655971954185	-0.6605028156667807	-0.68729964664496
Si	6.979718461502952	4.4784422423876515	9.595150701013152	14	-0.8144086659097807	0.3903788911845753	0.48838428377797977
Si	5.672896089950232	-0.123694751209392	10.683719761544674	14	-0.9420380768913992	0.5239015326705053	0.15116967996129838
Si	6.856917458495939	1.3156623537726237	12.063715735921344	14	0.45572481844879875	1.065661448673695	-0.19711584625340858
Si	8.223084710686692	3.01940642698596	10.821308234809248	14	0.7643968107749203	-2.0337049703257324	0.6114880351750738
Si	9.567948255726169	4.2243252535000435	12.31089398876502	14	-0.3112307563407329	-0.08572630780544128	-0.012010404282007722
Si	8.171572314294972	0.15486218852148	13.531916532889259	14	1.490898871567774	0.559905234689603	-1.102203540146832
Si	9.704870480330783	1.2820899212977679	14.816850198467327	14	-0.4028744630404949	0.5408055217083508	1.362896650314734
Si	5.471250245525988	2.477340017258832	13.575157695917136	14	-0.10849935895758886	0.4961737044559004	-0.06269666034234292
Si	6.82628627010528	3.93135459275988	14.901025029164208	14	-0.5409330485322302	0.5091804120494655	0.002676006417210121
Si	5.4351590681171515	5.378836681399896	0.015339969146303999	14	-0.6976761134960137	-0.40228388014845695	-1.131933230963704
Si	6.773571376132176	6.670562833316052	1.3658097529098	14	1.5540583308677438	-2.3598350248861912	0.32182268181761486
Si	8.028848851358545	7.9884189326763355	0.09091856713302	14	1.8177195250172247	1.5907467182335966	0.8201039213044407
Si	9.584539472355804	9.530459581128156	1.5118319592113758	14	-0.6065990784088122	-0.37629026247229186	-0.840544979931214
Si	8.27968334684832	5.350431738531528	2.905851655381752	14	0.33613114003477096	0.2878833202600642	-1.7339364586127517
Si	9.722989193888123	6.749407674733284	4.2027452969043955	14	-1.0470528168085913	0.32701708589591005	-0.9236428467678678
Si	5.545333846519632	7.898426613680328	2.61851973330024	14	-1.2137874541570022	2.770819268327497	0.7046942025778898
Si	6.7202064834664315	9.549829542168826	3.877550950976604	14	0.36916033030898926	-0.7026254912372987	0.60319416363334
Si	5.384524169960495	5.2204969998727915	5.362992963266796	14	-0.47895964011644504	2.1569874135425766	0.20683282458984423
Si	6.820582531577364	6.643376637996384	6.64688663093664	14	-0.32633548587553884	0.923471354043014	-1.3931984120653391
Si	8.293398319263025	8.239350927970008	5.219457001964567	14	-1.0927603845269918	-0.011794688545647298	1.6627155556919897
Si	9.6715742973003	9.522773346587687	6.875101171922544	14	-1.523002721037271	-1.5969363971813213	-0.4450292774275148
Si	9.340237463727059	6.384595908489084	9.163129069949976	14	1.643030916250404	2.367134650000623	3.6140266278177244
Si	8.225457205914829	7.932080295991764	10.847308182514848	14	0.9855990287780082	0.5396760351412099	-0.8702481883632888
Si	5.480285227353684	8.001516406333032	7.97645895673176	14	0.060008312619596084	-0.007095736462544668	1.1669871666775389
Si	7.01608588835616	9.232695180029772	9.327367489612786	14	-1.113889985158501	0.8060168352553494	0.5107115052676137
Si	5.383224172575216	5.7830383684180795	10.952867970199582	14	0.4175313060285311	-1.6613256161559176	-0.11966978313150421
Si	6.727470218856684	6.991483437839736	12.311495237555711	14	0.7438580501459814	-0.5152461637207589	0.33051353202077943
Si	9.53697581802187	9.583840723761215	12.150198061977095	14	0.6017265767165997	-0.9168985804025874	-0.18955422550685308
Si	8.030847597338411	5.580190026412452	13.728557387380176	14	0.4556093758199241	-1.2517487957668605	-0.9268628990708214
Si	9.445293502425	6.65062412341932	15.178346971379064	14	1.0141143865521745	0.271158794373565	-0.27016840460424396
Si	5.356265476797971	8.300840804293752	13.548231500074523	14	-1.352111120607245	-0.07035983974904426	0.5422054885551716
Si	6.901003619824248	9.329951234416031	14.926732477458119	14	-0.6293479611709504	1.4157603754707027	-0.8827221629345191
Si	5.392502903912652	10.740123398098511	-0.21094082572899597	14	0.9956705625380922	-1.009666374348318	2.2358789520754683
Si	6.793721335604015	12.154553053217784	1.3016548819462321	14	-0.8695210797787508	-0.315399289396289	-0.7753018968797964
Si	8.009950139370035	13.538822768998559	-0.10464978951504	14	-0.7675453863499736	0.9822187966136093	-0.37966689508924234
Si	9.497309647803517	14.6395955549844	1.213677558897408	14	0.3748005640497981	1.317166456869516	0.9746036968763949
Si	8.10597119624028	10.95283547026495	2.721414526345152	14	0.9699762215211923	-0.6266516430217112	-0.42708424784554133
Si	9.515038362145273	12.234860391693456	4.0471356098863795	14	-1.1460781668824986	1.281687003225197	0.05174478012064017
Si	5.6060274744448915	13.553528989419538	2.716377036477192	14	-1.784591347188181	-1.125508038768654	-0.3691862984727227
Si	6.812376298082784	14.830792670424454	4.026140652114108	14	-0.4652296805963222	2.5808778343594296	0.8892861948168571
Si	5.403699131393376	10.899681827174316	5.270823148650444	14	0.1392744611976333	0.2209517923449054	0.7110607735716404
Si	6.7940625849176515	12.248835363585215	6.790032593023284	14	0.9787334062416166	-1.8523967938016581	-2.3005083122869667
Si	8.097374963530116	13.704913684935397	5.463352761410412	14	0.5958174053593032	-1.8499205622678234	-0.38078841122989093
Si	9.449827243306164	14.832937666110167	6.84554248137474	14	1.010479357850549	1.3516377801178057	-0.6649906800030992
Si	8.190081027067896	10.838078201079359	8.05722129429228	14	-0.04639122462302783	-0.030204316858971576	0.7644034956487527
Si	9.385282373127012	12.179886752263428	9.608621923918115	14	-0.6605668361892524	0.797447598333828	-0.12879283613898562
Si	5.526987633419868	13.374714349074276	8.10783994248162	14	-1.0750526679660681	2.884576537664789	0.4981305727150651
Si	6.981652207613555	14.862106357442388	9.189356517198	14	-1.241127045468265	-1.699982698865408	2.436899793089118
Si	5.583050020660068	10.649091081194278	10.830668215983263	14	0.38161322181659446	0.2501022131331483	-0.6996561217030597
Si	6.633724157410679	12.187475487	12.290207780371752	14	-0.02498060218002672	-0.4619281242547201	0.2533474622682392
Si	7.956747746377451	13.550425245662183	11.024497826128512	14	1.4675781749824348	0.6898265289536015	-1.3126225424372184
Si	9.475144692384491	14.98685735652732	12.270366570278917	14	0.47933167905627033	-0.830859369079684	-0.3953326398049046
Si	8.103842450521883	10.83027821676768	13.511262824430624	14	0.678793401803782	-0.14419941343837694	0.9207081871554509
Si	9.44443225415725	12.129560603485775	15.13728330397153	14	0.21789500522978134	0.06850144482364125	-2.3551486712191574
Si	5.397231644401607	13.624606346459725	13.679076236902954	14	0.4655289572555874	-0.5508721703683267	-0.7457380423560737
Si	6.780233862731736	15.17075823664249	14.645851792401059	14	-0.8619895409644409	-1.7880877933130503	2.51486624792782
Si	10.960619204609316	-0.029558690547804	0.132469733560032	14	-1.5819792490918918	-1.392380800573532	-1.6714488291329368
Si	12.3483501634284	1.11572275591656	1.34931603608406	14	-0.7073329279679578	3.367687227320613	-0.0893556800753623
Si	13.486481624273724	2.650272169435704	-0.171258405543324	14	0.28452879914886703	0.0966342221261695	1.165132114189052
Si	14.843337645192406	3.964699525692312	1.40749091907534	14	-0.01670781370191826	-1.0186089357623251	0.07074936220504671
Si	13.749649844956345	0.049221151000164	2.600596019350692	14	0.31239983792980425	-2.384560830528991	-0.7318443034270574
Si	14.825527681014071	1.340768553275844	3.89771716041576	14	1.7036164420143731	1.815397045581535	2.2557476826579763
Si	10.992794139894995	2.537383646491452	2.8785517102908718	14	-0.8879443349502718	-0.41753953356555557	-0.9211393615176396
Si	12.213605434444128	3.954055797100332	4.266900167867964	14	-1.1750198139187453	1.2981991558122519	-0.6054742198312474
Si	10.940469245137475	-0.17970838854764398	5.2385832134955	14	-2.2568776834461812	1.2516873463497091	1.0013550192904075
Si	12.026389560996492	1.393548447118212	6.629759165385576	14	0.16196677964272826	-0.07655877467592129	-0.6095710190483713
Si	13.554601487262394	2.6686671324374163	5.420647847303964	14	1.699807863703638	-0.2333283220245022	1.3520612411640338
Si	15.067977193368792	4.214201523862176	6.859062454181652	14	-0.876070456360764	-0.8337078966638761	-0.5402061970582244
Si	13.361243126169311	-0.022164955419024	7.787195587402308	14	0.812467995614133	0.46736498356470524	1.223746373504064
Si	14.701524180425675	1.4417133502428359	9.237391420584094	14	0.3122967366064663	-1.0178316906240445	0.2510954311183215
Si	11.00496536541468	2.89135668453588	8.0620150346505	14	-2.0373680240753473	-2.2334572279744207	-0.1826664914647084
Si	12.331628947060235	4.050450603218844	9.347777448561684	14	0.9478762857418596	0.9170793291065938	2.290326992329712
Si	11.02657782194496	0.084759829520256	10.981695412218167	14	-1.275818455331959	0.9641752936978742	1.4470126748581664
Si	12.395621318350642	1.458337066807104	12.516651074920212	14	0.5344921725947273	-1.2057373233996187	-1.4998704864718988
Si	13.590335165390279	2.665855888091748	10.909350557727336	14	-1.5626391377632058	-0.9492011763133319	-1.97262013590859
Si	15.000734828615183	3.885919684144344	11.9786634069894	14	1.5044866489636928	1.8967712434115616	2.8455918961375115
Si	13.861319620351896	-0.018232463328552	13.687412470136064	14	-1.0416540098573444	1.095865508422135	0.5703477789473843
Si	15.168418241348988	1.203521329324908	15.238276850840471	14	-1.0125293001223032	1.379180745859892	-2.0888235548474703
Si	10.992875389731577	2.795335627665636	13.59342265918032	14	-2.0944049102764484	0.20195646623965138	-0.18491775128303004
Si	12.10451940385182	4.214965272326028	14.860725110220526	14	1.481418692031324	0.672557957181359	1.3301783066737216
Si	10.921294283704595	5.418486601650936	0.37649549274440397	14	-1.457805917881616	-1.5424898995902694	-2.2583727811898475
Si	12.205350451047599	6.624477926007875	1.669424142241944	14	1.3044274013397785	0.9061737287806538	1.2434747217360922
Si	13.549693997132964	7.857135446730371	0.276704443456848	14	-0.4031511139729429	1.5057791436081311	-1.554690565665968
Si	15.004667320705655	9.458358476147064	1.199020088378376	14	0.5244584340828494	-0.5435049251839743	0.1250709040775393
Si	13.674672495760321	5.273650642963428	3.0061139537214716	14	0.030672515137770535	1.100399138433152	-0.24284912502501052
Si	14.975872378621704	6.974339722321355	4.323515053996908	14	0.48171406524591964	-2.1817299313699574	-1.6327328681116147
Si	10.970417934900864	8.195573516020703	2.887261692772248	14	-0.47989346556872275	-0.3952058843126213	-0.49793414026860583
Si	12.163961784293749	9.586456968499093	4.235683980653928	14	1.1451826508994911	0.1433735744095454	0.568085463376186
Si	10.791440794882439	5.4034228819490036	5.651316133354584	14	1.0485180897305437	-0.6649803955818185	-0.0922013794437022
Si	12.320627719187303	6.67248032945934	6.911159849396747	14	-0.945525524147648	0.6799074617390022	-0.25595302039967727
Si	13.608307629241775	8.088404981571683	5.6188324486899	14	-1.3271942818391578	1.7788261577288127	0.36447911885259565
Si	15.033592262528137	9.500673391037928	6.87682366845804	14	-1.002839575502261	0.4774362602142573	0.15358523340957753
Si	13.720318653950963	5.586397513927164	8.287467081192684	14	0.030534189671546575	-1.6665817267618963	-0.6318640448372473
Si	14.824650182779008	6.959747251671588	9.646159348418076	14	1.048016467082583	-0.19601644161851328	1.1020706140017802
Si	10.821080735266824	7.958080243697364	8.206428494187792	14	0.27960564668184745	0.7559844112779278	0.13204039926886466
Si	12.023497066814244	9.552234537331595	9.686101768080803	14	0.8072795050780741	-1.290251869267674	-1.0921114375441865
Si	10.928964268277747	5.3876441636851675	10.765554596948052	14	-0.3634648178037972	-0.01823710714634234	-0.41955090925750743
Si	12.202051707682452	6.715201493533104	12.31482648085549	14	-0.2430170182024162	0.40820282170596983	-1.6185133701385357
Si	13.478925389471785	8.25225340201891	11.028040319003399	14	-0.3786317680873507	0.21998505674452973	-0.021504982008250545
Si	14.919858741283452	9.569947001706035	12.306490247622383	14	0.8449729375135729	0.253413282564435	-1.4934550644770654
Si	13.642270060932216	5.383792921431276	13.405426787301515	14	0.599355760500891	-1.0351342009865132	1.147698220344724
Si	14.86327635508914	6.65996785462602	15.06908219114628	14	0.40325858617532506	-0.5902069964402081	-0.6275409883519503
Si	10.782454562956692	7.910451589494167	13.629757586098895	14	-0.8070121101247786	1.514580808450594	0.15635328539724894
Si	12.192610476671856	9.395276103026353	14.810350211540927	14	0.16010941315945326	-0.10827824390005614	1.4217798472462333
Si	10.957466710950012	10.911576803249629	0.055834887697775996	14	0.023114493938663244	-1.718444263506199	-0.042772650995451425
Si	12.380232599302392	12.030760802204496	1.468720795922028	14	0.765589032311873	1.0522536486501872	-1.0236806981168494
Si	13.792631008507163	13.724088646368276	0.10091229703236	14	-0.7455279830514175	0.01863768535522141	0.5424248038389802
Si	15.506368811619838	15.327667921045789	1.246388743104516	14	-0.919044682013315	-0.6672056872364067	-0.8442412009394589
Si	13.725957392609615	10.583311213499112	2.6354034493415637	14	-1.0674483668711983	1.1267807359021271	1.690015809091854
Si	14.790070252330558	12.309675241216318	3.9507245538005518	14	1.1882895455865619	-0.8866482407583851	-1.1534086452607728
Si	10.996970381495206	13.41280427246298	2.6480296739460956	14	-0.7960604870136079	0.8003876572674171	0.11374055715271073
Si	12.318060224351376	14.979154872019535	3.843344769776424	14	-0.18677666042949714	-1.3406432195477882	-0.09272614203954442
Si	10.611277407249947	11.010084105119219	5.545658845865952	14	1.829106179148565	-0.9748489803239371	-0.8584123621325189
Si	11.942279730168876	12.203319205133099	6.927474816582012	14	1.1828675986874335	0.7762519202955911	-0.13445852382246395
Si	13.298502002362234	13.376258095969295	5.261105668195476	14	-0.19262643925389802	0.7644531179814316	0.9554664457574686
Si	14.699054185393644	14.890283800768332	6.4151945969451125	14	0.18823550558814914	-1.215080720133037	1.666120727577994
Si	13.389290569756726	10.852475672121336	8.229324698136036	14	0.01163810823165028	-1.3539106372208167	-1.1519922233399031
Si	14.745399092178875	12.193422975037656	9.419667303967667	14	-0.14758555914501198	-1.1650495817082753	1.3937447719458707
Si	10.726668425160865	13.640303814886979	8.329733246181599	14	0.2706245186880382	0.10690270255377692	0.4065349456847898
Si	12.202717956342408	15.169506989159158	9.533904574199147	14	0.6775505294920225	-2.1614793916474073	-1.229007626320683
Si	10.97506542555324	11.146112581521455	10.83027821676768	14	-0.5176264930261519	-0.5085340361719803	2.0083764975958895
Si	12.41663252609023	12.480576147478692	12.318466473534276	14	-1.8104492105034422	-1.081145930464287	0.13550007858765592
Si	13.57135520356519	13.594885156238758	10.739164650026868	14	0.058437624379517626	1.7726395641074724	0.5673128462274816
Si	14.92697622696786	15.072592184086535	12.112953136888823	14	-0.029071744965446344	-1.7013762379489281	-0.0990682875327537
Si	13.593975158069064	10.870903135057679	13.559590227228407	14	-0.7269427482447273	0.42254419007122374	0.6151665155566096
Si	14.855248871235034	12.35249390509398	14.869158843257532	14	0.27231527754656754	0.4583267770327887	-0.913486466532219
Si	10.813687000138044	13.608210129437879	13.71207992052175	14	0.18368259228723094	-0.14120047619295623	-0.0912706393178086
Si	12.35915639169354	14.975904878556335	14.927739975431711	14	-0.47415347294149207	-0.4593847868720296	0.6133955382120916
H	0.48112903229212794	0.24945324826791598	0.1308122368938	1	12.261717485746658	-1.3719824222950732	0.3001451786423824
H	6.075570280040711	3.5050009502965245	10.526888076984497	1	0.13745540418362853	0.030937596096277803	-0.07108026345974976
H	8.48964267455143	5.507963796683026	8.318480143815268	1	0.6329269397765965	1.0534343002131992	1.7052151553024413
H	7.729092204267218	5.8086174419701955	7.501875411274516	1	-1.3771238616037735	0.9792982780804533	-1.0515926174723769
H	16.115095837270662	0.335594325010032	16.355210229322072	1	-11.871713718828294	2.488799096639499	-1.4174997282197828
H	14.688491706638242	14.470457770175813	2.1153979952426374	1	-1.2320667274305952	-1.4231574454767686	1.4635677649040681
H	8.441986395403797	4.778159889557419	7.7417281788521395	1	0.7285664012544008	-3.1311213694769804	-2.0096936748514014
H	2.1129085002498265	13.89095956073628	14.121364597316381	1	-0.4729558520833672	0.504552679583731	0.4185872589835159
