223
config_type=divacancy dft_energy=-23031.674141188025 dft_virial="-58.93198341300403 -14.60495136462134 11.902227696930417 -14.60495136462134 -57.37181056693173 -3.738899067986418 11.902227696930419 -3.738899067986418 -59.49143933255522" pbc="T T T" Lattice="16.249967316 0.0 0.0 0.0 16.249967316 0.0 0.0 0.0 16.249967316" Properties=species:S:1:pos:R:3:Z:I:1:dft_force:R:3
Si	1.234607516800416	1.362933508694868	1.369027246438368	14	1.4119150303538892	-1.535050149235889	-1.0962447464568565
Si	2.5874010458901	2.760170698393812	-0.070508608184124	14	-0.10400969484754628	-0.0008371518922402145	0.8867192032652214
Si	3.8819059422172915	3.95654204209968	1.616806748072736	14	0.12679354464203849	0.42786509253127025	-1.0596651168460458
Si	2.5947622810842477	-0.159915928356756	2.7518994650299677	14	1.5839050069766827	1.2531474770610214	-1.5995591817184043
Si	4.089678024319667	1.169981396784684	4.064571824816448	14	-0.0544539537964802	0.740030188545345	0.33107094765418754
Si	0.14270721296911199	2.865242987059068	2.5185499343722078	14	-0.6737121263595734	-0.3179667951689888	2.1478661603088196
Si	1.401949680220584	4.01642317165914	4.007176940256336	14	-0.9718186755936103	-0.22038460651128072	1.3639104371424682
Si	0.194252109295464	0.052097395215096	5.314763060272908	14	0.08729211094541146	0.3906660836488358	0.5437203838098028
Si	1.385374713558264	1.6226729862738118	6.8316000094176115	14	-0.5504291689216652	-1.3893021590631869	-0.3763925924640338
Si	2.7239007713445	2.723754521638656	5.327454284746704	14	0.9965251979465095	-0.7184118207924759	-0.012405068948650452
Si	4.161080380706172	4.035500633288124	6.618692937643379	14	-2.0842773264203847	0.4571736362967022	0.5416138772210055
Si	2.630593459016028	0.09652480585704	8.123212411562555	14	0.7916201881257122	0.9510629136756511	0.6739566384755195
Si	4.431821086158048	1.42845337691298	9.423063547136712	14	-1.4391942006901284	-0.6498856933577611	0.23081789478990963
Si	-0.076667345796888	2.8342867993220877	8.202756001574375	14	-1.8876337922142874	-2.1351116781471604	-0.680041416326182
Si	1.3310348228535598	4.002025700617164	9.26267636972779	14	1.8502830881179644	2.4780763019018215	2.3623405670206754
Si	-0.004907490129432	0.06803861315209199	10.921375533541175	14	-0.6282575554046755	0.0641130822632125	1.266377356596375
Si	1.346618541509604	1.4080596679314	12.25364535391075	14	0.5134273638172862	0.12362671421921208	0.6367434885138243
Si	2.641415937248484	2.6110609983021957	10.673758531579967	14	0.24161293758708333	-0.43359402940562425	-0.9003913129156408
Si	3.824706057264972	4.055894342269704	11.933455997916289	14	1.0043873809049904	1.3525543791644383	1.8405625102340806
Si	2.8373255432101803	0.119957258726712	13.760439823254169	14	-1.5659494358628967	-1.2481338216867324	-2.147842249029342
Si	4.068959315991768	1.414624654727064	15.03669600628549	14	1.1825086723847409	0.678878505389879	0.10687904838483153
Si	-0.134029730422368	2.80295686233684	13.604651386595677	14	0.4022957072329296	-0.717320129473541	-0.7898432972389579
Si	1.258949967839784	4.202599047198552	14.773381535897027	14	0.5863161427592279	0.1072621430775336	1.5591925710815473
Si	0.073384852399056	5.442829052690304	0.24017451693047998	14	0.1488032346246341	1.0053852268797399	-2.008528192809778
Si	1.170420145902216	7.1199231795054	1.4687857957912918	14	-0.5879056000681435	-1.5643342675007796	1.7147408434030578
Si	2.7322857544795562	7.989816429865511	0.15916842986021998	14	0.6188935898286962	2.5655111091925007	-0.585707562129949
Si	4.05412309583226	9.610815669505776	1.4527470780504	14	-0.3273942670463758	-0.886505544413117	-0.7825066482079153
Si	2.486748748334796	5.4746139887603995	2.838641790562776	14	1.682532864168095	1.815601191343955	-1.547673247915688
Si	4.145642911755972	6.743378936859048	4.025636903127312	14	-1.173241123258267	0.5637562362381207	-0.352938198402047
Si	-0.134923478624748	8.382513140023967	3.194971073868024	14	0.5222323710966652	-0.7385844560238256	-1.0723023566051058
Si	1.524604433521752	9.798714041580682	4.2583039351578	14	-1.4096241755136372	-1.2706757304705987	-0.5621971179719829
Si	0.09031731834232799	5.082859776706272	5.625608685060672	14	-0.8891524973402095	1.808863609852507	-0.5252575336163514
Si	1.326761081449452	6.882673656691799	6.68369280690738	14	-1.3745208745776554	-0.8814420095956172	0.35879749031613245
Si	2.555421110212212	8.078622501247452	5.294613100801067	14	2.4157069432667333	0.22061574887956203	-0.29508472915126693
Si	3.9288358478258996	9.34389370637316	6.808671305534736	14	-0.009685096630465798	-0.06206211154933038	0.22157631382716933
Si	2.63298220421148	5.533113871098	7.942675274681796	14	1.2784996039598093	-1.015253386209	0.8609981227529918
Si	3.7772561527022517	6.900321121196976	9.54685579815	14	2.2436298061735864	-0.9227702136222097	-0.649256286775389
Si	0.123061002484068	8.252529651463284	8.20382849941723	14	0.7276680570555409	-1.1344022634026423	-0.547630263670152
Si	1.383245967839868	9.707031725983812	9.358258677480505	14	1.4570009048058779	-0.8629951002551509	1.1284010464748848
Si	0.175060897895268	5.471168995689408	10.972481680749995	14	0.07738718481007299	-0.5644288373898715	-1.3236960359405643
Si	1.4103996632249038	6.844551233368464	12.392322574985496	14	0.7219938847245062	0.44258492759965007	-1.459731418655875
Si	2.6905883383467	8.34097822356427	10.832601962093866	14	-0.5856422560548172	0.6236691608503393	1.8743380923827377
Si	4.265177671332468	9.639773111262889	12.444192470658168	14	0.7904595911841973	-2.141961359830567	-2.8317716908206516
Si	2.8180693319407197	5.547592591976556	13.675257494583695	14	-0.11268074753974566	-1.0884524975630838	-1.0452507290896997
Si	4.127767947708372	6.8504499715041725	15.045210989159076	14	1.0350562964953127	-0.8247874467556224	-0.22393581717946925
Si	0.0239687017911	8.021520116099028	13.730848632771732	14	0.6812536924846319	2.813755955842374	-1.7131256750409412
Si	1.5585668652121918	9.432017279127827	14.835131411697827	14	-0.5616281323646342	-0.1275875019649002	1.1238090523731001
Si	0.032126185383732	10.614787400190204	0.068851111517892	14	0.43761883767378396	0.9635435731207139	0.04702140253699613
Si	1.23637876323786	12.34976391058489	1.402388429338116	14	-0.5685510905496648	-0.4490797967488761	-0.914460658338023
Si	2.6420659359411243	13.499871597342107	-0.13201473447518397	14	0.356203245048103	0.66410133467286	1.0905566901570931
Si	4.128986695257072	14.850455130876815	1.243837498235904	14	-1.487495499455494	-0.30499531171830974	0.4217990837494449
Si	2.5881160444520037	11.010766603746493	2.709617050073736	14	0.5076755441055829	-0.4486064562594369	-1.1093743528847249
Si	4.146195410644716	11.965728433005863	3.98091699307368	14	1.3282615476575514	1.648394499058765	1.227638512737704
Si	-0.158437181331	13.718742407121312	2.8410467857255437	14	-0.2672964799616385	-1.0932185554950422	-0.9879428483878552
Si	1.446019591581576	14.690149203304475	4.029293145773412	14	0.23545822567171287	0.4952789598044889	2.0057336584373093
Si	-0.017598714603228	10.844578188005759	5.5451063469772075	14	-0.7588406521780804	1.1218845800409691	-1.2455915127461699
Si	1.303588628056836	12.086416940261795	6.850173722059799	14	1.4542750189454567	1.9208691851351816	-1.0777608131997802
Si	2.960727795007884	13.441144215462083	5.372011695127176	14	-1.2102850944898966	-0.0006962553206960998	0.48104300675736095
Si	3.9710857628475	15.13148206563972	6.695360283440268	14	1.2314923425020738	-1.4132669175312231	0.11120544730704472
Si	2.791549385281008	10.945977984057599	8.078248751999183	14	0.6127208801760848	-0.5153670056708058	-0.08669201496368889
Si	4.31631631847592	12.230960399537615	9.267453860118696	14	-0.6255905478560859	-0.03707379605334321	0.8030356386366377
Si	0.056777385802104	13.57920393777882	8.000590158196019	14	-0.5738077153767075	-0.021061466340525005	1.5338473861671238
Si	1.227620030854536	15.072640933988483	9.508668374957399	14	1.074773703038832	-1.5540056232086807	-0.9375317005967758
Si	0.201402094914504	10.917654291025812	10.7932282912872	14	-2.734613220319704	-0.029444298126335804	-0.2258811154646933
Si	1.395335943522972	12.2297254020216	12.109703143425625	14	1.4590608743883806	1.635899184313377	0.9768901808376026
Si	2.812235593674276	13.559362727685984	10.583831212453223	14	-0.49861239785206085	0.2166271931964163	1.0761387028532985
Si	4.046989360180536	14.865990099630912	12.18368924461537	14	-0.01875312798409606	0.8993014213704299	0.020755504807427383
Si	2.8216930746521878	10.890988094660257	13.482159132967668	14	-0.825664450780325	1.3001498534186482	1.204893486633546
Si	4.240558970848729	12.279336552237348	14.905818769522426	14	-1.2465605623413338	-0.7457133597450002	-0.00848413333542463
Si	0.14961344907841198	13.622493850708643	13.747423599434052	14	-1.9684114936100396	-1.7012080876609905	-1.6858945843741884
Si	1.2386537586621	15.039962249716007	15.003529822993535	14	3.5821508353901246	-1.640621276344361	-0.9881554787978312
Si	5.482283973333552	-0.035473678650828	0.011309977251936	14	0.3235540641402026	0.6971906888115696	-5.142210640296158e-07
Si	6.780022613156628	1.28204117139582	1.479039525167688	14	0.9290203135449576	-0.2471868368106324	-1.0097183106757852
Si	8.029043850966335	2.682495854623332	-0.001819996339392	14	2.0845583482318775	-1.0785802244653113	1.6189394022900845
Si	9.800127788737175	3.9757982533691396	1.356433521768468	14	-2.4127131482319526	-0.1448270202470251	0.0003995497667510115
Si	8.383276888487819	0.055038639299291994	2.7275082640886517	14	-1.7831744110462473	-1.276791875806167	-1.2546631436472486
Si	9.604396932415955	1.211630063015592	4.074906804029424	14	1.8544148543674424	2.1427311487634193	2.03432357826576
Si	5.501377684929851	2.6008072689258	2.7823681537474676	14	-1.3415371928676039	0.48534446595796865	0.20921083990044917
Si	6.945447280433507	4.044438115311924	3.9105546345954	14	-1.6127108996520259	-1.299205229324026	2.0679014424152977
Si	5.63662616290092	0.08531232840900001	5.486086465685496	14	-1.558246661434265	-0.7277410764466332	-0.5676380910504804
Si	6.975850969281744	1.3295073259258559	6.788196346716576	14	0.514206922950355	-0.5350899545816616	1.2614102382283812
Si	8.153242351162524	2.641529687019696	5.450921536413672	14	1.4378783089872764	1.3260802219039376	-1.2333797909175948
Si	9.194540256771804	4.3470937565724235	6.917432336780723	14	1.8224891824966314	-1.6824549596768943	-0.8470138809167065
Si	8.357666939997802	0.06452862021183599	8.355261944835036	14	0.11742726507127105	0.1410264123627822	-2.0002541187790097
Si	9.688051764158724	1.557689366977128	9.452800987324991	14	-0.7285489177382236	0.05670829894118602	0.8286921844053313
Si	5.603947478628444	2.811114345929472	7.810286790958344	14	-0.8103303786509618	-0.8694478032771266	1.978503853323217
Si	6.471565733564316	4.082463038831364	9.53312457576798	14	0.4017670879791072	-0.5918329634446697	1.0022687901211882
Si	5.676211083282696	0.050878647666396	11.08767769905312	14	-1.8899102488647466	-0.34867916243922165	-1.3923792579103398
Si	6.8461599801327475	1.4140234059363719	12.397376314820772	14	0.8186062524554545	0.40718826354663945	-0.05543354492345661
Si	8.026200106686035	2.7324157542180836	10.775255827435704	14	0.5669760314305421	0.16371718814468506	0.6042285193036356
Si	9.439329764420028	4.077490548832668	12.311413987719133	14	-0.0270117753829437	-1.3520324447844483	-1.5570726947450855
Si	8.276628352992912	-0.093404812132368	13.542917760762192	14	0.5153909169502832	1.2961939507730684	0.17734944566264219
Si	9.529435833187247	1.40212842986106	14.94610243849879	14	0.48579029562048237	-0.08753842283508165	-0.09277859258807544
Si	5.196040799062212	2.750648217546636	13.384870578646776	14	0.2697377444631191	-0.33313683077892653	0.7776176914416537
Si	6.559120557462924	3.74610496535748	15.049972229582664	14	-1.1160024052895345	3.039371476127496	-1.1465785039777996
Si	5.279013132177708	5.392177904566331	0.25276824160038	14	0.7746321239438978	-0.7701571151341801	-0.23713201523512928
Si	6.85618620996672	6.737788948102343	1.5325994174412239	14	-0.4096277282743959	-0.5125279911762983	-1.1134454410486472
Si	8.18096479540362	7.907185346063652	-0.008677482546744	14	-1.271341389637985	1.2701360554638998	-0.2889930093162401
Si	9.59853069421488	9.137486621525328	1.294651146033036	14	-1.0353450316227653	0.6807523269472029	1.0156961305451295
Si	8.255812144861116	5.328543032556876	2.746618225652268	14	1.8874898103163593	0.8482588101127222	-0.8793211048170273
Si	9.442189758667643	6.660357853841603	4.349726251277616	14	0.7492805112661738	-1.081548051336358	-0.437463028691383
Si	5.471721494578152	8.185531036219416	2.706562056218328	14	-0.5003052135948464	0.15683742452903285	0.3749154924576087
Si	6.731808960130056	9.53036208132426	4.10791048764822	14	0.4361031710875567	0.04712013298128981	0.8410602294373717
Si	5.37378294156462	5.294694350637648	5.288990612109732	14	2.018303792347513	1.2829008220468388	-0.013403429144463951
Si	6.6053842144115755	6.7555339124114155	7.000924668850332	14	0.45942412478342787	-0.39005107525625643	-1.7115544725797984
Si	8.024867609366122	8.017425124335396	5.461597764940284	14	-1.777614652901959	-0.19673609399762274	0.051126172180612536
Si	9.340026214151951	9.346851200424672	6.653175368287932	14	1.1720920962906927	0.8841362708606004	1.535278206277786
Si	7.932714044717088	5.446761544780776	8.456840490527352	14	0.7956928189528267	1.4364757710351357	-0.10517440555757336
Si	8.532061589233116	7.888286634075143	10.536040058576868	14	0.0864300193315658	-0.8213043703784179	0.3837577807641299
Si	5.422435343708724	8.22930844816872	8.245412165778875	14	-1.2124306818795603	-0.3885480070860978	0.41815942705824327
Si	6.999803421105527	9.448364746247725	9.487754667021708	14	0.2110862041209652	-0.5368298215518059	-0.4852879016409255
Si	5.360571718136712	5.5809050249743555	10.947846730298938	14	-0.6432969788643498	0.12018117597968166	-0.3750905847299108
Si	7.109718200030952	6.707954008110168	12.272430316128048	14	-1.2822521321745655	0.2650110244425589	-1.1810128033094784
Si	9.437119768865053	9.390417362798868	12.164530533149808	14	1.3401950758904866	0.8734836672981631	-0.14500134118773114
Si	8.111772434572092	5.195829549487104	13.620933853846307	14	-0.4490075486893799	1.1241353256382272	2.296091153346952
Si	9.648141844430628	6.894113633682264	14.848521384766212	14	0.36116650675811685	-1.5057315781597085	-0.8072933890468028
Si	5.651153633681424	8.052476303836007	13.610761374306492	14	-1.2333291401427877	-0.16169295692613248	-0.4239685824185858
Si	6.65468661524832	9.606444428297772	14.867176347244978	14	2.702609386847161	-1.0523528933155446	-0.05211810461312567
Si	5.510071417443911	10.843700689770694	0.025853697999756	14	-1.2907113257883844	0.936442837493693	1.407727985340028
Si	6.815626291545984	12.107639397576492	1.5608093607017999	14	0.7826308325948785	-0.8691816938764911	-1.3094806517359976
Si	8.052801303182328	13.472782901826337	0.13921346999617198	14	1.264221484785431	0.13947757851792503	0.40130583168467265
Si	9.6285118839129	14.680756722195827	1.6029617759195038	14	-0.5023027053180693	1.0854800427024605	-1.5185850478761926
Si	8.32115326343875	10.659556060145782	2.6764183668471477	14	-0.6296004437133889	0.41476608225671185	0.35891293294500703
Si	9.433366026415056	12.19860671461146	4.143237916593204	14	0.8752451315529963	-0.4642806856226556	-1.2563312767789605
Si	5.466034006017551	13.526911542955931	2.6177884847710198	14	-0.5263973046047731	0.565443395549202	1.65049817743171
Si	6.8532937157844716	15.049029731478337	3.9851744845104715	14	-0.12583477946815527	-1.1651881642850315	0.08379977858905434
Si	5.3402430090243955	10.806325764943896	5.7675196496313	14	0.9542891366313728	0.2525527336137814	-2.187828850299881
Si	6.8569499584305715	12.310747739059176	6.859501203299184	14	0.13005756284596648	-0.8147452235961881	-0.7069614032491964
Si	8.145101117537207	13.598265149440486	5.3738641914012	14	-0.6667002079304656	0.33460364636407103	0.12718718086655317
Si	9.52638083933184	14.902650025895808	6.725227723367075	14	-0.1006847414475308	-0.22080755333644508	1.245159567052385
Si	8.25766464113514	10.8797593672449	8.108636190880103	14	-0.7099850231056906	-0.5591832683157053	-0.7948204429177005
Si	9.553290785207135	12.203465454838943	9.378554886658186	14	0.3824987104888535	0.9104355929593313	0.9450465272265045
Si	5.563956309063768	13.70985367499946	8.032017594985165	14	-0.6988940460861678	1.731969305932306	0.5684569880949475
Si	6.908088605574023	15.100590877772003	9.548415795012335	14	-0.663319718655535	-1.5816833148695426	0.2627672208296657
Si	5.52653263433502	10.722800932939656	10.657427314427387	14	-0.9230082979748552	0.5664091027074495	1.1780724872653576
Si	6.671700331028172	12.152489307368652	12.080160702845134	14	-0.39816522653611175	1.9487880464750735	-0.9578125793621037
Si	8.184198538899503	13.590400165259544	10.851305674474583	14	-0.13301150574828463	-0.6215580262719658	-0.6707263017512854
Si	9.609743171662918	14.843337645192406	12.180699250629228	14	0.2803731216199116	0.12920626987446543	0.17460324807019204
Si	7.967570224609908	10.927176771872988	13.315093218991871	14	1.8100296061151941	-1.4058978725731466	2.322524687143394
Si	9.410632322139971	12.199662962487	14.935296210233652	14	-0.4463706230730361	-1.5969775348664437	-0.1757281066477568
Si	5.4593552694506755	13.622298851100851	13.542739011121714	14	1.0699737065166477	0.2839145620878836	-0.04577853022523654
Si	7.013420893716336	14.990318599565628	14.995534839074063	14	-1.5455459153737974	-0.9178493751499782	-0.3937005021476746
Si	10.878069370644036	-0.004923740096748	0.153757190743992	14	-0.8728833142059083	0.364415098330124	0.6346313254933227
Si	12.481209896204016	1.2639874577077441	1.3747147349989681	14	-0.48229436371667705	-0.04506504849889545	0.8179639903464815
Si	13.691718711474804	2.591837286967368	-0.103886041051188	14	-0.10600821501289737	1.2992198846243506	0.6903253233857103
Si	14.955137420326487	4.110542982353412	1.3738534867312198	14	-2.154343031720804	-0.07249694249115136	0.05709833561825249
Si	14.377044833059786	-0.06633236658391199	2.4441088340976123	14	-2.195259601785641	-0.07802301915574562	-0.8803274354393332
Si	15.082488414181979	1.424114635639608	3.91770462021444	14	0.8375614693177142	0.9870766430054971	1.4075968589687002
Si	11.045476533933467	2.755279458231696	2.851040515624884	14	0.11497854436436201	-1.4823556028099862	-0.15510192843793286
Si	12.252735355741056	4.1873078279541955	4.241501468953056	14	0.10922801020531882	-0.766718261768482	-0.04577853022523654
Si	11.055112764551856	-0.115894766897712	5.575087536675229	14	-0.9408841648237168	1.329247309437296	-1.0975405835382115
Si	12.326526457323013	1.36922224604616	6.81499254282066	14	-0.46509752578286656	-0.05991755260179486	0.2351082982376407
Si	13.594251407513434	2.584297302132744	5.367835453526964	14	0.3576042403370517	0.5442204637945716	-0.4805850928998426
Si	14.719074145126955	3.979113246701604	6.880138661790504	14	0.4231363156264539	-0.32206179461238865	-0.9360800545330201
Si	13.601206393524684	0.09787355314426799	8.28122709374334	14	0.7234902680208324	-0.35451762840021395	0.09949329124217417
Si	14.905022521123943	1.55049063145614	9.765434108517516	14	-0.7409066783489834	0.018199826119200194	-0.9394026939382475
Si	10.878215620349879	2.840396787032904	7.960793988239136	14	-0.6104351675464731	0.40074970160392465	-0.13115233949128552
Si	11.980564653165372	4.305932589360996	9.354391185259296	14	0.5878408082140758	-0.381033180456369	1.0528815125693671
Si	10.900413075703534	0.219033309452364	10.93525300562904	14	-0.7244253790257702	-0.588522151123915	0.17486807191816728
Si	12.26596282913628	1.532339417964168	12.229904151662076	14	-0.07499322864648313	-0.177676233148833	1.0469710556594107
Si	13.408270531581817	3.059852595635484	11.002657870055808	14	-0.5905810922642896	-1.0766328692958311	-2.7928261300942405
Si	14.854793872150188	4.198406555631023	12.148410565572336	14	1.1434396986029627	0.9475471842608807	1.4133831314916938
Si	13.566366463599179	0.1023747940908	13.622477600741329	14	-0.987313956026547	-0.8381654219574167	-0.44421963636220013
Si	15.032942263835496	1.16764140149118	14.953024924575407	14	0.25380331924150146	0.6965767088611183	0.6756538250973493
Si	10.957336711211484	2.929592857630428	13.610793874241123	14	0.023239192546690428	-0.7923745504266436	1.0421582036106256
Si	12.458264942353823	4.310726329719216	15.044544740499118	14	0.152603842508877	-1.0984726092167647	-1.7848440868411515
Si	10.933969258211077	5.396711645447496	0.025284949143696	14	-0.5904715631776513	1.2041532654118754	-0.3552583638429485
Si	12.070426972422853	6.841902488695956	1.395189693817128	14	0.5252521342951791	0.1345243441186597	1.2160024613903098
Si	13.670658753833267	8.00115890705208	0.06953361014516399	14	-0.8446145254319443	0.2415514881699318	-0.3804006885476126
Si	14.836073909802156	9.37444364492724	1.458710816055372	14	0.8104681898961218	0.3817510330617544	0.5641915243688218
Si	13.519875307108103	5.512980161593475	2.827786812395688	14	0.28721380443469763	-0.00013832546622396667	-0.9357494103888492
Si	14.846896388034612	6.674869074654792	4.366089968364828	14	1.0366794352839221	-0.1607277639889489	-0.2668933306474393
Si	10.663521052170887	8.097374963530116	3.02883140802924	14	1.244411889625286	-0.6556179726690313	-1.0008603386268111
Si	12.16732552752816	9.441003511053575	4.1939215646518075	14	1.0421885426534034	-0.19359497462799782	-1.347684191467014
Si	11.050026524781948	5.430836576811096	5.7923170997555165	14	-1.413283372605272	0.8587003259283755	-0.389557937255852
Si	12.262566585967235	7.147353124334808	6.935502300436116	14	-3.0700568467918674	-1.9295893459389957	2.116380661668818
Si	13.5163165642659	8.149976107732009	5.575428785988864	14	2.4337355337716113	2.0481908348099784	-1.003829965271582
Si	15.116824595120686	9.604510682187168	7.007538405547944	14	-2.6447474329488245	-0.8192462005696394	-1.226094306882423
Si	13.426307995302574	5.480886476144375	7.97686520591466	14	0.9747361088003825	0.9483791939424803	1.2955272631635542
Si	15.22118188522404	6.679370315601323	9.303870036873851	14	-2.151957817315303	-0.4144976588612884	1.3812972797594378
Si	10.31047426226347	7.966643976472896	8.477835448299624	14	1.85819566474072	1.0702536998860115	-2.2329316940469823
Si	12.05983199373282	9.293941306843776	9.395958601653623	14	-0.47843050664155856	0.6041503577019032	0.3054282858542227
Si	10.547577535371227	5.530725125902548	10.872918131004864	14	-0.5275072507714811	1.2798201236522375	-1.429293388323302
Si	12.183510494974895	6.775440122373516	12.019434574985242	14	-0.07692284318925426	1.3884966317663843	-0.18109220367718176
Si	13.586532673038334	8.116517425028364	10.614137401497564	14	1.323202126608564	-0.5633168343389073	0.7903644602873519
Si	15.0336572623974	9.568273255072487	12.120411871886867	14	-0.6203439503397918	-1.1546394333775276	0.35113508224102713
Si	13.633966327633738	5.744493445944528	13.437959221868148	14	-1.3237574853577159	-2.4673509360588235	-0.4663794788954924
Si	14.939001202781698	6.730622712515987	14.815355201474254	14	0.5605906913679544	-0.21014029447368274	3.4582775521707108
Si	11.188671245922059	8.325817004058443	13.517242812402912	14	-1.4711761797674503	-0.5675661001015161	-0.00841342793912056
Si	12.552839752132943	9.647703095313094	14.943794943139919	14	-1.962022811110536	-1.7968953716977494	1.559340409637456
Si	10.744364639567989	10.565956248405623	0.0036887425807319994	14	0.925066982004698	1.9078434513622478	-0.9597897593532976
Si	12.018622076619442	12.165668030861928	1.286314912799928	14	0.32255287572853697	-0.781389245835779	0.774097076926775
Si	13.450552946538048	13.450357946930255	-0.018427462936344	14	0.4209632174098648	0.7831933904389269	0.3459553334630568
Si	15.802784465430996	16.04424272977944	0.577085089293108	14	-0.5457988653506105	1.1521233497112309	0.8590006310297689
Si	13.46784291176227	10.793537040666203	2.693578332332844	14	-0.5394130110669587	0.45568650897952856	-0.16515392179758379
Si	14.76951404367582	12.236777887836743	4.07216055955302	14	-0.12391776334145287	-0.3893712750096093	1.068300688284827
Si	11.067933988764178	13.55396773853707	2.958290299910484	14	-0.9576827385434363	-1.2635679098130495	-0.6025716990353321
Si	12.414828779718155	14.902650025895808	4.18176658909944	14	-0.18962287401890104	1.1453590287244533	-1.1497851865330881
Si	10.816026995431546	10.778327071258428	5.31690805595862	14	-0.7777565311289417	0.35305132703613346	1.8139970787347144
Si	12.184826742327491	12.053933255597112	6.762878897638248	14	-0.29143041715974055	0.1062565837868237	0.15347441877027915
Si	13.410431777234843	13.620251355219036	5.643467399140956	14	2.217762943989705	-1.412118919005777	-0.2336738785795301
Si	15.044187241218168	14.942104946539056	6.673179078053928	14	-0.9863058256305168	0.9255410938257332	0.6547983042929681
Si	13.457914181732194	10.76698459407186	8.162423582696062	14	-0.419353191258388	-1.056123419267542	-0.5324378594439291
Si	14.805881470529027	12.070443222390168	9.349288695522072	14	1.4716826875155193	1.869181740663181	1.2906989844828478
Si	10.982670410257127	13.559638977130355	8.063607531447468	14	-1.1334856643560094	0.05564488978077279	0.22895178654854612
Si	12.024423314951255	15.027206025372948	9.55733702706882	14	1.5488454148311435	-0.15937484836948695	-0.7843622149174662
Si	10.902574321356564	10.88170936332282	10.747988382279456	14	-0.5029470243112985	-0.7910717713609245	0.4147295725611657
Si	12.328655203041407	12.284016542824356	11.936267242261955	14	-0.9547413940571869	-0.6780143568917772	1.4953857074619648
Si	13.599305147348712	13.673339998440408	10.680729767558532	14	0.8100835525402276	0.42235572805125693	0.4134458196748158
Si	14.920687489616567	14.927252476412232	12.353517653034887	14	-0.0026022156945218707	-0.4682949523590027	-0.8985357462060898
Si	13.49408660897761	10.87654187371633	13.448294201081124	14	2.3745672012601076	1.6058599324159593	-1.4001974749678465
Si	14.935036210756596	12.093615675782784	15.02735227507879	14	0.17395687219270678	0.1753200722334493	-1.0100556396937888
Si	10.857724411564403	13.316783215592736	13.557542731346592	14	0.8852922398125391	1.7242241082658922	-0.29592110971191116
Si	12.085750691601838	14.97470238097495	14.990497349206104	14	0.937241422806131	-1.1609224434483736	-1.3733705620574215
H	9.47672743920107	6.962456121223165	9.285226449372203	1	0.5061285100344498	-0.7353471773152271	-0.6715575401012893
H	11.413089794542946	13.988457739635548	5.078231786014674	1	-0.06055518672119158	-0.10697803593965724	0.07574630539475449
H	14.33508254245968	14.337950661690956	0.9842702703105096	1	-0.673409507263392	-0.7891789236242316	-0.5447606530223347
H	7.641636505169237	8.694164763190605	11.364255392764901	1	-1.8272464986705015	1.592485299651081	1.6381620141056394
H	0.761644093084578	12.636793583274326	3.7315579946161965	1	-0.3697087470737769	0.25303481586130916	-0.1935890610857615
H	14.896192288884428	1.446864589882008	1.8177798438500974	1	-0.1608774023185815	-0.7402798428719314	-0.15006873266321097
H	11.460863073455254	4.679615212763	11.592034434626738	1	1.4249052828734052	-1.342771837642339	1.2309698939010199
H	7.095577478472568	4.580063037994989	7.49768454470372	1	-0.3209495344508926	-0.33709967540887076	-0.5616389310069788
H	16.77482176034602	16.06573168655812	-0.6230578718268035	1	0.20150060926638913	1.826130124740493	-0.4943379352573147
