221
config_type=vacancy dft_energy=-23088.11611305871 dft_virial="-140.18843111878618 125.4119533247827 -115.15807030521694 125.41195332478271 62.01958285370457 31.309963646394614 -115.15807030521694 31.309963646394614 -66.39409266650136" pbc="T T T" Lattice="15.643796548640687 0.2999435830999916 -0.31175916304575463 0.5469439781781074 17.12079099118535 0.27653152005514203 -0.4762695953502058 -0.3266264490702246 16.2893654073727" Properties=species:S:1:pos:R:3:Z:I:1:dft_force:R:3
Si	11.746426721042022	15.69344389409756	14.860129382471062	14	0.058380031620346315	-0.4546745219255183	-0.12972717581232746
Si	1.4224878420240032	1.131852744952806	1.323916170704291	14	1.40477018577973	2.3413395216551742	0.8112534054608949
Si	2.752181909570646	2.8189548035502314	0.10325721388363479	14	1.0422481922968307	-1.1349697063467987	0.13804213041768632
Si	4.171211151372115	4.286844207138014	1.2764363190520387	14	-0.7388287110292397	-0.08303436053524624	0.11028679137615581
Si	2.5727368972102456	-0.3299082068379418	2.6263561555018655	14	0.044430756816414924	1.1351540545982535	1.129903343313447
Si	3.9144531217295175	1.2498661314600965	3.934012210227815	14	-1.245575829003717	0.8004658188691497	-0.48980944745693783
Si	0.01531486958268036	2.5655301759320683	2.4725892935719394	14	-0.36423126429973335	0.23001031060885108	1.3386272158662602
Si	1.4004232245862136	4.067224657984543	3.686791153325547	14	-1.723095135919815	-0.26456056679046897	1.2013574454867464
Si	-0.10425410453601243	-0.039504726433231184	5.3077369190690336	14	-0.28734981590613345	-0.24866110860120527	1.3505232059615213
Si	1.1787989392856535	1.5264555556818602	6.712545210543727	14	-1.4863732119832493	-0.05123004483554652	-0.18276085102995784
Si	2.470057160015351	2.7585904923359306	5.241165907183886	14	1.1102883808260373	-0.4118908151771903	-0.23858031886196873
Si	3.808294439604897	4.098355189942306	6.646057142464821	14	0.19126041099730337	0.9533010608568401	-1.1000286421565184
Si	2.3109380751166153	0.20530313520064436	8.115945022289788	14	1.2825668354657513	-1.9740820663936263	0.2822574847090482
Si	3.7347451931531057	1.4452613942585386	9.495457017838214	14	0.47883468439788573	-0.030429031463952514	-0.384921720142561
Si	-0.14599048885039034	2.8663845759232434	8.322558043638061	14	-0.26489069671357596	-1.1836240178726212	-0.9467794522122844
Si	1.1640865860313332	4.188396169038926	9.656668477622711	14	0.28433956579730413	0.6447738217602428	-1.10849452064417
Si	-0.3685615855240876	-0.1764825099978402	10.867510330734786	14	0.7683182606092102	-1.1311325887670098	1.956839719895649
Si	1.0489355433281227	1.1892248192324977	12.241934584507893	14	-1.0907729201145175	0.8818135343143787	-1.0258314277171532
Si	2.312129022976049	2.7252376923618775	10.905745860434772	14	0.9026551711500311	-0.5092017522236227	0.6419574329925526
Si	3.5712692109604625	4.26849328125139	12.222179873825064	14	0.226327973569335	0.47858425873970334	-0.7099701106948336
Si	2.2897091556511486	-0.20022008835775187	13.399811339913427	14	1.1827999786175136	-1.275548232162811	1.098562083681906
Si	3.660336774066848	1.2226605630127927	14.814740340727093	14	-0.559542194618398	0.21180225695262644	0.0732181375334529
Si	-0.1609109841090532	2.487187403470493	13.794913378457407	14	-0.02049222362264422	0.9507281557629679	-1.3216260390473131
Si	1.1453021613837846	3.9100336253365597	15.08821076483867	14	-0.34570979290498266	1.0937116934954467	-1.1280565183619846
Si	0.22634895230138882	5.601580219966563	0.02126491394742088	14	-1.0918337581696105	-0.931581391554357	0.3648221043023034
Si	1.4263110819985063	7.026479692281484	1.3070253688030167	14	-0.018128606501832092	0.8653191223540329	1.1475449824676434
Si	2.8501479346070457	8.531648424331253	0.20639079454664505	14	-0.04337840340887832	1.2981590465692574	-0.137290082111543
Si	4.2047392288235095	10.127193040657566	1.4691038261093599	14	-0.11282678632193009	-0.6408572570260612	-0.7225862673902683
Si	2.6593020613320912	5.549673047033972	2.5943774057519686	14	1.5738854095440655	1.1470353893931897	-0.02317825735060292
Si	3.8860221759183022	7.0487681014983785	4.110529149730133	14	-0.07226374323861393	0.36750556692494196	-0.6416278172905097
Si	0.09487988945321502	8.466409208278405	2.774108808990525	14	0.09987690015594025	-1.43380799215495	0.16487007177023946
Si	1.4080634446253149	9.815951885156451	4.120377552988237	14	0.7172280839030797	0.8491656389591385	0.7571912881152053
Si	0.06958985343685341	5.465154873451073	5.219276567223437	14	0.07759313034621687	-0.4507697842758095	0.58440735416955
Si	1.3543518526625955	6.763618250481473	6.746434797792137	14	-1.0306409373290224	1.3874699894120492	-0.10757838903191183
Si	2.6504912381407477	8.424938870134989	5.603392463884073	14	0.3685239817422526	0.25653151909671057	-0.34633405727671457
Si	4.222212202345951	9.884026840396286	6.867672037900523	14	-1.3600375811987293	0.17152177834399454	-0.8104939009493233
Si	2.5856870858262972	5.394942158978669	8.043192349373413	14	-0.11597253368113127	0.7150004782537034	2.1593975676696835
Si	3.84121217584055	7.052766618950223	9.556444190088067	14	-0.26922609450440965	-0.32902434781934964	-1.6191024103673817
Si	-0.09818042695064735	8.202305174362243	8.244025908901857	14	2.797647981011646	-1.301155926930422	0.834623467268381
Si	1.3381465108959232	9.731419626776269	9.53473012760496	14	-0.16895761500821085	0.0041837025769449546	0.5180520109566364
Si	-0.112052387300216	5.415626466282398	11.1243528691611	14	-0.8250365868611447	0.20239792502312082	-0.14409142701493072
Si	1.121342356222244	6.920189552048857	12.394635696776486	14	-0.27978562405425783	0.4866295043969787	-1.0333323703781534
Si	2.532266579674162	8.289544843776357	11.008505411480956	14	-0.5733598288299379	0.5491909245994819	-0.20216086911260314
Si	3.697135654443626	9.701963620718102	12.473056718111875	14	-5.468730474423151	-6.053838454792442	4.540714948837308
Si	2.3455381621392477	5.651103932202811	13.71900727592637	14	0.8794679149308077	-1.741949822564057	0.9208645103589158
Si	3.704037205113932	6.9798073690069815	15.098938685438434	14	0.49387796451554017	-0.31690878532974787	-0.6928187813251898
Si	-0.22647728045444215	8.179448678321465	13.717514287414017	14	-0.8399654527920526	1.4493544375837573	0.5443916994088934
Si	1.1181138076887196	9.714583599086664	15.06751863264756	14	0.34587742897185625	-0.6644808298181137	-0.2913088038780975
Si	0.353841407382386	11.403671614101462	0.18876601820900493	14	-0.022148015448819582	0.2702769052487542	0.5976418616944803
Si	1.6437928719194062	12.871465554063192	1.67607835725465	14	1.0706301097048814	-1.2886852947961078	-2.412078085217876
Si	3.031330071966095	14.205990707079051	0.1498152938023698	14	-0.3778414103119372	0.5132273318233785	0.23876235311863517
Si	4.362094584106499	15.536448483634109	1.5639680657878123	14	0.6455387255929869	0.2036773070304265	-1.723837414025742
Si	2.955876247925695	11.445046488618823	2.883463175121669	14	-1.087952160467783	-1.197705190379476	0.3570144287766097
Si	4.298188728863423	12.727888260481196	4.162179666356619	14	-0.20101132792396495	1.62414023413168	0.6035268646617672
Si	0.42446258097609474	14.292892341358293	2.7508767183554452	14	-1.6951829594537553	0.785106807018181	1.7664311160909112
Si	1.6592266797902824	15.589704667151235	4.264590227425597	14	-0.1653899492659734	0.2703481248661223	-0.3158811145332847
Si	0.06608430389003102	11.141023009238225	5.655152528933895	14	0.314011663855005	0.1017316955338951	-0.6504773046919272
Si	1.4219463598172173	12.60422843523956	6.919036163648853	14	1.3850562357374943	0.05767246343624156	0.10866133859275819
Si	2.885928014646778	14.200456946722994	5.571698540034855	14	0.43275662040285195	-1.442961898426273	0.7568963823349842
Si	4.192458850567297	15.55257870648192	7.0688968417980345	14	-1.3757082110144998	1.29931167308428	-0.40762740833532074
Si	2.8650919045278527	11.131277894493552	8.332251514126014	14	-1.2260264297019712	0.09081658211827046	-0.9981871604254531
Si	3.9283548166511353	12.683153379322302	9.643758978421042	14	-0.2306008935008891	0.49438858603212166	-0.7469924846417739
Si	0.4397821454912039	14.245014985427071	8.269599205841422	14	-0.32232379024451174	-1.2311334161993812	1.7217669029114266
Si	1.6790721591667352	15.72259629452533	9.775802388003001	14	-0.8602370755782281	-0.024602906808496968	-0.8891342424924364
Si	0.12734691217570498	11.294526954952138	10.973446786057778	14	-0.41092562224000667	-0.599927831434624	0.00273745583436166
Si	1.2855695276034922	12.804554942065696	12.408928636067168	14	0.06743340767365173	0.019758687274805974	-0.27373144235690516
Si	2.7780932416450828	14.106204613237761	10.99675399561172	14	-0.6932854369407968	0.04480510975102848	0.6715953353494956
Si	4.153919715236918	15.410366073259222	12.301890436600889	14	-0.6892878823890305	1.816038793469444	-0.1905667267819274
Si	2.465850500559164	11.286723977255507	13.757679434342231	14	0.15725317225930074	-0.21627649443074815	-0.10147355655975222
Si	3.9509280517687095	12.64792573633169	14.985917577080412	14	-0.5901020953431462	0.18190827250579675	-0.02238430002774119
Si	0.07187315557471675	14.169215301364417	13.977647973472907	14	0.050867004764341604	-0.7424238875984028	-0.7663215402175833
Si	1.3787138570355346	15.625591165659355	15.132876786988607	14	0.7114744644176523	0.37717523692348687	0.6118726725309679
Si	5.220666267222356	-0.019618557642395357	-0.06771501042029393	14	-0.043174257646458554	0.5773756382294771	0.545636371494377
Si	6.528790250213707	1.5129638848590226	1.3552736243961125	14	-0.537716595776725	0.5842080935072386	-2.816721211608101
Si	7.878311017407087	2.8824193351450034	-0.2680258674716689	14	0.32093513626109976	0.12624435654565486	1.7375367773925547
Si	9.230698823336978	4.34290013536017	1.2963443975275422	14	-1.2316808045220407	0.6327585323781268	-1.516700170565992
Si	7.624914559383497	0.1523302126067196	2.632431398064707	14	0.5771118428236299	-2.3799109865575034	0.8906655928211166
Si	9.120430510359697	1.3997534142263743	3.762301316555092	14	0.5477050828349682	1.047670139195959	0.21772891182609977
Si	5.284497003546572	2.8239345618796907	2.6784886851910388	14	-0.66083834491106	0.41295216745334734	0.8345514763194167
Si	6.441444162331208	4.2685637052378205	4.145126106797813	14	0.5264695526642693	0.6841862952127927	-0.550496788991585
Si	4.953122412813375	-0.17175314806458247	5.3437564406626334	14	0.3674556874817311	0.10612957118400838	1.447821030370821
Si	6.314178628984267	1.333842822836208	6.670830735914017	14	0.17314903090111625	-0.6012393522584315	-0.9100216450027874
Si	7.680632452470782	2.5926778402127506	5.120110204462746	14	0.3565786264248446	0.5989297283493423	1.7829898056842608
Si	8.985488762491702	3.9257178296036375	6.783213333461724	14	0.036682730934148686	0.5511624481589714	-0.7932780368361436
Si	7.466219583380828	-0.12137026319386804	8.066657621652455	14	0.1927058864082906	0.1257144517391723	0.17011229840748937
Si	8.925758267155286	1.3407334186641808	9.258722875004365	14	-0.7902387332371966	0.471146565269579	0.3614241315111957
Si	5.1448258937453195	2.8519711333668885	7.904632373580304	14	-0.3635933730698046	-0.9293350168361437	1.7848237751091223
Si	6.383888985686793	4.14176297020133	9.414704180063199	14	-0.49468297759127855	1.6608332494871092	-0.971862898605117
Si	4.989475274609418	-0.16275609255356374	10.788031384625446	14	-0.5186773037704965	0.2681300323064305	-0.1273386189699099
Si	6.176125705893468	1.4203954671382437	12.119827216922706	14	0.0016866450900171396	0.4576924853503081	-1.355188219454398
Si	7.604710700164981	2.7915911723778257	10.665199432468752	14	0.5121798635159502	-1.3551812774700336	0.5154155995613565
Si	8.953251791458221	4.242815130820915	11.88953921631357	14	-0.28889479309301047	1.1146289208275113	0.7837549198408472
Si	7.508192279294121	0.02303803342802346	13.230692048941389	14	-0.345819064881089	-1.2170231902024087	1.4804064478667818
Si	8.773592377183576	1.1450048156632953	14.783043286922926	14	-0.13339202933566652	1.31590738659424	-0.6148798373134131
Si	4.915295342234694	2.862118447322959	13.413831973123239	14	-0.6571889180196417	-1.2742336260126195	0.5080275284239111
Si	6.297359816046902	4.092117189721934	14.704763113560398	14	0.323838171278079	0.7664326119674135	0.11080615465082572
Si	5.45639412953897	5.65781612059849	-0.12237967366605573	14	0.5503322382510956	0.7346684055107082	0.7638843894846148
Si	6.800548588966255	7.092592165766087	1.3750705894708015	14	-0.7913129410399545	0.6353080404135857	-0.4544390086781927
Si	8.111192185694385	8.710553519462344	0.00402355709146446	14	-0.27152106311317387	-1.4304308453169354	0.7204928734386037
Si	9.217108558933136	10.10610966409739	1.4461330867128157	14	1.8259241792043495	-0.2775161093881631	-0.11154509031983628
Si	8.006415378681304	5.700353773380713	2.810194059638128	14	-1.1431962149291448	-0.8296026127991957	-0.5593511614931109
Si	9.207707739233241	7.025329433836433	4.199061490539638	14	1.0795572444869677	0.9296078111106114	-0.7949981062953227
Si	5.307827687762656	8.509594761735798	2.742602682438459	14	0.7155321828339101	-0.3553596653925624	0.20804921451680627
Si	6.741852543741648	9.884551107850834	4.14406035713648	14	-0.20067348468489749	0.30368070556811805	-0.052200122872838386
Si	5.204953893360705	5.7850644391931905	5.510883515307391	14	0.1858037541763531	-0.7761477905301251	0.18789020614365326
Si	6.708681281154841	7.130763531389545	6.868258904454121	14	-1.041370674051064	-0.3870863337115937	-0.25349401527148757
Si	8.027838355353826	8.431773126773818	5.503651754389594	14	-0.32771668365352236	1.7164675977360695	0.35413710481283195
Si	9.233426579078097	10.206902038455915	6.781452733800931	14	-0.10283521393730266	-0.939688086628784	-0.28427760215908854
Si	7.8375496140604195	5.548674591404118	8.05639919429557	14	0.1364027936655599	-0.1620601107658496	1.083469952563169
Si	9.054803179892735	7.223142586835696	9.464036965047342	14	-0.7994219501091695	0.14310206568773776	-1.9149415018195806
Si	5.3080921689561436	8.448238254801549	8.208622988433904	14	0.197816729563681	-0.0818997317574649	0.9367570265638151
Si	6.441948085078563	10.133648572747138	9.552373683672315	14	-0.11486078774069924	0.327589671050707	-0.8095585328338534
Si	5.095352260788312	5.640366621738191	10.765091944778428	14	-0.24498108555647732	-1.2638617871511422	0.8131611656084448
Si	6.289697686323133	7.078402514988838	12.161698189300042	14	0.22278910420668321	0.8121394083542179	-1.4316251237381443
Si	7.652896356659026	8.61661574644984	10.667720611183007	14	0.4697000614164637	-0.4814926930778548	2.427441725058421
Si	8.996312146717516	9.968197588979454	12.322991027913304	14	-0.28670523980237234	0.3853621504839024	-1.7867261359354998
Si	7.535964369587831	5.676999614502485	13.361441222150484	14	1.221216148758506	-1.3108322818027993	0.5557279598759582
Si	8.853522036806078	6.958375002469601	14.864376731341633	14	0.18713121585314554	0.9586787847444617	-0.9350487841891086
Si	5.104066055376128	8.355275462756753	13.654863544106899	14	-0.062129474508718266	0.25222183235907836	0.921007206704184
Si	6.459043899029227	9.810544887975974	15.012304662307633	14	-0.5643715017412322	-0.14882431768825932	-0.9802115346901698
Si	5.587050969076966	11.472294311457988	-0.012139530283348821	14	-0.7076532876908482	-0.363131859664838	0.6222010597125348
Si	6.821595971044476	12.855795434593402	1.3102022730798244	14	1.1943979776061695	1.0750971480881066	1.1069749973999625
Si	8.413514534558294	14.476461069368638	0.2021450106535517	14	-1.770906382011161	0.06686185096098281	-0.2190196066968141
Si	9.563430249542092	15.935090501229391	1.578599040213367	14	-0.44921066600967163	0.7585580877033961	-1.1409148731785774
Si	8.055064268508321	11.468926479929078	2.8309081015139053	14	-0.9481709344115485	0.38055392642469343	-0.01133703179866094
Si	9.364732884268742	12.99113781669532	4.0859214438934215	14	-0.1618341106082086	-0.48364059446230656	-0.4385950863638442
Si	5.6704642685616236	14.26587457020814	2.8816587560915408	14	0.06783038633508258	-1.2239332928608386	0.05924160901312794
Si	6.860546695451111	15.642031254047465	4.349048931864396	14	-1.0528208344838117	2.221707276661344	-2.7580336757914647
Si	5.497495132997987	11.39359315915435	5.559048827094245	14	0.7078648896586964	-0.5037494662817167	0.31576361502015393
Si	6.750060850604632	12.975879286301785	6.904835558029269	14	-0.36811697577007313	0.016115431036156144	-0.9538489634005634
Si	8.131871798065685	14.375117822938469	5.427573504336166	14	1.6188668971200564	-1.698873781140828	3.0646958350888265
Si	9.370876985840537	15.904183761050732	6.8474900883666745	14	1.2606350499743564	-0.751873728092075	-0.41339953977905314
Si	7.970431851569657	11.612979526663857	8.230964606884992	14	0.30905817234520777	-0.7581202284673748	0.4155790657589427
Si	9.514476189107201	12.946927202990974	9.453007003794662	14	-0.5629987886108051	0.18515043631450345	0.6410377486195357
Si	5.352637687840409	14.129009465021822	8.394673770721598	14	0.5630874917443501	-0.2504392850406197	0.1672840825553265
Si	6.765673065907802	15.448404415797196	9.736555882853354	14	-0.9314870319891075	1.6944913321226356	-1.1817152292829431
Si	5.174488476830352	11.536459952962122	11.081686888225825	14	13.416473390195192	20.034341132610752	-11.151756149517343
Si	6.565395073383429	12.808991653210894	12.366231355582368	14	0.8843327033070598	0.4370994743991141	0.6903777739342414
Si	8.106614626576324	14.231714241856336	10.949436901616998	14	0.7312681187248122	-1.582643108485554	0.7164544383122472
Si	9.355978400266544	15.724219176168212	12.248654597790953	14	0.27493986185737473	0.1733770879430134	-0.7035107227990257
Si	7.766829846885707	11.308170428590174	13.77419933658163	14	-0.20055958471921492	0.3914885802407512	-0.48657731095897977
Si	9.048075341722292	12.760613504487267	15.110857553897631	14	1.1694142900997588	-0.4497469985794545	-0.6708270890798353
Si	5.266527932164155	14.20951816631054	13.781478046823715	14	1.1021068665867944	-0.8912818867663561	0.5452494201436948
Si	6.689765398399286	15.658801552683066	15.006129261186311	14	0.5495850750450605	-0.49010152502130666	0.10966047012016773
Si	10.468093649288758	0.08667001761275506	-0.19310257079572138	14	-0.5332616415885045	-0.15242643624178678	0.9682985752997958
Si	11.725664164864483	1.6483203517582263	0.9799388163547716	14	0.2744019866243998	-0.17938318997087932	0.632709681377044
Si	13.124883921771453	2.848625211522645	-0.5720540417846991	14	-0.059419015280218146	0.44934950569695964	0.9200427850985965
Si	14.343824533323174	4.32027525598588	0.9325747730357627	14	0.2014710415552074	0.7773307560879251	-0.05434699581516204
Si	12.975630454883058	0.18374557046516288	2.371687370790076	14	-0.18919067121458416	-0.15067319952397779	-0.02399509751081396
Si	14.185574010923762	1.6452326511975655	3.765717662385767	14	1.084236399059105	-0.421401333756418	-1.5133754742765084
Si	10.462464425306651	2.9768985903642955	2.508960935097698	14	0.7282936069799331	-1.0645278483380418	0.7165295145875955
Si	11.725282310360274	4.418371174152809	3.9699644377899364	14	-1.479334039837748	0.8612223231369088	-1.3924592192857965
Si	10.387367416130838	0.2331941637825501	5.272610999614378	14	-0.7688931597587952	-1.0210350307424172	0.36890861909814676
Si	11.620247282063607	1.6166921569630115	6.653205959576376	14	0.8210544589412995	0.34820273662339823	-0.9511626725620729
Si	12.974957514568267	3.022671051589948	5.041128921190856	14	0.3098518725575375	-1.0705799731511385	2.7220590272624854
Si	14.288195843952035	4.41091405647843	6.421675366851091	14	0.5551589742686096	0.09515686500921242	-0.20764529387101102
Si	12.95339368992288	0.19412606606519542	7.876384530133812	14	0.24501733814149143	-0.7641643828539789	-0.17327990016191178
Si	14.17296811735249	1.5507549609557492	9.314220106267497	14	-0.8041885222621921	1.7584691742460083	-1.1755780008837498
Si	10.434966206071284	2.798018534872825	8.224166344728118	14	-0.6210535754081526	0.5111907592992893	-0.44894404238797225
Si	11.686444264331929	4.382802366072372	9.480251696678872	14	-1.8681363292400084	2.271775181892184	-1.9914750796633642
Si	10.227735018619889	0.17201919423554668	10.681584746645195	14	0.24812580447355045	-1.5773715712476544	0.1629075470793704
Si	11.435061932320286	1.5350832765084816	12.156710606083202	14	-0.5585667172599339	1.111510684295236	-1.2548593189831758
Si	12.720255865329475	2.95679488970426	10.62589189319753	14	2.42607492547023	-2.3062382776034482	2.8236763086096333
Si	14.155812834257725	4.197260201464462	12.184703358201064	14	-0.36056101145522196	0.667209801004919	-0.7693027368362949
Si	12.58526403818224	0.28332508727958666	13.644763179475117	14	0.41920535270247955	-1.3422270204249995	0.11937564868287925
Si	15.187716727711711	0.4414269368187531	15.852107570550704	14	-1.5117104264711807	-4.078368505747	-0.6536724172732753
Si	9.993905473981977	2.858390670974507	13.466075616213226	14	-0.1780097055088562	-0.6344472343524001	-0.1922752262671658
Si	11.361900800282607	4.200930073646292	14.717002802402227	14	0.03571265289685682	0.7850307023007047	-0.1117939733148266
Si	10.48752910456643	5.8172763705870505	-0.1379918889692255	14	0.2914515002233657	-0.3068089694111422	0.6645083406450394
Si	11.746071471154913	7.213682297991705	1.2908638464056796	14	-0.8787012113243395	0.5856111456804434	0.21152123514113427
Si	13.078272632618523	8.62771613168895	0.041919486679100365	14	0.9318428729654161	0.7503598612795719	-1.017511588011686
Si	14.58023785577439	10.147622256632664	1.0807061510736768	14	-0.3496384418341689	0.5679602505470949	-0.12467623941089655
Si	12.993281835837795	5.759647640001252	2.495808864387209	14	0.7104825319851392	-0.8953378054088896	-0.26408208409038936
Si	14.27248190511291	7.180864720314532	3.781711732193145	14	0.8756307973510186	1.1274253120058884	-0.13503496563524112
Si	10.560740315883349	8.685657857770002	2.853678523793488	14	-0.5473327867846107	-1.0063931001652378	-0.7027992979569407
Si	11.966866318393054	10.064628371111642	4.074140293452136	14	-0.11231256525790047	1.6346663393123664	-1.6546775091296106
Si	10.29066432791778	5.498570272524177	5.495972409913586	14	0.6675273325119572	-0.021935385038843336	0.35550673261687493
Si	11.630371121357534	7.098218259793241	6.686586929145002	14	0.6974020336688858	-0.09353886843124323	-0.3691641869669695
Si	13.091598415828877	8.612546805011563	5.271712702543004	14	0.3016803856290428	-1.7826987565620198	1.2589987985486142
Si	14.44820696601224	9.878331887360176	6.712038157841419	14	-0.9846459200358293	1.680014723617542	-1.942287520894143
Si	13.036346886029518	5.638527773203586	7.963362848309389	14	-0.4196085020166787	0.8468331322127001	-0.08597801901628378
Si	14.306750216910574	7.142882716965702	9.307968021249838	14	-0.3158587459169994	-0.47122087021333126	0.8570093099593142
Si	10.430178939971405	8.56286190009526	8.023101168533188	14	-0.35155185841342307	0.3086753347630377	0.3143685332734416
Si	11.76547562688306	9.928922914235233	9.383547043488338	14	-0.6083759692955665	1.2231280226745682	-0.20690455842827638
Si	10.336973576417789	5.955368418114756	10.727947204379396	14	0.7913599922673132	-1.8314412570003231	0.9723557794949894
Si	11.698995383691534	7.281203251204942	12.103817497340568	14	-0.4083311198614452	0.23862659875773135	-0.2762763224027877
Si	13.067746594113197	8.659316156889592	10.697616375912002	14	-0.01852867048964713	-1.3131907567129715	-0.01413490860804608
Si	14.255836804675408	10.145758368458438	11.938823486995952	14	1.323693979056308	0.08682648377193265	1.094064192034839
Si	12.74483383659414	5.735147917610402	13.426725822550146	14	0.5595385950709497	-1.0305620043956938	0.31360440077229357
Si	14.03309043052437	7.039528474478539	14.89956837985029	14	-0.08028970560598817	0.6239193293979897	-0.8709362161469603
Si	10.276740723311494	8.552414110463749	13.492600419458359	14	0.30692981136118913	-1.105557547036965	0.9087281219162209
Si	11.605126469687985	9.922872711312012	14.878974841240185	14	0.35382600106909406	-0.10587606019944176	-0.026893761648748907
Si	10.75630303127175	11.450165529943671	0.08806754249905524	14	-0.266887674215735	0.899859351224902	0.24192352710975726
Si	12.056106029021828	13.03183505596546	1.40909476478217	14	-0.5463328839256052	1.0440348533838015	-0.8797219401364385
Si	13.47735127892968	14.59841037422872	-0.14399670754563512	14	0.08622895889553023	-0.2626373800109982	1.3747728428990302
Si	14.93004475122298	16.15542211513456	1.0949756157022155	14	-0.4943723880686047	-0.23074179007243323	0.023579349780546016
Si	13.433392626599014	11.606303332750132	2.51798616020329	14	-0.6350997808826536	-1.0132137283585265	0.8919907405031209
Si	14.638675679715414	13.030509520043069	3.8672048867437523	14	0.5177787024611047	0.48448571678103924	0.37541094445280127
Si	10.643029961540053	14.494478655052818	2.8572231977772176	14	1.907139739836123	-1.0217672815375953	0.14293494384192812
Si	12.125933759035075	15.906130593031198	4.115339890492156	14	-0.2747272314473985	0.46527647471314887	-0.7130335826837901
Si	10.628943599276237	11.513212212552283	5.3080358297669985	14	-0.24153066221683855	-0.09519208915209845	0.756958860194264
Si	11.899116878468282	12.955182459178246	6.623325844622144	14	0.8206060581734657	0.2752995594916635	0.7567608850846126
Si	13.326668987605464	14.411639702301947	5.298138912207131	14	0.8322431379629879	-0.5825764700710726	0.929272281866332
Si	14.751443261722283	15.830426372594598	6.748740009614669	14	-0.7477440187268533	1.1011748409082407	-1.5367072266147241
Si	13.146699707790516	11.320690248400254	7.945662953052889	14	-0.4952938722153457	1.406216689632845	0.9257197856454834
Si	14.42443495814785	12.991752852843488	9.372033504195493	14	0.32615885094004465	0.46783858116467647	-0.2940069218010609
Si	10.87253077847863	14.52486112777693	8.208018907128068	14	-0.9170618455904167	-0.8302554164399814	-1.0004489617755874
Si	12.222940452878525	15.862325308493205	9.529390424455961	14	-0.5292175500304436	0.5635896286133751	0.8291968923796763
Si	10.47028931268795	11.36952380556947	10.907329617640746	14	0.45995942891108266	-0.20907328576582127	-0.015978648233124268
Si	11.833070134037682	12.799537624276807	12.329931703020517	14	-0.911750713330587	1.090177195011839	-1.4491924579485882
Si	13.258033770429128	14.43400010048275	11.08287783608526	14	-0.05703688620110095	-0.8628770865209562	-0.6196906324779422
Si	14.407871236539114	15.965990981498143	12.52063985827756	14	0.3034356792311079	0.11185799383729829	-1.452214792252422
Si	13.101753554672328	11.451411252014775	13.551481132025163	14	0.190195459173698	-1.1621192929749025	0.7267799972779618
Si	14.388609493761306	12.944299605808334	14.853088548805369	14	-0.10738247080651653	-0.4602738750917368	0.09682062726188025
Si	10.411648041675011	14.192328453711301	13.607704512837282	14	0.13130737714209045	-0.44495728647855065	0.5882118187117732
H	14.31509937174642	1.485639378123523	15.017019939443603	1	-1.9711849449188836	-3.3738069722036297	5.32666662106369
H	4.395015450297105	10.739581246937915	11.873532626686384	1	-11.536149764627147	3.999773415657521	15.106512339234925
H	4.71843213056352	10.656742294187042	11.456821379150206	1	4.2269948483256075	-18.68272135023019	-8.970164800724143
H	12.226142396794954	3.746524778616915	0.40124457513830136	1	-0.1984265957456201	0.23759018620317968	0.02455816957592639
H	-1.087124123703819	1.530632480565998	14.740662131888328	1	2.4564185962375538	3.6749741652107706	-5.794893439131709
H	11.681755591813054	-0.5681196884093814	12.517725870216763	1	0.29025696469162493	0.08006139145355902	0.31509692741063955
