67
config_type=vacancy dft_energy=-6792.587848695853 dft_virial="-25.000581937103302 20.07236727048242 8.353565496852951 20.07236727048242 -12.347057793076713 7.237320749354751 8.353565496852951 7.237320749354751 -6.058604014932153" pbc="T T T" Lattice="10.861147386532945 0.050169345536143904 0.0745968965451908 0.050060730369362906 10.86690399037234 0.0004235991504459 0.07532461816262351 0.0007820292008232001 10.877765507050437" Properties=species:S:1:pos:R:3:Z:I:1:dft_force:R:3
Si	7.30076502863679	9.429781961839558	10.437137670756613	14	-0.4401220658134802	1.781398805712153	-0.20620650333385618
Si	0.5576063709169623	-0.09814683700664723	1.1068146171384177	14	-0.10016692083605297	-0.10369653421955224	-0.3734872434522664
Si	3.0325560934072087	2.499253452209163	1.2289404245153062	14	0.309114736662251	-0.003963358851008264	-0.3676233235486047
Si	4.448348275487537	3.9494103869073323	2.360935295768563	14	1.0589626908725813	0.13039463475343788	-0.03620707644992129
Si	3.0532385934656467	-0.18050971797667956	3.7652001501984236	14	0.35890676229223867	0.5965691965549146	0.38553235765609617
Si	4.633781518974399	1.1544097832218518	4.9674179852306	14	-0.799413465461613	0.4922707665799156	1.062743244135327
Si	1.6445085695294193	1.3379064182850087	2.7400576215693113	14	-0.18331980932655803	-0.47589385413270047	-1.1284866642820455
Si	1.681334541826517	3.8976758968178737	4.848122689100025	14	0.5876901414423151	0.777363152014959	0.5287647783835655
Si	0.23676042670089165	0.2582879527568858	6.246689591880553	14	3.959142752504285	-4.684713558950182	3.256157563632698
Si	1.861670475536347	1.188325955200887	7.746712835799547	14	0.1350066834767195	1.3952748367218908	-1.1831092825875276
Si	3.1389033755058215	2.7203092119451897	6.181189215553272	14	1.0460788821133193	-1.1498720898929091	1.74241467840594
Si	4.51220639049309	3.9643178185480243	7.9438689142370835	14	-0.5803624912798931	0.28241740745996147	-1.3809470952148337
Si	3.3331637735969752	-0.050103090284407494	9.046960203458248	14	0.291438644696765	-0.16896738520842744	0.004197586545673753
Si	4.449780909537378	1.246947733015928	10.619058299749778	14	1.7663539829313066	0.42292805609552186	0.13881500467692284
Si	0.6401929991305634	2.6635512703921105	9.105799211606852	14	0.36947683337389947	-1.7392892427787676	1.3102288433841605
Si	2.0028680200483113	3.8513080821190644	10.592809272393815	14	-0.785922361625732	0.5475148210412774	-0.1640339483201273
Si	0.475820236482537	5.257052275120483	0.8728358248587873	14	-0.3165868829436653	0.7323376985379939	1.223491834077369
Si	1.9235800344498493	6.660460155884441	2.3754636604771893	14	-0.8060317476662062	-0.32462827194296046	-1.0858765071428274
Si	3.2055018511692595	8.038634561101839	1.005946970203906	14	0.28387908083446556	1.493325737879462	0.27487738399809514
Si	4.637662338883485	9.588909698083729	2.494981617699666	14	-0.9613846159833855	-0.4043669896788409	-1.9089978776509942
Si	3.214890546185809	5.332594123616668	3.708778915662365	14	0.4326501766425978	0.36187227516849746	0.7697287689878434
Si	4.70078078460326	6.846688462392141	5.109575687816909	14	-1.0208524822646865	-1.0390502514996305	-0.09219315190667773
Si	0.5360614664342831	7.8451192630548015	3.8185323693912308	14	-0.14373224360170606	0.6557303299715218	-0.9346862583389679
Si	1.7071154378136553	9.373337918118475	5.0915792408329645	14	-0.319011692371097	0.9918678977695932	0.23361731426248686
Si	0.5816700611172928	5.323680076878952	6.353148747600951	14	-0.1487458989759948	-0.023154088960593525	0.3460838887290642
Si	1.8437620068374958	6.779235185366137	7.779046484798584	14	-0.4699641139328428	-0.040549930446183415	-0.03735636052802749
Si	3.1400807639137276	8.13057947208529	6.3905829648320225	14	1.132246905812762	-0.27404743120075137	0.5363058302875597
Si	4.698622601239321	9.388271417399196	7.7337593910092455	14	-0.6781092306780907	0.6787854313772896	-0.5933362887253604
Si	3.112206853662719	5.358791015692577	9.206085767399085	14	0.9612624884806785	0.6601297482848272	0.3453549803708022
Si	4.636898774261014	6.779653353758243	10.566533091246153	14	0.24837314480534867	-1.1448679476083048	-0.7497237698233672
Si	0.4535736780224526	8.424932004820139	8.926469054341414	14	1.548560536361671	-1.1335923652267956	0.8049724522743053
Si	2.0688680261427863	9.520867726853771	10.375130358193008	14	-1.1102372158301663	-0.6433365738862801	1.283612503999456
Si	6.037986635062531	-0.00627578433660618	1.1219848974827198	14	-1.25166703461768	-0.14261227012424954	-0.8406995033609549
Si	7.350928943414594	1.3567207374748136	2.4778769012349944	14	0.40964264068525275	0.15028856216808364	-0.16361820058985935
Si	8.700715688642108	2.697251298189251	1.1080865007414231	14	0.6740787659782266	-0.1267989439632108	0.09558598248714513
Si	10.00580837889091	3.931800609917128	2.736486354885552	14	-0.286472554770899	0.5460091817657986	-0.9432236135545196
Si	8.858874577598595	0.012196397077838492	3.8195435765939614	14	-1.332094551468828	-0.056448874414383086	0.2648140777750356
Si	11.026694279133876	2.2793392378760045	4.411119340921681	14	1.0209972354942107	3.3420862174268344	-3.9476208582331056
Si	5.9049037296607745	2.685826068795558	3.766621922731587	14	-0.21925049195456342	-0.19847441830457485	-0.4873445287865119
Si	7.181366548097772	4.08645991819993	5.1289211351722725	14	-0.39338965551446875	-0.03729362555821587	0.027735027309501357
Si	6.034750989244124	0.00033779316868891	6.514682309789323	14	-0.4007854399678747	-0.39140990441795465	-0.545373347420126
Si	7.330764537701701	1.4480899880743263	7.795809063487896	14	-0.20303247381613335	0.5274105772114435	-0.5547895064341043
Si	8.74348616901713	2.778776756223402	6.259757082595976	14	-0.08080418378054981	-0.699888035402937	0.5028701482622261
Si	10.24574362691681	3.866478362463367	7.790558606325702	14	-1.5713808958517095	2.055847072232315	-0.5651451473320648
Si	8.553220636760182	0.15214921177849264	9.19421956042826	14	0.3957761554726302	-0.9706385382516625	0.3996220148105077
Si	10.095414805333567	1.2491026579248632	10.56858809020165	14	0.2531394598478392	0.7394396056533069	0.5765598265113941
Si	5.994580755961839	2.7574740635626442	9.227603518090069	14	-0.563379055087655	-0.7207808372344603	0.7860012945590605
Si	7.4728060220595545	4.040277835436316	10.578615442398872	14	-0.8586000528208897	0.45540394450484434	0.5973592972197961
Si	5.905899730740157	5.392101115040975	1.1171699871393181	14	-0.023215538377745065	-0.0025718766517441234	-0.7079417657077689
Si	7.154143242695782	7.037979321823502	2.3345657055774716	14	1.448393358415086	-1.7322878658814727	-1.2058735919815866
Si	8.632997390609159	8.197297424432188	0.7358362565429086	14	1.1840356518343769	-0.8310925683322214	2.4830534475805637
Si	10.105092416693754	9.374565269503101	2.5719952017057346	14	0.05258707422352067	-0.3759423919224759	-2.0458675840426928
Si	8.362147007662383	5.508210728329864	3.8011963026213147	14	1.190604054595759	-0.023938533193770706	-1.2311398439626815
Si	9.967238047015309	6.610232158158236	5.083517823154479	14	-0.4736325670036302	0.010465427095130741	1.1238882424169607
Si	5.94857028516174	8.267530163576117	3.716504712475498	14	0.021445075254291096	0.07167907388881226	1.8444405083884599
Si	7.43585405616899	9.435334369165401	5.195994259114544	14	-0.0821722689214006	0.6440035186063264	-0.35955416661185197
Si	5.872457120888286	5.342256528853506	6.589172763471067	14	-0.014456810994128618	0.8521496637937022	-0.07731827918749302
Si	7.387060864795961	6.803142469726302	7.803905238019752	14	-0.3768667042850691	-1.2299419659940247	-0.15469235136043327
Si	8.782155340694501	8.092204647509895	6.536921265187732	14	0.26968657946724817	0.15521068619297512	-0.700025332427033
Si	9.930942116732101	9.745816254167229	7.737068895141063	14	-0.6208404307771125	0.13877978053403683	-0.29848630148982286
Si	8.68634698822865	5.445899293299272	9.18867041155742	14	1.2497664735650265	-0.4456201174300848	-0.5807540706201516
Si	10.167061713948986	6.902964152604713	10.336252645395417	14	-0.1484522787484339	-0.8868958382007155	0.7138241975697357
Si	5.995251997692545	8.090737256606683	9.071615846317535	14	-0.5196247560809709	-0.4546549815250852	1.0409801231529336
H	7.912910333249496	-0.9165729802181604	2.8787809125820045	1	0.26661925082031157	0.09714561497434696	0.16874112794025442
H	10.041152840313115	1.3461513955953546	5.5614810368776055	1	-51.02874657226883	21.55677075427216	11.64645403951948
H	-0.47044269957520973	1.1400606335384138	5.410665619347183	1	46.78033158841053	-21.26772529440739	-11.571349482012634
H	7.988398960313958	3.6909638560069458	7.204489630953779	1	-0.3934210229993745	0.6061357652301216	0.7042601999998489
