226
config_type=divacancy dft_energy=-23069.23753523434 dft_virial="-57.7811883136229 4.449925747319349 1.5844130239334362 4.449925747319348 -26.35633151147711 4.477862500889963 1.5844130239334362 4.477862500889963 -44.44338396605226" pbc="T T T" Lattice="16.3199774331 0.0 0.0 0.0 16.3199774331 0.0 0.0 0.0 16.3199774331" Properties=species:S:1:pos:R:3:Z:I:1:dft_force:R:3
Si	1.1736511771013867	1.3636483543775368	1.1392160247175456	14	1.0742767083804474	0.2123293335432568	1.4648929125860723
Si	2.9850217923785887	2.4237451284994136	0.038188747193454	14	-1.2778907662199983	1.0655902290563273	-0.40332414936098887
Si	4.192275803014728	3.8631671380988335	1.4271330665922957	14	-1.242670222881418	1.5722774402768451	0.020141781967508036
Si	2.5810533909770643	0.10333809710638919	2.7512870755817307	14	-6.718405673749312	-3.2647735946710457	-7.159935419725574
Si	4.337148242688357	1.5165991828805498	4.417834211117603	14	-0.28151546371365344	2.579655273779699	-0.6602523900085983
Si	0.0178050953795121	2.803445723457918	2.726431749951119	14	0.4261735623411448	-1.207029818044057	-1.352081552896063
Si	1.3646601929783888	3.8572919462229174	4.111181835149654	14	2.3057232852078227	1.805442497113518	1.0766896907234065
Si	-0.1564596236511297	-0.0396085852301337	5.366073859913012	14	0.6121051004519094	-0.35100498431182764	1.2129065934743195
Si	1.3190621760303074	1.1478819327345215	6.8106693023587255	14	-0.3544271254929447	1.0545211064320255	0.4757457584662599
Si	2.786946226273054	2.7351139779455282	5.807186529952273	14	-0.7035204929992422	-0.4265615421339552	-1.7858483605792013
Si	4.171631031561856	4.329412573385067	6.747641549512093	14	-0.7242279181371829	-0.6921528650472715	1.4788511862586242
Si	2.592134655654139	-0.0716936608636083	8.342478704206925	14	-0.9112804581675318	0.27271534153438265	0.5091215337376341
Si	3.998214951357736	1.364382753362026	9.487210881296857	14	0.1282680735431434	0.8760722561344881	-0.5379377108342577
Si	-0.083395084683141	2.742213168128927	8.033459931511176	14	0.7287574343796877	-0.17786598072145993	0.19456608110741777
Si	1.225320225654581	4.099823130856217	9.496790708050087	14	0.10669727123869707	-0.3651692035205234	0.5241236761701661
Si	-0.08739347915425051	-0.0196492528294524	11.11901278487766	14	0.2509738178366785	0.4970386242855982	-0.5224827967548475
Si	1.5465137015154222	1.211431924859013	12.29489979888738	14	-0.8657626380217582	0.6930522376882593	0.7975756393787712
Si	2.656092647214458	2.643330424861774	10.879092796633657	14	-0.21441578551055696	1.301379870203807	0.08781481665699756
Si	3.8062920167444796	4.158624009547675	12.473685151666992	14	-0.038162402045893905	-1.1609910919604216	-0.49837585616260716
Si	2.843902947514573	0.0335538736024536	13.861862432126479	14	0.5285639750580619	0.8137859442012407	-0.6035680023468896
Si	4.646591334797367	1.3191927358497724	15.055081262170152	14	-1.951958219334816	0.04897518546977665	-0.6238825625919115
Si	-0.05574904291146961	2.5074502927537834	13.637479062398786	14	0.6874659971591736	0.9711285909256827	-0.17444718197725903
Si	1.1729983780040625	4.061552783775597	15.224760067542093	14	0.8648496385225737	-0.8052509029804773	-0.9205644623680546
Si	-0.1709517636117225	5.495474960980062	0.2672885903993118	14	1.4788347311845753	-2.0497011020750335	0.7492645704131887
Si	1.4479083978646319	6.68461379666546	1.382595848177366	14	0.13163313618615322	0.3214141331822434	1.7783708149766149
Si	2.873132027097255	8.06228101165803	0.23641119309588662	14	-0.4005378425255444	0.6635881420509584	-1.334382578093228
Si	4.176902384272748	9.657868885314786	1.295479808639478	14	-0.3748877245201511	0.25762835262628575	1.078139279902906
Si	2.9241156365982595	5.458183812545429	2.8903332833117426	14	-0.9127069073991501	-0.886593219104534	-0.7348157298455527
Si	4.049231200813606	7.236098474084775	4.060426705332713	14	0.09959947789189628	-2.5112296765630027	0.36777013366238515
Si	0.21490146283906078	8.175443735179146	2.870537150685392	14	-0.1924832286875658	0.8445587324464972	-0.876367676135773
Si	1.5481946591910316	9.830060967211422	4.216151929999353	14	-1.6908015388776914	-1.4511097311858225	-0.22265437828790746
Si	0.0953739481190364	5.447559507236481	5.286644529746114	14	0.23951388720371444	-1.0779955551155096	1.598931832020288
Si	1.3854681642055913	6.83043279503021	6.791672848626597	14	-1.8282479441926995	-0.6373155594475572	0.6414529821287396
Si	2.6164024620971587	8.185268361593872	5.54742144914962	14	0.7115325713978877	1.74189531513127	-0.5976112655411705
Si	3.9380758345167624	9.491307195632565	6.985668420373856	14	-0.7018916977789283	-1.1154290488031415	0.8904629897218889
Si	2.613807585685296	5.524883560314508	8.292082613893513	14	0.9131823047728453	0.5881719665793109	0.09554587324415083
Si	4.231280549079837	6.820918248186712	9.61968013812133	14	-1.9759088367235913	-0.3332579298395055	-0.07537015268641684
Si	-0.2035427585456232	8.268810326073911	8.069902441119288	14	0.848897215563715	-0.46090970943740944	-0.5405592098186807
Si	1.160839994816403	9.435492872811365	9.532482498696277	14	0.025852978215152964	0.43894064291887214	0.7844709726725085
Si	-0.13096781890062748	5.618135911367243	10.866656973829636	14	0.4081385440729661	-0.7673152724238204	-2.0204599212689893
Si	1.267425767431979	6.733720608761658	12.194466657764083	14	0.863569742294204	1.1914656319885408	0.7850515282537979
Si	2.628642445171984	8.171102621181943	10.830247104176388	14	0.571208842119102	-0.2896643249153308	0.26599421511698357
Si	4.125722935042547	9.556195425906571	12.200880408895292	14	-0.13849593050669246	-1.0303313762484765	0.28417475794628266
Si	2.471546342400963	5.554308479626387	13.79369388638842	14	0.03966855554243666	-0.9226925662415412	0.23859728815708167
Si	4.097962653428843	6.765560884733637	15.016304995789106	14	-0.997439225887822	-0.918889130141446	1.1174293687422168
Si	0.07663861402583759	7.75714639359136	13.982124345830991	14	-0.6208550860774372	1.4296692839211078	-1.064737907642698
Si	1.3513267714155461	9.353044346819342	15.117293016145128	14	1.112122607361431	0.5310772305085066	0.3332509878551411
Si	0.13224077714040933	10.948420060769466	0.1487239543478403	14	-0.43031407034871133	-0.7365026320461018	-1.4262250312342373
Si	1.425696908578183	12.571849815927088	1.1118637425396698	14	0.9945007096174248	-1.2001932489977833	0.4666445598539997
Si	2.716280723987731	13.989615215472785	-0.2525842907320887	14	2.2369307912619405	-1.0334922931290664	4.481103614879142
Si	4.074951485248172	15.363430915791144	1.2396002059085436	14	-0.7787037263288843	-1.1531085972699116	0.6346567794359922
Si	2.6445870631241224	11.114769590745055	2.6721678249860616	14	1.0680415208685563	-0.03246046177740152	-1.1057442092832077
Si	4.115376069349961	12.370396014492902	3.992666159030482	14	-0.3667123809336763	0.22766469122528002	0.120412832569027
Si	0.2746978601539392	13.675341410043577	2.66226159868417	14	-1.0789108686094824	1.0867496545095499	1.7949531587389094
Si	1.4798629136786416	15.129451399332787	4.249803723466406	14	-0.060166435596785195	-1.732104031851082	0.07930857181581966
Si	-0.1471409165368296	10.954164692825918	5.444377111637026	14	0.7686036532997466	-0.5340612553430705	-0.2501310095127339
Si	1.2669688080638521	12.124404994643786	6.823252004959645	14	0.5648990925529266	1.7624970678405523	0.00949740594209499
Si	2.95296935669998	13.660751350218387	5.608947764072407	14	-2.553986900926533	-1.5336656090209893	-1.350968778513503
Si	3.8807927137265814	15.098019122796638	6.929054418658432	14	3.484545506784535	0.1472438592479643	0.5711666759918516
Si	2.5351942543900536	10.906510358721265	8.30528547563689	14	-0.2956354599108427	-1.1636169618238887	-0.6400501870660668
Si	3.9855996088019494	12.27151327122575	9.333966293200048	14	0.7533235743821065	-1.0766950900445786	1.3119260300059905
Si	-0.057952239864938096	13.541223835498363	8.2694957651261	14	1.3922116218434664	0.3040355181022985	0.29519991466960965
Si	1.280791828949688	14.927785438191972	9.798612370697839	14	-0.6910994831976068	-0.3319032144463195	-1.2576836781773584
Si	-0.157161382680753	10.628809622719634	11.21619825049177	14	0.48215860935577326	0.3553784344613995	-1.5479406428689833
Si	1.4966561704573016	11.97318408374868	12.164046219828785	14	-1.2773516054343632	1.7813782368695918	-0.28081895128242534
Si	2.7254525513051333	13.42833855159361	10.734709956283023	14	-0.3533341486213497	1.0157794343575024	2.265228119304959
Si	3.910462432699957	15.039707843428172	12.22560517470644	14	1.0861768122442208	-0.38119387453887826	-0.9154153097433939
Si	2.7284717471302566	10.772474384063214	13.600840713061476	14	0.2997335446806267	0.053172000683854366	1.4839548303191181
Si	4.014437008926238	12.548920247633584	14.768600378309513	14	1.0237413762024048	-1.5142445078747186	-0.18888470968148655
Si	0.0314485965135837	13.861356512826053	13.308174557753693	14	0.6688501661991735	-1.8832323170167258	1.0220699006337766
Si	0.940846699018215	15.45116711447149	14.906308347890013	14	-0.9113416504741514	0.23078781285766387	-0.04432765549307699
Si	5.808802207718149	-0.0803595688805844	0.1301681400064056	14	0.7942969658745184	1.1141470956905155	-0.1824633741444167
Si	7.025685005039818	1.6362735773974724	1.3595030801095294	14	0.09258010325736002	-0.7843426745170331	-1.2050752637796804
Si	8.35861916188826	2.6700625478971918	-0.43541699791510796	14	0.05555027310499134	-0.9205153542564397	1.5670429269555555
Si	9.477875854205124	4.080908277011254	1.0627242904886056	14	1.11227944478596	-0.7917821677608816	0.3775968981959911
Si	8.207332971083424	0.1459658781616464	2.643950584004232	14	0.3244570363286386	0.22161976550707985	1.5669876481911722
Si	9.68422564886924	1.622532156398802	4.004122783188518	14	-0.21575893092980233	-0.8441501838111255	-0.37541480111078146
Si	5.643154436772184	2.858590927204363	2.772862085748289	14	-0.572476397041935	-1.6256857255396209	0.44550338924855004
Si	6.87492105351284	4.29752333748079	3.9503647775238866	14	0.1561391123240806	0.8176125202492172	0.5910541756431968
Si	5.554194239784356	0.2182796981677125	5.649894587452054	14	0.5357095909638174	-3.002409266045047	0.4023941805666913
Si	6.879637526991006	1.6352290988417537	6.909960045061705	14	0.40916004421666097	-0.6624954222898954	-0.22411630877294364
Si	8.079319068098187	2.8644334791254127	5.31146721542186	14	1.1352419864002028	0.2072783971418259	0.6783378019410518
Si	9.366834727750312	4.218404086885122	6.868850021907726	14	1.0944197759006156	-1.4600432937312091	-0.9832783491160424
Si	8.229626060257038	0.1777571942013252	8.234048774141408	14	0.5130514682194806	-0.07730259544504012	-1.3797697860887377
Si	9.568076369477868	1.3161735400246488	9.77445880409685	14	0.11624147129761878	0.28008618626618315	-0.016676446217012454
Si	5.3819205580005525	2.789720622436681	8.18605172051066	14	-0.5211121405086767	0.7520933004864157	-0.00856640870566937
Si	6.666906621150547	4.077040442359609	9.665881994234438	14	-0.1664962958852331	-0.02735398950105541	-0.24331140976157314
Si	5.426033457002222	0.0955861078256667	10.689275139109272	14	0.039054832702517306	-0.5808070353897467	1.5524231078841295
Si	6.829894235774917	1.425729548533049	12.205678482260623	14	-0.8612989420754492	-0.3265936248496817	-0.1901270677721821
Si	8.134692751528695	2.8391211941266747	10.972002428160296	14	0.8372678490901532	-0.11071950840153673	-0.1089498166096788
Si	9.497557746989443	4.258910270874075	12.33991029664787	14	0.07383957368933268	-1.6833404483491536	-0.17056147050691922
Si	8.15847095864872	-0.0532194464093391	13.469579134567054	14	0.40677868646913984	-0.6399923371963634	0.474707289027452
Si	9.754842191222265	1.0342132899129801	14.744348891843927	14	-1.5087400284948136	1.0687547454843653	0.27977302563818907
Si	5.495540240889794	2.8873467274414852	13.55458989701607	14	0.585621430101724	-0.03623304461365479	0.19670421229165289
Si	7.051682729090746	4.217996087449294	14.892958606349737	14	-2.0988778622019097	-0.7225363879470574	-0.03284072825425142
Si	5.406482124037368	5.254445214270608	-0.0132518216756772	14	1.2328547712112206	0.9227763842749779	0.1546455572436066
Si	7.005448233022774	6.8905392719163165	1.2214034310706372	14	-1.351023028835758	0.10500034172739933	-0.09377746700495299
Si	8.150816889232598	8.512891908563354	-0.22162529354149801	14	0.5639398131579793	-2.1441370291524766	1.034857807164597
Si	9.478349133550685	9.542584564727365	1.3423834237822072	14	-0.7315769084737621	0.7118405898152415	0.2113343157843595
Si	8.371919943496238	5.4611377284608205	2.530689940618518	14	-1.0447200529516212	0.19835460479665595	0.09295394197090955
Si	9.495958389200998	6.7935333260539705	4.0317688249601895	14	0.8622183693379342	-0.08624721374330327	-0.46377032121660616
Si	5.497596558046365	8.266639769075308	2.697724909646296	14	1.1191764348072573	0.5868637881924196	-0.8024152309228859
Si	6.809902263419369	9.556146465974273	4.349943104995907	14	17.583927867069466	-8.435463340156355	-10.002519893970108
Si	5.426098736911954	5.622982944664873	5.352462998733807	14	-0.9813821589424334	-0.39417384263711386	-2.1541082898050745
Si	6.66276134688254	6.7466297109112405	6.733916448490856	14	2.3782266554622744	0.6079059712430434	1.000735640018784
Si	8.205031854265355	8.027976419093655	5.409892999320886	14	-0.5989477260865835	0.9977606140528407	1.7386564937594795
Si	9.562951896563874	9.595216491949113	6.78227254162513	14	-0.9158469983266468	-0.7630451807081184	-0.012887408306710231
Si	7.999024779127335	5.39469910033067	8.213779362169497	14	-0.6328428646326276	1.108091114219439	0.6910069234060815
Si	9.40283659796773	6.8914858306074365	9.461702756568922	14	0.377803100842667	-0.7145757316548149	0.8188849602721585
Si	5.457123014012277	8.03558152857748	8.142754820380647	14	0.2921526406441701	1.9869275656836185	0.923576255140076
Si	6.74831066858685	9.542829364388862	9.739354532638254	14	0.7761724731411985	-0.7519120375613453	-2.1454976580878986
Si	5.199610090095392	5.317326087320343	11.060016066457004	14	1.5930604559111978	0.618105803158603	-0.10939461783006442
Si	6.821081447961044	6.737425243638972	12.219729982830522	14	-0.12006753312453111	0.09955165533294152	0.4037162429223114
Si	8.229120140956612	8.266150169752315	10.993153118913593	14	-0.7500456722094497	-0.22352778276516175	0.1992652903010524
Si	8.322747851490307	5.621220387102098	13.721347426427487	14	-1.1241088432534292	0.2633835147749052	-1.470116884375549
Si	9.605971357077525	6.844141576074014	15.044962876161629	14	-0.32055204156839767	1.086843499853735	0.8240042880751054
Si	5.391190305182553	7.9524638835107	13.68718971366001	14	1.4478801657931846	2.4290139559616915	-1.7275092095334454
Si	6.811664820982144	9.745784603746893	14.778604524476005	14	-0.9919095496757796	-0.7189309269566138	-0.6685033240914855
Si	5.423683380251855	10.98145169509406	-0.16827528731269412	14	-0.7009198199679125	1.1075344699176268	-0.26710056173624325
Si	6.702843211458234	12.35254195918109	1.2438597200185826	14	-0.7819062951156607	-0.8984730112362782	1.234270164689962
Si	8.318977936703261	13.423997437596405	0.14036812590209308	14	0.3982079068844262	1.9098872229812331	-0.9973554078543853
Si	9.604078239695285	15.090544573132277	1.4837797082625859	14	0.28829829665873613	-1.1941220980053175	-0.7670123962171069
Si	7.91687001272911	10.838129653276576	2.68042573356721	14	0.7027494185137297	0.8069056663645245	0.2131749700830535
Si	9.485888963124776	12.241859872229806	3.9044240410497104	14	-0.00015040966122866262	0.7233434579070518	-0.6350437307866744
Si	5.331540787664572	13.804514031426566	2.6036728796993405	14	0.3157157924611992	-0.1915123793186779	-0.5496496097885962
Si	6.778682146589849	15.0073779681332	3.962131481253152	14	0.4994716612500544	0.560915164859357	1.4449856154237617
Si	4.928355745179838	11.006127500972907	5.709658344812066	14	-7.531372206685022	6.831243258713587	3.8366157000305003
Si	6.6834387582902774	11.96980584842003	6.842166858804608	14	0.2134909589268997	2.1197773489072653	-0.9434408719540721
Si	8.144419458078822	13.443891490087353	5.444067032065798	14	-0.5226812860855631	0.9535170337037325	-0.46252436357846244
Si	9.56686869114782	15.134788031953413	6.582662897640885	14	-2.008631551243648	0.37817513978249245	-0.30522028343382274
Si	8.077605470467711	10.932948722162886	8.210335846931114	14	0.7747560512203289	-1.9930717360671761	0.6405692932302046
Si	9.455207405550548	12.331831907818486	9.435590792675962	14	-0.5908369172436444	0.3290608575148958	1.382915790558471
Si	5.482304739191551	13.410778255875595	8.227830862739395	14	0.43106586154432264	2.4349701785463465	-1.613023288948424
Si	6.82612432098787	15.077880270644192	9.345537157200116	14	-0.46317973832456816	-1.1588881849190726	1.134712338704252
Si	5.424580979010676	10.989676963720342	10.815477524599434	14	-2.284526064506394	-0.8115591098834605	-0.49998948186153214
Si	6.647910167418418	12.198840411716155	12.14575152512628	14	0.45852295236871593	2.6117408684014234	0.08104483923851565
Si	7.977825128441737	13.712697838387944	11.001068307968646	14	1.640498120399526	-0.19981679239222416	-1.0220776139497372
Si	9.736367976767996	14.774410290275698	12.408633721618655	14	-2.0901193919288255	0.06066214470250974	-0.5868308780443215
Si	9.51302908559602	9.713487368406788	12.360636667987908	14	0.5747783076350635	-0.17069285398877881	-0.9103767146474998
Si	9.072357054947455	11.939369090507299	14.742896413852382	14	0.9200738954729702	-0.395166546401223	1.2450289549021216
Si	5.604704569939801	13.853849323206825	13.39839139300387	14	-1.725835162859497	-1.0370090509859649	0.40969920500229606
Si	6.941800321033684	14.846691470326897	14.963232429176664	14	1.0681438508602983	0.15158902723901455	0.4804457389914906
Si	10.951390296662291	-0.044716738166694	0.0042758340874722005	14	0.814761935780769	-1.1527129041611408	0.08529693321697654
Si	12.50420350946689	1.2820321472346037	1.1687715038488895	14	-1.1951130019957028	0.19178260248782544	0.6717683707375415
Si	13.78638253649839	2.628332365600755	-0.1470756366270972	14	0.9279047109465453	-0.4322459988862705	0.2735607209636473
Si	14.876328549345407	3.984604090178531	1.5034452810694712	14	-0.7370893582801595	0.9430076407076272	-0.72341596307708
Si	13.76784304213439	-0.0479970536307471	2.577430355986916	14	1.37282420217689	0.42295865224883167	0.35635699714624786
Si	15.104041194469453	1.4701525271059472	4.045330726207096	14	-2.4360323021541	-0.6081029179105667	0.1821232169105611
Si	11.079600039376723	2.830014646719005	2.408028990231338	14	-1.1245816695218045	-0.7580225264652092	-0.22519103079676556
Si	12.179713398164562	4.160419207065317	3.887239104812656	14	0.36621461494369556	-0.17368922012887938	1.4417190261145139
Si	11.02830635030449	0.0838030841189685	5.2943312391171045	14	0.601958490416477	0.2524714866856647	0.04810100966092631
Si	12.18390763236487	1.3947705513424584	7.054114405728278	14	1.021712002773212	-0.8173654370279511	-1.9381776090398863
Si	13.41875872484038	2.7105034519764137	5.4153112318286745	14	0.6137462369777598	0.1935720917906485	-0.2086256563295835
Si	14.913342258163677	4.113189192373925	6.68255747950889	14	0.0923456184521625	-0.03367813725702364	-0.5216716130263409
Si	13.768251041570215	0.09153875342225791	8.285668862762302	14	-0.6487600634486004	0.4926042389399388	0.394487774596704
Si	15.11487765948503	1.5575623262376308	9.686396205867844	14	-0.6240540553167654	-0.9009492427701129	-0.40116622066578855
Si	10.75876560301941	2.6754155004952485	8.208654889255504	14	-0.356584797077613	1.6140463317553109	1.1199665354721386
Si	12.228526450666964	4.212626814873803	9.628574525822371	14	-0.876641755962901	-0.24799622076541494	-1.2878134329820459
Si	10.976343542157501	-0.298329187477068	10.960986443392953	14	0.3460676907655472	1.802581114002725	-0.006058038355332904
Si	12.428935773545431	1.221550310867535	12.254328334988694	14	-1.8477060692555798	0.4172572262014033	-0.18880706230081806
Si	13.453732436479513	2.733090300743824	10.845718442782967	14	1.7019583361934096	0.3362301275895967	0.6945517063109696
Si	15.036884487332244	4.164319681671827	12.142813929188323	14	-1.4750469788269331	-1.5462557975526905	1.4093968898033362
Si	13.453095957359622	-0.06586742891999159	13.819707930416781	14	0.9165162570414815	-0.9993467289248398	0.4320765630456728
Si	15.279268792168647	0.9016134732690426	15.114763419642998	14	-1.0519826541494433	0.6531088309870988	-0.7098322994496737
Si	10.80888425371646	2.5906658576851602	13.497535255909954	14	0.867789183235099	0.28379706257475285	-0.9808136875561486
Si	12.167832454593265	3.7639743152604517	14.952624443845151	14	1.0868452996274591	1.1287828556149266	-0.9234803529116345
Si	10.971839228385964	5.340337255501013	-0.1639668132703557	14	-0.029888585125657393	0.5596998033745231	0.9055798034516996
Si	12.041222069667274	6.78889845246297	1.3936281529221413	14	1.5688424435691273	-0.5387442665731882	-0.8053596607355196
Si	13.49077878525265	8.176928853125558	0.0706002223755906	14	0.3831067768970685	0.10933213997078484	0.41750199542788136
Si	14.985035919027286	9.583156028626052	1.3635504345129381	14	0.6358312603462357	-1.1031376227096417	0.7573285851393013
Si	13.612999096249135	5.551256643846398	2.7309523837000875	14	-0.2359518778931813	0.07353644037208722	-0.148350205867224
Si	15.079234828771138	6.786907415216131	4.116436867883112	14	-0.2603187572332887	0.6468888129965966	-1.386318905560219
Si	10.769961107538517	8.179654289356886	2.6278754062326284	14	0.08945363918805994	0.1914123633217241	1.3007962292961335
Si	12.18012139760039	9.422926490187876	4.121593980751972	14	0.5886540488268386	0.2030242462791089	-1.1262716570487377
Si	10.84731780057141	5.4460907092675015	5.393654621774951	14	-0.22831698064500158	-0.5482313880940025	0.09674323699174378
Si	12.285222052269553	6.641316896535446	6.757694655610883	14	-0.6458559999894932	1.78572314775011	-1.367996951938312
Si	13.689033871109949	8.120902370597726	5.3321446268295976	14	-1.282713388469	-0.2927923316478229	1.0826677677032825
Si	14.75867783203019	9.629716924242688	6.71888574927497	14	0.07166467569901942	0.17046119739943347	0.3409020830668377
Si	13.613766135188492	5.483218657927805	8.061252853079745	14	0.032502370794119925	-1.7266054660134134	1.2906038535860025
Si	14.821836144696286	6.878609368412721	9.37204080055147	14	0.07857092169946918	0.46929794054439256	1.811145208713606
Si	10.82515527121726	8.014088118298085	8.007707007121745	14	0.8240515964129961	0.8141926930628882	0.5123109898872777
Si	12.35580595466771	9.267462385160167	9.469454745849644	14	-0.8704937289213627	0.975510268612279	0.3485418654151257
Si	10.848492838946594	5.5406812984697495	11.035193380781259	14	-0.7466250736915248	-0.30987424117382273	-2.225065911541053
Si	12.105408540911657	6.716437752660005	12.412142516766773	14	0.9029161383400262	1.086910862813123	0.5357245033746743
Si	13.520921783571586	8.078258269565035	11.180490139868148	14	0.8137653753586795	0.3648974376881837	-0.9926299733864851
Si	14.953603642491135	9.358119859801036	12.734772150641724	14	-0.268676392186962	-0.9639698623827944	-0.8139160421304403
Si	13.570142835509817	5.3813003988580945	13.654794558455306	14	-0.018158431323545807	-1.0543665830022846	0.44311508951666456
Si	14.845793871568077	6.603421908935788	15.269525765641085	14	-1.4537348297176937	1.1754368472016736	-1.716461169972769
Si	10.760430240717586	8.178985170282129	13.657960634077327	14	1.1945172768930246	1.2098762887439931	-0.24914113396447693
Si	12.261851844585355	9.549536875113866	14.97147401778038	14	-0.990107204846356	0.0345577123870463	0.42605323461216194
Si	10.792564276283361	10.959370765627076	0.0571036010384169	14	0.10624012871277473	-0.8100102760386033	-1.0824497379721343
Si	12.388837588992306	11.997223410507639	1.396663668724698	14	-0.6395261958018206	2.1452693439354698	-0.7575232178120365
Si	13.769067040441872	13.396906275057459	-0.039331145613771	14	0.8643431307745045	-0.0074464352282128665	0.7609772406991234
Si	15.394748952485262	15.059895655512916	1.167221105992745	14	-0.9801405721833338	0.23008153022621922	-0.7799586828356486
Si	13.692950665693894	10.846550761632056	2.800687647271724	14	0.09820645302944006	-0.36831109422174435	1.362097036560168
Si	14.98937703302449	12.425508578284482	4.176053745446227	14	0.23397675478624358	-0.5954044858448874	-1.3606613313493972
Si	11.190118926553676	13.727744857581262	2.6460558610931018	14	-1.0937343192222642	-1.0969697981571385	0.2611032014664659
Si	12.632951811436614	14.894198924634651	4.061487503865865	14	-1.153224297009318	0.3028965184454729	1.036608215666554
Si	10.738528831002366	10.863197138613817	5.222833417982693	14	0.44163978928396364	-0.18228622498785851	0.8801942521837495
Si	11.882559249062679	12.22877125032846	6.777392868372634	14	-0.14541991713385125	0.17501051115290348	0.8934261886033595
Si	13.566927799955495	13.360447445471914	5.725700882628804	14	0.4703456659623529	2.1327056377885665	-0.6576386043401358
Si	14.980254165639387	14.953962681994662	6.98374266303675	14	-0.6712176399779659	-0.4300376765267954	-1.1457310676642787
Si	13.43060702845681	11.004283343522967	8.162501993074697	14	-0.013069442563376717	-1.0349493385139943	-0.0627311131536329
Si	15.04179680053961	12.057019807822517	9.550418153895254	14	-1.2003819681282824	-0.04967632589058103	1.0247906442835575
Si	10.511876984411474	13.888920954710557	8.125863643737388	14	2.1695943142588585	-1.4440361062290312	0.0025088845714004953
Si	12.218065345132347	14.969450340578677	9.341424522886975	14	0.4619751754820788	-0.7516909225038125	0.42129103333818363
Si	10.93644119733357	10.890353581062495	10.742902584954438	14	-0.7058321737925873	-0.9025962928381996	-0.16842153954895997
Si	12.032621441560032	12.22256965890388	12.269163194475382	14	1.8045289833932692	-0.7899939640107185	-0.3589782390201388
Si	13.411888014341045	13.416457608022313	10.770597586658408	14	0.6730248699074979	1.0297086545399368	0.1665690581657933
Si	14.688730408751923	14.984627919591459	12.233634603603525	14	-0.7359236191280044	-0.4552980149656542	-0.5723342149177307
Si	13.61960868710954	10.981941294417053	13.743281476097573	14	-0.8348034446407913	-0.2992424635644784	-0.8868832397846468
Si	15.22469478763236	12.17432780561164	14.829310694360647	14	0.23916344554857827	1.2709325838920815	0.36867387718241723
Si	10.772360144221183	13.27540404306803	13.809981223866652	14	-0.4171240429458197	0.5889157873484298	-0.020763475233919842
Si	12.207734799417194	14.555902112423922	15.082841543783854	14	0.0011091748351118812	1.917956637028518	-0.05340674259958388
H	5.940901001054891	10.380032782722688	5.289928109205654	1	5.984119077378647	1.5894861052951281	4.091674747110361
H	7.6355282897621555	10.68102049452361	13.618298192921664	1	-1.8584707730099759	-3.0152303398344977	2.9638539991062345
H	5.846817963150812	9.932104890107366	4.730921554187423	1	-14.974263680435127	0.1727068007860508	-0.5367526883922015
H	1.7534118474212907	-0.9660561681591247	1.9546567531443335	1	-0.573450331737207	-0.6964070159099885	-0.7174689964715776
H	8.597739471238041	10.743893207584627	13.26377769114469	1	2.9057423908813123	-1.3594629391596764	-1.2903320877536626
H	3.42137229300287	0.565998033350571	3.5171313925893277	1	6.509706483807573	3.741368332114019	5.661457443895068
H	0.23787019907840576	0.466956986302317	0.23297746984396234	1	0.27629329169790073	0.5789589248856243	0.43342742178087856
H	7.49951270184147	11.339428768091366	13.039358417466644	1	-0.916388730217602	2.172589394846299	-1.7987367973280395
H	14.568677390758552	14.191741399977214	2.1206880435599764	1	-0.5550874975407094	-0.7669324348416503	0.5422761939514756
H	10.038015015657212	12.880119501658658	15.584041106736302	1	0.32352861019753315	0.6980867190156412	0.7271389235806545
H	2.0664485985610686	14.267807182795151	14.917146444903333	1	-1.4902928620438152	-0.09218620992231333	-3.4986667885343845
H	17.536832486460032	6.878609368412721	9.37204080055147	1	0.2325140529696113	-0.10543614407916443	0.05157380161685032
