225
config_type=divacancy dft_energy=-23005.346117035846 dft_virial="-66.1891510454919 13.730309011520195 -9.806237913823175 13.730309011520195 -90.22605643409584 37.077744076733595 -9.806237913823177 37.077744076733595 -128.20208184644682" pbc="T T T" Lattice="16.249967316 0.0 0.0 0.0 16.249967316 0.0 0.0 0.0 16.249967316" Properties=species:S:1:pos:R:3:Z:I:1:dft_force:R:3
Si	1.42495963394004	1.5278869269195838	1.275004935547992	14	-0.07264812348397606	-1.5339486877167374	0.531380620936284
Si	2.677068365539788	2.9143503882880197	-0.016786216237428	14	0.06825024783386278	1.3216352950264656	-0.28212301590080446
Si	4.08134179108656	4.298977603349748	1.371692241078192	14	0.861017663153425	-2.0244392209729827	-0.33754807617670457
Si	2.743498231927596	0.13983096875418	2.7544669598658955	14	-1.9156598686460296	1.6468369234558191	1.535157878548803
Si	4.229801492485536	1.51067821153194	3.977894499152904	14	-0.5728314666866474	-0.7408177181049063	0.7204316811319842
Si	0.027446194796724	2.55278861550702	2.7846593991390236	14	0.4245956750061699	0.9476286882995292	0.623368598638414
Si	1.4234971368815998	4.026270651852636	4.103896745721168	14	0.6629016569304789	-1.0342926782152286	-1.2357493215806432
Si	-0.001104997777488	0.110629777487328	5.4299428286087155	14	0.6624789672158465	-0.11790291955549843	0.782483765370566
Si	1.466185801020732	1.605139271539848	6.758312656822452	14	1.8970998306714768	-2.7536800231528584	-1.7599439602576454
Si	2.98706899202712	2.867972981568156	5.397475393911347	14	-0.09512138375579438	0.4686603064249958	-0.4775789565595254
Si	4.196034060402888	4.156952889007908	6.8980298758054195	14	-0.13668792924556433	1.058988916146847	-0.2980250451953883
Si	2.807458103283372	0.097938553013532	8.125698656561905	14	-0.5176264930261519	0.08701186046551532	-0.09530264668086481
Si	4.234546482941807	1.45339707674304	9.502915886527536	14	-1.0027567859109523	-1.2126232576680391	0.5968661592193916
Si	0.044508660478524	2.4527050668077757	8.06505377853859	14	-1.7727560351784752	2.3650399704962988	1.7638818651659842
Si	1.31974109556894	3.9540720470676476	9.420577302137364	14	-0.9235371743392099	-0.2010830617623971	1.2505524604613958
Si	0.038138673290652	-0.10416229049556	11.05298401883346	14	-0.0804064337875229	0.1137122749941891	-2.01227763569815
Si	1.197768840895044	1.321187342660064	12.3800375996946	14	0.910589345057476	0.6744945137084944	-0.6685434333344799
Si	2.6820571055058	2.6043660117680036	10.862095652772407	14	-0.07841434138547217	0.48695552055157354	0.18231862091489234
Si	3.9721095107884077	4.091481770691744	12.222022917513815	14	0.31007170206241014	0.7087058982089168	-0.4141513309746644
Si	2.63753219505996	0.14044846751218798	13.707594929542536	14	0.20772011303582733	-1.1760194596672189	-0.08908134313770251
Si	3.954722045760288	1.447449588705384	15.100802127347112	14	1.457994894122647	-0.4231864521801968	-0.8753680303872995
Si	-0.106128536540796	2.721398276377836	13.65894252739843	14	0.06614194147134135	-0.12038789284742157	0.49911762004746996
Si	1.459523314421172	4.213730274810012	14.567981949022787	14	-0.30063266021108254	-0.14879500708760965	2.2059024351478618
Si	0.086563575892332	5.2963843472385115	0.1494996993072	14	0.2926087547279644	-1.1612731422140419	-1.6467168528373681
Si	1.3173361004061719	6.754445164601243	1.307911119362892	14	0.7575548424074743	1.5030031211939672	0.5949293455817241
Si	2.978440259382324	8.008162642965276	0.004533740881164	14	-1.8948843092171053	-0.09256313396224704	-1.0105940291478277
Si	3.940730823901212	9.503484635383595	1.3743409857506999	14	2.167037092907439	-0.2144978037702697	-0.23440021583247192
Si	2.6211034781034837	5.392649153618495	2.6475584248939317	14	-0.4473682119372535	0.28408219815475727	1.1063072813483201
Si	3.7322924931388797	6.6461066325054725	4.262171427379008	14	2.0773494831352455	-0.5080979767096832	-0.8975535839737934
Si	0.012041225781156	8.2748896064901	2.746293226305948	14	0.17703654214518016	-1.5780778538790992	-0.9949151717950327
Si	1.378939726501128	9.629681881559652	3.8706609648346197	14	0.06945686756060826	-0.40712450013469975	1.8685032259691938
Si	0.124101000392292	5.337350514842147	5.310278069293692	14	-1.312960642786818	1.8302107259941003	0.3270903623975343
Si	1.062861612237612	6.959682251802323	6.797377578250115	14	-8.245094845594613	7.523021513715713	-8.76895061259042
Si	2.6422446855815998	8.141899873975955	5.448142792002636	14	-1.219805640379873	1.0245268488777102	0.49839488234197626
Si	3.969054516933	9.327204989939627	6.926743568052792	14	1.7059859726774218	-0.05385874291486592	0.09528156361723959
Si	2.6607858982891557	5.392177904566331	8.319349517066676	14	8.285268623332458	-6.564915057015517	5.8143479646471405
Si	4.274586402408432	6.7656251421146525	9.544207053477491	14	-2.1672312113591103	-0.4131879378112049	1.5412899647373564
Si	-0.093664811609424	8.281243343710655	8.288182079754588	14	0.3086838194105942	0.4874080350879196	-0.8486372768158481
Si	1.4798195235988558	9.47194344882324	9.554525782723152	14	-1.3788624430212575	1.5317971867848375	-1.4551661640494202
Si	0.162808422539004	5.333499272588256	11.087206450000956	14	-1.0146710308539866	-0.7147387397321122	-1.228451239129403
Si	1.4059471721803198	6.914068593546312	12.168398025371015	14	0.5374926525033401	-0.2995111440704339	0.5824114051095192
Si	2.6841046013876158	8.388070628846041	10.952867970199582	14	1.354143836473354	-3.123213420843801	-0.35399209447277563
Si	4.0296181451197315	9.488242166041188	12.294546521645122	14	1.1968220157020053	1.4281998972306431	1.002141520407841
Si	2.882955451433508	5.761442161855116	13.575336445557612	14	0.13193832638765482	-0.867198857453593	-0.5726602310723256
Si	4.508293432347144	6.893284885349147	14.837455157024015	14	-0.9283441128457587	0.5313160861927484	-0.12758364530691998
Si	-0.06573111779322	7.893080374433364	13.659722525829599	14	-0.5741460728368392	0.55415855718854	-2.020958201480034
Si	1.210557565172736	9.173317799457108	14.910742509619176	14	2.0031851788439785	1.6803337977877721	1.4838576425380166
Si	0.126522245522376	10.79842828082832	0.050927397568343996	14	-0.9845078516801373	0.36240860773828043	-0.8975551266369853
Si	1.29585364361442	12.395572568448696	1.244227497451488	14	0.5200137643159094	0.44421989347273216	0.3349790277408126
Si	2.89988791737678	13.650021295341949	-0.03475868008892399	14	0.021897846901169173	0.18549753553272347	2.375910089568821
Si	4.03909187606496	15.125892076883016	1.643651694078768	14	1.64347957412877	-2.7411463989382003	-2.2617031339110354
Si	2.68741959472008	10.926364273507188	2.5345886521131	14	-0.2029324578191796	1.719016334439932	1.2413468749731373
Si	3.980331994250304	12.179708002622952	4.254225193361484	14	0.4608976252424047	-1.5867211386338407	-1.0782755484848736
Si	0.026584946528976	14.234321370123359	2.4374950974	14	5.411768664497399	7.213812674598745	-9.711432462260076
Si	1.286396162636508	14.921548737884317	4.14097917113628	14	1.5109892314288793	1.205026155668066	0.4845865041095891
Si	-0.196575854621652	10.769763338482896	5.202573285923244	14	1.2477666678470154	0.49000665123499326	1.041646039430852
Si	1.284706166035644	11.959845944837472	6.780900111391692	14	-0.6001864846298309	0.417461371963823	-0.4067601745108348
Si	2.591528537588364	13.40021054779308	5.431129076222784	14	-1.467625740430858	0.7904955866586794	0.6880915470835657
Si	3.912845879986956	14.834530162907136	6.689640294945036	14	-0.26633462946137115	1.1354924120583851	-0.43709253241474966
Si	2.7794594095979037	10.784193309459503	8.163561080408183	14	-0.7515569679166327	0.46668235510220585	-0.024326255876049037
Si	4.223821504513248	12.145014322403291	9.340822462550436	14	-0.45381448719592876	1.2370402735618893	0.19885751299727691
Si	-0.104113540593612	13.443045461638054	8.064826278996168	14	2.0723566537140505	0.08452225918401593	0.26699180398120104
Si	1.341044802720216	14.898831283576548	9.372883648064905	14	-0.5778502642715764	0.4645989884612899	0.09726568559279788
Si	0.079559839979136	10.74727338371755	10.903273069951151	14	-0.9576855667592884	-0.15344485105909744	0.1294384406848748
Si	1.258267469212512	12.20234420709414	12.280116550668515	14	1.2765946720281116	-1.200010186298989	-0.5070502512917228
Si	2.516778687934764	13.50261784181851	10.748329631593093	14	1.346592500148079	-0.8774192582117137	0.13385020030371692
Si	3.7805873960020318	14.817581446996547	12.21919542320083	14	0.49140481830808963	0.9121890867876722	0.20400100919023312
Si	2.549912371292088	10.845114436927188	13.850383392348228	14	0.7997477091532322	-0.3498171336539192	-1.0098214119991231
Si	4.125850451565084	12.108191896465236	15.200284427255664	14	0.6241047060915724	-0.6157270165164018	-1.5870612958676964
Si	-0.039844919858832	13.447887951898222	13.559671477064988	14	-0.43491557754018034	1.2604093069272475	1.4162265168652455
Si	1.4463120909932639	14.770472791747464	14.994998590152635	14	-0.8254860160711066	0.6700683558998596	-1.7811087850320404
Si	5.428025332465428	0.06369987187871999	0.12466974924835199	14	-0.5996768915553775	-0.43993077557766114	-0.5579018294241435
Si	6.837189998174315	1.3669147506872878	1.365679753171272	14	0.8885678279904079	0.0032221091872095724	-0.10468975220472544
Si	8.129143649632896	2.662817144203656	-0.084548579945148	14	-0.45079780932379904	0.029230639274231494	-0.5470713053735516
Si	9.403043587403399	3.947328310631508	1.450975831612956	14	0.21280730202227233	0.7001600583458086	-0.9674537100915951
Si	8.26050838541544	-0.081379836318528	2.594729781149616	14	-0.432513136729034	0.41434005010516334	0.9069383755028658
Si	9.559157023408211	1.2736886881953962	4.134089184994296	14	-1.4663910956561226	1.1263783579195241	-1.0648345812027356
Si	5.6627073604430995	2.792004384365856	2.759049450649008	14	-1.3183123985107064	1.0810109474349794	-0.9393201614574708
Si	6.852968716438151	4.147121658781728	4.172617857500532	14	0.10373612924148251	1.264378836431024	0.34080386684360814
Si	5.306296827301272	0.032646184337844	5.452920282393539	14	0.30236018587569	-0.0535754071085856	-0.3547901655641496
Si	6.68694280037058	1.23597251405496	6.897721126426416	14	1.0316655227991012	-0.08053550327459433	0.2032661872897348
Si	8.00700889528584	2.56643858805246	5.418730351160676	14	0.8744655724199276	0.7739543805815067	0.8491175592896517
Si	9.449144744678891	4.3286987935707115	6.831128760365448	14	-1.0142879361612842	-1.6355649406217578	-0.5341486729239555
Si	8.24832090992844	-0.231415784547156	8.260622135186651	14	-1.6150174382347304	0.42362688252153813	-0.5343193943172134
Si	9.599538192188472	1.15439767812864	9.428929785337786	14	0.06942421452304239	2.060908550165559	-0.2220337134636237
Si	5.538102611064012	2.792589383189232	8.22422220839881	14	0.3735764608068756	0.30337782936140456	-0.05148021338319693
Si	6.895803630283128	4.187616577333199	9.523797094528595	14	0.8828337489054134	0.22979947997259895	-0.09206665352492645
Si	5.315315559161652	-0.095614807687344	10.923325529619095	14	0.5329217414651809	0.35925951794216304	-0.1468772196293112
Si	6.812002548834515	1.3905584531320678	12.119729373259595	14	-0.7494797719284851	-0.2058028397985929	-0.054422843422106404
Si	8.337419480722067	2.707910803505556	10.8484781801616	14	-1.005793518404579	-0.8701394306082464	-1.4221318315645617
Si	9.642519355739292	3.9893669760779997	12.14571307099788	14	0.7603159524107813	0.6024452006535809	0.6872718787075024
Si	7.982763944050368	-0.19210711360975197	13.35019314839443	14	0.6476187497969866	0.4407926100809748	0.3723366738215002
Si	9.36456366479911	1.167202652373648	14.722340388557472	14	0.15480290888919965	1.4418938612762837	0.037509855515640324
Si	5.32722678520428	2.734430750165268	13.496394104336483	14	-0.6075151632343809	-1.5786926051611465	-0.1410660073847125
Si	6.6102592046063755	4.015415673685547	14.756124070607434	14	2.0381925775515186	0.6754445371242892	1.6272936948068417
Si	5.523363890708399	5.483583970718831	0.027966193750836	14	0.8301065494419447	-0.45918398354652606	0.29130289033586115
Si	6.783971355214416	6.699195275726844	1.6749166311947519	14	-0.899250513485091	0.5411330805261378	-0.7880939171791291
Si	7.815113031251196	8.067020024583828	0.061408626487164	14	1.918984822046045	-0.05427423353460185	0.3217938854380292
Si	9.46219346843364	9.503403385547015	1.205032576285296	14	0.2884489634304968	-0.1407903848943926	0.09071965144770086
Si	8.397820609235639	5.520048897375935	2.8185080810582517	14	-1.0540228262209808	-0.9447012277820086	0.5379410532711739
Si	9.595589450130683	6.957813505560984	4.162087878679764	14	0.47440595548393066	0.16106946388599658	0.20674155035097896
Si	5.132617176627864	8.024916359268072	2.8677129820910996	14	0.6402928994082888	0.7048965485665855	0.13579009926776864
Si	6.5855430043187395	9.722322945228168	3.997036960651152	14	-0.8508725957811848	-0.02985104698798323	-0.42688010208312155
Si	5.513321410907111	5.750067184733916	5.609764966927572	14	-1.2682380655165661	-2.556103949047143	-1.1950358688360982
Si	6.84277998693102	7.094898229838759	6.753616416268128	14	1.0323293821927637	0.5675596723382158	0.11115968163234606
Si	8.000525158326756	8.416703071256832	5.140173411429804	14	1.4383444503818192	-0.7222882762836631	2.0453268805938656
Si	9.554980781807998	9.490777160942484	6.904009863777707	14	-1.0975722081336492	0.04203242977378079	-2.1215814935104134
Si	8.22963344751504	5.854993223693328	8.170857315733068	14	-0.8685839118895569	-1.743528481230628	0.16485670202257469
Si	9.399387344757299	7.069564530793116	9.741432906791783	14	0.14997745842434573	-0.09827073066244377	-0.053056043833915684
Si	5.6033949797397	8.089542479283804	8.408854337043202	14	0.03210204969577287	1.3815070819535618	-1.634056473130427
Si	7.141681885741524	9.296005052692907	9.725719188397212	14	-1.2794246876539985	-0.21328424205915977	0.6510097806037299
Si	5.620424945486867	5.471331495362568	11.005517864303423	14	-1.0108940771386887	-0.6599412862648604	-0.5800110211826289
Si	7.206551755266996	6.865464941304156	12.024553314689785	14	1.4454751538767179	0.7126240056062905	-1.2621625436450563
Si	9.608215674735217	9.492710907053088	12.108159396530603	14	-0.23346433349593804	-0.20959727703006742	0.8932711509525546
Si	8.275848354561743	5.215930759056996	13.512156572633003	14	-0.652610293665522	0.9935964518763286	0.4945096850927006
Si	9.326051242260192	6.827732517196404	14.931639967587552	14	0.5699487434016973	0.0777761930450114	-0.43558457914448284
Si	5.794445845473912	8.178738549881327	13.324355700361991	14	-0.7934760119457951	1.1804882978241684	0.9473001010396145
Si	6.966052238990195	9.638554363714187	14.944331192061348	14	-0.7562322658307902	0.43993694623042956	-1.2594083756261139
Si	5.657799870313668	10.874088128651616	0.253320740489124	14	-1.0960202889624078	-0.4012693219891265	-0.5560282649773516
Si	6.803081316778032	12.437578733960557	1.537718157145764	14	-0.3697493705378352	-0.09861988676491987	-0.16506804687989085
Si	8.048105062628004	13.63026133508569	-0.068201112825252	14	0.4401524048562579	-0.3582385320195322	0.1452746496832629
Si	9.619915651202735	14.744375344237968	1.378045978298748	14	-1.3916354371412212	0.2900721022191063	-0.7567868532483459
Si	8.149716108254951	10.8622906523802	2.5720123268418478	14	-0.011378940815379353	0.5031087468359358	0.8754899007794746
Si	9.502005888357841	12.23590038960168	4.01918566610286	14	-0.6697762783354908	-0.14247600154228168	0.43620164442131837
Si	5.290940608187652	13.583867678398512	3.039978885608016	14	0.4793856722679935	0.4036535079524998	-1.6146238020102162
Si	6.7455564324793915	15.019731040407589	4.062459329065367	14	0.1437003618957362	0.39872649882750005	0.3898466723833046
Si	5.307060575765124	10.878426869924988	5.707801019745	14	1.016469261914898	0.07499374286754715	-0.3815121773775126
Si	7.028240863908528	12.207609196504523	7.0096509012990245	14	-1.6912052024129547	0.4692552601960781	-1.588286684663279
Si	8.123147411693292	13.710503673692099	5.3654792082661436	14	0.586038463384652	-1.5006639295736965	0.36712144379011186
Si	9.589121963138915	14.9585011635609	6.678509067333576	14	0.15268586076858973	-0.41761049607239165	0.6192412032679803
Si	8.19022727677374	10.67934852033667	8.296209563608691	14	0.6445735326558032	0.9890790198288286	-0.3509368500208437
Si	9.465930960916321	12.2695378219458	9.41396356543975	14	0.42613576709293866	-1.3365160812878867	0.32007201620512604
Si	5.469885248271444	13.800268493145683	7.910451589494167	14	0.32211630204517583	-2.6073985286262253	1.249949279153289
Si	6.682246559816256	14.719025395225009	9.578429484644989	14	0.8275220743741319	1.2786505278421019	0.4345677069903643
Si	5.436231565960008	10.65133357668389	10.683589761806147	14	-0.028226879757245686	0.1809351091421207	0.9408317142751857
Si	6.612891699311567	12.113229386333195	12.098896915160484	14	-0.6639460399115229	-0.1443598504103542	0.7322680215838179
Si	8.093604971112804	13.306513236249025	10.892093092437744	14	-0.09921998274664243	1.1019004068295861	-0.5637906890494107
Si	9.497358397705463	14.601911880778594	12.234340392739343	14	0.06794197230597702	0.8711046235454301	0.6881226574579394
Si	8.240228426205071	10.97396042777575	13.269430810833912	14	-0.18082558005548238	-0.5782019914793727	1.9260638463240087
Si	9.506084630154156	12.156893048511286	14.9410324486962	14	0.48540385849086415	0.9347698192618726	-0.7106861635264949
Si	5.263884412606512	13.533021530666748	13.525822795145759	14	-0.563223760326318	-1.32035719857182	-0.1313564852537053
Si	6.571031783505552	14.893046295212052	14.775916530798323	14	0.6590617111348377	0.611649500589179	1.2758284826427073
Si	10.609831160158823	0.00877498235064	-0.002047495881816	14	1.3285430836901075	0.48854343519729687	0.4448032772698738
Si	11.906741051648785	1.462870807688268	1.478649525952104	14	0.9436169926685022	-2.347912295295601	-1.1452644120486717
Si	13.547256502035562	2.44269508694112	0.31008187632391193	14	0.5366020216204408	1.6762709371608744	-1.2952709239631353
Si	15.011784806390063	3.913268379137172	1.436529610669032	14	-1.3468992330127727	0.48756641517564064	0.3862728359882988
Si	13.510190326587766	0.120948506732988	2.6258972184617035	14	-1.4556140505961899	0.5528956302552833	1.6588473277378266
Si	14.84702638777314	1.3261273327241279	4.084380534974652	14	-0.10650058168170576	-0.0265047534138105	-0.31609194516953687
Si	10.823095731214007	2.760658197413292	2.8128205924976517	14	-0.7135830278907058	1.5451682200022676	2.0409768275027074
Si	12.19088798013636	4.286595128254956	4.167239118318936	14	0.101955895917812	-1.5151461945104945	0.45389676256617356
Si	10.937414251282068	0.19252961275996797	5.470583996866032	14	0.7944993118632141	-0.6925264466502891	1.20416406405422
Si	12.488668631202058	1.3544997756578638	6.8457537309498475	14	-1.6228899056144919	-0.11762498307039043	0.06662119550301694
Si	13.693522457846878	2.682203355211644	5.545236346715735	14	-1.0900136727134777	0.9303362052478094	-2.412958431679495
Si	15.1392820499514	3.942989569358136	6.6003954744455635	14	-0.5228705194371259	0.9174899346262215	2.4995589152937865
Si	13.546476503604396	-0.11080852712780401	8.242795921041	14	-0.12491329532141421	-1.0574148854698522	0.2437968344460171
Si	14.921548737884317	1.217382551445456	9.521343349463878	14	0.018837460238596917	0.1257383630186497	0.839121873136512
Si	10.873389380057027	2.755246958297064	7.79811556543866	14	-0.1930061915096839	-0.27963238617717706	2.3115216419258204
Si	12.035895791876351	4.103457996603636	9.479109684409597	14	1.1270298760076496	-1.0716613800487929	-0.9636399895702195
Si	10.732957162512156	-0.062139875016384	11.020045335083928	14	-0.7925046483558431	-1.137400686426999	-0.8062821733243888
Si	11.857666150354463	1.379687224997664	12.239816631724835	14	3.3678702900194075	-0.014604906660569147	0.7321276392333378
Si	13.388169322011922	2.594924780757408	10.760874606361044	14	0.03311712207616733	0.2175713030699747	0.49228130811172827
Si	14.751054080804844	3.9206621142659515	12.268660323710735	14	-0.4120697641074726	0.8098742645671674	-0.37937738863019366
Si	13.524311548185372	-0.007621234671204	13.727598639308532	14	1.0162908272056799	1.4085900769538737	-1.6939159187519865
Si	15.072104685067055	1.258998717741732	15.25766306184846	14	-0.4075564458284846	-1.1267051454057149	-0.7581410544204681
Si	11.021361582436525	2.8495780185664437	13.72171615114014	14	-2.017468954450061	-1.0113507054435473	-0.22697666344160838
Si	12.30593774873364	4.038263127731844	15.148170782073253	14	-0.28183736609973603	0.42424420490890574	1.0467229439960164
Si	10.637683604138447	5.491822704148044	0.09116231664276	14	1.3804873815835912	-0.3586504230918199	0.2541702159706865
Si	12.198346715134404	6.95076101974584	1.380044724278616	14	-0.12534395546253901	-0.5790478851297014	-1.678781621505999
Si	13.908542025372192	7.916691576943512	-0.13427347993210798	14	-1.5252483244238886	1.2455133511444376	1.9380984189960262
Si	14.952342425948135	9.531775828480752	1.371870990718668	14	0.07954691327899738	-0.4793080248873251	-0.9473566653566577
Si	13.396213055833343	5.415301608057	2.54905112302434	14	1.420368824646536	-0.44838354142818	0.4385858303846917
Si	14.80355772520284	6.816406289977152	3.837641031248508	14	0.940784663047827	-0.8800075899375066	0.8049007184358731
Si	10.900120576291847	8.3167332723288	2.686509596550384	14	-0.7209050216214234	-0.06208319461295558	-0.04770557366268754
Si	12.245747869795174	9.681714276905483	3.951683301872196	14	0.14129997796884597	0.4822743090951799	0.6718732718346034
Si	10.919295537724729	5.589858756965472	5.667257351291579	14	0.2259230244814117	0.9282664654650901	-0.8030742052164399
Si	12.262452836196024	7.0044346617905875	7.071937026021252	14	1.4521631130354873	-1.5256306477849946	-1.9829904321068754
Si	13.547614001316516	8.183938539422448	5.186957067332568	14	-1.2985750514100576	-0.7921948301647653	1.1679485029567425
Si	14.710152913070472	9.437964767165482	6.645424133878199	14	0.8614048716146393	1.0686210480077178	0.977680281502484
Si	13.640726314037195	5.318305553147796	8.220062216765916	14	0.6169696317176294	0.6530694930757006	-0.6060097810694342
Si	15.147423283576714	6.743833935943895	9.546270799326624	14	-1.5472194478266819	-1.478411013027815	0.9021054688325834
Si	10.797502032691307	8.19680851353672	8.245818414961775	14	-0.13337737403534167	0.19006690390769063	0.7328920288450178
Si	12.125936860774308	9.555452030860163	9.502233387900263	14	0.9079866151418902	0.7256754504324263	0.031413507691037214
Si	10.813085751347352	5.511923913717935	10.76324710158918	14	-0.32285935148269856	-0.09225100177638107	0.9541304994331199
Si	12.163555535110847	6.839643743239032	12.117178128390982	14	0.23042708678124713	-0.08245071962757262	1.2230632308205007
Si	13.551383993733827	8.085674987062596	10.705982216767596	14	-0.12330712582791767	-0.14275805179590195	0.08660434027227185
Si	14.827997676046104	9.286628821551576	12.192171727554323	14	1.1434304426238102	0.9242730246818363	0.46937918747250923
Si	13.431069235726163	5.410979116750944	13.683333728339749	14	-0.07956233991091828	-0.5070214549121372	-1.6840156206062247
Si	15.050069729386559	6.420475836322812	14.885116311161843	14	-0.17673443727006274	-0.1808677461827328	0.39805286923362126
Si	10.9967591319201	8.31990201595542	13.660063775143234	14	-0.5510765732412785	-1.0477567854452479	0.109647614593567
Si	12.543479770958928	9.48079968101046	15.084877159377431	14	-0.8793403881069284	0.7862386075801102	-0.8205122128292802
Si	11.055892762983023	11.012911599432202	0.09603730683756	14	-0.7054159118412554	-1.2940637900153258	-0.8019891987713375
Si	12.288534033738204	12.413805031777247	1.435262113218384	14	0.7861766439418947	0.6314331275855904	0.25478933813177823
Si	13.946193199643364	14.05727797621554	0.5814888304357441	14	-2.699295489200022	-3.256460696949943	-3.717982072343016
Si	16.504913053220726	15.898854272203186	0.325178095960476	14	-0.582302904465009	1.3114984551912499	0.2698583293026341
Si	13.721456151663084	11.005404114532212	2.5992472720634643	14	-0.8728977123957012	0.23355355085054716	0.449912063541008
Si	14.9414386978791	12.44723121454626	4.00651069159638	14	0.10774165421974122	-2.376740042366165	0.3821894065188396
Si	10.92867176886606	13.657626280045834	2.858401750819032	14	0.33993509035593	-0.7083636840908052	0.22407902774580152
Si	12.219699172187626	15.06891969147312	4.181750339132123	14	1.091024374214828	-1.050637708956474	-0.3352495080204922
Si	10.767732092568394	10.844480688201864	5.438896560599832	14	0.9883601387813151	0.6942084637507299	0.2435044997711163
Si	12.257317846524169	12.272219066552939	6.819753783244248	14	-1.9280801071160687	-1.4048398627339056	-0.48328475348599814
Si	13.559590227228407	13.387194323972963	5.492927701925532	14	0.5503998583210155	3.6007787505451296	-0.9229962137798507
Si	15.017862294166248	14.889438802467899	6.80280506733366	14	-1.6261500671604399	0.3373660419200381	-0.7151102644508737
Si	13.480794135713124	10.986700402151495	8.127193653554976	14	0.9617047185957439	-1.9462434235397232	0.6430105577316854
Si	14.958192414181896	12.189311733306708	9.509123374042247	14	0.32411713620531507	-1.4148890278777044	-0.037219063503931574
Si	10.900624325278644	13.525221546355068	8.1355461367554	14	-1.220485183515988	0.6862287812791183	-0.8798615511553223
Si	11.964655935163009	14.818101445950658	9.61413066283824	14	2.5702622547136023	0.6808520858336247	0.36789483227041236
Si	10.825013227357296	10.939201747686827	10.872528131789279	14	-0.08086743297142544	0.06789157864170212	-1.3944690523145564
Si	12.2305379003874	12.235867889667048	12.036545790568992	14	1.0603662572668502	0.1297436308863764	2.548781183984829
Si	13.696414952029127	13.469061659310972	10.822315732782839	14	-1.6679930064721256	1.0032998033545677	-0.43872981228262
Si	14.871352588845191	14.814688952814299	12.202311707159508	14	-0.4405671241443978	0.6273381281421906	1.581565815356412
Si	13.786894770044615	10.893718089169344	13.584436427254571	14	-1.5126933600350734	0.04211161981764135	-0.2590149497254416
Si	14.794100244224927	12.390340078972944	15.110080858684547	14	0.9998997736792038	-0.5058814268131835	0.36666147304833735
Si	11.204872463336113	13.691962460984543	13.730718633033202	14	-1.4453759092113603	-1.4664569159523182	-0.5201821717143791
Si	12.360765138457824	15.096544635910318	15.213674400324047	14	-0.06374798530775148	-0.7247146283742868	1.0110629987582227
H	10.293192422022905	6.122006186642913	8.725311075545182	1	-0.008138319669864714	-0.02512227008316688	0.06206159732826635
H	1.8505495279395432	6.281187616476986	7.466991606437259	1	-43.976591887563856	243.74962818100764	-418.67039695959556
H	-1.3965026911762606	13.889215939243272	2.7337823764693594	1	-2.449368625449708	1.4328304579122295	-0.984155610251277
H	1.8666402455758462	6.198086908619694	7.609052070707195	1	46.13794169550313	-244.62204921047697	420.13027338859155
H	14.324178814390645	-0.7695350772132276	1.6606686598520832	1	-1.8598599412144516	2.911092346831476	0.818513178442865
H	14.844779017293337	14.832060167875103	1.4487349611200795	1	2.309293779165912	-1.4504001061174618	-1.273233723153614
H	8.045687067491382	8.437958028506161	10.758477736181932	1	-0.5631039468183991	0.6660345487630793	-0.5983216619411275
H	15.90903325172993	13.455150062291743	3.231016751368375	1	-1.9530331984691702	-9.665173392450503	9.823368617699106
H	10.47078831481947	10.523295209210929	13.023399805682745	1	0.006957410996320702	-0.3048022217087666	-0.02358526332278236
H	6.310058933407324	6.1703449644178185	12.903432796975643	1	-1.514007709074733	-1.5276296821714097	1.779506472196524
H	4.1384913011402	4.026270651852636	4.103896745721168	1	-0.163039444782294	-0.1403316997052782	0.2675196519034274
