220
config_type=vacancy dft_energy=-23079.462182586813 dft_virial="-70.58114550821644 5.117701682866011 81.74989216936771 5.117701682866011 -107.00898530296155 85.28718482679695 81.74989216936773 85.28718482679695 -70.49487007754745" pbc="T T T" Lattice="16.30533061835363 -0.13675759441193633 0.0016795078364647002 0.17597328709832083 15.96284146692543 0.20829158352427263 0.5394481335316668 0.22365174257232845 16.411498341880055" Properties=species:S:1:pos:R:3:Z:I:1:dft_force:R:3
Si	12.925180866717028	14.973718970196467	14.920322035127816	14	-1.6205273169358076	-1.7502105268471608	1.3372902410997831
Si	1.3394498949240432	1.250375647756512	1.4836136297177491	14	0.5988140286099358	0.2895051734960136	-0.7448612954419033
Si	2.753028047861214	2.580330616339066	0.19784113136514422	14	-0.36226051207183985	0.4932773543127536	-1.416721968860438
Si	4.226430922169311	3.841243137531728	1.4834880742775474	14	-1.7093564346416037	1.0665009145607236	-0.1269984617360543
Si	2.628307469807319	-0.07949779131941748	2.895024728368841	14	1.8610917577733346	1.2324549643339373	-1.3008540791658367
Si	4.086032219991524	1.3200605476586047	4.155518187897454	14	0.22141459130253205	-0.36423614939984167	-0.27915621747188557
Si	0.26512743318234405	2.8273307790185185	2.6675492519358235	14	-1.5720480976822877	-0.056380483012867154	0.6195916449231165
Si	1.5851749361198888	4.123183585570176	4.11109112914763	14	-1.141463547053897	-0.14949717595054207	0.7377964122432003
Si	0.1981574658508473	0.11971303575701835	5.481163506759836	14	-0.007755482087694665	0.06915579112761892	-0.1890698292645372
Si	1.5088600567390917	1.5499770175199594	6.881119709730186	14	-0.12551519107686085	-0.8582732653346989	-0.3121283292079966
Si	2.832090471615257	2.7382940354240346	5.452631440621526	14	0.7584814687648556	0.47820399226285343	0.5186659909070878
Si	4.230722635398025	4.043777107298179	6.951892213250649	14	-0.3368155682709944	-1.1300997757599065	-0.08865171143870576
Si	2.9345029460665564	0.17189028940656587	8.093078653965234	14	0.423172053990404	-0.7844095232553568	0.7447797914032545
Si	4.4122839548803885	1.3667916302656355	9.6205470052963	14	-0.7279225964822356	0.028845230586741297	-0.11770160200893084
Si	0.25371656343517907	2.854217579713146	8.262611110040218	14	1.0385082624981434	0.5841767260223327	0.887269934024797
Si	1.877366904321302	4.087643243042424	9.820198091708509	14	-1.1043208453779736	-0.28416241664074593	-1.2879016218945267
Si	0.40465703081951343	0.25993400361036345	10.840844787468903	14	0.0913053492396306	1.0167672530215033	1.2893977480803211
Si	1.9095351864550647	1.6180786144034043	12.411518885540557	14	-0.37204845291511157	-1.6960342524252565	-0.298923389394248
Si	3.3340855803937606	2.875997372112815	11.10118154684199	14	-0.07674003760099173	-0.5966915811681536	-0.16963612970219796
Si	4.651507833217996	4.190050825723326	12.505449030122644	14	1.0690540221436307	-1.9824931803379588	-0.9824357979026298
Si	3.297015744321733	0.06645959262002743	13.73479984871083	14	-0.3103568376424145	1.476572672723909	-0.6383164907486909
Si	4.589092104126545	1.491719293266357	15.141284934571669	14	0.12342076868306824	-0.1449851432242142	0.0702927339001884
Si	0.47383644778053413	2.4219024790663375	14.030058956951457	14	0.9868215893577386	3.0508432338449327	-2.4917941772269394
Si	1.9572136419290722	4.224120375951573	14.800964468019682	14	-0.6094308938084233	-1.3827880066240597	2.387672639297967
Si	0.20599245143746173	5.343434080628936	0.003499246424323541	14	1.0974074002826277	0.1648117076794721	-0.918646160688692
Si	1.567262903514486	6.696417873652646	1.4215761975370345	14	-0.9723478090684969	-1.0139431509378525	0.5712504940252883
Si	2.930061218545654	7.87563782920756	0.13422039616578188	14	0.5937803186141499	1.1269864243277392	-0.5930406116135434
Si	4.355710630233648	9.326199396939737	1.397604891999299	14	-1.070626510157433	-0.896647783569505	0.8672765048342614
Si	2.8876104350364087	5.389697183867942	2.8170678447246265	14	1.5694227420398847	0.48271036855747707	-0.21497294403343306
Si	4.413074791094647	6.768661169472615	4.212300228081153	14	-0.9676709684911475	-1.8494927303425508	0.4149031221702757
Si	0.1897582960783913	8.003409241399343	2.78140031616654	14	0.6802944130896845	-0.0767009568001255	0.49606006160074984
Si	1.7108200587789055	9.265825166694162	4.151089505097611	14	-1.1711315313430855	-0.40553375727312413	-0.057699717152635124
Si	0.1724561041825399	5.36074442547545	5.632185503650795	14	0.9147712478606969	1.0076107756448598	-1.5915645868359356
Si	1.619291773461977	6.7752520147881405	6.8764627443117945	14	-0.25897638314563937	-1.3679385878475445	0.2198459599467097
Si	2.9670853980939715	7.979261832127299	5.549160745874802	14	1.4844065735238683	0.7567986803328187	0.35936956124986535
Si	4.509237213568112	9.23066638225741	7.062596238525661	14	-1.4267366811929467	0.828113171487234	-0.4398549279707168
Si	2.9553647162216334	5.384061864370057	8.241190047469697	14	-0.051198420240108705	1.0051530560693305	0.7105324114283501
Si	4.385664570967489	6.72139688389226	9.653463728300878	14	0.16522925518346412	-0.36850752666820363	-0.36406105712753956
Si	0.3516905715458407	8.020652732050426	8.284519719060354	14	0.30533778294695346	0.8120460772310966	0.9383611391730555
Si	1.8135619124369682	9.440824991483387	9.671988862796095	14	-1.387745097681305	-0.6837463790925153	0.45615753547417975
Si	0.49659785543996204	5.3007501227307445	11.173447670923816	14	0.02248328758256689	1.501535534277227	-0.13902017888147067
Si	1.988556845455795	6.902863629146941	12.309212399447869	14	-2.369731209263441	-2.2873306261896116	2.2325768815128018
Si	3.1290013676600963	8.105965207782303	11.008339005878275	14	1.8839398852008307	1.875729574582002	-1.093040635006888
Si	4.455608734700648	9.432859558686173	12.571510758750344	14	0.4673343874113954	-0.1061108021151713	-0.9702893821491865
Si	3.426616678642171	5.50468150824074	13.666421051504862	14	-1.5874508183236988	2.13378575913356	0.5579612219570389
Si	4.73298679154839	6.798246596836514	15.102333397486749	14	-0.600639770497773	-1.0225298713755513	1.1679248487877971
Si	0.6250149813242121	8.283627786257883	13.77831540757659	14	1.3026024307835375	-0.7129983585409041	0.1477300552640043
Si	2.0636553045977544	9.455947084372097	15.265164128117199	14	-0.7949657103682889	0.5787853752765143	-0.29161347985853503
Si	0.11347928968050908	10.64252589319494	0.2158444770179663	14	-0.21082600826256623	-0.5787948883661989	-0.7628461771563391
Si	1.5473957933402278	11.884482804097406	1.4919818182776878	14	-0.8114480381336302	1.0677885241050538	0.45117704735852093
Si	2.806917421149876	13.332066914247655	0.2630745202055392	14	0.40451200001889726	0.6628124395758698	0.00047102649465112815
Si	4.279363139050202	14.629132879857885	1.7778454661749072	14	-1.1907066416980328	-0.2689414731454693	-0.873795542373497
Si	2.918528054538552	10.619591642981467	2.8178032408743796	14	1.2546670003052287	0.26095613424215336	0.09821853722444475
Si	4.2760204292785975	11.890659479519277	4.366700807726631	14	0.019622418692838123	-0.7377578456633981	-0.4317006674478671
Si	0.0923093379903914	13.414820994061655	2.6590669220666103	14	1.3258187404928785	-0.7684457874330894	1.3818312983344325
Si	1.581589268418543	14.59456110786883	4.306153734927012	14	-1.8196727937289414	-1.320285464733388	0.6091748117185365
Si	0.2657193374004379	10.466115607941111	5.506931722623575	14	0.9530002415343826	1.540175647691604	0.32698391863728016
Si	1.6391458389151752	11.973974482338853	6.984213770856866	14	-0.45242249077560065	-0.5106168885918323	-0.11434656667666962
Si	2.979564304377918	13.269897404266208	5.629985837562066	14	-0.6286349936656733	-0.011648392652930871	-0.11909565531351514
Si	4.358759833781404	14.605570852443405	6.860947679201152	14	0.562788729306149	0.5237169273085188	1.525568169925715
Si	3.054745923616634	10.740958097132829	8.387383866978354	14	1.3040491917471848	0.3941134216620904	-1.137766811824588
Si	4.312265186743584	12.174228887100082	9.813096871681516	14	0.10434188165490942	-1.4472319901419755	0.39814311503035843
Si	0.3968758547072711	13.443152497613669	8.371813361803207	14	1.2714894853044256	-0.010685513710535416	-0.014952005878789138
Si	1.8005220831474458	14.766074730954793	9.832316637573175	14	-0.19893001816730507	0.3874354898140698	-1.923136385806488
Si	0.5130423569261238	10.831951548886302	11.103746465120397	14	0.3148547292894816	-0.4445811337702131	0.2891868706573793
Si	1.6567545817559348	12.200786308587947	12.644422596524635	14	-0.11787977960761711	0.14149409642051713	-0.747930938083628
Si	2.955312537337394	13.420288362775894	11.18934429412546	14	0.9751693400468274	-0.21435639297766154	0.5661607339335232
Si	4.51438335602625	14.597517367779037	12.477428969285937	14	0.5191691562182408	1.2797026241391065	-0.8778002960201596
Si	3.1482129806010932	10.922175362097239	13.782804422211337	14	0.3379134302426976	-0.6964795210800167	0.9430850309777636
Si	4.532574219544308	12.10986786398057	15.243950150493504	14	0.5515486281780576	0.36808792227995546	-0.5082882385033741
Si	0.4737940524370894	13.74975072963563	13.90559927331876	14	-0.3759416205908798	-0.7947361106631997	0.5380757791899496
Si	1.9535073105579224	14.96910440012152	15.255043055164835	14	0.08285566871549595	-0.6970451642504493	0.02563340582081232
Si	5.3858995394493725	-0.131019547735704	0.09079778093757318	14	0.39107103273675914	0.9735767974115278	0.24743829091094283
Si	6.887462705345572	1.236090047605767	1.4157386848627205	14	-0.5045629640050115	-0.9137913996231884	0.6834604721809149
Si	8.190252042320841	2.597425723288091	0.16067672106543215	14	0.8269566883142313	-0.04657428732182238	-0.41509209841130656
Si	9.661174789037423	3.8221000093762956	1.509843302588983	14	0.05511498497429027	0.28860914329194204	0.33003144977325166
Si	8.445333409696916	-0.17279363633996533	2.6873951644383594	14	-0.8120813013739827	1.7254775221094645	0.3486015150585532
Si	9.725976071492706	1.264222619161617	4.147275554777717	14	-0.6282318443514741	-0.2297737689193975	0.7502809283462434
Si	5.474334595284968	2.584610915436852	2.784762593019735	14	1.3047354197571324	-0.8664046430201993	1.0392448841723658
Si	6.823687064083623	3.938085516090442	4.227635928277222	14	-0.39513209358993306	-0.03556172901456412	0.3266931266255714
Si	5.591955583902002	-0.007486039298261591	5.397983842921255	14	-0.2791688158879543	0.7551205198903581	0.31299016371131017
Si	6.9000948871019725	1.4323071111989512	6.8251709011041894	14	-0.7511242508912519	-1.4000645488227945	0.831256604851647
Si	8.218839548523656	2.6594517413378784	5.6012939735907725	14	2.5107241972570615	0.8081670506345893	-1.4128786806278806
Si	9.952045979231519	4.022974038387871	6.8653290748871525	14	-0.8670127094284142	-1.2140155111988993	-0.16170555534220118
Si	8.3561645883017	0.10563778173336466	8.119078413627786	14	0.6870970435457323	-0.04174446597792421	0.25151374995390957
Si	9.772930544947888	1.4158463038114646	9.693587659691058	14	-0.06391973514313737	-0.9745867275812818	-1.0391890911869186
Si	5.654787113477239	2.7432363541156115	8.290795860480308	14	-0.1481054366407459	-0.12351564246938171	-0.5150348188634427
Si	7.049959164998864	3.990686723174437	9.615958524663474	14	0.24769514433242562	0.36444003805172936	0.11829552733788508
Si	5.827613361619854	0.10841630731912763	10.913611502721402	14	-0.31719700623613656	-0.8977718708154738	0.9045115091911781
Si	7.186946672619481	1.3578266457172055	12.438549178166843	14	0.12211696117522113	0.009204042825066093	-0.11553621710830214
Si	8.442214090773462	2.713985197728874	10.955775302367327	14	0.0025217400980012358	0.3382016511490862	1.3711534979398576
Si	9.908205932929391	4.032309166896376	12.393011687536797	14	0.1281513453616087	0.30806675413375867	-0.7863072560921581
Si	8.608195121539884	-0.0367371956849997	13.795555637047407	14	-0.4393533053227559	0.2867486914822828	-0.6945591625163982
Si	9.927587127244168	1.4048414510072895	15.119100755819144	14	-0.691728118448383	0.7132752665838841	-0.7145068260322349
Si	6.019486533100085	2.857005888839704	13.853630735206172	14	0.18738678372196826	-0.41110817071773725	0.07780781764044924
Si	7.497329504338952	4.182957758646995	15.218543925639178	14	-1.973308935023858	-1.4081550459337047	0.6520312807474248
Si	5.422304094747345	5.136998108675437	0.08389223172647803	14	0.9394101501436759	1.0267071461891957	-0.41291025843662893
Si	6.977551179575512	6.516214835750646	1.2729772575829559	14	-0.7172064866183904	-0.1353746086480327	0.8166606970596985
Si	8.291660073250528	7.892599227765721	-0.07761445971639153	14	0.15565008809218842	0.22903354769772685	0.7412424647037947
Si	9.517051818997029	9.38741175051341	1.307628928488501	14	0.4678180123221153	-1.1584189581981454	-0.0008718618140622135
Si	8.175020699893253	5.1827916019562865	2.85728471975236	14	0.6112044422582614	0.3634511909456004	-0.9352531870620606
Si	9.58822870887035	6.59988204603884	4.063784448223831	14	0.26761452568974087	-0.10102412734979034	0.5825913824819295
Si	5.652944546627525	7.889021713015038	2.730547101704575	14	1.4580494015554342	0.9631298822747021	-0.06576553165247168
Si	7.153030397863688	9.217695037753455	4.241569320959348	14	-0.8209169048066715	0.3296601821650223	-0.5687362101327155
Si	5.617771086879583	5.342308973437517	5.793936783613538	14	0.4591983817363189	0.6697881054199634	-2.4113872292183522
Si	7.148148411007013	6.697931061295597	6.816212438916288	14	-0.21108568989990117	-0.40792668499458595	2.276800150129881
Si	8.563828394624965	8.006344303637825	5.658441265964149	14	0.3014433297185252	0.17592171087836397	-0.947398831483908
Si	9.9864938263705	9.393159580730439	6.92250245670265	14	0.22435953533622965	-0.7351065218572614	0.021897846901169173
Si	8.481449350541437	5.1798989350612485	8.226524519818083	14	-0.202904689881722	1.4133147400901778	-0.26211904517845636
Si	9.793612950188393	6.638313424871497	9.571815188596704	14	-0.25373492783998547	0.9722912447514537	0.22348767352216745
Si	5.865992561568271	8.046792722464371	8.456532302726856	14	0.5751246355216875	-0.88332842956901	-0.514537309983994
Si	7.189508329717622	9.395386966851419	9.841496860019094	14	-0.5297225151153205	0.26989149656126404	-0.393220991005467
Si	5.762181040783295	5.390972305351549	10.985142230653473	14	1.3327648386257906	1.005265927592885	-0.0029896812662681864
Si	7.26114830718857	6.727108841126372	12.483494764578799	14	-0.6412526930243	-1.4529079622467342	-0.42953708232096255
Si	8.477108719608749	8.084216396595151	11.183071413885772	14	1.509754329543612	-0.36207462115719313	-0.8551887102821174
Si	9.883716099729524	9.34756991121615	12.60287515994879	14	1.5336388695256598	-0.8724544538385077	-0.6665261441002915
Si	8.685739465880578	5.361287411989569	13.867590217330417	14	1.248597649086487	1.6157658869934255	-1.4874013970007767
Si	10.184543673272605	6.7280986093367945	15.118820294316354	14	-0.6355206708235619	-1.84329328119461	0.8828054667468919
Si	5.977604825547079	8.073056637728389	13.800858316158266	14	0.4107381886621678	1.365102401568889	-0.6251873985418868
Si	7.552360290720357	9.425093057885121	14.94209041339656	14	-1.1923511206607995	0.5001728016708588	0.33727553901276885
Si	5.5589883126033195	10.509078396751958	-0.06849130792510998	14	0.2932163069151153	0.25176006184357974	-0.6051422901344163
Si	6.6729553122362475	11.834731868565001	1.4562083013609897	14	1.1444758540469824	0.5030344418921835	-0.09279916143063664
Si	8.2023200398914	13.174997058555292	0.1678562094187856	14	-0.13417441668458757	0.6796308108065544	1.9916933665050445
Si	9.8749973342911	14.550478103636966	1.4977997638704121	14	-1.477440934990523	-1.6414710266526704	-0.20130674792524994
Si	8.245582857286626	10.633741904151215	2.6814190516027834	14	-0.06033098633727467	0.44815702704947497	1.5143146990499587
Si	9.696700456253982	11.99317957291932	4.179474818123997	14	-1.5526480795996425	0.8894625726418194	-0.6284979537521095
Si	5.544115700004878	13.168086617573799	2.9760030955285592	14	1.217913563974776	0.9115164856359215	0.4987121567384825
Si	7.143065861564042	14.704847702069927	4.282519961546702	14	-0.3297727965780448	-1.7286554082851675	-0.2755389293969693
Si	5.764023607633009	10.600316437025302	5.661415462365811	14	0.3096580112163983	-0.3045296845448309	-0.2130674978806713
Si	7.136357613758978	11.867425200721426	7.142366338397204	14	-0.9782976038898515	0.5765724249274627	0.03380977784941523
Si	8.351227161380521	13.287692034382072	5.790652775086703	14	0.7252437618491733	0.1222426882253764	-1.0005525773199895
Si	9.901383543815053	14.584392747802625	7.025293228064687	14	0.18488201291908	-0.07408794246325898	0.4460510346817417
Si	8.577657429538611	10.510183936861786	8.336173553277373	14	0.13030207496191254	0.6131345710220966	0.8153324640513099
Si	10.018499049491016	11.847512434023459	9.718783538418293	14	-0.39062468885318147	0.8405838036215482	-0.5865272305060122
Si	5.688253345356464	13.362616020379855	8.493851619089156	14	0.2830185318838121	-0.13020283029655486	-1.8630830788437895
Si	7.161227374459716	14.690896372896342	9.610041113072668	14	0.5921556371623483	0.5375756992051808	0.6607426997931506
Si	5.785578378594394	10.779793862318344	11.139612925674648	14	0.2327827334755668	0.5638979041412608	0.05588348835448253
Si	7.362298704877323	12.240833602241903	12.33748194057485	14	-1.7167661030637387	-0.8624166015581176	0.8289837477486363
Si	8.637165816423835	13.40823014874613	10.908874638386518	14	0.721416928690665	0.20550613424464784	-0.45426982994812704
Si	10.007905105400228	14.666355991402368	12.376382929365663	14	0.43379277584687165	0.2814535000754379	0.48400234898085137
Si	8.756652200152436	10.952703270557716	13.68084036004647	14	-0.45771536818765746	0.29718249398197577	0.6486492488093021
Si	9.998416701419268	12.2905290977098	15.159289910814623	14	2.170870868050312	-1.798969225248981	-0.687175719368529
Si	5.885644433845041	13.471113857205607	13.863503958458397	14	1.188275661617833	-1.0236881543222778	0.17314388869047595
Si	7.315883956755994	14.660709257773554	15.349198221185205	14	-0.14624807015747096	0.4795016291179322	-1.0002260469443305
Si	10.757632511827673	-0.11415598458549242	-0.132244120925204	14	2.048942883116122	0.3864654117767779	-0.0591541914322429
Si	12.235454285394818	1.1891812306742946	1.3374540526018754	14	-0.5736434217467502	0.10367210871901084	-0.5439060176139174
Si	13.615828731464095	2.2567465269069555	-0.26805434247016363	14	0.5057544142103682	0.5768241361383053	1.077639971249733
Si	15.142279594552488	3.762002979453244	1.024745999353473	14	-0.2595877919907706	-1.2178168904147382	0.9738894438184579
Si	13.648618268438337	0.0017072278687170301	2.654481702614049	14	1.5282032957683347	1.3870329015076241	0.15285683927237959
Si	15.139238543955395	1.3123853599049742	4.078924477604001	14	-0.3819729194508832	0.7023372703309101	-0.008658968497194702
Si	11.126411667962008	2.564877513653458	2.878002997975778	14	0.005650775272621448	0.7497777630350904	-0.12164799156482613
Si	12.640708112202823	4.1324844716859	4.061744579968086	14	-1.440389250442933	-1.955373932752633	0.5610450056780245
Si	11.179035703307859	-0.10979089480081669	5.485129101962052	14	-0.7849175736666181	0.6978941432271621	0.18437370539728676
Si	12.478968246371005	1.2285241093910135	6.938557247147147	14	-0.40257852881814593	1.1594515140947168	-0.28825304520510153
Si	13.768010077939254	2.738111409329196	5.55018801765827	14	0.3928342967653167	-1.1474588504394183	-0.11660579692148375
Si	15.194885693406881	3.9786105726532157	6.939998688824267	14	-0.6348203017343536	-0.5513316268890371	0.34208042063506167
Si	13.91724168686474	-0.008772574912796201	8.204829518105303	14	-0.07937259233829136	-0.6591015632673	0.6750701841896757
Si	15.255698552398094	1.4157419460429852	9.56733921868302	14	-0.9007278706020482	-0.18446549385721603	0.7687962290882256
Si	11.175065216335245	2.682139772441344	8.406161742944109	14	1.1560579121826535	0.3990314319184696	-0.5185688031259862
Si	12.727168523387972	4.119545738984591	9.914330429467025	14	-1.6232475463645246	-0.6159764137324563	-1.6124352771617059
Si	11.295138612511543	0.12384658174288049	10.941359255005985	14	-0.6918044802763914	-0.03645673077650767	0.5102785311317006
Si	12.659717531967392	1.4995575400332362	12.335053991867571	14	-0.6955703782388123	-1.5254768956868494	0.9885506576855382
Si	13.970102157779799	2.8028637740805062	11.203251597365469	14	2.553533872169123	-0.10022888447426853	-1.016347134412191
Si	15.614467515709075	3.812740422015803	12.628085713987218	14	-0.20665130455424177	-0.3970740494382409	-0.5239930640199026
Si	14.195311113928655	0.5410249141897846	14.031833039015607	14	0.9085165199483728	0.7663002000434259	-2.0020364089869362
Si	16.805476637921892	0.34650366433439006	16.280682617910912	14	2.6188121793634265	-3.8411372458465123	3.99728741392347
Si	11.29949717993569	2.7041005603457196	13.73448514481526	14	-0.4979516237847828	0.5678206395282108	0.3803389820199291
Si	12.821674266286827	3.961696461208897	15.052145463798839	14	0.10646998552839597	0.3348229616478796	-1.3831459044846242
Si	11.075080690591223	5.030929851147095	0.030611068557234774	14	-1.976337182869928	0.5708383458424685	0.05214227300313505
Si	12.242138074347894	6.5772771750321315	1.2769591586864963	14	0.7547531089401089	-0.13292743060431578	1.241354331178566
Si	13.708981084552983	7.798755504460655	-0.037749792157275995	14	0.5561820170754964	0.46151597607190037	0.8954110819105139
Si	15.064546101756426	9.12878221900904	1.5293092875906489	14	-0.7333324591863591	0.2497466292673718	-0.7267391167033714
Si	13.871285134570641	5.027018065419251	2.485730299212526	14	0.27804447153145356	2.5216138567300166	-0.3844517220900379
Si	15.16821902238014	6.498932210936385	4.078797291573666	14	-0.31065431452795567	-0.7118645010947188	0.03946389555895287
Si	10.824401916572874	8.006548127404386	2.707697642177992	14	0.9859281302589871	-0.37112182655773024	-0.1827302548766481
Si	12.33737106044584	9.179035376302249	4.1940881668913725	14	-0.016299779287610765	0.33810086382053645	-0.29636076872165645
Si	11.136986044971207	5.313476878714829	5.3476524173016875	14	-0.35953925420099514	0.5766310461287623	0.05316120204150974
Si	12.43964656532601	6.54747977095101	6.8634180232518744	14	1.1575093011358772	-1.0173532079239649	0.04156346016338579
Si	13.814767249988405	7.811637166507327	5.515034124991918	14	0.32106883373774747	0.8246622339265313	0.027058569499770396
Si	15.270942939546746	9.227328564256206	7.004948354981608	14	-1.2865137392427108	-0.45256390156820875	-0.11182379813654032
Si	13.91981638868394	5.250286619310445	8.36547688854835	14	0.012121733142370132	1.4817519072808152	-0.3110209541466088
Si	15.387406209169711	6.643364993101951	9.783475571334701	14	0.037353018091111294	-0.8718556434094451	-0.09322390802952508
Si	11.35580145721057	7.910512890961256	8.251159475539742	14	-1.1923086974230173	1.1118541839660077	1.0208206005587166
Si	12.662685206008522	9.233554157382052	9.808845923206114	14	-0.07885348617415346	0.6515674533476701	-0.5442063227153107
Si	11.23152276908258	5.490156211340518	10.946627691724059	14	0.3772199741560574	-0.047102649465112806	1.639490761335092
Si	12.938491373968544	6.7503137693018385	12.413020659052581	14	-1.4106893844477746	-0.292983878994174	-0.41865513616396777
Si	14.259460160330946	8.18284427134894	11.148781733989638	14	-0.41222197354242535	-0.6587935448499461	-0.19101718443401736
Si	15.534372928401167	9.470904487657428	12.608326222761702	14	-0.09575181878029468	0.15914370600120567	-0.9907150141440387
Si	14.239359875767741	5.298594482575593	13.672395533750306	14	0.10632703207259575	0.5313559383252107	1.272207080799279
Si	15.717866497190531	6.751820434584259	15.10650607763579	14	-1.312128375994686	-0.6251172073666467	-0.561225497271499
Si	11.473693123789596	7.938131826625371	13.866637952693045	14	1.2915875584814909	2.054661792679727	-1.2703808246903778
Si	12.915695723916333	9.468975499530693	15.182168720963592	14	-0.4866883827088101	-0.7392740264706894	-0.9980092399372987
Si	11.047543284433733	10.534272644889061	0.08194367651815247	14	-0.7029165403595394	1.7305482560218604	-0.3093417652620201
Si	12.377403678788601	12.029815672016106	1.3944790507153157	14	0.03452145980203221	-0.7777686153239465	0.604981853162439
Si	13.602730200929804	13.512586286635358	0.08242307001710453	14	0.7001438603822918	-0.7846820604192926	0.043841716587569
Si	15.115203645402492	14.761649309335215	1.4566110571237147	14	-0.4627333944409905	-0.7168645296108108	-0.8360807697638408
Si	13.694044878939376	10.54742824607799	2.813341946271887	14	0.41459253264760176	0.3753942322682203	0.11923089545335494
Si	15.31439653598747	11.81107037515244	4.205989844268417	14	-0.6643949549004209	-0.33133885682854697	-1.1593877506827772
Si	11.154483907682955	13.306060632224572	2.9206298852193315	14	0.4039098471529186	-0.03545939902282223	0.2407958403163403
Si	12.660933952206227	14.7031600412828	4.197854830097424	14	-0.8658806517559531	-2.3627977095465975	1.101618356575966
Si	11.097956239559926	10.816170697584065	5.424718998733562	14	0.9727686990094051	-1.7622116751500159	1.0177000500316529
Si	12.615888899796191	11.87389701295728	6.879701096314919	14	-0.07688967593062435	0.5911099686286442	0.2848887538936878
Si	13.987386413184195	13.12552169275528	5.501421958565891	14	0.1150111974019279	1.5156850981855976	0.6798784082488847
Si	15.39326002774535	14.552814739296824	7.012594192112855	14	-1.2501354271784677	0.06906760221513784	-0.5371540379326766
Si	13.9648174151604	10.707302716798237	8.401600982343535	14	0.19119947580121582	-0.8872668486984128	0.008569236921521532
Si	15.51603857295145	11.983118831801857	9.752256292658048	14	-1.1847213656232602	-0.2080404727587178	-0.3065513446580634
Si	11.44243308035963	13.267898300763775	8.377830239392093	14	-1.198833391393957	-0.1406183779484747	-0.147898719773006
Si	12.645345510539624	14.582023500340117	9.883593805469587	14	1.1898525205106798	0.4261571072670959	-1.1216644934255646
Si	11.27955017084494	10.6274527180102	11.208660264834936	14	-0.016309549487827323	-1.239342184155018	-0.8271510638764347
Si	12.739148469091376	11.956424440742863	12.304591307012394	14	0.8875545553837373	0.6496447807892634	0.8288294814294271
Si	14.21753931861476	13.347022686942854	11.0996161803148	14	-0.5082324455179269	0.5275134214242494	0.5631278580978765
Si	15.46084798873706	14.924908885170511	12.498678819892545	14	-0.14970954924998628	-0.1791067961489634	0.3310876598387685
Si	14.168898814962583	10.849822816738392	13.794277254383534	14	-0.14278504840176348	0.22447780618095647	0.7034261334339929
Si	15.495243656991804	12.120721071902423	15.350155377592976	14	0.14867699335341483	0.6952806146692317	-0.6854633632253102
Si	11.536413773235825	13.371731019220475	13.696402712270956	14	-0.6045061986782115	0.7449026902375576	0.24075521685228193
H	13.267322702447007	-0.4022535409642231	13.079162384698456	1	-0.2317656042109162	-0.29095270579125704	-0.44349612732511046
H	-0.37913014229538244	1.3624591522836096	15.202555989390113	1	-35.74798836860321	-8.363902022891207	-66.74166515701356
H	12.796682211326154	3.3003975882565175	0.7041393675032893	1	0.15583957855428338	-0.27749502632453793	-0.026468500828796416
H	16.088995333705785	1.2625643089968746	15.512524651215932	1	33.29251439646028	9.673774511077996	66.27863145747115
H	10.2123321903105	4.182957758646995	15.218543925639178	1	0.07695061112671185	0.1163707978952222	-0.01777353685711964
