231
config_type=divacancy dft_energy=-23140.84828986931 dft_virial="-24.344211094084198 12.392827474280093 -10.165358483804916 12.392827474280093 -28.596651894082274 11.947333676185057 -10.165358483804914 11.947333676185057 -31.43161242741432" pbc="T T T" Lattice="16.3999889955 0.0 0.0 0.0 16.3999889955 0.0 0.0 0.0 16.3999889955" Properties=species:S:1:pos:R:3:Z:I:1:dft_force:R:3
Si	1.1416360339547458	1.3032907254833894	1.2215039803628311	14	0.35473025881019016	1.402554664325358	1.5200030124602546
Si	2.603498253035625	2.7130173795475736	0.0929387376374985	14	-0.15467101118627608	0.34789214710072436	-1.360762632899011
Si	4.04999368242772	4.183915992564973	1.2149767847426218	14	0.10232382108912517	-1.39074583470045	1.004854293631129
Si	2.46426234646383	0.004641196885726499	2.538882296393355	14	1.4252742364868467	0.006293294492126453	1.1582016997985927
Si	4.135486825061262	1.2487443620843566	3.8396146235934463	14	0.09410528293327186	0.2081865115409022	0.906248805056002
Si	-0.35214056371137603	2.608779049492176	2.799674921399796	14	0.6749963934669875	0.35351412599376014	-1.3177436700138894
Si	1.2510731605217176	3.9835081270399635	3.981048128690638	14	0.3596374704242248	-1.1616140707794933	0.9389033852850748
Si	-0.21188785782185998	-0.010118793210223501	5.337130418750542	14	1.7829291275987051	-0.9357013307193623	1.4440209367076422
Si	1.4823130053582674	1.227112776599292	6.798221838348633	14	-0.5547365416645093	0.08419418614516504	-0.4817024952719789
Si	2.9194440410339326	2.5641054794684335	5.370291196499443	14	-0.9323362680763525	0.7876452593007632	-0.1277363689629368
Si	4.152165613869685	4.220176368234024	6.69841150532202	14	-0.9525991491044397	-0.955020358984423	-0.31963595674282896
Si	2.8081865156884604	-0.2150530556979915	8.28688163944816	14	-0.734874351046852	1.1337718283781417	-0.19018543186294945
Si	4.090616455169574	1.4310466397583346	9.528508406308468	14	1.288447210443462	-1.733112419357644	-1.26042241956438
Si	0.1184571205144965	2.800117721102674	8.001997430607329	14	0.08432634095862064	-0.1911570525634334	1.3125559508094267
Si	1.6040665236608593	4.165187205132113	9.451248058150668	14	-2.822798790363867	-0.46160930719502175	0.46285603616476145
Si	-0.264236622695496	-0.0023451984263565	10.933315063674002	14	1.2550655216298519	-1.0298120129738064	1.470718265909932
Si	1.38120707320101	1.3373371026380476	12.247757781674332	14	-1.4226612221499801	0.37311263340712086	-1.0098679490054179
Si	2.744062558716055	2.6814802007092275	10.749093987287551	14	-0.3588262866957181	0.764183923254412	1.9755609661737756
Si	4.032101294433629	4.133568026348788	12.230209793449147	14	0.3621697520540386	-0.3116246496757796	-0.6502741873716357
Si	2.40999478287772	0.025190383097088	13.75863956786276	14	1.998663890138498	-0.5193779299702368	0.4392990550005008
Si	3.936489358589865	1.3714818797266786	15.094156271722307	14	0.30878794917606023	-0.3749787416484843	0.09410116916475962
Si	-0.170789485399137	2.5610714815042663	13.641642046368863	14	2.0661744309717545	0.7496036992049164	-1.848471230198856
Si	1.2907447339018319	3.947854550963746	14.784229279685349	14	0.39786543565578253	0.45062760215160524	1.473625157584891
Si	-0.0121523918456655	5.430479156112928	-0.20549186211361498	14	-0.399992768197673	-0.08238721332616497	-1.5407829427682231
Si	1.404987057244485	6.714795094328524	0.9332413737889275	14	0.9235795975769923	0.09306861326818815	1.9458256189251992
Si	2.7307785676297	8.200109297672968	-0.26307222347681547	14	1.2607859738566491	-0.3410740900127557	1.1950361259466304
Si	4.1190704360767665	9.442621663939034	1.4372622355876288	14	-1.261460117671592	-0.14358697615111768	-1.3711252157813358
Si	2.629311835714542	5.312186035488386	2.654600618745603	14	-0.06939027593281642	1.1790829316561757	-0.9586229917590146
Si	4.115692038343693	6.7586650648914866	3.8113082425872133	14	0.1877657646461581	-0.7048911492454132	-0.3642276647522852
Si	0.1937002700258505	8.057330993478145	2.444680759603203	14	-0.7344344349265746	0.337886433636836	-0.24431285528377084
Si	1.3644954844145953	9.466631247828447	3.95534934593469	14	-1.6452335821781747	-0.5512647781507133	0.39372724164300416
Si	-0.00393599735892	5.338786817639088	5.46400073361973	14	-0.14700577489531858	1.2317108864542865	-0.27781024383678804
Si	1.3489482948468616	6.929913749982497	6.675336720805351	14	1.3070661267298465	-1.050099319502435	-1.436132528474896
Si	2.881182866707431	8.181118110416179	5.063299802492679	14	-0.852023165411951	-0.04897724235403277	2.1682881927562234
Si	4.0114373082993	9.575838774549482	6.6233323557006205	14	-0.7226744563027494	1.0710018915341748	0.5198440713647797
Si	2.6307386347571504	5.455603939254034	7.971936250778577	14	1.5040019956108448	1.0820951825484857	0.04373964370635912
Si	4.096618851141927	6.688259912133805	9.533182403172185	14	-0.5904885324727643	0.4910402355736927	-0.43347113057132114
Si	0.30544979504118747	8.120110151352918	8.240108870832993	14	-1.6573290900462794	-0.5593568179248153	0.6500355887979259
Si	1.2830039390959558	9.535183201829636	9.658740718921734	14	2.2072206408455015	0.6047131726564835	0.38929876983958106
Si	-0.14595990205995	5.419327163595988	10.873094304082526	14	0.8147210552061787	-1.3645879233943274	-0.4751824292906155
Si	1.0815628742642294	6.729637084369451	12.263829770889922	14	1.6049793288438083	1.4116057263838755	0.178023846588117
Si	2.7607085475464883	8.112500556459008	10.95537304887295	14	-0.3311287975238909	0.16372798678702968	0.5353192971762188
Si	4.158446809654962	9.670745510866439	12.427354061164053	14	-1.6068498079642162	-0.718900845024368	-0.28822373460445183
Si	2.6588974158624237	5.4808107223401175	13.588342082133488	14	-0.8453336635899897	-0.5572184296300482	-0.5867020656677823
Si	4.094946052264386	6.708694298422198	14.888418409773761	14	0.4985118676340431	1.038619591358506	-0.1276340389711949
Si	-0.127001514781152	8.401632362449671	13.5019305401162	14	0.5587778050067179	-1.148442555334907	0.553446618125391
Si	1.3964098629998385	9.575363174868613	14.943177973029735	14	-1.7405400855170197	0.09153546316578386	-0.03527093700285538
Si	0.006855195400119	10.978743033191538	-0.07155315198736649	14	-0.8322495657262883	-0.51040605795558	-0.16990866686613362
Si	1.4689634143159305	12.348420914128711	1.2069571901238223	14	-1.6342364505028373	0.6237002712247132	1.8471375978692952
Si	2.640004628539608	14.002737004071783	-0.047297568263022	14	5.971322943310803	-6.063044297391232	2.875218228520514
Si	4.159119209203777	15.271587752664622	1.4039210579597774	14	-0.7340742230712219	-1.5737468269673096	0.1815465179872519
Si	2.6323130337007186	10.750979986022035	2.7513769538080486	14	1.7810802457629868	2.4776024471913183	-1.1395966674809375
Si	4.068952069706518	12.398654080421927	3.938342557346356	14	0.052600958192249476	-0.8129390221087839	1.0234004476369531
Si	-0.08216394486745499	13.807675534959305	2.934548430898788	14	-1.663831929621998	0.258188596475546	-0.8501696555866564
Si	1.3602642872537565	15.063193092498803	4.099128049458239	14	1.012926793004798	0.27921303889946086	1.2144515706611967
Si	-0.13420110995017648	10.809052347055099	5.224724894175385	14	0.5659362764390742	0.07941038758649752	1.147037703387978
Si	1.3057015238657281	12.093040285490785	6.703741501745557	14	-0.05439996058475709	1.1687177776685305	-0.20668704291819184
Si	2.772696939502198	13.627324855975791	5.505213905965421	14	-0.7325076485996557	-0.05397624242799668	-0.7384407312364294
Si	4.156560810920479	14.939323975615793	6.817869025165241	14	0.035624978205439764	0.10241998042809873	0.6015856801450554
Si	2.6593730155432933	11.121865737155266	8.266020853445882	14	0.47230433399524163	-1.857395279654558	-0.14248165797398604
Si	4.2215375673206506	12.310586139516094	9.636108734107943	14	-1.151307537993148	1.5798408607971246	-1.0007538948665569
Si	0.16865748682972198	13.42011099501765	8.382870775038821	14	-0.8367803675214531	1.0112679158522384	-1.6585102558303553
Si	1.291728733241562	15.022307919933022	9.708334285644126	14	0.25794768390704814	-0.07670558478970174	-0.20091234036913924
Si	-0.13300391075350498	10.797424754857289	10.968575040014327	14	0.20601418465590907	1.126027659153856	-0.299963915717312
Si	1.0981760631166708	12.369101300252037	12.293989350652646	14	0.6204483372157898	0.5162522372325328	-1.2451665090367494
Si	2.7967721233475924	13.783911950904825	11.040406991814617	14	-1.1597770160282477	-1.7229125874420848	-0.41519134307666433
Si	4.059358076144151	14.920496788248958	12.50505720902473	14	0.09214892889517116	1.3894700522405925	-0.06695081120505994
Si	2.37489880642735	11.068286973106968	13.600445274012168	14	3.0717530049715687	0.11240049705984954	0.46905060021259426
Si	3.9953325191057187	12.426911261461175	15.141076640238433	14	-0.7844617166933558	0.041033041135839235	-2.1843138922167062
Si	-0.1192771199642715	13.677197222511108	13.750455973354006	14	0.10991038155728614	1.4952826061386266	0.08535632574987198
Si	0.938669770146438	15.92788251228654	15.588960339705539	14	2.2756984315001976	0.0750518498477825	-6.863993226950037
Si	5.500211909321794	0.012283591757629499	0.030471179553639	14	-1.3531300496456196	2.452984370861432	0.3428535520048302
Si	6.868085791469462	1.3842410711651774	1.4203866469112596	14	0.24844796397016497	-0.6983561708531928	-0.8058821093365734
Si	7.996864234051737	2.724562971800406	-0.0831971441741715	14	1.453148360594168	0.4693735310408049	0.29420901067922456
Si	9.66225031656677	4.10196524755446	1.2677027493631545	14	-0.9004450490168318	0.2547733972787933	-0.46695026427656533
Si	8.290719236873105	0.0087083941566105	2.7453253578687087	14	-0.47577506906690964	-1.0955330645042398	-0.8873468100738693
Si	9.677223506519663	1.3315315065336404	3.8845013934741295	14	1.3053622552341844	0.928192674742402	-0.8051493443203314
Si	5.544131079851743	2.7899005279584776	2.6116326475773928	14	-1.4749613610197723	0.10160648270480388	0.14436627817365455
Si	6.795187840384465	4.105671645067443	4.070346068771136	14	0.07246994588528981	0.7696020134955601	-0.6817152058895983
Si	5.48430391999616	0.046329968912287495	5.664588999023691	14	0.4692478039906497	0.2544666644140996	-2.0232781098104033
Si	7.134782412514284	1.5249037767795808	6.772031055922819	14	-1.9531416991136803	-0.7654676761407619	0.33912262107476326
Si	8.169228118394441	2.54823029012079	4.960406271534912	14	-1.5753982479144406	-0.7863075132026903	0.6193425048175941
Si	9.551468390902167	4.297666316237761	6.681650716568619	14	2.321649740002948	2.4571097093476095	5.661338915939808
Si	8.191548503417318	-0.079671146540139	8.142643736232737	14	1.0343893517752663	0.2662430981119739	-0.4929641936847595
Si	9.452232057490397	1.47107901289635	9.385976101948579	14	-0.254472063735272	-1.4794821355041887	1.3128598554582682
Si	5.4238699605477425	2.8410684936244377	8.046589000686094	14	0.9280188680227599	-0.7354461648700529	0.38641887477048326
Si	6.8829441814993855	4.123482033116556	9.37390571004789	14	0.10547085400098644	0.0514570734353156	0.7406094585739743
Si	5.425985559128161	-0.1252467159586335	10.863943110223039	14	-1.396318448371339	1.7118496354705515	1.701430488271183
Si	6.789677444081978	1.338501501856728	12.22538819668447	14	-0.5923384427506109	-0.012236918660712767	-0.16592216806724405
Si	8.18326650897459	2.760823347469456	10.897284287850889	14	-0.1643653637958944	0.2241723588689229	-0.32093127960311957
Si	9.595026761674216	3.9858533254663198	12.396981281544386	14	-0.7648197576000846	0.40781587035528755	-1.061665179674589
Si	8.100692564382248	-0.009036393936520499	13.66453643100658	14	0.25989812440291243	-0.28105317897709087	-1.0128825699932915
Si	9.356472521745674	1.2836927386337669	15.02504671809527	14	0.33947152006670733	0.4157366745150678	0.5299698554471189
Si	5.270989263131691	2.6695082087425126	13.63709924941711	14	0.028564980106845158	-0.5893122517887965	-1.0011323615696828
Si	6.78893944457718	3.959514943139547	14.714234126652554	14	-0.4734309923465306	0.4202466503571395	1.776552529294206
Si	5.440663549279134	5.303264441474835	-0.199555066097244	14	0.3973031349222661	0.18289686250139367	-0.7302234786332362
Si	6.9327837480567105	6.480652451439771	1.155772824468867	14	0.7928157520995811	1.1495874685339689	0.6619428917565957
Si	8.310202423799758	8.205226094239563	0.08862554053168199	14	0.05325196205931097	-1.026801248643913	-0.12037606576294889
Si	9.786447433229693	9.41734928089697	1.535334169780719	14	-0.8365386836213592	0.5536998719994255	0.3183030957448642
Si	8.364945587066739	5.45252074132288	2.8551560841715724	14	-0.44543525495756614	-0.5273023336774653	-1.3568067302534312
Si	9.499775625588352	7.003205300803387	4.201070381054266	14	0.9457553809632692	-2.2676192472526964	-0.18802724605721716
Si	5.5810146551026225	7.979119445958606	2.417587977782637	14	-0.02817468631924668	0.004032007363056218	0.6698210155680614
Si	6.649736337983375	9.55332158965866	3.877432998217069	14	0.951758397664751	0.34921549500900456	0.20843410898323245
Si	5.4362355522503485	5.547165077815911	5.3462816126100305	14	-0.7107483842752425	-0.8425069904010188	-1.0272591625014313
Si	6.486425247566187	6.972799721205731	6.65788713251414	14	1.4649425349187513	0.1830925236162569	0.4949143770700919
Si	7.950452265194471	8.10863015905607	5.2992464441709375	14	-0.4675994683699027	2.086048046654371	0.9195411624506356
Si	9.457053654255075	9.301696558500703	6.836745412499062	14	-2.395581616373274	0.18348898805662378	-0.39225914050519956
Si	8.007409426975842	5.6678361968448	7.922965883638013	14	-0.031068979578137368	-0.8866515831953014	0.019883128772301143
Si	8.490372702904322	7.872634317410824	10.462438579635206	14	-0.6300398456126022	0.18439813089782814	0.8671086116568558
Si	5.194171714676769	8.21168768990379	8.034092209071522	14	-0.19625761129754316	-0.43987832502913016	0.7321122126014169
Si	6.704528701217341	9.281491772058247	9.406804087972864	14	0.8482289852910084	0.8001135774402893	0.5843752153530481
Si	5.598431443415844	5.411651968746095	10.844427123318393	14	-0.7971277528320014	0.012914919133635815	0.1343140277034716
Si	6.9343745469892735	6.876712185681096	12.11258907237342	14	0.40300250408543836	-0.7741880940551082	-0.38506853025634147
Si	9.59304236300576	9.357161321283485	12.199935413763454	14	-0.5412536653656528	1.1497990705018168	-0.9032460111526011
Si	8.142709336188718	5.353661607658006	13.530663320836315	14	0.34330940897809237	1.4791718030920467	0.023608146160131675
Si	9.507204820603313	7.020753289028573	14.736866111466345	14	-0.31625701013109037	-1.5142082552897045	1.3125407812880376
Si	5.568075063785174	8.111319757251332	13.544324511669567	14	-0.5352979570020617	0.08493774980375188	0.9100815517567468
Si	6.757812265463721	9.40306489048189	15.209956594019532	14	-0.13766752037254076	-0.5973569832250079	-0.9146920578168364
Si	5.1511381435525765	10.722394805202876	-0.215299055532924	14	0.2105028203238236	0.6624414290781723	1.2816864890041328
Si	6.550122804824708	12.075262697419662	1.1869164035713216	14	0.9869933391931244	0.9787179796096959	-0.5895909596055007
Si	8.038864605869213	13.755343170074664	0.1397443062306555	14	0.17629992047095774	-0.5521194135591305	-0.6667218052151548
Si	9.72501307445255	14.872707220316071	1.5842553369542955	14	-1.215154767966257	0.5442356333159605	-1.6377436952700515
Si	8.127309746521943	10.99634022138371	2.4905187288456254	14	0.7428167524913214	-1.0892104594114635	1.5275895729284152
Si	9.601078357613554	12.234982190246837	4.1787171960534	14	-1.3547565308711451	-0.5069330088891241	-0.20281650096924095
Si	5.537062684594683	13.63152325315864	2.5697634756718815	14	-2.370112247071887	-0.7843922968497119	-1.004744764544491
Si	7.089469242919717	15.057403896383393	4.292287119847237	14	3.35842610595744	8.165365640948416	7.695055970460545
Si	5.469527529911214	11.03307619673363	5.46596873229919	14	-0.3043139688084705	-0.3081536574935796	-0.7777758144188429
Si	6.861902995618159	12.130711060213448	7.08286004735453	14	-0.6712973442428903	0.9503160075801481	-1.7237535959923052
Si	8.045965801104263	13.562807299267496	5.595167845605739	14	2.0732781378607914	-1.4456296773064587	0.38902031913340906
Si	9.699921091289433	14.998413135966578	6.6186091588699165	14	-1.0366015307927217	-0.38854183643332946	1.3368420974424815
Si	8.175738914025654	10.762623978208838	8.236451673286997	14	0.2078826068920607	-1.4064812563702884	0.3519061567265395
Si	9.432010871058948	12.162215439073805	9.523522809653835	14	1.3916212960619603	1.0454363628938144	0.247927315142835
Si	5.641579814463004	13.7712511594003	8.217214486195275	14	-0.9046747743790073	-1.1484980912098222	0.546328770157093
Si	6.860197396762627	15.133680245201463	9.654542321738885	14	0.5037353252024559	-0.6209656436062037	-1.457958384427101
Si	5.350529209759865	10.747945988057866	10.777433168271775	14	0.8318687850283742	-0.7035564884737244	0.3290022363135964
Si	6.742789875543843	12.00923634172378	12.132974258694828	14	0.6600235616351051	1.1698845452628137	0.7880190980143128
Si	8.095674167749625	13.640953246831053	10.847493921260552	14	0.6151945406045992	-1.5531070218992888	1.005041212987904
Si	9.480390838595671	14.953526366085894	12.262648971682246	14	-0.7639759208340121	1.6446597114707175	-1.1294099482025106
Si	7.984597042283103	10.6537936512347	13.731251586240276	14	1.1371690298376536	0.550547696876924	-1.132208082122428
Si	9.28242657143099	12.076640296495285	15.145061837564338	14	0.23887625308431773	0.938892072421666	-0.0419352419926792
Si	5.567812663961245	13.573385292169592	13.62189645961828	14	-0.3568938439370947	-0.2565006658328688	1.0084875225590304
Si	6.6969191063234295	15.276983349044142	15.040577507674008	14	1.348708776937093	-3.338814485906946	-0.7941686677190429
Si	10.760934779342303	-0.056875161836394	-0.09872793375291	14	0.9957968038093115	-0.40687407447651736	1.2887966236564703
Si	12.43042085910621	1.21097518742772	1.3802394738502755	14	-0.9982655791377176	0.866851244014309	-1.1927802381387325
Si	13.734974383742253	2.8308021005132553	-0.02394398393343	14	-0.5305241857541428	-1.1240283676569087	0.3196835221912517
Si	15.010516327845258	4.327612696143544	1.230097574596473	14	-0.5940849945945874	-0.9478022379086393	1.812951924422074
Si	13.599625274562394	-0.39665013384516296	2.564892678940218	14	0.23877777975055606	-0.27746031640271596	0.0023301927516502043
Si	14.71279092762095	0.9927405338646014	3.96682933823154	14	0.5901594309917854	1.9639195155052092	-0.02997240315909421
Si	11.101972550503726	2.847956489002548	2.6210462412608098	14	0.037855669181200244	-0.9534504420759405	-0.03493772175336418
Si	12.356801308505412	4.244809151705265	4.103293646663095	14	-0.022550907652486785	-1.5329611261632685	-0.017117647889949864
Si	10.923458670287708	0.057285161561281495	5.2733016615800565	14	1.1424302826542725	-0.7781992754650712	0.7140175446898108
Si	12.374365696719591	1.3456682970477614	6.684094314928949	14	-0.9877947527214145	1.2401651949679975	-0.48541774245959296
Si	13.847478308251384	2.7435541590571946	5.318204831449735	14	-1.3932698887932393	0.01873333047313092	0.5345605639962433
Si	14.919119189173337	4.197478783464252	6.907904964750537	14	0.9020363060994714	-1.1580654312166252	-0.8121296381540013
Si	13.696664009448765	0.10392673026448349	7.982251843856746	14	0.603315005583387	-0.9041153018613431	2.6801633802917357
Si	15.186816209546883	1.560393352965843	9.678551905628298	14	-1.778064596332985	0.5706329145273887	-2.1863988015208142
Si	10.866075108792453	2.6634074128361864	8.143693335528448	14	0.14101304261511743	0.7491897512483724	-1.7338865791695404
Si	11.791116488083631	4.175666798100237	9.64942552517229	14	2.0572501244055204	0.1588613986370534	-0.5221817203218583
Si	10.86418911005797	0.09008513955228149	10.826567535302292	14	0.23453725574603582	-0.5195987879172375	0.6011884443730925
Si	12.318638534112884	1.3707274802328855	12.341303318904664	14	-0.16052027578961292	-1.3399947867860469	-0.2049083522577134
Si	13.493451745805524	2.8155009107804534	10.947402654221138	14	-0.08313514786379606	-0.2716012815991624	-1.0562185501643873
Si	14.963103959659266	3.952446547882486	12.28774095484536	14	0.306093945021609	0.47762729333954423	-0.7615580533909447
Si	13.575189290959099	-0.1165219218130275	13.873701890655187	14	-1.325445416000393	1.7054308710388018	1.0700066166647453
Si	15.168694221706854	1.3509818934823035	15.091073073791154	14	-3.4595556486253556	-0.7460972257692984	-0.09175940643916874
Si	10.760327979749468	2.469018343272525	13.608497668608958	14	0.7160741718353972	0.46846130287321636	0.8515909626076341
Si	12.129628660939746	3.889519790106753	14.94829476959633	14	0.9196928576645245	0.5632849526329375	-0.2634290233390718
Si	10.889920692791911	5.5015075084524385	-0.2713378179305475	14	-0.42870455841829863	0.45937578800340906	1.0689632621258292
Si	12.17782822859752	6.8942601739062805	1.340469500536188	14	0.3628410676531293	-0.9250561833623532	0.3477101128440578
Si	13.505538537695209	8.048163399629662	-0.2428346370563685	14	0.2938994495986787	-0.2885682627173517	0.5643930990259214
Si	15.031295113902555	9.256120989082207	1.00761532388352	14	0.9743686978501335	0.9331914177058339	1.0808042305672392
Si	13.700616406796682	5.607910637055244	2.9160492433118637	14	0.3069853472361044	0.587860348614509	-2.3368519144293876
Si	15.234769777369726	6.961746128622764	4.032019294488652	14	-0.2634300517811999	-0.7403585186947278	0.6578214099283982
Si	11.109811745243574	8.154320528397532	3.1400402930124027	14	0.14701323110074702	0.5693908135472252	-1.7928188842126547
Si	12.580562758360013	9.422761277265485	4.4602558071391485	14	-1.6228641945612907	1.238526886657999	-0.9859132178481301
Si	11.019841405614262	5.481630721789893	5.495226312667162	14	-0.3345195712201021	0.9264918885731239	-1.0969482008724492
Si	12.390093286166277	6.816835825858525	6.779165051135862	14	-0.05831446843468254	-0.24684205158720052	-0.18882634559071917
Si	13.934857449619408	8.157403726328686	5.705096971842576	14	0.9909543840493445	-0.48713009860281153	-0.2028021027794481
Si	15.372808484744848	9.4715348445381	7.015374092638049	14	-1.2827789516546637	0.7154187970892915	-0.9490152853986851
Si	13.475280557998511	5.416801565290681	8.220740483829307	14	-0.28672478020280545	-0.08640353694676828	1.3255210064968053
Si	15.017666723047295	6.794351440945695	9.48655723445798	14	-0.3822153746825731	0.4342080093560755	0.0011726811365195388
Si	10.690595226540601	7.834520742985283	7.931461077937683	14	1.3733098839718658	0.006384311620459695	2.2229491205309757
Si	12.140173853863852	9.305550555914646	9.485376435250304	14	0.5629753915523917	-0.8817454000233947	-0.7579479644109248
Si	10.645839656571882	5.655585405065161	11.079291365722948	14	0.41495171606082654	-0.2689435300297254	-0.0913017496921824
Si	12.38410729018292	6.826446219409888	12.320573732814353	14	0.059352423652426316	-1.9713021873214824	0.031032212772059253
Si	13.607136469522331	8.149121731885959	11.006409814626947	14	0.6989840347723729	0.5676450330348447	-1.614436368432377
Si	14.817849257126124	9.714927081220315	12.31179973870176	14	-0.40200234411590074	-0.6012365240425793	0.3123314465282883
Si	13.707865201932693	5.2778936584987965	13.61691086296365	14	-1.3196174915712136	0.5223645259101208	0.365336582476865
Si	14.976387950745622	6.84929140408062	14.752249301144124	14	0.32318793874261353	-0.380893569437485	0.9428903983050284
Si	11.053510583022023	8.163471722257022	13.499109742008972	14	-0.12360614537665093	1.0651729386628672	1.056371788041468
Si	12.27918016058971	9.629319138663806	15.03470631161362	14	-0.9855771743827867	-0.9143493294776606	-0.2992712599440641
Si	10.906369881754397	10.836112328897674	0.055202362958853	14	0.19517440462616478	0.6881774220012585	0.08199486265431037
Si	12.566294767933927	11.993115152541204	1.5053385899079494	14	-1.4980619709897065	1.1306571913933146	-1.4201891043846577
Si	13.635590450429525	13.7654127633179	0.06294315776472899	14	0.7689101290539082	-1.1402746679538605	0.005484681868939882
Si	15.341468105774446	15.264683357297516	0.941621768165628	14	-5.554353166684192	-2.3913783733958955	3.895589399869269
Si	13.747602375268789	10.435608197638569	2.6246706388288152	14	0.6777886138446683	0.7692754831199013	1.2872840423966272
Si	14.856044831496643	12.299155347186229	4.058767676540313	14	0.2780938367536004	-1.188608876867324	-0.8446438360325941
Si	11.048787386191318	13.362924233390341	2.7235953724496715	14	0.5414369851749792	0.10191861489066983	0.994037139328202
Si	12.329560926783886	14.78324528034562	4.194477585478076	14	-1.1917777641744067	0.9709221311684747	-1.389826150327433
Si	10.695958022942131	10.733776397565755	5.697110177201767	14	2.092065204435113	0.6798025606419402	-1.7549107644829234
Si	12.342779317914259	11.894534818689252	6.914054960623849	14	-1.0724905615145406	1.7936182408566885	-0.09240552520612196
Si	13.517838529441834	13.496469343780698	5.572798260615878	14	0.966671836963738	-0.6870633620660385	1.0485157757357557
Si	14.996461537276113	14.925695584760533	6.890422576481334	14	0.8394149791430089	-0.6014887494744858	-0.15800367790225198
Si	13.717524795451043	10.665995243047352	8.237124072835812	14	0.40046945112402843	-0.2256000936532011	0.5620104557257402
Si	15.022586719745947	12.187323822225913	9.558995985851103	14	-0.9502568721577846	0.2126664054507282	0.8661822424100065
Si	10.992420624013786	13.606726469797445	8.195648500666191	14	-0.09143390450563801	-0.6531173156346554	-0.21951377313934659
Si	12.305272543081552	14.983111946233777	9.644341528583684	14	0.1608619756866606	0.530508759122222	-0.6961424491725453
Si	11.03066539835129	10.811331945525474	10.741927192096519	14	-1.9852684314205267	0.13446726558055244	0.6929967018133442
Si	12.16852943483707	12.005611944155774	12.321508532187096	14	0.9831775617874927	1.0448167265116586	-0.7297051438006943
Si	13.604430471338075	13.605365270710818	11.120570138024622	14	-0.32810749166218484	-0.7536346781258444	-1.0345649582686323
Si	14.735029312698849	15.05641989704366	12.52401559630353	14	2.4966407107554183	-0.9990819050768648	-1.6795719792814128
Si	13.605775270435705	11.024187402698068	13.866781095299087	14	-0.6259813558647485	-0.6886389354062251	-1.688037086437468
Si	14.943751972644577	12.347158114976057	15.007023130189216	14	0.7151017798033172	0.5128102985404506	1.554534756683567
Si	10.961113045021374	13.265918298481958	13.79978714025247	14	6.711090879113491	-12.072014136131239	9.835249438272978
Si	12.077804695713965	14.758104097215517	15.066473090297903	14	0.5701181792422951	1.9456934641117436	0.3888585966087717
H	1.827439293776268	14.90033464177789	16.013113255096155	1	-2.689871873980615	3.005775100019653	-1.0482126424185103
H	0.041086892430426146	15.662950530057635	16.661260500185108	1	2.0553310513945617	-1.6702998021653626	-0.20899718104834486
H	11.668684010236623	4.671451585425398	11.828851222763376	1	-0.03755433563767888	-0.04164239309671433	0.11964150097298257
H	10.441889393423844	14.025869188549935	13.166516325181332	1	-7.824332688620784	11.142451062253198	-9.360951212101963
H	7.179242782681085	4.711119878807714	7.040200395979436	1	-0.42005664567398054	-0.5510493195248849	-0.394800935224698
H	14.428800518180376	14.280772577508092	1.8085825864292422	1	-0.6788833904899872	-0.534002891252303	0.6124496285648092
H	-1.0836768328457493	14.847805477025304	3.7681237915642627	1	0.07930085849985921	-0.3798805539413467	-0.3303029584950593
H	10.418617809039231	5.196730112960067	7.688685480841698	1	0.5748292155204024	0.32214638397742157	0.4633597156969785
H	6.592657816283437	14.362364162759604	3.4357747345726564	1	-4.055148853600742	-5.788421195709299	-7.239538125990019
H	11.867117317086576	12.349242553577387	14.748920103378037	1	0.5677980138013935	-0.3876836014774641	0.6188776489757114
H	0.2134425767786334	0.4044073286400345	0.17333968368793726	1	3.553023811660295	2.4650652234292116	6.19513997542448
H	7.577867475201305	8.818374122813221	11.380483723620904	1	-0.3320654511920208	0.37454628173363547	0.2957956397722879
H	9.097244455689404	3.461698197177843	5.716340804297891	1	-1.036085252844436	-2.188544903131542	-2.828124577924022
H	9.84462311419343	6.816073226370235	8.789931621898326	1	0.5344119541087387	0.59395772488124	-0.4481254024540371
H	8.059048072325973	15.896581493289728	5.2135712616595455	1	0.5600741563091367	0.5728052414123819	0.466563055815351
H	16.11386166749331	0.4961669070687565	16.03754267870385	1	-5.236345748051144	1.943297708174429	-4.432360085998711
H	2.3106469295407805	11.62227204137936	0.36556231470529316	1	2.063912372511088	-1.65285639523135	-1.7687283986944635
