224
config_type=interstitial dft_energy=-23336.016362130606 dft_virial="-75.33212548103631 -2.677476612312797 -6.691719898519611 -2.677476612312797 -78.07663759027005 -2.496086444173786 -6.691719898519611 -2.496086444173786 -71.936974725217" pbc="T T T" Lattice="16.254729908999998 0.0 0.0 0.0 16.254729908999998 0.0 0.0 0.0 16.254729908999998" Properties=species:S:1:pos:R:3:Z:I:1:dft_force:R:3
Si	0.345526793675613	-2.6904016208881347	0.0021293696180789998	14	-2.8472726276852924	-4.232179482203686	1.3104131916356152
Si	-0.15318457466241597	0.20152614141178196	0.04323758155794	14	-1.3286430996870613	1.6281778979264403	-0.5188732219958917
Si	1.2232171898419768	1.4536442410319608	1.4281730792645577	14	0.43170632387957153	-0.009075744669590704	0.1260643791732445
Si	2.735232165977157	2.6472778224395577	0.07984323331300798	14	0.19577989992905964	-0.18704071294587635	-0.10059860941930583
Si	4.068965264470425	4.018315526073981	1.4658677979235288	14	-0.45801387351532663	-0.6383254896173114	-0.18817714149738177
Si	2.652804430608618	0.09343218751693198	2.7487886107212627	14	-0.1107452194547382	-0.8280710053599837	-1.0602261320269022
Si	4.072833890188766	1.310813929321578	4.053100648079241	14	0.1857101659426997	-0.3231038635986447	0.7432692670276675
Si	-0.156793124702214	2.8401564475397514	2.774145989379303	14	0.4887786913340906	-0.37234824379544085	-0.4962418387468844
Si	1.371509090801784	4.062609665076005	4.0098143023315735	14	-0.4094194687434639	0.2486662508118456	0.6055559809804282
Si	0.053965703297879995	-0.090441317213676	5.296538721928014	14	-0.4739966355169632	-0.1415766289012939	0.43954896643761915
Si	1.4296522596862768	1.2183895350590037	6.644088340843931	14	-0.0248934417096737	0.7386191659456477	1.1474423953653692
Si	2.718538558360614	2.6947253790439287	5.369798789627876	14	-0.6321386388854391	-0.5896650074387209	-0.4198023633578179
Si	4.096744597884905	4.010870859775658	6.5594987263974955	14	-0.15728068308622634	0.5667459175043889	1.2963816414614393
Si	2.859678378160461	-0.141204838719483	7.99145915773085	14	-1.1330043534400778	0.5018874718088655	1.053138623101382
Si	4.176912925796094	1.246315161042666	9.471972467302388	14	-1.3212982231189943	0.5041235621057982	-0.05453417228246881
Si	0.21792716388996297	2.7168155569902597	8.258751936354445	14	-0.2874865987091654	0.13731013673304018	-2.0481769508412495
Si	1.4086186391840307	4.257032489517554	9.539982257241643	14	-0.026734353118899726	-0.5402792164493166	-0.6889520960342193
Si	0.065880420321177	-0.022496546194056	10.832347068116507	14	0.011770005934573877	0.48314925623562627	0.7695217950095714
Si	1.525278835740924	1.3809205794190949	12.096347375300164	14	-0.9083352570233022	-0.5437679492582255	0.19874875524223465
Si	2.674309438278225	2.7871822827663206	10.736590454222588	14	1.5772946951985818	-0.4646486107939688	0.0029991943559527345
Si	4.046436208816551	4.1791885879833535	12.109204866658184	14	0.32771462676926627	-0.4810892866531236	-0.45966349468873363
Si	2.7982192443745317	0.07091938659296698	13.538011880389192	14	-0.6635570316765845	0.4244277818287643	-0.003039817820011074
Si	4.1054896425759475	1.3343020140400828	14.908025536039348	14	0.41887188034245626	0.426540973291394	0.9064989736036524
Si	0.150486289497522	2.6661495638639066	13.448952215217782	14	0.16729642386086319	-0.18070190988958326	0.6626697432306016
Si	1.5197847370316817	3.9546782584802456	14.870005722782198	14	-0.8439162132269922	0.8942204030367534	0.05621181850386543
Si	0.16929301200223498	5.520561409533851	-0.05606256345614099	14	0.05102847017844691	0.059348309883914076	-1.3837531995612433
Si	1.3448025695612968	6.927717123026072	1.3251180916414977	14	0.4859718156560848	-0.4631709965664797	0.49344627593228724
Si	2.6543161204901544	8.306833427425268	-0.031274100344916	14	0.24770311475891807	-0.9997928156978855	0.1294212142792298
Si	4.0952979269230045	9.523402432734464	1.328352782893389	14	0.13946138055440804	-0.2904402845009515	0.3468845309257583
Si	2.672879022046233	5.417473912450974	2.6690754152475265	14	-0.027117190701069774	0.8409627845457381	-0.12786800955532837
Si	4.111926515619912	6.7895194093397535	3.9576853835134105	14	-0.5121628942208372	-0.18836431796468855	-0.26248311369178934
Si	-0.11324670327600299	8.121578270652394	2.6950342189121996	14	0.312934884946927	-0.15353046886625837	0.7943226769277199
Si	1.2811490472376528	9.454661179949301	4.100775770902338	14	-0.5019216675096235	-0.5037430385184164	0.17450014674685407
Si	-0.10546068764959199	5.394392195980194	5.357380175977401	14	1.2603270315570028	-0.16391953413338073	0.3768008839888733
Si	1.2472579353773878	6.71237446119164	6.834154897669868	14	0.6767735414642738	0.10063357645165984	-0.6011203100821085
Si	2.6828269167505407	8.038939223795039	5.326057311442757	14	-0.2817635753770477	0.0671446725461991	0.992071786421481
Si	3.9978183116587314	9.516672974552137	6.684221268989252	14	0.022231576371724394	-0.184812593075436	-0.7115145736606466
Si	2.807273128933845	5.359867149653477	8.067385001135788	14	-0.0680941817409298	1.018428187058319	-0.13631023387403457
Si	4.0157635334782675	6.908032645106273	9.566477466993314	14	-0.5045279969726576	-0.29734164540129293	-1.7508944408623204
Si	-0.0715208115996	8.13516722485632	8.208817406073997	14	-0.05678723187451457	-0.45018382937334767	-0.4045886189574377
Si	1.2493385408057398	9.660852428844969	9.245755391158834	14	0.9242444854127825	-0.6720982435501165	1.663033601420092
Si	-0.024300821213954996	5.503087574881676	10.828267130909348	14	-0.5974048057839626	-0.3486879041973102	0.3720168283196738
Si	1.3137722901650157	6.800263785809603	12.169201074752303	14	-0.72775598885749	1.1212993964701037	0.2497764540890855
Si	2.601634540855086	8.179428854398525	10.79377459404245	14	-1.0489016986443098	0.89569133239041	-0.33602623893770894
Si	3.8795488968408476	9.50022318788423	12.206034292726097	14	0.4398819245765783	-0.026261012629460467	0.571470580640693
Si	2.6600377854181225	5.442782526919286	13.4195474088124	14	-0.036671160960208025	0.08569442609947145	1.247972613383159
Si	3.927922973050032	6.780026647072899	14.917534553036113	14	0.22783978349758208	-0.13667584505055963	-0.11027367873902304
Si	-0.101803373420067	8.30015273343267	13.521692131560556	14	1.339302645233863	-0.8354878728770148	0.4684834143789696
Si	1.3290517362794758	9.637071758988101	14.937641653933547	14	-0.8845916136127988	0.5524906811673598	-0.29712618677546454
Si	-0.047447556604371	11.063196742284125	0.110613437030745	14	-0.1400401363619734	-1.0118646693970448	-0.6878948575265743
Si	1.5088127943431069	12.242835001240072	1.592540908104366	14	0.245947564046321	-0.41673734870566936	1.68890252048823
Si	2.6384840135587884	13.498626669819686	0.025389888117857997	14	1.1745354176764295	1.101633268986823	-0.3536143991012459
Si	4.144891107875363	14.839333047443914	1.4470285659589979	14	-0.6751987394556831	0.23981264964191568	-0.0810839200393819
Si	2.791571059841751	10.66550852033053	2.8870025791374894	14	-0.19783909817996623	-0.2380355016446293	-1.0710443147719573
Si	4.194289232068814	12.009157004068289	4.0446806979863785	14	0.688950810481559	0.7798021025216516	0.40813545874658197
Si	-0.179354689815906	13.575852891617345	2.8473410381595294	14	-0.7266797241704761	-0.39936361872583276	-1.6801497066468498
Si	1.394477024163201	14.779824481247067	3.8886678003197965	14	0.3935441789442096	0.6490989351297959	1.1673262954692665
Si	0.015051879895733998	10.858435909620452	5.533483919811506	14	-0.5169826882539867	-0.6677366204850174	-0.2335957169777976
Si	1.445191781479281	12.283276769253664	6.6941691636935605	14	-1.3834086714483433	-0.02758590320093277	0.8624011749261968
Si	2.7508529614197057	13.427398443358449	5.264013007380104	14	0.7546628631433716	0.6265290012979401	-0.19401637878997005
Si	4.13439055235415	14.80529564301447	6.629199008247287	14	0.4460654328715345	-0.12869102036830776	-0.32411173688414274
Si	2.7340618254237086	10.924999028597808	8.007112462633216	14	0.5899725116350105	0.5586615910462474	0.6069284370003232
Si	4.106725002049031	12.35211555041828	9.468916578079495	14	-0.898713666694244	-0.974379496492478	0.43739309462667497
Si	-0.06464506084809299	13.533964452641852	8.152283455450496	14	0.3602877029596902	-0.2413748532344376	-0.7598948053593411
Si	1.26819402750018	14.82984028517706	9.50605863592156	14	1.0219205194146759	0.5220410808608461	-1.000599371436816
Si	-0.009834111594944999	10.889628736315823	10.7848344925925	14	-0.391207558429259	-0.2369471527626106	0.36882994327535024
Si	1.3643732643717328	12.143437327846538	12.265559113652856	14	0.015498622869852622	1.152247534098194	-0.7271175834064972
Si	2.6560228671305994	13.64534186197832	10.881111257843507	14	0.5200124787632493	-0.6794667742871289	0.2685452658156345
Si	4.069712982046239	15.044955380792764	12.192136498653902	14	-0.23004219231482095	-1.4263379027577916	0.0010502965232804902
Si	2.7675465690362486	11.002712892292735	13.665221396657026	14	-1.072583378416598	-1.7207091501827179	-0.813095602422781
Si	4.055360055536592	12.240348027563995	14.964689524502122	14	1.4035139437203052	-0.20212230253280092	0.8603568890861469
Si	-0.002080605428352	13.683247892126108	13.4780644364848	14	-0.619305480900984	-0.7582541830545545	0.09811080791153055
Si	1.2605868139027678	15.075026631124414	14.817291633687312	14	2.26695615919063	1.2483906751082152	-2.1283650977870923
Si	5.443416461385738	-0.08899464625177499	0.052096409358344996	14	0.2995684797190732	0.9406630497661841	-0.08034215615451919
Si	6.763186746887174	1.3652510197868188	1.4745315689650258	14	1.3882891435670486	-1.2223767457000208	-2.0921338529471614
Si	8.162523935293166	2.6900765262899546	-0.125941647334932	14	-0.7946803176777524	0.2116747301287471	1.4748132653533315
Si	9.485398874207222	4.0447944810957415	1.3120005246049349	14	0.2375359358809245	0.14049059401406333	-0.585864399554478
Si	8.346576242052773	-0.057427960768496995	2.570669280378441	14	-0.4795029146705922	-0.3601432068406979	0.4954743638088201
Si	9.50932583663327	1.273119210662607	4.1305544360956254	14	-0.25804615724080976	1.020760693804757	-1.11005903823148
Si	5.39931737914262	2.5663455222226466	2.7224234388088644	14	0.21710953255447613	1.6959622614762926	0.7974959351138466
Si	6.897548344314969	3.9627731139749276	4.052986864969878	14	-0.9995107654442653	-0.5004823627514046	-0.33245291676376715
Si	5.563018764056159	-0.08509351107361499	5.278203386590661	14	-0.21509250043081993	0.18425286344723976	0.5331482558438858
Si	6.792884138430917	1.357968900787587	6.75983827252592	14	-0.49627989110562243	-0.28115293786351253	0.7021971450909621
Si	8.19937340799687	2.7023325926413406	5.496260588319896	14	-0.3695945899975623	-0.8828622881744672	-0.6982268442555893
Si	9.421469021475124	4.122752165739306	6.7262885099937435	14	0.24524925184136878	-0.12077432997703982	1.274831150889022
Si	8.100447121770696	0.024235802294318997	8.309938080837888	14	0.19948691957964915	0.04974908817114123	-1.6294230842329882
Si	9.43309115336006	1.4471423490683608	9.525011650995454	14	-0.29705753826341663	0.8088319384703794	-0.20703234236268772
Si	5.274546072361136	2.7536975391537806	8.126633491654093	14	1.2365196247345593	-0.44936030433930424	-0.7618658146977665
Si	6.665154470805995	4.169468259497772	9.394925047533727	14	-0.3911484230068956	-0.9547347091833545	0.8271086406386521
Si	5.524527563631647	0.037987303797333	10.974771011579165	14	1.0536638999182881	0.059772285151206486	-0.027294854078692008
Si	6.757465081959206	1.5597388631480038	12.374612096612335	14	-0.3592890856533447	-0.28620927358611575	-1.0194782264710673
Si	8.012476523503187	2.8199030540731376	10.85503867106947	14	0.1210414678198032	0.04919810030103349	-0.37424906195862634
Si	9.51582772859687	4.145508787611905	12.074370980463197	14	-0.7479772179793907	-0.6981895632284472	0.7420184242894154
Si	8.119383882114679	0.130964358876813	13.547618425765412	14	0.11495026220584038	-1.241822272346833	-0.05515843665420077
Si	9.534959545699763	1.459625981638473	14.817015303278858	14	0.393082151318179	-0.5154418248356222	0.00682474196180106
Si	5.344035042722111	2.9136928456480677	13.614181544742765	14	-0.6377508475782583	-0.9620482182665158	-0.5108706566869309
Si	6.7699162050695	4.0800997544580895	14.88328583711785	14	0.5432401013359991	1.2085863652048747	0.15480290888919965
Si	5.2599005607131275	5.293694144193938	0.028331994231386996	14	0.38016543241081907	0.4455139307803627	-1.2525347826632298
Si	6.7132359618768165	6.5496971242623685	1.2357658413317247	14	-0.18414024903421727	1.2972992689502	0.21995780302813614
Si	8.109370968490735	7.954755977596328	-0.054957241822328994	14	-1.2157867456539495	1.2166969169372819	0.4056162897539009
Si	9.444095605508453	9.347705057148083	1.2453561319780349	14	0.16676497639118856	0.3804824496967933	0.3897736529922124
Si	8.020587633727779	5.318417588385527	2.602154692212174	14	1.5597052494823849	0.34448774654631625	0.8580624346984468
Si	9.571548942724922	6.659757900476207	4.0775640165922855	14	-0.6024719401489105	-0.9748734058244783	-0.26384322840614766
Si	5.483923248318965	8.076894018132554	2.5747492175856	14	0.29082543607790967	0.0050781901178244705	0.26290220385897345
Si	6.990590418314084	9.223876524701321	4.060203965049474	14	-1.597036670288807	1.4328978208716174	-1.2454940678545363
Si	5.388573002672771	5.317198483642352	5.1800898368599375	14	0.9103954837163368	0.8454514202136525	1.1871346050767513
Si	6.6479569665622735	6.805774139248754	6.75188970960042	14	-0.37439844317772697	-0.8051534580888438	0.26177091751810827
Si	8.147878423645157	7.9655166087960865	5.416970015823795	14	0.80338942272869	-1.002142548849969	0.9028847708551203
Si	9.318950439939062	9.33964271111322	6.864453714220244	14	-0.07831818204649862	1.1700709503985243	0.0915694017560098
Si	8.073480524851664	5.3971555000647236	8.161694944067808	14	-0.5800884114527655	0.4187415253027248	-1.838728283698687
Si	9.250680574321262	6.733781940481793	9.496598383114522	14	1.6393912595592026	0.6785077520027136	0.4938954480317172
Si	5.239338327378242	8.26193786341661	8.119156315895955	14	1.2195518722847742	-0.38482221836667124	0.17817888423892198
Si	6.616569083107994	9.692029000810429	9.511406442061622	14	0.37195974978156643	-1.4048581175816788	-0.3351605477764151
Si	5.363491954423185	5.584052384558405	10.739077427898664	14	0.9042412860220304	-0.7565868212544385	1.0291414687063118
Si	6.743112155449559	6.882951596856686	12.181148301235417	14	-0.6796452089963472	-0.4395793054803969	-0.25556298372261077
Si	8.006982424793945	8.181720771315696	10.802584657653128	14	-0.15919512810760858	0.799794246159527	-0.6770275666699045
Si	9.446826400133164	9.535691008545667	12.008132956084022	14	-0.21742140762981005	-0.15448871981907755	1.3094112318923536
Si	8.125641953129644	5.5006006012055995	13.379837103644713	14	-0.1505341027261578	-0.5605012169028133	1.1803952238115791
Si	9.432473473623517	6.827539222596905	14.838617839327918	14	0.6841369299906459	-1.083401561161653	-0.9989821461904428
Si	5.316727096474991	8.117969720612598	13.524309143075905	14	-0.298071325091151	0.3051878875067888	0.39781427065991154
Si	6.683993702770526	9.44089342371638	14.924215247028712	14	0.8514356678462972	-0.6669544902466282	-0.7025115912716161
Si	5.543187993567179	10.808338832040915	0.060012462824027994	14	-1.4227422119675648	0.4025615595230329	-0.5338949048288568
Si	6.907203653880915	11.980402386859266	1.4001986890911688	14	0.19159388335732658	1.7779620092307111	0.24071767871460778
Si	8.220943434586113	13.517482156514125	0.10151078828170498	14	0.2706402024304911	-0.26297676591325775	-0.777813609667049
Si	9.87050593521125	14.81698279381904	1.26526817611656	14	-1.5309865172773949	-0.21097641792379487	0.6960483467178279
Si	8.249047862598774	10.707218157277024	2.7447086735141037	14	-0.07272242842772834	-0.33380120439365274	0.10932751198120855
Si	9.4452659460619	12.11624316470878	4.174799810907924	14	0.7292148340161421	-0.16277822048176696	-0.762343011845186
Si	5.5833859406321364	13.46865294786749	2.722618495567773	14	-0.5861965863618411	-0.9550422133796442	-0.13506504756748686
Si	6.981504024294953	14.76153791009944	4.005295487416872	14	0.20676880406737255	1.0733112583327316	-0.15812966206293924
Si	5.628720382348337	10.671912883914676	5.388101615505411	14	-0.5536669618513276	0.19415470425619405	0.1732575315456265
Si	6.743729835186102	12.210471833991253	6.818696649526409	14	0.1564322183305775	-0.028512529558314136	-1.1414110965053659
Si	8.246609653112424	13.510135018595257	5.500242997147602	14	-1.3100825474914444	-0.36951642839582977	0.0877112011125956
Si	9.43502546621923	14.78707409078648	6.917752973591855	14	1.2448029547444805	1.4551561367386714	0.11336903243394933
Si	8.030242943293723	10.986425652923918	8.197926737034969	14	0.569075338924443	-1.5234824892900107	-0.3587614948416504
Si	9.462593488144895	12.22630394092262	9.448191797445523	14	0.6875228185867488	1.0008109734046642	0.19307766823758404
Si	5.499836628899876	13.609191342660704	8.134939658637592	14	-0.3518426504251319	0.19447943485812877	-0.17823596277702924
Si	6.849531872163783	14.861309442280882	9.567176420379402	14	-0.26880006235286114	0.11089562911596687	0.732618977460018
Si	5.263850460081014	10.832590889065141	10.927827351601973	14	-0.0767901741547346	1.0366748072943457	-0.3473943811107436
Si	6.639553271199321	12.247857712781954	12.18647985264557	14	0.3878008438800628	0.4734765009106972	0.4410877729717278
Si	8.29069248062563	13.600104948641572	10.976656560248609	14	-1.8049802123769552	-0.8539556081705744	-0.8812430060438379
Si	9.550499067492765	14.943688413459695	12.242314849882984	14	-0.16620010455235204	1.392656423063852	0.28827104294234257
Si	8.024570042555483	10.844505606088438	13.512882067949878	14	0.11145433030203505	-0.9540862764216133	-0.3411823335467339
Si	9.470298230121761	12.030044332001353	14.831384484518413	14	0.2656532865515319	1.5486618379112846	0.5865727390701787
Si	5.292800134048943	13.648820374178845	13.641066868012253	14	1.300077605359152	0.39407665485601223	-0.850339605648318
Si	6.851937572190314	14.930587101153039	14.934423217411563	14	0.05629357965304614	-0.4607006785748814	0.15756736132942287
Si	10.910321007489978	0.127030714238835	-0.078120231942654	14	0.04977377078221465	0.09631386240327905	0.05767297765730559
Si	12.226417724031982	1.456456309306218	1.3462817499830158	14	0.795280670770007	-0.20164124872740122	-0.5044344087390041
Si	13.610459211593605	2.8714468026145767	-0.06264572906928599	14	-0.31352701050215714	0.03989018482103342	0.3998814393373106
Si	14.993639198470053	4.2831213310214995	1.3115291374375737	14	-0.5793481902310947	-0.752897285120026	-0.16344979319138964
Si	13.615026790698035	0.10822399173412199	2.747471977598634	14	-1.6108522476160907	-0.5483861686342756	-0.6483368595129039
Si	14.860756781463976	1.3640806792333708	4.0869267410198695	14	1.2111345876876736	0.14546182615056966	0.6581368845511805
Si	10.867782379318125	2.7205053806796027	2.6882397418102375	14	-1.6829272717242056	-1.0153490313269096	-0.39837811405662
Si	12.180758187717602	3.8798577367091185	4.005019157008419	14	1.6589311457712637	1.1820186197107208	0.6460514039938244
Si	10.825731393043544	-0.03221687467963799	5.382591262066259	14	0.09699623375524635	-1.2300962323132334	1.199978304593019
Si	12.039146980750393	1.286919476355348	6.865786602072783	14	0.9035643139912354	0.6906078878603945	-0.34219149238489205
Si	13.54978030484331	2.639524316272965	5.457883171004748	14	-0.8841218726708078	-0.3641111936812824	0.6039773223138573
Si	14.92931923222014	4.014950796982817	6.73285542087698	14	0.1462508983733231	-0.34844236363923603	1.069473883642411
Si	13.523691463339363	0.049999549200083995	8.214782891950602	14	0.5325134499403413	-0.01539963531502692	-0.34118953264163027
Si	15.114476860613557	1.3560183331985067	9.463064875312257	14	-1.5910976741097969	0.14090042820209495	0.10444344031505527
Si	10.78906072236884	2.8290707217418136	8.137833000561395	14	0.18609994550923414	-0.31584383350614254	0.4582411592256277
Si	12.274986857000073	4.12429636508066	9.55482282564856	14	-1.2513271344943562	0.46736498356470524	-0.7791904365659884
Si	10.75053701248451	0.17303159988130498	10.855916426484557	14	1.1621380620437398	-1.132035303844914	0.16657111505004943
Si	12.241810953255806	1.5005879010091527	12.110488990320995	14	0.21995008971217572	-0.8612655177062873	0.03823413588432604
Si	13.65169746137274	2.7891003408955823	10.742783506317917	14	0.6990709381321939	-0.9832624082630576	0.5887165266861183
Si	15.024181835969062	3.9657964937380017	12.22189890911728	14	-0.6714621520939118	1.560070603548378	-0.6622303413313883
Si	13.550869371747211	0.10599709373658898	13.617725075862928	14	-2.010162130240732	-0.7446556070162913	-1.2619555696667846
Si	14.784879702248764	1.5184030849894168	14.677403428090457	14	1.80478557970422	0.907427142624226	1.971402203318436
Si	10.877096339555983	2.7843702144920637	13.437200045493574	14	-0.38446509183770267	0.18948172033682492	-0.014243923473620359
Si	12.210406815071618	4.133626580048427	14.734620077370137	14	0.3008290926575418	-0.416228784073344	0.6175846401102089
Si	10.836069401265668	5.383745347889798	-0.203427944811135	14	-0.3286985887752869	0.6062964593126308	1.2480111799629614
Si	12.163463155094426	6.847922653902791	1.2092218673903279	14	-0.36731453379965495	-1.2923691744988162	0.9913403069578989
Si	13.604965112884363	8.130729683591161	0.019554440080526998	14	-0.2448921253124002	0.8706837336045218	-0.8939784620261274
Si	14.865324360568405	9.532635119322777	1.4109918297507447	14	0.2515178637224218	0.03030690396124548	-0.5486605055719352
Si	13.517953543681488	5.41345899416345	2.7045269811790558	14	-1.0491482676445123	0.08746591766505346	-0.6507809522302368
Si	14.765487809467327	6.7078881557367565	4.108269201390386	14	0.5697875350981241	0.5712468944778402	-0.6444688886692732
Si	10.757591565265015	8.069985757921229	2.672001266631147	14	0.4736667627043881	-0.22470689166498167	-0.21209253474327117
Si	12.091210880648921	9.34221095843884	4.109309504104562	14	-0.17951251656848277	-0.21400569421199334	0.6892765695256219
Si	10.932411185436312	5.168370176595548	5.433371038301975	14	-0.2519832337853686	1.980695463498111	-0.39463818425793257
Si	12.01728436902279	6.7865935579561345	6.859235945919456	14	0.9239750335752309	-1.58861475770213	-0.583242386348991
Si	13.479917475694426	7.961485435778654	5.521943061576116	14	-0.4676514046973697	1.0310500001854577	-0.41202836931181813
Si	14.809765693739445	9.363000757992452	6.844720472110718	14	0.696972916190953	0.3400081097470223	-1.1790957871827765
Si	13.550528022419122	5.413979145520538	8.097895129174981	14	-0.14202760077444787	0.11684748082157766	-0.2565513166076757
Si	14.80670980451655	6.791031099221291	9.503425369676302	14	0.2952261399438751	-0.25424966312507913	-0.02952220261753629
Si	10.735875246106591	8.081477851966891	8.184126471342228	14	-1.6325040397381219	-0.5471152712745263	0.12319913940447148
Si	11.978110469942099	9.444518228486087	9.422298012700484	14	1.2643708660045314	0.6242466311052445	1.1280153806768625
Si	10.794684858917353	5.519586125739311	10.869554144878208	14	0.4887311258856678	-0.00010901486557427855	-1.3092520804730365
Si	12.156262309744738	6.762065170523453	12.21965575638984	14	0.5537803475959462	0.6367195772343469	-0.5087438383661044
Si	13.510703934142072	8.205241365494018	10.789580873725926	14	-0.30951840019751425	0.49094587600844325	0.19990343864151314
Si	14.82868619935352	9.60942246341289	12.224873524690627	14	-0.17156882957135325	0.08766800654321712	-1.2687967667026343
Si	13.583346322105394	5.466953310293969	13.489166417012648	14	0.763089917940689	-0.29741697878717327	-0.28103003902920953
Si	14.912414313114779	6.845565718065986	14.8483381678135	14	0.3075260506849315	-0.41307326651392634	0.3492792584209442
Si	10.785273370300043	8.134452016740322	13.474309593875821	14	-0.34087071558193194	0.9877343317463911	0.15332298066692243
Si	12.150947013064496	9.490356566829467	14.843022871133257	14	0.629184695983121	-0.6132137610659572	0.14658668472813446
Si	10.841173386457093	10.757429017965926	-0.013849029882467999	14	-0.8602807843686706	-0.5150327619791865	-0.4610056116658509
Si	12.233634824111578	11.965041667095262	1.331766276174279	14	-0.6908698834925177	0.33406988489960826	1.4837023477766798
Si	13.168070482390261	13.482225647341505	-0.039385210569506994	14	1.78690354220259	0.7884075920281872	-0.1585405246930989
Si	14.619975467321959	14.940047353960079	1.2450960562994908	14	0.9061094511476501	-0.8504254805660111	0.13841442646804378
Si	13.461013224810259	10.6450438153751	2.8281279474070917	14	0.32828772614512725	0.7190168018743067	-0.3526888011859926
Si	14.7898211401411	12.068340475666957	4.131952342867799	14	0.8120159952988508	-0.4490975373755851	-0.36984784387159686
Si	10.965213230392672	13.36023389937446	2.8338496123350594	14	-0.12510664244148934	0.34371255829229164	-0.8489566080966104
Si	12.2524578013462	14.887934689871825	4.046956360173638	14	-0.013293385836761614	0.05406031757196552	0.1284801897320556
Si	10.688021321254496	10.688899076669582	5.48873464837203	14	0.7303448348043471	0.009061346479797875	0.4840694548297073
Si	12.142299496752909	12.060359403281637	6.877457498147445	14	0.0014475322952433687	0.26325444528783376	-2.3478721860526064
Si	13.522196028187736	13.44344186177863	5.367116759192891	14	-0.4457147341058662	0.8474807936428455	1.7416849987160816
Si	14.871826252532006	14.91629919356303	6.8123735595918085	14	-0.21082523693097016	-0.13910605379916363	-0.7717249751584063
Si	13.43661487521685	10.676545481938742	8.063191280819266	14	0.7603095246474809	0.23778353332325475	1.7897446135813537
Si	14.827288292581345	12.177263420787167	9.45812343741992	14	-0.4603589786778337	-0.08660048361429162	0.10444292609399125
Si	11.040586412980707	13.53269658370895	8.139019595844752	14	-1.5932936551637353	0.5049404022660092	0.8156278840525948
Si	12.231294143004684	14.928083872747054	9.59077828820727	14	-0.40443563819088885	0.5295592499274911	0.2252283118239077
Si	10.794879915676262	10.944829799086788	10.789970987243743	14	0.42543976888277457	-0.2487590677139029	0.1042565209582805
Si	12.162455361840069	12.26663192582685	12.239128922820822	14	-0.025065962876655634	0.11701871643589952	-1.4726445380157869
Si	13.608833738602707	13.618960435336012	10.9443096477297	14	-0.22259061487596776	-0.3203190994263923	-0.3228462388455659
Si	14.848777045521043	15.097718234077378	12.281943881401128	14	0.740917476991328	-0.6815228872116513	-0.9729504761555396
Si	13.429397775137256	10.927632294843065	13.50751800707991	14	0.5803012989732736	-0.5429045720917197	0.7411013110217186
Si	14.779710698137702	12.333503884672474	14.877612936379608	14	-0.10513866719362332	-0.23432179712020745	0.04050082233456858
Si	10.868026200266762	13.598105616862764	13.527625107977343	14	-1.3463562155691575	-0.8794175212665327	0.37303961401602864
Si	12.092576277961276	14.948954945950211	14.806644785596914	14	0.6471076140593413	0.7577700439227706	0.5269053550160343
H	0.5705670273737543	-1.2581063421186542	-0.05999458262112809	1	0.3146685812643029	1.6057429471238924	1.3945610978850178
H	2.5682570784599448	13.045890179556272	2.6013825925414964	1	-0.16078047164801193	0.41257884296086184	-0.1676442944106792
H	4.3068044724989125	13.450823134630308	0.042314312899108794	1	0.5516378455326668	0.18115108198901314	0.42918586933423036
H	9.39899523190294	9.44089342371638	14.924215247028712	1	-0.010861120203901531	0.005751305490639238	-0.050502422029944614
H	14.693111999074514	9.444518228486087	9.422298012700484	1	-0.10308229715856887	-0.0851989741042789	0.17851929858330956
H	17.627415842247196	6.845565718065986	14.8483381678135	1	-0.019530373122376824	-0.09369724851896435	0.11468081036828888
H	6.784714511178653	15.044955380792764	12.192136498653902	1	-0.07711027676709305	0.17004930632714574	-0.06629852178533836
