70
config_type=vacancy dft_energy=-6839.631282080437 dft_virial="-2.758084734435009 -5.33372806620311 -1.705171279827956 -5.3337280662031095 -0.7607687248463189 -6.969738552863218 -1.7051712798279561 -6.969738552863218 -0.550901490405955" pbc="T T T" Lattice="10.967965154525821 -0.018908809744022002 0.0018864937795660002 -0.015322277965428501 10.888951775525857 0.0363808131791885 0.0027090928113535 0.033101385039129 10.874386288669674" Properties=species:S:1:pos:R:3:Z:I:1:dft_force:R:3
Si	7.376951856407142	9.274563884486781	11.490412057997279	14	0.28742232107616167	-0.2686303694017314	-0.03367659459383155
Si	0.8022742549100945	-0.12841428965428306	1.802079763722676	14	-1.1198081553844177	-1.2895121622670676	-0.1936276276655637
Si	3.4075375196726676	2.5878329396783504	1.7620104164849524	14	0.6017700283965101	0.1186696231619666	-0.4946312983743436
Si	4.749026536718177	3.746344124891758	3.307580769323396	14	0.5858422880487246	-0.3577171118606062	-1.1556411360102574
Si	3.399987157359567	-0.35881879446441656	4.322916947856125	14	-0.002311680793345138	-2.4144882393449825	-0.02686805059554742
Si	4.732622815225626	0.865042948230317	5.615332997061319	14	1.1100970905902183	2.0846280251860527	0.8957844064029994
Si	2.095193734722743	1.1143562627844725	3.1956722034416063	14	0.39889953421554597	0.5852185378980568	-0.9724246851175692
Si	1.7369968251263581	3.6908965629544443	5.842871566844706	14	-1.1947445626033257	-0.5045771050842723	0.8880222394414723
Si	0.8211764838618623	-0.4068147059724446	6.926132489428902	14	-1.072829690306268	0.27560243569837695	1.5830136047621874
Si	1.9389075962740818	0.8832794203656914	8.592741160603268	14	0.6423137881899251	1.332912162960635	-0.11675929190909659
Si	3.3590030799984962	2.339695393340296	6.948668412503752	14	-0.8468868683138913	-1.2610348568516394	0.08772097131281216
Si	4.247745654733966	3.743445285903739	8.467063383728064	14	2.4268933082936335	0.2623303900357725	0.45798996223584926
Si	3.554152087104926	-0.06662613437995131	10.134141484749902	14	-0.1529082613787825	-0.656791425137147	-0.560706391107361
Si	5.090030029751495	1.3474183108666342	11.3840916815381	14	-1.4104857529064188	1.235159767130733	-1.411807043930443
Si	0.4636562990689609	2.446843852824809	9.97730146295317	14	0.3780856653173513	-0.3513109458449252	-0.412269538990848
Si	1.801972277449189	4.030466540075033	11.489330614470155	14	0.09830621191586181	-1.6903407968043205	-0.9372249677320821
Si	0.6148543883063395	4.8925711645638055	2.394433326512855	14	1.2286404724809659	1.5441096959419627	-1.7214375443199155
Si	2.1873741822248505	6.335066568323147	3.278358761318177	14	-0.5685492907759407	-0.3301569197128749	0.9011523600904046
Si	3.141034078951572	7.6699024043995605	1.729207360694685	14	1.629262904371543	1.0596000678814461	-1.3422434754990487
Si	4.835770153019523	9.158036699241183	2.819537150958708	14	-1.8192706728568704	-1.061994024045036	1.820532828458531
Si	3.7004847772689593	5.180098042939972	4.7141296921923335	14	-2.1127086090505824	-0.8880386945155213	2.577056657632626
Si	5.157422826429072	6.615488384662089	6.024107682326837	14	-1.1728014642485218	-0.4202260815145783	0.5115841384132719
Si	0.8106625714369089	7.888896912239447	4.318375104401949	14	-1.7214717400206736	-0.38426454562273116	-0.6829115411950633
Si	2.0742788801398686	8.882519766729114	5.813151612225578	14	1.3829463867117808	2.128096931502201	0.25398818171402004
Si	0.3844575610871694	5.102569729392064	7.517561450907351	14	1.7675372055996386	2.025050886928646	-2.3037098526316147
Si	1.8617796142549765	6.844963900965657	8.569076631656804	14	-0.6687771468080812	-1.4762165746370686	0.41374946721312533
Si	3.5423735657684383	7.865037153122772	7.34939588564097	14	0.5624981944049723	0.35874401132547334	-0.44539000350393154
Si	4.841803642718008	9.384070461195753	8.701176164973496	14	0.1973469886216899	-0.3474159783954329	0.355699822626418
Si	3.065676330048873	5.184287814008543	9.812281516384344	14	-0.5431326291336169	0.5523950360494504	0.33218063671036346
Si	4.564130403943946	6.418632758764377	11.05459909095626	14	-0.04479533955081192	0.12335777660272462	1.651415033588875
Si	0.46718360371726564	8.171994917428469	9.964985510249248	14	0.37105060694036207	-0.7831941617705229	0.4212774064799869
Si	1.9674462986835628	9.36048490175634	11.336521327929182	14	0.6687187827173139	-0.26405688725825194	-0.06632577550173194
Si	6.094130602308716	-0.10114238975375481	1.9049145138844947	14	0.8949739940060887	-1.0365830188344165	-0.9951314017524573
Si	7.655635246792238	0.9382114869097515	3.131367991928714	14	1.2006833016718037	0.605346178786304	1.176433407623763
Si	9.241711472754607	2.36993961774235	2.138501928548292	14	-1.810219610798353	-0.8281921044205626	-2.647652010628996
Si	11.428917844776974	2.4217052264133834	3.982121846577527	14	1.0981643336888793	-0.38804304200122075	2.6655988399846935
Si	9.003791703190062	-0.5210759050851465	4.492202344604447	14	-0.3295563095100883	2.3030531923328494	1.0445398184686787
Si	10.367564379607341	1.1988371833490488	5.852538750666272	14	0.8110448888194308	-0.9521661749685266	-1.432521411052748
Si	6.3227747451908245	2.4014868390107553	4.366499341358936	14	-1.6987776218018547	-1.428910550741132	-0.04901478049170693
Si	7.234676224667885	3.791217450475121	5.828381759099446	14	2.035627642884139	0.20149675260840894	-0.9028030097059395
Si	6.168342196560458	-0.05710043759185206	7.214949203086911	14	-0.5150101362523692	-1.5227145001308826	-0.3759920142551547
Si	7.511972164686032	1.3256600180765004	8.45580035778483	14	0.2556141487184817	0.4045662503411524	1.0282025010433937
Si	8.830580863862052	2.5180809289776067	6.8596302933030735	14	-0.6033286324415839	-0.519434751397812	1.345272751787247
Si	9.937179469377412	3.67147006421975	8.499726049283572	14	0.5596931185006907	0.11708710783741547	2.0657661394469145
Si	8.641338117803855	-0.19358716574474313	10.080520092663157	14	-0.4222623969281356	-0.3792200369846006	-1.9009001814451876
Si	10.186292069767813	0.8437529884889474	11.294393289514572	14	0.9648908323084714	2.481987981535894	1.0235300313450888
Si	6.3046534369199	2.9658171947847065	9.863825571716148	14	-1.090678303438736	-1.5306486740383276	-0.054028435865995685
Si	7.635799642139069	3.9561814603097853	11.55327507600648	14	0.4457381311642797	0.00788403735370207	0.2462303856315373
Si	5.945629541096892	5.244873877897756	1.814760950396712	14	-0.08952460169489604	-1.1461563284842313	-0.5628031274959417
Si	7.533665746352333	6.416523614846874	3.0372133067503166	14	-0.4073294172287155	0.12780167503806852	1.2492249987846034
Si	8.848933596660585	7.733833704351376	1.7588472490080522	14	1.0800742937668493	0.8551156908910251	-0.4527693328832886
Si	10.169262076212393	9.323913245601776	3.006954823965045	14	1.927445815433588	-1.630408846012733	-0.6377485335834702
Si	8.831800504026514	5.029933138086518	4.470595410036163	14	-0.39884194145637475	1.4825612912355977	1.1947749016461033
Si	10.349799530916858	6.7493384087184225	5.812591148085254	14	-1.184458855770073	-1.8477068405871762	0.5423335296001149
Si	6.219030748899203	7.905175598679167	4.4025324693473555	14	-0.023986355752725456	0.2542013263450604	-0.5316693560637367
Si	7.425385390600081	9.33629939342308	5.782537766658574	14	-0.49314854193621405	-0.21765229288755938	1.012249820974003
Si	6.140972681574824	4.904797179773586	7.3775671604829185	14	-1.4447508735080323	1.256132016116649	1.1954765562879717
Si	7.596467343633827	6.216081457170567	8.706291634152505	14	0.34385191220064365	1.4515815290120697	0.7393555305093381
Si	8.614101315462015	7.835027643644456	7.128772631718144	14	1.2034894060182133	0.04675760713114894	0.8702980678064994
Si	10.035901224380293	9.45721157990746	8.578657168380357	14	-0.30120833069226366	-0.7791405571227774	-0.7358927658641626
Si	9.226799397506364	5.23413183134132	10.310831369583022	14	-2.399536490576726	-1.674822633534035	-2.2165565813734913
Si	10.576189752451869	6.2900539493037355	11.648057130046455	14	0.42170292441047136	2.595960709499014	0.16606666418623636
Si	6.177855828562757	7.771877264373484	10.182049652361206	14	-0.1174817725040582	0.46975199774393067	-2.1832365990875644
H	-0.24083725413061713	4.006592522575142	3.2967575596624905	1	1.7984696594852763	1.8945503226360176	0.07356677941486496
H	0.8168386449675694	2.523439887470025	6.701525662594807	1	-0.07808189746757702	0.33618461902543006	-0.2101729475112486
H	10.27511082922668	3.1396345637988237	3.06578381632236	1	-1.6387438552395892	-2.174797460095242	-1.6554719806735365
H	12.354465693792033	1.5500233555971863	4.955774190172812	1	0.561851561416955	-0.6528679184186009	0.31461973026322004
H	4.455907081724565	5.917547106950376	3.8216821314176936	1	1.9013712079398386	2.083447373623041	-2.241124778260166
H	9.73979408970323	4.069444572597252	3.6644472620857034	1	-2.2574698090014116	0.9398330969688403	1.3872041371219461
H	4.51696476905867	4.030466540075033	11.489330614470155	1	-0.08644184641603848	-0.14174297941550748	0.17123150055334982
