227
config_type=divacancy dft_energy=-23075.457127689344 dft_virial="-83.11466252712484 34.19772804017081 -34.06377380591208 34.197728040170816 -82.36215491702431 13.107815805259019 -34.063773805912085 13.107815805259019 -88.80771748312101" pbc="T T T" Lattice="16.249967316 0.0 0.0 0.0 16.249967316 0.0 0.0 0.0 16.249967316" Properties=species:S:1:pos:R:3:Z:I:1:dft_force:R:3
Si	1.479185774873532	1.5917492984714638	1.355929772781672	14	-1.152074241599616	-0.11793814369838446	0.7819404908164187
Si	2.557208606616972	2.87916920904888	-0.230408286573564	14	0.6814521818153473	0.4871645514141015	1.2464322641858585
Si	4.074321805206048	4.0309506424396435	1.2767111821161718	14	-0.619774707621911	0.6616523568554189	-1.102052102043475
Si	2.793629381097456	0.256603233886956	2.744359480195344	14	-0.6681564819837975	-1.1733529663396935	0.6690062322921064
Si	4.436793576156743	1.349299786116744	3.928722098054688	14	-0.9625392993826639	-1.5687786801571875	1.5046270313141725
Si	-0.24010951706121597	2.7234457722596517	2.819596828868424	14	1.644578207432069	-0.6944156948395338	-0.08317448577519432
Si	1.386625961041596	3.9247408560622676	4.045413113350884	14	-0.6439688086845045	1.3217409674551237	-0.7807084171470038
Si	0.03661117636294799	0.005346239246964	5.604841226830824	14	0.9670459327878196	0.3092054966800522	0.28161316571581907
Si	1.695992838803604	1.490918251275684	6.720352733172276	14	-1.5993213544762905	-0.7183799390865061	0.16547685262579437
Si	2.9712902737632843	2.659648400577036	5.13019593149778	14	0.17231367878260015	0.6129707916132031	1.4970836654153903
Si	4.115271722842367	4.015301923914336	6.790422592238867	14	-0.29959367655121066	1.04966480270333	-1.1688846424038082
Si	2.68392585174714	0.065519868218112	8.29097707413294	14	-0.28830163909565226	0.8032981484898248	0.2981299462924504
Si	4.010443183686852	1.597599286705224	9.574025743502352	14	0.8425566127336979	-2.1359573146869573	-0.5097154590665883
Si	0.12772474310376	2.664035891752356	8.194566018047112	14	-0.22837688739896103	0.12883140271878785	-0.4677200532094177
Si	1.4301921234157922	3.967884519286248	9.660703069165896	14	-1.6988251872502773	0.750746555519722	-0.5456571974474703
Si	-0.11686976493667199	0.126375995816532	10.82702822330448	14	-2.1126556442809874	-1.4659480942094611	-0.15041814587621913
Si	1.17105389462754	1.343043548700084	12.00905084587032	14	2.6403539281777553	1.9154153565300835	2.6578006775486838
Si	2.791695634986852	2.82367557066474	10.946205483600025	14	-0.18505479119659396	-0.3818780456645697	2.111543127008959
Si	4.300098851094552	4.064961824032031	12.349357661401992	14	0.07906817346838581	-0.4015421162635942	-0.11193641254956281
Si	2.699477070468552	-0.060303628709676	13.324940699185367	14	-0.4504106008625847	0.10231019423092842	-0.0775990438884532
Si	3.7626799320198	1.343774797229304	14.85019513139976	14	0.9284269024370674	-1.1063461050386545	0.27214584170596984
Si	0.032873683880268	2.8465880245802997	13.554715237033609	14	-0.865758010032182	-0.3352708481946494	-0.49530029997864605
Si	1.267529950582632	4.403936142243792	14.834318913332027	14	2.3911819409494366	-1.5852093287055937	-2.184393596481631
Si	0.076846095437364	5.307856824163608	0.08888732121852	14	-1.5974956125884534	1.5261752078918016	2.5991177697216243
Si	1.2914661524391	6.846078730296168	1.489667003792352	14	-0.6698618961426518	0.02175695032962506	-1.9094295662342469
Si	2.854989257682672	8.006456396397095	0.183673380572748	14	-0.03134588762111732	-0.8183771669714293	0.08858100604240168
Si	4.071055561775532	9.4810434305202	1.3546785252983398	14	-0.10240686779096596	1.3166036419149358	-0.23731662059711592
Si	2.573686073475396	5.396012896852907	2.4747725224229042	14	1.9514527400288748	-1.446585100043426	2.797034515282259
Si	4.062264329457576	6.684261555763439	4.206239039877336	14	-0.6987138116032254	0.1149312360264713	-0.6595507353667298
Si	0.054128641129596	8.155809845998453	2.839633038569052	14	-1.9316642279323555	0.5641915243688218	-0.6343163650916044
Si	1.4505045825607918	9.442384758275436	4.079993043799332	14	-0.827855289623623	-0.8097212838006187	2.077198045031889
Si	0.034661180285027994	5.513012661528108	5.339138011246908	14	0.2314881819468722	-0.8059343027745726	-0.4878088704073306
Si	1.256951221859916	6.7061665117054075	6.829682513274324	14	0.8400487566044255	0.5315264026079365	1.0003065225408514
Si	2.7278332634349716	8.0733900117717	5.5855200156921	14	0.6265063755711227	0.5056256018338288	0.20994180514296726
Si	4.256890188001308	9.587935715524848	6.946552278210996	14	-1.038989316303543	0.7240335425749796	-0.8116814944966995
Si	2.686704596158176	5.17829583475314	8.246322163948571	14	0.1738874523490628	2.1579124972367656	-0.7655466090740904
Si	4.03194189044592	6.8369949985665235	9.629226882474804	14	0.007106792215421305	-1.540381593227748	-1.5372083350416212
Si	-0.106746035298804	8.184523538245823	8.199343508438016	14	1.3811952068782278	-2.2291472841262565	0.7104601633688539
Si	1.45136583082854	9.149414097535272	9.606525678134352	14	0.2936307690927233	2.3959320580284102	-0.0466563055815351
Si	0.111052276637544	5.504335178981364	10.921473033345071	14	0.07381617663091933	0.003521385846474809	-1.9568289212533045
Si	1.6360792093095118	6.625469174014151	12.13437059381131	14	0.21195549482970724	1.3048315790961058	0.5247659382791391
Si	3.042822629888316	8.216032224871547	11.031306562433915	14	-1.7922966927221329	0.1157403628707219	0.6728268947978464
Si	4.147251658520256	9.644648101457687	12.500238607931053	14	1.0662728575188265	-0.19621133140178051	-1.300998061063765
Si	3.073616317952136	5.570310046284324	13.581998932157171	14	-2.2307753080149744	-1.9730407687389662	-0.5591974093949661
Si	4.140914171267016	7.018295883911136	14.77552653158274	14	1.5321280880395407	1.2827684101228511	0.7141201317920847
Si	0.28916816838821996	7.820556770302056	13.670073755009891	14	-0.5969618043373011	0.5221740070058979	-1.5216906859923995
Si	1.311648611845572	9.538665814622735	14.75960156361306	14	-7.904628564879539	7.810509912198602	-9.197381605402652
Si	-0.058223632893227996	10.8988530788412	0.048213653026572	14	-0.6997237417729796	-0.5199356027141769	-1.856785670583151
Si	1.39205345012514	12.001673360708855	1.261874961956664	14	0.8430888315349685	2.563138236092536	0.527924284054409
Si	2.825593066808028	13.70241118996873	0.14943469943793597	14	0.04595336538700662	-1.6463625545242517	0.10351527129448182
Si	4.111062981307525	15.034827260044151	1.5091182146696038	14	0.8927206773035109	0.49790508677848805	-0.11622707310782593
Si	2.578804813179936	10.715472197680139	2.707439554453392	14	1.9890862657104147	1.1563746723580959	-0.7024087470588102
Si	4.079180545433532	12.247177866918983	3.851794752780744	14	-0.41716698040466604	0.1842585198789441	0.982730189461787
Si	0.09814980258864	13.79800974768876	2.3586827559173997	14	0.6061722749256676	-1.0476824805014957	1.1732907455909458
Si	1.293676147994076	14.865535100546063	4.182026588576496	14	0.772171061931452	0.9563187671710979	-1.040447133020067
Si	-0.14707845417711599	10.666413546353136	5.343980501507076	14	0.48143561453974765	1.2710853075480983	-0.4391938967929067
Si	1.193852598771888	12.102926907054853	6.659122856325588	14	0.6337635774477727	0.6924763100965461	1.3462150618870812
Si	2.7945718792017837	13.601320143295895	5.436004066417584	14	-0.5527326221779858	-0.5709699864348602	0.22033986927871016
Si	3.97864199764944	15.156539515240992	6.844632483205044	14	0.9868064198363496	-1.6293644630316888	-1.0420849271090014
Si	2.7161170370001355	10.958360459152392	8.316229523342004	14	-1.2000754923741204	-1.5955585418402538	-1.5286216146039227
Si	4.13049794221746	12.338015184215424	9.39426860505276	14	-0.26260164164704813	-0.7476355180823429	1.1034518117797638
Si	-0.30480063694621196	13.475464146433476	8.36361442803546	14	2.469484439253482	-1.1230469767562083	0.19586140396770835
Si	1.204171328017548	15.015506048905428	9.612148166825687	14	0.8217484002672074	-1.5080645991272108	-0.9158647389533559
Si	0.126700995162852	10.701870975036648	10.93097926422493	14	-0.335662941755972	-1.0901409424268251	-0.6477719876740674
Si	1.30917861681354	12.241766627802756	12.090008183038632	14	1.6406079065966963	-0.28914110498268064	0.45247211310827945
Si	2.827348063278156	13.620170105382455	10.84254694209126	14	-1.0800064165863974	0.16523696849942457	-0.23221297653662198
Si	4.253948943917112	14.94005745065724	12.073465716310944	14	-1.567136000968145	1.3323624606431876	-0.340715677931127
Si	2.72113827690078	10.98107791346016	13.606910132052601	14	-0.2095499686921767	0.8518796977350868	0.4519177828012555
Si	4.152484147996008	12.315541479417396	15.03913350138289	14	-1.5232048099154347	1.2722145370047073	-1.9855512530057429
Si	0.12725349405159597	13.334950679052023	13.683349978307064	14	-0.5642262342906438	1.1747267079122488	0.1882882132472122
Si	1.561150610015436	14.788656505174067	14.849317633164695	14	-0.5242360334726566	0.14935447960527384	-0.33168209938878673
Si	5.463677760756732	0.18097588599829198	0.006792486338088	14	-1.679705162536996	-1.458965229270471	-0.7305785482779485
Si	6.855568711208711	1.431410870964492	1.197525091385304	14	-0.09801696256734514	1.577261785050484	0.37675820364055884
Si	8.453752996737313	2.651490916984404	0.022766204209715996	14	-2.501720443536435	0.23997745749293717	-1.1226222301573197
Si	9.604591932023748	4.000920702839676	1.3126073599172159	14	0.15182685448112823	1.4462480281359547	2.0741325161586763
Si	7.942480275074004	0.114416019871956	2.613937242517128	14	1.2713195352427638	-0.7878607179265917	1.9321522237221194
Si	9.301318792005238	1.3277360794884119	4.22426025363078	14	0.3083824858670728	-0.06706162584435832	-0.09383505976412429
Si	5.470973996081615	2.73722574454362	2.625734718788544	14	0.9138492494928918	1.1047170527078085	-1.513621014834583
Si	6.648576627537504	4.0092731860401	4.11432922473804	14	1.5062686820610873	1.3759807481784356	0.9520263068391106
Si	5.645774894499827	-0.203790840109956	5.338293012946476	14	-1.9407158042119366	0.7146680343358083	0.4059541329929683
Si	6.758572656299507	1.034407919467296	6.870794930583804	14	-0.1715192072386744	0.9730018982619425	1.7083652735406867
Si	7.818688024060716	2.593527283568232	5.667679850441796	14	1.6615598438505832	1.2220551004244704	-0.8932714080630867
Si	9.386208621264023	4.103214247093896	6.948827273635235	14	-0.2925802154589107	0.14199083396836976	-1.6053449400203337
Si	8.349606956209069	0.031102437442823996	8.349671956078332	14	-1.305166079898257	0.08083426571279552	0.08302947543513796
Si	9.661791816976068	1.692564095699928	9.465410961962208	14	-1.5511599238403408	-2.841635993491932	1.5379063901360415
Si	5.3591579709802195	2.7391919905888558	8.133368641135055	14	1.5783131100158925	-0.8922321672926828	0.24863334066374768
Si	6.59797422931548	4.22068526082126	9.603015685194096	14	1.9897642661833375	-1.2892853907778303	-1.4718346398399402
Si	5.5026451823805	0.08924482049947201	10.769877088254107	14	0.3618789600423299	1.2805991685642422	0.3192443774025704
Si	6.991987186826532	1.4446220943924	12.286584037660283	14	-0.8920002535928053	-1.422210507387358	-0.6185161515676985
Si	8.271282113745947	2.846929273893936	10.86321690051721	14	-2.806716269475809	-0.5253701480293739	-1.4394423123535225
Si	9.481953428689895	4.0290981461656195	12.160533041190071	14	0.860427594482451	3.179445036858631	0.6456839930435753
Si	8.06745877370136	-0.292694411295792	13.499286598518731	14	0.03844548074164221	0.49454953722516287	0.5458184057510437
Si	9.364498664929847	1.341061052687532	14.6692517453361	14	-0.9889520072260131	-0.3821598388076579	-0.7718872119041077
Si	5.405665377438612	2.4234063757370277	13.729061136366973	14	0.8732283565398722	1.594332124602543	-1.0292777372882798
Si	6.720352733172276	3.962700779712444	14.971939886531231	14	0.440553754396733	0.04364014193046939	0.3004166873641901
Si	5.327438034779387	5.524452638518572	-0.16875591057666	14	0.527717824297201	-0.7712858303697251	1.4444785934546285
Si	6.493681939081392	6.655060364496587	1.598281785332496	14	1.6420528677866195	0.25352229743000926	-0.8154525346697608
Si	8.142566122635913	8.010518888226096	0.31284437076763194	14	0.4362206706006875	1.0551643969831266	-0.581403788934553
Si	9.903558830703515	9.73961291045239	1.359017266571712	14	-2.8483625192305038	-1.3496258902047895	0.6241011065441242
Si	8.249003408555712	5.5019301838185966	2.85771925219176	14	-0.9371576047726942	-0.9773840901696028	-0.4291149068273942
Si	9.600675689900593	7.004759661136907	4.165939120933656	14	-0.21115896640152537	-1.30861830301162	-0.8115398265935594
Si	5.235121970457191	8.197328512490833	2.783586901296168	14	0.7903395205657464	-0.7625191325596161	1.2442398826793684
Si	6.708766506475968	9.486860918819328	4.177834097008968	14	-0.36796810877203656	-0.12866093843606202	-1.0993074471142168
Si	5.5867550132081165	5.617467451435356	5.687504810567316	14	-1.715832534721993	-2.213951537463117	-1.8191444315856509
Si	6.8273587679481365	6.97253597594928	6.8849161521814075	14	0.7223427837164503	0.4670927035113015	1.016325537127502
Si	8.086454985493763	8.196759763634772	5.403715381360692	14	0.7648385266689217	0.46196154862388195	1.0422078259433043
Si	9.409088575244953	9.608053175062055	6.84586748072106	14	-0.034526602012672505	-0.24852998222987768	0.6246418099929514
Si	8.173278560863151	5.6476273907738515	8.234085938559623	14	-1.742795716214386	-1.9417761280459658	-0.5538189141757485
Si	9.18667527259086	6.933487304488931	9.695624248927981	14	-1.088073773749426	3.140769442190836	2.7561662819974413
Si	5.44349530135026	8.175748555895185	8.38038439430557	14	0.5691501580892594	0.26000842482114683	-0.6116230182043816
Si	6.995334680093627	8.885937127473648	10.069015997915027	14	-0.6836859581174919	0.250427457956147	0.4746715506635019
Si	5.452400283439428	5.585796265136471	10.90649056347972	14	0.242978708733146	0.40277341860141314	1.2461257884316967
Si	7.265929135839659	6.973852223301876	11.818471229188273	14	-1.022860772630254	-0.012989738298452127	1.3760961908073102
Si	9.401532340443012	9.454750983402912	12.20786919598158	14	-0.8849142873304775	0.31512443823756514	-0.8263344808267554
Si	8.147034863647812	5.345719248009887	13.70952867565314	14	0.5078760903205544	0.4970723057652921	-1.1768460700276466
Si	9.57821823506988	6.756395160679164	15.030537268672726	14	-0.6896869179347175	0.09836740422248132	-0.19712895889054133
Si	5.799678334949664	8.321819512098708	13.547484001577988	14	-0.2196153317994924	-0.6050661854169399	-0.45700060090865624
Si	6.98602344882156	9.660069320440572	15.057495964449972	14	0.31804187144433715	-0.9290817629621091	0.29845493400491707
Si	5.365056709115928	10.912470551452007	-0.08290733324623199	14	0.6914023594043203	-1.5797542145478356	1.1626116596437108
Si	6.5420905917157555	12.106095650681471	1.4552658229843798	14	2.2782497393093806	-0.7202943841078883	-1.0357103856887582
Si	8.229357198070668	13.266343317043871	0.078682341744072	14	-0.0601558940649726	0.33521094144068997	0.23831369524026932
Si	9.373696146430705	14.793352745728392	1.61703424761516	14	-0.2037711523746119	-0.14852015592888582	-1.1972948419703804
Si	8.003742651855324	10.6104161589822	2.630739708721872	14	0.9970453325527752	1.538489002601587	-0.15467229673893612
Si	9.293177558379924	12.3532251536232	3.903664648453416	14	0.3674569730343911	-1.0369990236752162	0.3043661622464695
Si	5.632579921039236	13.640482564527456	2.7504532179388437	14	-2.3601862378729237	0.005818668450027117	-0.4662131283812788
Si	6.975850969281744	14.706919169574588	4.113955475489772	14	0.9741691800772898	1.1235064332769187	0.33282881236157275
Si	5.538297610671804	11.10904640607366	5.310635568574644	14	-0.6612592348519682	-0.9302457023405402	1.0233477399778903
Si	6.9009548699223	12.25803284508607	6.846208730034696	14	-0.08292508855913995	-0.3946461546844251	-0.029428871494414914
Si	8.400290604267672	13.674444996217895	5.654939876066051	14	-0.6596471518162355	-0.8494800851397925	-0.8944826557794083
Si	9.630705629500559	15.149015780373682	6.826497519680387	14	0.8587401780608379	-1.0396968844876477	1.0401388574921813
Si	7.740753180813179	10.57125373775064	8.467809218465652	14	1.8976991553216032	0.965736468848268	-2.024328149223152
Si	9.48729966793686	12.15777054674635	9.47283719702562	14	-0.10284267014273106	-0.9232270990375999	-0.984414006335952
Si	5.35753297424862	13.5382540201425	7.965051479675927	14	0.6032782387773089	1.6485623922361707	-0.04029256280363659
Si	6.703160267751948	14.79137024971584	9.553404534978347	14	0.891923891764797	0.48870464350087023	-1.1297873864635084
Si	5.38491416917608	10.806439514715107	10.760549607014724	14	0.013526585089299046	-0.27323290503532843	1.0420250203550419
Si	6.595195484904444	12.260665339791263	12.256277848615943	14	-0.22307989621839197	-0.848254182123146	-0.06546316966682225
Si	7.965685228401251	13.244324611330692	10.751335875546552	14	0.827055418758525	1.6583832432275403	0.7108512284880484
Si	9.498544645319532	14.635598063024663	12.149255563872767	14	-2.297850817828061	-0.066083577380574	-0.05976405761418202
Si	8.119897418230092	10.977486670683323	13.46171667408414	14	-0.10565700202616515	-0.27186147745756145	0.6084862697138009
Si	9.69627424762062	12.179756752524899	14.708479166436923	14	-1.2617102862192424	1.0900095589449657	0.25476285574698065
Si	5.366194206828048	13.792614758539848	13.541406513801803	14	1.2848417494530184	-1.763947171241116	2.0925699124094583
Si	6.8217362792567995	14.76602030070288	15.19794443196216	14	-0.21635259914822452	0.7330853759650929	-1.3906391338296638
Si	10.711929704805252	0.379160487384228	-0.104861039090148	14	2.0095250103423994	-1.0740746195022837	0.6762004420884127
Si	12.21111918944478	1.42707212969112	1.442720848216428	14	-0.6071176703518861	-1.0077218473946903	1.1154455038771904
Si	13.532420281876055	2.5989710226190916	0.071191106811396	14	0.472431089487525	1.7363440416345384	-0.24868759098600277
Si	14.802355227621455	4.146374160285192	1.502520727939308	14	-0.945818115933081	0.4317394911382014	-0.578087577292626
Si	13.700899943008345	-0.10000229886266399	2.670828378090444	14	-0.8175598125901541	2.044313607987195	0.05129252269482612
Si	14.899383782465291	1.17779763106368	4.18176658909944	14	-0.5355064736435257	1.1440253963948925	0.15555495719534296
Si	10.730373417708911	2.65833215322444	2.885539196236752	14	0.3308467472702706	-0.13177069032078112	-0.5216068211722732
Si	12.19917546346752	4.074386805075312	3.988684477450728	14	0.3149503744073911	0.3273022214759145	-0.046328746763748235
Si	11.026317822467904	0.019662460452359996	5.439221559946152	14	-0.4616627861856808	1.0374335404743213	-1.0451602261824307
Si	12.206487948759719	1.559704362924312	6.791283840506616	14	0.27867053567690964	-1.8497616679590383	0.04657505865341842
Si	13.549742747034912	2.806401855407832	5.447265293767572	14	1.3920915512250156	0.1579748815226663	-0.2577556223396331
Si	15.120643337439947	4.184252834098788	6.798320076354443	14	-0.13863194197812828	-1.741981704270027	-0.6364398409755148
Si	13.388868070606511	-0.157738432736412	8.166469824557748	14	0.6292934537381633	2.8113604570155926	-0.3933289774289132
Si	14.729880373392096	1.4499033337701	9.518044606098732	14	-0.14207953710191487	-0.4803436661102807	-0.6489135584362132
Si	10.900218076095744	2.830711806512568	8.124236159503464	14	1.4896590845823987	1.6968449219326993	-0.1485808340144413
Si	12.3800375996946	4.151899149172632	9.609921921303396	14	-2.361672336747969	-0.4031588272889033	-0.4060677758481189
Si	10.503637623748764	-0.09197481500856	10.909626807171708	14	2.6053874100448056	1.3623520902079267	-1.285785859326577
Si	12.11633313009055	1.104900277684104	12.371555116755648	14	-0.46810263368105565	0.8189898613692204	-2.3768745111744085
Si	13.41909300981427	2.7658256870197797	11.04120279252936	14	0.388011931626847	-1.2514734303870727	0.05007998942584428
Si	14.88594505949496	4.27162890835692	12.015160833581136	14	-0.475037418950559	-1.3992986165479226	2.691037098911706
Si	13.456207935164016	0.18227588338357198	13.836180920914043	14	2.1284106063512587	-1.7092343071388967	0.2179096605301062
Si	15.069228440852124	1.3186848476933999	15.144417039623255	14	-0.14433851023619695	0.5634258492044817	-0.9214892889517119
Si	10.693550991770856	2.581664807427552	13.305018239255952	14	1.167374632249285	0.6294297223201311	1.3385611384595324
Si	12.127870606884912	3.8752272056504156	14.796456489485747	14	0.4835385215810967	-0.45173523432352497	0.23534895369560657
Si	10.96957293660043	5.27896438227576	-0.009116231664276	14	0.07211487624057734	0.8940195997112497	-0.21099544410316398
Si	12.19413797359956	6.936412298605812	1.201408833573828	14	0.07395167388129113	-0.029993229112187415	-1.241286453998114
Si	13.633365078843047	8.367043171139136	-0.10497478886135998	14	0.06572130864096512	-1.7940656131823944	-0.2961499380854043
Si	14.807230217816256	9.664148062236887	1.345757293241856	14	1.246356159468382	-1.1964160381719537	1.2889010105324683
Si	13.313549472096852	5.784159616162884	2.725753267618524	14	1.2338047946270152	-2.6660523829631675	-0.17392370493407688
Si	14.77174028919811	6.8010175709289	4.0981930071932515	14	0.8246437219682261	0.8568745840405384	0.4589726386892099
Si	10.96320294941256	8.16057108642204	2.65272591450042	14	-0.4432395310141597	0.7466934650930407	0.5836182819467967
Si	12.098198166565895	9.562764516152363	4.14081667146312	14	0.4166900403677786	-0.21232856221166074	0.3229789078800855
Si	10.865963144993616	5.364504210227183	5.3291605313148835	14	-1.4300716619037108	-0.0021736124376531864	1.057703363486773
Si	11.984659644929003	6.791803839460727	6.759401404632624	14	-18.98737367649879	17.736786763226107	-12.404060818254422
Si	13.434660478503	8.157142343318363	5.522486392473335	14	0.31246283001014785	0.17038303579770098	0.0019108454739340524
Si	14.886010059364223	9.41831855668044	6.916181089297392	14	-1.059184063040646	0.854384468537975	-1.6792405638056453
Si	13.724364895812649	5.220805749251795	8.199294758536068	14	16.692708458162393	-13.133583927798448	11.863184076928702
Si	14.808708964842012	6.696367781413859	9.491215910060017	14	1.1272916145292406	1.4903643387717154	1.1937338611019754
Si	10.732469663492674	8.165413576682209	8.352954449476163	14	0.09491286711433036	0.3502562784426005	-0.7357690956982635
Si	12.306636497328228	9.456408480069143	9.588650714086752	14	-1.4254801820229905	0.8202414754390686	-0.17761761194753362
Si	10.739538399275137	5.579897527000764	10.701789725200067	14	1.2093286433108015	-0.9251919377232571	1.5589904822033838
Si	12.236842887706008	6.805015062888636	12.187751736444373	14	-0.26566768474132474	-0.5600497308085952	0.435535471032868
Si	13.643537558382864	8.258769638912629	10.998676628063388	14	-0.18888008169191026	-1.6263223312168895	-0.7648871205594726
Si	15.001726076621459	9.429076035043632	12.382556344628581	14	1.5475768314661824	0.46977719457606804	0.8013672483943935
Si	13.63144758269976	5.33535176886228	13.780801032301115	14	-0.36590145431570154	0.6878611760468804	-1.752939498033966
Si	15.100753377445162	6.706816510398047	15.001856076359989	14	-1.5108100253880647	0.32607529001713986	0.6759957821049289
Si	10.787443302922703	8.178706049946696	13.453234191145187	14	0.2270368273060998	-1.5842888730009808	0.7470732173488266
Si	12.312226486084933	9.44659349981028	14.595639393394618	14	-0.05719860872573827	0.8209097057117752	0.9172148263569657
Si	11.005761613813164	10.863281900386475	-0.24098701529627997	14	0.6282408432200947	-0.3990581714137992	-0.715359147445864
Si	12.248201614859891	12.139391833711954	1.188587609361504	14	1.0022024556039282	0.5105394983216958	1.076107335368393
Si	13.802738488177715	13.728898636693811	0.30842437965768	14	-2.501043728616172	-0.8933590827545036	-2.0280860767590805
Si	16.593784124471927	16.199364917777977	0.064073621126988	14	0.08920424197200559	0.6156982201368162	-0.6805985748490581
Si	13.508906579169803	10.83555945614538	2.793060632241396	14	-0.10524922472238966	1.5312742239627195	0.10647872728648448
Si	15.0324385148487	12.482802393000984	3.8747559565982517	14	-0.5265713684349471	-1.3812075481837645	0.3543448501227
Si	10.948870478239847	13.421953004061889	2.63866969277208	14	0.5183715993479309	0.5898457561427273	0.6561923575975525
Si	12.347976414180131	14.933086214678676	3.9652845245156882	14	-0.7649336575657673	-1.2314344926323706	0.7092972524325509
Si	10.665081049033223	11.031631561780236	5.3401455092205	14	0.02146230165993609	-0.39478370881905295	0.016982150639578062
Si	12.249322862604695	12.397311314951507	6.440658295729284	14	0.07803767445607046	-1.2066840043784972	1.3653440854689831
Si	13.821962199512544	13.785806022234443	5.43821406197256	14	-0.8768847254156549	-0.7992342594207987	-1.2276449405010044
Si	14.970347389734263	14.914740001578911	7.005637159371971	14	-0.2524732864593888	1.0850648091932567	-0.5144172393655431
Si	13.40711678390238	10.779155819591542	8.002767653816363	14	0.05518414770740226	1.2372683306037866	0.5467242061553318
Si	14.79340149563034	11.91179479148406	9.713596712779475	14	-0.21122607225038123	0.26584483389788294	-1.3032565199769832
Si	10.940891744287692	13.48438537848996	8.064257530140107	14	-0.45671392266545974	0.6744577469024164	0.15597738979944328
Si	12.17759550687187	14.875236331033715	9.5679807556608	14	-1.177211681204172	-0.8554638185513731	0.9901123470569962
Si	10.774752078448907	10.88942809779792	10.949731726507595	14	0.6630158140066934	-0.5646484097842122	-0.8738775606332098
Si	12.112579387640556	12.278377804165704	12.270301570409652	14	0.609582589022312	0.24433008168941583	-0.6737422082918192
Si	13.61601011374956	13.501837843387342	10.923975528311736	14	-0.10680782876746343	0.7957694378913672	0.7197269411637316
Si	15.048168483210587	14.880631320182628	12.470354918036927	14	-1.140076435733677	0.5627059397148403	-0.7611417914396128
Si	13.62007260557856	11.046727781416799	13.488561620090172	14	-0.24968877939766848	-1.2032163546332135	-0.025106586340713978
Si	14.724111634994916	12.351892656303287	15.004618570803709	14	1.6303669369960145	-0.6398426988667308	0.17139887950969146
Si	11.000789123814469	13.81120472114935	13.58264893084981	14	-0.5855646086741488	-2.072118826471937	-0.1759931876062641
Si	12.088318186437766	15.01963354060369	15.044024741545009	14	1.652456331243535	0.5786979576956293	2.1354240674435587
H	11.707865826651917	1.2936745229973443	-1.0685686007589912	1	-0.274404814840252	-0.24818339723272176	0.3529122302383134
H	14.580162924522861	-0.9179135287756235	1.7334311385029364	1	-0.022265257851418335	2.286957301697126	1.4613018497854213
H	17.443363290690307	17.145897888990536	-0.9590015711341295	1	-0.3186705066951134	-0.35657039888782016	0.2734357652450881
H	12.679558622259842	6.171061587976454	7.1918049099277255	1	11.424906779182427	-9.008049780505994	2.801819856504119
H	0.2899676667801672	10.304213149856617	13.727868388765977	1	-0.2815743420254848	0.3886418524302833	-0.15974328776186417
H	12.98144889005976	5.808870941460325	7.713887109849637	1	-9.504794013232436	5.793872967430142	-1.9938770062534463
H	14.6530635278959	14.55519809973529	1.2455567447779368	1	0.3552845891172141	-1.7990939238570083	-1.3555625723890117
H	10.307165768917933	10.315108752941995	13.13485020651953	1	0.32646301269941813	0.18240295316939323	0.24865056706939268
H	8.527958472485825	13.937219967691469	2.567514335888779	1	-0.5754761056189517	-0.4784230504361301	0.40177274441081146
H	0.9485122172316516	12.76781381974977	3.397668291177613	1	-0.1621382723675821	0.3091466183682208	-0.3409020830668377
H	9.989318033213706	6.1580567391334595	8.839640970590363	1	2.0500273753401603	-2.0399157323370822	-2.21206074661068
H	1.900274427926503	8.969421334559598	-0.6781615109953596	1	6.977155542516246	-6.369258827252357	9.635805713262709
H	7.515790258287208	10.508912363139538	10.08971845627561	1	-0.029463067195172884	5.9649643427435434e-05	0.2384365940745724
