225
config_type=interstitial dft_energy=-23349.81164940967 dft_virial="-16.701464264380885 -0.6624039031096651 -3.3766442865834145 -0.6624039031096651 -21.47158017640841 -5.804112248588956 -3.376644286583414 -5.804112248588956 -21.556400188391965" pbc="T T T" Lattice="16.3852778749 0.0 0.0 0.0 16.3852778749 0.0 0.0 0.0 16.3852778749" Properties=species:S:1:pos:R:3:Z:I:1:dft_force:R:3
Si	-0.8185757120742543	-1.0273241522004803	-1.9506017898953456	14	-0.3115860830959773	-2.7197602019957405	-1.2623898293553575
Si	0.0320987593569291	0.19100318418770934	-0.05176109280680911	14	1.2336754680294117	-0.8576559429473315	3.815113032017037
Si	1.3818687948575665	1.5417727216387156	1.326765105364278	14	-0.09798276686658718	-0.4264615261370014	1.2856382778812003
Si	2.787004684297491	2.763917827771757	0.04904113667957571	14	-0.20656620096814488	1.0281778184323205	-0.25069433868837837
Si	4.104348254883702	4.034497815303003	1.573347152103648	14	0.9768138190095942	0.045762332261719614	-0.23498051430322936
Si	2.9234121226060337	0.0174994767703932	2.5106997434930522	14	-1.5382969410341718	0.10597659041745956	0.6133351172370681
Si	4.062270861300958	1.3240451492370444	4.125239484174199	14	0.045755390277355215	-0.2875279935048198	-0.9203194360310444
Si	0.0758966071165368	2.8819737548604114	2.9200531406416794	14	-0.988150336587191	-1.3518455254276736	-1.7633871845023878
Si	1.4795578215477203	4.070086638847286	4.175017958358145	14	0.05529239124138048	1.4717425942694788	0.8937933424430767
Si	0.1067500853549735	0.06626206372609561	5.3878889972139925	14	0.24686364887188975	0.5735446913024564	-0.32758684283485484
Si	1.4711521739978968	1.5004654361160927	6.816078972623902	14	-1.1978756546622018	-1.1489241233613705	0.08801304887718099
Si	2.81582638807944	2.6634105332871205	5.4697498454769935	14	0.40390599049493836	1.4613543003339526	0.08142124905738533
Si	4.132596473940029	4.097269814841745	6.894646380034048	14	0.1636379981008245	-0.546432385701495	-0.4459947274752304
Si	2.5478779389912005	-0.0245123757008504	8.211350924783137	14	1.1791904038585577	0.9591819500556148	0.2919271547075931
Si	4.031827015009394	1.4511949055462685	9.62590834900113	14	0.5445876176342886	-1.3969594249276516	-1.2106733313932392
Si	0.10132655837838161	2.91249952754135	8.055576088026463	14	-0.1006500315257088	-0.019936607762960218	0.7114109581162447
Si	1.3715624550742544	4.261204519980119	9.600724176907407	14	-0.19783498441145403	-0.27426443248977184	-0.4813122014843804
Si	0.0388986496750126	0.13054150882932833	10.789246692841154	14	-0.6027167093753886	0.5539652100684649	1.1292896204735277
Si	1.492223641345018	1.412279870593381	12.106278943147741	14	-0.028986898489881455	-0.39424351959128984	0.03451168960181565
Si	2.8267225978662487	2.8672270047730017	10.879431262264603	14	-0.34473431554651845	1.0804810426284965	0.4870776480542805
Si	4.203151480469349	4.239412100406502	12.299903771795435	14	0.6377151092143083	-1.5874137944070887	-0.04637014155940262
Si	2.6880867617667197	0.012338114239799702	13.537860671077754	14	0.5483378318542568	-0.6496447807892634	-0.19788409252306882
Si	3.897451351157339	1.2954692246232187	15.079059907990848	14	1.3146848260145094	0.4394265818243801	-0.7795910147748674
Si	0.139766420272897	2.695034119585677	13.404861370567192	14	-0.6665068608103905	0.8759933232011596	1.1356767603098397
Si	1.421635864259949	4.098220160958489	14.989203044124896	14	-0.332902088863197	-0.0004777113684835131	-0.1423495031605304
Si	0.061084315917627204	5.521592864673177	0.038439861894515405	14	0.08167398871035589	-0.8073689795432152	-0.2858536897203393
Si	1.4183915792407187	6.814538756503661	1.4565365061334858	14	-0.5845490220726902	0.32709499038711054	0.11547193947529845
Si	2.5880382550625805	8.322754429054582	0.0941825772249252	14	1.0415383101179378	-0.9606665062674681	-0.6794181803965781
Si	4.091666049808529	9.537526160143917	1.4120668619810073	14	0.20101852701886136	-0.28208624909472635	0.020695083832403902
Si	2.8259524898061286	5.5403212372841875	2.9171529464578216	14	-0.5108943108558762	-0.9349757647980165	-1.0387414617506807
Si	4.203937973807344	6.775640106828648	4.2239935539262214	14	0.17917673021367145	0.3110834320058884	0.5642961683553518
Si	-0.2068149773369878	8.231144340456016	2.618596798299269	14	0.852715049853603	-0.8002945832548278	0.4060970864487686
Si	1.38706292794391	9.329056269741566	3.9725450796580057	14	-0.7725302453446767	1.2919487987789717	0.18826044530975458
Si	0.045190596378974206	5.622509791104687	5.435865090831701	14	-0.18483933257076557	-0.3587522388624978	-0.3756564850108754
Si	1.3350232854132273	6.820978170708497	6.983552897783255	14	-0.49036172087970564	0.9709707250590256	-1.0690925887234328
Si	2.6736513319589332	8.094343655478475	5.464162465721652	14	-0.5121875768319107	-0.46467252207344617	0.1366025685489354
Si	4.201447411570358	9.267906412712438	6.651538012204155	14	-0.2948695276359706	0.8530374664607495	1.4464719714093395
Si	2.7696035191943476	5.548202555942015	8.139255702133577	14	0.07132143313877964	-1.329697509978854	0.9873242404478275
Si	4.123748423887583	6.777163937671014	9.534806204016684	14	-0.35788346237481977	0.888604080575422	0.6124786820549268
Si	-0.009880322558564702	8.269616972906281	8.28519937216531	14	0.8504131392604742	0.6060612031758372	-0.5887005858331333
Si	1.5503422219672882	9.62818590262574	9.498889674914905	14	-0.9941525819570768	0.27204196905103584	0.2401502357704511
Si	-0.18579266582349113	5.531555113621116	10.897078206535872	14	0.8652615295948615	0.14679134471161823	-0.12674109409350748
Si	1.3528832382968685	6.791648523312426	12.216404395744945	14	-0.6440680533498622	0.15055415734765495	0.27154497439265124
Si	2.7192515602847793	8.197030191920474	10.928324931443305	14	0.1544216139702217	-0.6022258853697723	-0.36888779314505354
Si	3.998548515645472	9.422747288630243	12.420450261121072	14	0.2598991528450405	0.7102290210005726	-0.8438182541142945
Si	2.7529069210398243	5.42442816687502	13.529176473804057	14	-0.6639216144109815	0.8622566788072044	1.1706407073374692
Si	3.999629943985216	6.917897089338531	14.944798941083917	14	0.24311189198872965	-0.44152897464466523	1.0001625406429229
Si	-0.04954908029369761	8.141713493814812	13.662798414873867	14	0.621684781764249	0.33346721781256555	0.0390581751394335
Si	1.2424136948642928	9.605869154160127	15.099000791164602	14	-0.2096574408945589	-0.08418235906069235	-0.7859254469521162
Si	-0.12018601321239152	10.946119343215447	0.057610637008148405	14	0.05806275722384004	0.10478642576476302	-0.8504344794346315
Si	1.3981393757873424	12.198528057583427	1.2622726516486713	14	-0.5720009996682396	0.9597043986566686	0.8887501193576063
Si	2.8226590489532737	13.4850181499312	-0.0789278835233933	14	-0.04616188202847063	-0.14778944779689973	-0.11786306742303614
Si	4.122683380825715	14.868050299517886	1.27069468447637	14	0.7122715070668982	0.15756916110314695	0.027084537663503893
Si	2.691347432063825	10.853427826277137	2.6882506145454688	14	-0.2104040898795299	-0.17232704853026495	0.39030458624082304
Si	4.082834385033958	12.047193631130853	4.14968631876355	14	-0.41359391534125634	0.4894325234170042	0.3388320861735865
Si	0.042437869695991004	13.711413534328695	2.693756067911435	14	0.022737827009261552	-0.42533306801198845	-0.3205157889833836
Si	1.4801804621069665	15.09438014280388	3.967580340461911	14	0.02071950933294531	-0.010319645423478345	0.07828450056680468
Si	0.08579331495297642	10.915446103033634	5.380761401338412	14	0.9461868124359902	0.4948416147895317	-0.14416084685857472
Si	1.460452587545587	12.28360042030991	6.955697925395925	14	-0.424613929853943	0.4622906501048609	-1.9582764535485482
Si	2.7915434062688385	13.6941762220043	5.371454563505468	14	-0.17883862986407195	-0.4084162234475421	0.8037493774735107
Si	4.047737119825922	15.107783300105549	6.91307981764331	14	-0.6212600351653605	-1.3814875415531287	0.223393056846386
Si	2.933243289330974	10.853575293778013	7.9985553210218105	14	-0.6129119133013717	-0.8191693245205668	0.18189336009493987
Si	3.997647325362353	12.320729459974432	9.523893608952001	14	0.23323062002233655	-0.5782811815232333	0.08891473551295691
Si	-0.06131370980787581	13.660307852636883	8.132373885426118	14	-0.3700977553087152	-0.05658925676486317	-0.01262001335341483
Si	1.161224642994163	15.090316593890904	9.517962138361288	14	0.9746180950661877	-1.3176979043391908	-0.4326923427698483
Si	0.0512695344705621	11.075579423705031	10.885706823690692	14	0.11663613596426149	-1.3360113733135415	-0.07265198014195627
Si	1.5211272715163418	12.34312813482942	12.11637227431868	14	0.36280892883662746	0.3671643812489583	0.3192266367758614
Si	2.7682763116864804	13.844396449561383	10.779251673337464	14	-0.6452906139295925	-0.4695229122599055	0.12368816363636365
Si	4.193631634024032	15.028527711024658	12.163430792375392	14	-0.2790400035114149	0.9511539308039844	0.3139913521229759
Si	2.6227586588794933	10.924474391142704	13.61054576373081	14	0.5262142419059784	-0.3114521285087976	0.6483854534034548
Si	4.2110000285714255	12.12989012856547	14.934525371856356	14	-0.13744280576755982	0.632310902941889	-0.4250145080628221
Si	0.0172373123243948	13.470173088176542	13.570418218215181	14	0.7844725153357005	-1.0722614760305154	-0.6669717166522733
Si	1.5123447625753954	14.824137754813155	14.865412269780027	14	0.10426449138477295	1.196766736937622	0.6543589023937548
Si	5.412516069859968	-0.006504955316335301	-0.1090112537017097	14	0.1748094507168679	-0.8158929650111022	0.4401812012358436
Si	6.889747181949453	1.1624863093905304	1.2998277085379422	14	-0.5335300649839279	0.6861480485720658	0.9213566199171922
Si	8.271976452920267	2.6700793413822046	0.10755296397084362	14	-0.07975208748354522	0.6736812730957317	-0.5852005401608157
Si	9.54606288991674	4.097859684845241	1.5475894952843052	14	-0.16941732863945336	0.4637757205377785	-1.6995846917618491
Si	8.082660952353672	-0.23527620500568913	2.834095972909954	14	-0.9295070237820617	0.39254093364828785	-0.2114852396666522
Si	9.485355435390238	1.1938805017988388	4.010853859329522	14	0.1137816948378331	0.7223031886945199	0.951930147500137
Si	5.629539075313018	2.511617319054047	2.9426484388311662	14	-0.20151655011937403	1.0330261517345236	-1.4844405121140942
Si	6.94016468197052	4.017113035477734	4.198989619889124	14	-0.8160392609038186	0.6509832982189324	-0.06093699586123358
Si	5.259297336451778	-0.015336620090906401	5.498243843701445	14	1.4005952249608733	-0.5301614027934698	-0.4427628480878042
Si	6.795056661110405	1.2686956805756322	6.703987286681711	14	0.3890748265661962	0.615188884172895	-0.4396623521822377
Si	8.310268847313909	2.7687023289112274	5.515825246861213	14	-0.5794052687692021	-1.876163577160043	-0.5233862831643477
Si	9.510572378039708	4.0869798603363074	6.888043113050462	14	0.509987996230524	0.29858220371826444	0.7085575454319443
Si	8.146235830508283	-0.10502963117810901	7.962917341643903	14	0.006634994389174133	-0.0014974117384542413	1.1445455310011583
Si	9.296711731216513	1.2649926077759048	9.515406035012804	14	1.0433982477065329	0.4545685923863282	-0.5833310894825361
Si	5.483333240835286	2.5537602537482895	8.120166853409318	14	-0.5198021623480612	0.838514835170425	0.5821895187203903
Si	6.727762324878191	3.9961398797978616	9.546554448252987	14	-0.12341768335668407	0.8837652603629033	-0.06720509352122259
Si	5.550611191789625	0.14407574835399573	10.925293655036448	14	-0.10374744210489117	-0.4729849055734849	-0.15649572463198516
Si	6.868298853211209	1.4140167100481202	12.432509825637	14	-0.07967983942404903	0.43311606092660865	-1.099515192424085
Si	8.14615390411891	2.7947549207323186	10.866355810520433	14	0.24401743528248582	-0.6551644296905572	1.163307657853875
Si	9.669575114537738	4.026469029144302	12.27916001000581	14	-0.8802978677281516	0.5405977763984828	-0.3048541580362336
Si	8.27338558681751	0.13431012274055532	13.708038167086466	14	0.358685390124174	-0.9403858846126721	-0.29859017414475686
Si	9.688156019647874	1.4735116540118822	14.975455795987857	14	-0.3752885598395622	-0.09627658137613691	0.5541225617140578
Si	5.502110769279921	2.7044720396416198	13.78596654865949	14	-0.8107291570861168	0.7379097979878189	0.03177551932011406
Si	6.935871739167295	4.1619261213361005	15.066148309025428	14	-0.7982958059789447	-0.2778043302945517	0.8654715888995175
Si	5.412647152082967	5.542582405630924	0.15813431677065992	14	-0.02456408311816273	-0.32495737342393943	-0.8202805562399348
Si	6.753945998922281	6.9092620478984585	1.5743794246097667	14	0.36105363523456235	-0.3940008072490679	-0.8077384473777205
Si	8.315905382902873	8.144711999665919	0.17460152103493443	14	-0.39239026687652717	0.4442435476416776	-0.013186942076507483
Si	9.722335709294915	9.524729258123621	1.5948774072312666	14	0.060749048062330765	0.05410042681495983	-1.0442551971097382
Si	8.158066001133962	5.433505610817714	2.780811049260779	14	-0.18118836301615526	0.8266823513765716	0.7362565772669636
Si	9.545915422415867	6.774345669876531	4.259484065803255	14	0.2202640216717658	-0.2200907291731878	-0.9204791016714255
Si	5.42539489826964	8.266700393444548	2.9169071672896987	14	0.4634173084561498	0.15213281601422587	-0.12782764320180204
Si	7.023352737741387	9.531103131216957	4.195057153199148	14	-1.7070046446052645	-0.9842569118008908	0.9851657975315631
Si	5.572239758584493	5.467619759353257	5.638485437032714	14	-0.6728860302202099	-1.3436655538516225	-1.5019687655236718
Si	6.827597822969956	6.721077131505232	6.956189483732172	14	1.25614872830123	0.9381927317745858	-0.058041417049682804
Si	8.289459544412786	8.12167429897381	5.6615067524469485	14	-0.21648064019316787	-0.19110563045703044	0.43142813028393145
Si	9.503510323275627	9.579013683723165	7.089057702019735	14	0.012223034691983967	-0.46319773606180914	-0.05485196090003912
Si	8.198259087761091	5.443533400877153	8.290737596087027	14	0.43269825631208464	-0.03553781773508675	0.22905540209294808
Si	9.491958702373822	6.853273553399926	9.777881801290825	14	0.8471336944246255	-0.39215963872930987	-1.4377885774116033
Si	5.489838196151621	8.070027903112123	8.190869327439511	14	-0.0904494282785533	0.61503641762741	0.42065699876623514
Si	6.747686822774069	9.478473618682777	9.644423712999766	14	-0.29917330083136645	0.10022785603214047	-0.4990525710828702
Si	5.524165353299536	5.591558001199	10.94318637847584	14	0.1613340306234398	-1.102019706116441	-0.5937155267600822
Si	6.901905058132628	6.850832146996565	12.318173356625948	14	0.42188444444607376	-0.6888986170435601	-0.34495028839341085
Si	8.164407103671548	8.221755576233699	10.983690785382592	14	0.2609255380888436	0.7810123217958452	0.4987260407072113
Si	9.686714115194883	9.607442140836117	12.226596038583132	14	-0.49539080288591525	0.2547551424310202	0.05495866177082527
Si	8.2787435726826	5.465882919898517	13.611086477900683	14	-0.25358297551556475	-0.8423951473195924	0.025517191860341622
Si	9.486567945952979	6.746097450820204	15.082336963565828	14	1.0783387976757492	0.47369684463663386	0.3558450900770064
Si	5.528720460548758	8.104879389152035	13.552017551161667	14	-0.4539443280145962	0.9150784949464547	2.0421158271595328
Si	6.927318624116598	9.487157815956476	15.108520637609919	14	0.2808418341197747	-1.2427591831254947	-0.9248497236051453
Si	5.486921616689889	10.699373443697327	-0.0451250552674746	14	-0.06135891424426987	1.559987042625473	0.6556058884740267
Si	6.797842158349138	12.291039336465113	1.3226360153398031	14	0.0033732901800342793	-1.963123758408623	0.5315428576819855
Si	8.031833820385732	13.671351529924564	0.0046042630828469	14	0.6693065373934998	-0.8684784965714307	-1.0065620217847717
Si	9.286716711712824	15.11092927345753	1.1934872551298412	14	2.114068980875473	-0.40497531319758795	1.015688417229169
Si	8.237075811046731	10.790655826738394	2.8718476531337234	14	-0.08428828859988247	1.344006996638138	-2.1459275468974277
Si	9.47804760145803	12.195578707565947	4.134235001727519	14	0.5634957832691897	1.5478709659148073	0.16971711951978258
Si	5.33925749248129	13.36383263476844	2.7227580097500086	14	0.09854378204744349	1.0949895328395602	0.11768386138222182
Si	6.58363742069057	14.804114945250026	4.178622719490623	14	0.35172103714348885	0.5334948408410419	-0.07529559063213254
Si	5.486315361408518	10.742515880341939	5.5528395895806115	14	1.09890841156853	1.0296009252270224	-0.741853873548926
Si	6.7742637434871575	12.268411267719877	6.927335009394473	14	0.05519906011825911	-0.5258799982143593	-0.07670018546852943
Si	8.13722392767709	13.63509090998741	5.557804328776706	14	0.20828344221147174	-0.4257218191363948	-0.3770543949734399
Si	9.688057707980624	14.978536228228338	6.818766158195386	14	-1.3925800612358437	-0.3847165459380132	-0.3387384979399331
Si	8.099242853563071	10.902206798510715	8.384281147474832	14	0.04520851617575972	0.5086026846840283	-0.4452287952003583
Si	9.59371127797695	12.312258271313109	9.569936239780471	14	0.3841431894516202	0.17319402524421884	-0.08354086828331542
Si	5.368652680988861	13.59171907945255	8.224229753192809	14	0.5189377567394273	1.124811012116362	-0.1434000567943429
Si	6.829219965479572	15.031771996043886	9.507131469685978	14	-0.3485706617947114	-0.26300196274539517	0.02589848677931959
Si	5.210518364218201	10.77023977050627	10.825867788891555	14	0.581191672745641	0.6797951044365118	1.3967298252225626
Si	6.754339245591278	12.146160709495247	12.29059693396249	14	-0.7177304778826367	0.0415272075783717	-1.0317205444529522
Si	8.099111771340072	13.526472902954698	10.915577185256634	14	0.27067336968912104	0.33112314109218655	0.2651328948347339
Si	9.42317330585499	14.933509484628113	12.299035352068065	14	0.45743383215510125	0.23047645200339392	0.2447931377575745
Si	8.169502925090642	10.882544465060835	13.628487643003828	14	-0.08276053781865048	-1.0565275970238692	-0.9459739249154819
Si	9.360892864652497	12.161710338198526	14.973964735701239	14	1.1861632414867995	1.5180070634002234	1.4369503970772353
Si	5.503372435676288	13.704662799844236	13.51259457259466	14	0.300692566965042	-0.653875791704099	1.193713035148882
Si	6.927646329674095	15.093069320573887	14.988351009675403	14	-1.3636008760619225	-0.0564943829785497	-0.8317312308937462
Si	10.891310588723906	0.08058279658875821	0.019285472058757303	14	0.19651755004541013	0.05919018690672497	0.23333269290354647
Si	12.3508456007085	1.4388731765843437	1.4136890044906223	14	-1.0377215042701782	-0.7251342327625351	0.05835354923554879
Si	13.702991501500996	2.676895616978163	0.0104374220063113	14	0.5396703787095055	0.3094998882392092	-0.07519326064039064
Si	15.094117978357882	4.062172549633709	1.3657129108729151	14	0.07381077730974703	0.6202225941686808	0.4113359706491023
Si	13.618296000165639	-0.10619298590722691	2.7133364749719404	14	-0.07038760768650186	1.8023805677877534	0.15712127455637717
Si	14.98222291575019	1.3722178661892506	4.022929809123323	14	0.503214419264594	-0.07196446657934868	0.707006397592299
Si	10.797603184557353	2.7292465797884686	2.7811387548182767	14	1.2918834927038403	-1.350276379850787	0.19386648334980547
Si	12.317436019121578	3.937628052506594	4.045967509815433	14	-0.0886591676441342	0.9617952215030131	0.9352686136939814
Si	10.882610006172335	-0.1448950122477407	5.388495252495364	14	0.36226693983514024	1.6794164274095433	-0.26209127724099873
Si	12.159875187076539	1.4406427865948328	6.7000875905474855	14	1.2380612594845202	-0.8118699565166664	-0.03294665779344151
Si	13.7720554477437	2.790085116537972	5.530014897500876	14	-0.9358764229916643	-0.8373634942080626	-0.9405239529683641
Si	15.064558937071562	4.2483093062925725	6.734021501026403	14	-0.40789454617808407	0.3659562188590207	1.1603606569359213
Si	13.732878248344813	0.10743826702571932	8.058132191374947	14	-0.6188689072176228	0.44026424793768437	-0.24343122326949204
Si	15.135359722769005	1.4426581757734456	9.39213958955993	14	-0.3700643309395533	0.6212188974802382	-0.4190089202560202
Si	10.856131397126495	2.659183131595396	8.132128106257994	14	-0.865044785416373	-0.24230945001831145	0.995633024400418
Si	12.158777373458921	3.9815897530449504	9.568510720605353	14	-0.5005582103583489	1.071978140224235	-0.24157848477579333
Si	10.732537246116125	-0.042831116364988604	10.866388581076183	14	0.5057757543845254	0.18976222792725309	0.25935947783834146
Si	12.267198757157134	1.3948131643787374	12.11042441845009	14	-0.17429780075815843	-0.3910147255302479	-0.08325830380863114
Si	13.669483608246827	2.7529396915955737	10.710073030149637	14	0.3655361002497085	-0.7910846268875253	1.0356023992653118
Si	14.953073506410743	4.050555387620405	12.207736583749123	14	-0.00898138510434127	0.2663102039608297	0.4166401609245678
Si	13.494636308043768	-0.10986328815120451	13.564519518180218	14	-0.5641740408526448	1.0751426566522733	-0.6834697281600673
Si	14.970884303460759	1.4074298283424105	14.716961652233433	14	-2.0746372241330215	3.153362973159453	-0.10895033083074283
Si	11.04053131433062	2.737078742612671	13.599633168666127	14	0.5735773443400223	0.38543414143286653	0.5690899942247679
Si	12.385189143134289	4.125927665844944	15.107471979825926	14	-0.9509994073742434	-0.5124781117330874	-0.008186656449883497
Si	10.96130849580548	5.460852639590923	0.12195562322288071	14	-0.3177078848632499	-0.08668610142145257	-0.17561857756111848
Si	12.342538264825924	6.910064926514328	1.4192436136902133	14	-0.7611837004563312	-0.9276144331559005	1.219217371482623
Si	13.569304019319688	8.20437079640843	0.057135463949776304	14	0.7200488435498141	0.4949364885758451	-1.4827654369980179
Si	14.886074105180276	9.63544458072432	1.3180809080905809	14	-0.7884428161710731	0.27834837618029507	0.9615417105184465
Si	13.680183194699135	5.4466302183955095	2.8157444616900658	14	-0.7628333216297383	-0.7541026192941115	-1.3560487684050517
Si	14.845504157162024	6.909999385402829	4.076575208885746	14	1.5938122471068092	0.1390975691516071	0.41392378815383124
Si	11.054163865522538	8.193949759679992	3.013957168142731	14	-0.541988230155619	-0.5766415876605748	-0.5598062471347772
Si	12.157974494843051	9.667756348693622	4.418863663692407	14	0.8959844383969069	0.1369753788203569	-1.2829409312898332
Si	10.878267907535484	5.3205291198702795	5.500341159269431	14	0.9745250210535983	0.7819080948893848	-0.11455225510228148
Si	12.258268780715314	6.925614555217609	6.781260257139739	14	-0.0197157498159595	-0.46581666394091203	0.6914782070112647
Si	13.767352872993603	8.384100909418207	5.488691226700379	14	-0.817417373355418	-0.5994331507710274	0.8361612453603614
Si	15.19192170199316	9.69543108302433	6.81155663593043	14	-0.6983101480679622	-0.6419859722616063	0.7376079502232334
Si	13.490949620521915	5.40553594148526	8.28787017245892	14	1.0737259776208716	1.13880836658978	-1.0576449993960055
Si	14.949960303614512	7.029185896664851	9.567216283653238	14	-0.6387605206374806	-1.815794024242966	-0.17079981197009697
Si	10.968894879461558	8.245792778876178	8.406434043161696	14	-1.1595605289602913	-1.2762989949162946	-1.2211575275572066
Si	12.305818857108273	9.574114485638571	9.607343829168867	14	1.1606306229945367	-0.36302670145724397	0.5909312768088938
Si	10.948052806004684	5.515186221024091	11.02581733479896	14	0.2727999308994155	-0.5709075085755806	-0.12826653087995132
Si	12.311029375472492	6.753487211141784	12.50457227773081	14	-0.05941541573276994	0.9243154479196187	-0.890568662150547
Si	13.653229412594925	8.193196036897747	11.02896330815094	14	-0.5278299244891596	0.45703891037792643	0.5187279545453034
Si	15.078338955764352	9.611849780584464	12.299035352068065	14	-0.039575224419315276	0.09660979662562809	-0.22622564357759312
Si	13.703220895391244	5.427508599115502	13.776839948883172	14	0.35685990534686884	-0.5819869156211627	-0.7743338757267607
Si	15.010766069808264	6.7945651027741585	15.055317640350118	14	0.1547082922134182	0.7734463301702456	0.6165932218987598
Si	10.857524145745861	8.251396543909392	13.741414978117636	14	-0.5001265217750961	-0.6272257708397002	0.22820642311623518
Si	12.223761385510775	9.609342833069606	14.997362912506597	14	0.40897723862839847	-0.39973848588151034	0.4587934326483955
Si	10.924277767808205	10.983461391492343	-0.0571026933940265	14	-1.373315797514102	-0.9870612163735764	0.22508947213661967
Si	12.197315547020686	12.34483220372841	1.2453630448817747	14	0.3862563809142499	0.49709210327625725	0.7741299870748729
Si	13.753867789302562	13.659947376523634	0.0368341046627752	14	-1.4989592867464383	-0.3199385758390104	0.17213832939976603
Si	15.01097907842064	15.139390501126229	1.3663519367100363	14	1.0342217157083926	-0.6504641920547946	-0.30967575184310736
Si	13.404746673622066	11.038794474875882	2.7735359858843234	14	0.5151129804651752	-0.8703019244644796	0.025746020233834804
Si	14.950845108619756	12.295561673158586	4.030581733890902	14	0.8038604492233412	0.1625517061030619	-0.21634462872173205
Si	10.814955193826872	13.693422499222054	2.5801405511268785	14	-0.740518698556173	-0.1267763182363935	0.3290258904825418
Si	12.202870156220277	15.031231281874016	3.975314191618864	14	0.10324504812533426	-1.2294267164878672	0.2449031810652768
Si	10.731242809164007	10.942563737916593	5.6716820100072605	14	0.5620279392419172	0.7436474766202613	0.22766417700421598
Si	12.356613218520463	12.284731004483277	6.853535717845923	14	-0.5227031404807844	0.7371469510393309	-0.3907653283141935
Si	13.67978994803014	13.731665737782071	5.344861257514506	14	-0.42317128265880793	-0.23620924553572814	0.6258754263255584
Si	15.07481612102125	15.157594544845244	6.683341836559337	14	-0.12981356495108443	-1.0558020311025231	0.22068542583373807
Si	13.611889356516553	10.849724753477409	8.203830082238557	14	0.9841694942200058	0.505335838264248	-0.17754433544590942
Si	14.978945860175209	12.294447474263093	9.574425805918194	14	0.1367442364520756	-0.12644515987115842	-1.1133292270881765
Si	11.010480714708054	13.774611551092185	8.198439325817715	14	0.19658362745213795	-1.3793545525795339	0.3923979801924876
Si	12.317485174955202	15.248581992884564	9.45623879660654	14	-0.5710106098989186	-0.308055184159818	0.09634780099350501
Si	11.125570906501352	11.022622205613354	10.878169595868236	14	-1.5310726493056197	0.4948958651117868	0.49848847057562967
Si	12.333706600051354	12.476537067286857	12.267510077436757	14	-0.3652676768542851	-0.2564286748839046	0.5564710093134811
Si	13.62394892103248	13.756014260704173	10.718576989366712	14	-0.994957337922283	-0.6854600207883941	0.2753656368983913
Si	14.994184168598867	15.131640264691404	12.110965132619963	14	1.0821831143504346	0.2050124820231794	1.2059944339316335
Si	13.533305563828531	10.911382554120658	13.576513541584642	14	0.463750523705641	-0.09453080086375636	-0.48213521229735995
Si	14.905015486403661	12.151158219247092	14.922056175393557	14	0.5741748692164248	0.3751008691511914	1.2291757766086207
Si	10.819051513295596	13.59512721725053	13.755817637369674	14	-0.22478299638245802	0.26941301386118444	-0.7929059978963183
Si	12.199298165643548	15.059905518155091	15.042553508885572	14	-0.27649332369180823	-1.0320951544980979	0.7579250815735756
H	14.620593278939996	14.983961393732717	10.594648578687693	1	0.10951905932755958	0.4133663725204232	-1.300164508718973
H	-0.8908233178080509	12.647835316302212	12.783897025247594	1	-1.3872123646589705	-1.1006199963801526	-1.3858573921552524
H	-1.7293595753895084	-1.9381080155157344	-1.0398179265800915	1	0.7583068907136176	0.9476564562369868	-0.8907039022903868
H	-0.4951172186014283	0.2772012155041958	-1.447337811134517	1	1.8372432132657694	1.2297421911106492	-1.0702899524710257
H	9.642318204792842	9.487157815956476	15.108520637609919	1	0.08257850356198398	-0.14460744785268448	-0.03987861484709275
H	17.9069212826694	9.69543108302433	6.81155663593043	1	0.11413522181935346	0.16148932538477673	-0.03250134235199186
H	9.5425974036462	6.721077131505232	6.956189483732172	1	-0.05174040924159591	-0.031140713416569505	-0.008529384789059237
H	9.46933882626752	12.146160709495247	12.29059693396249	1	-0.06997725927740624	-0.014683068262301648	0.020210173369023976
