225
config_type=divacancy dft_energy=-23053.33017450121 dft_virial="-69.49072893692774 5.180877001477491 8.159388798524628 5.180877001477491 -67.2253264457874 8.490334553752087 8.159388798524626 8.490334553752087 -70.0541246868983" pbc="T T T" Lattice="16.249967316 0.0 0.0 0.0 16.249967316 0.0 0.0 0.0 16.249967316" Properties=species:S:1:pos:R:3:Z:I:1:dft_force:R:3
Si	1.1788376289719038	1.20851006929092	1.23223502157228	14	0.37437890277729374	1.1422863007563444	1.969713501344163
Si	2.5982072741552398	2.79978811871022	0.229482038436552	14	-0.005009284495244503	-0.7872685923713616	-1.2970498717341457
Si	4.086671780366208	4.073184307493928	1.38563471303532	14	-0.9254585613449564	-0.32308766563512775	0.3071272722497766
Si	2.4281513661933	-0.07367735181074399	2.819239329587472	14	-0.1665016952064054	0.9039134700937115	-0.8096721756890038
Si	4.05209184991776	1.139317708459392	3.855662245001952	14	-0.7534752695959954	1.8337020299083293	0.1324384063724236
Si	-0.12902474048903997	2.695154579162496	2.8804367064995278	14	1.0260124335316918	-0.5983553434208214	-1.0232451528756161
Si	1.3984234373130118	3.999246956206128	4.078400547002364	14	-0.5988649364952747	0.6327513332832304	0.21642279032346454
Si	-0.17614964570544	0.01673746633548	5.472858992290272	14	0.014289174927254964	0.31811309106170527	0.04916930392144783
Si	1.4025509290112759	1.331132322657456	6.755550162378732	14	-0.3196346711901689	0.36686459036862906	0.6637177257590938
Si	2.837309293242864	2.646583426854972	5.30862057262746	14	-0.44217869295906664	-0.5054607939828073	0.8419822278051767
Si	4.164021624790368	3.966974521116552	6.826010020660908	14	0.058063528555436075	0.457759591199164	-0.2541671306443024
Si	2.9043729083559957	0.049659900117696	8.212294732388868	14	-0.6767501444058603	0.24970780557703753	-1.8050509177732592
Si	4.10547299255082	1.444589594457768	9.496415899601136	14	0.6339934342633939	0.4214028764196101	0.6828552339885521
Si	-0.06538986847958399	2.7814744055450875	8.304854546220804	14	1.2577065610147078	-0.5457592703286802	-2.3613378359458177
Si	1.35654727153968	3.906768392210772	9.63021813048108	14	1.6856017354782236	0.6115841945140473	-0.6961925857262883
Si	0.15372469080936	-0.025512448686119998	10.901583073350288	14	0.2112096171763323	0.41517591644474344	-0.1590665728416012
Si	1.4908695013737359	1.3187010976607159	12.317036476410468	14	-1.4615851855917017	0.14538546432256125	0.057446206168068524
Si	2.76972567917562	2.635224699701088	11.001244122899315	14	0.4972237438686488	0.8756235982561222	-0.48667141341369713
Si	3.9708095134031276	4.094943013730052	12.453389952159025	14	-0.10508955908200848	0.25691615645260474	-0.8217959657156301
Si	2.6124259955567397	0.035847427899096	13.795377252983569	14	1.1538750437658478	0.09784032763185098	0.16774868128667725
Si	4.100744252061864	1.4838820154278558	15.125274578125007	14	-1.9782601125388668	-0.17017091960878875	-0.18773876804029654
Si	-0.065714867825904	2.621249727809328	13.598330149309751	14	0.019060375069853756	0.07945101105055587	0.31265643424075495
Si	1.218568799059524	4.0906530223586275	15.015766048382483	14	1.4279345591616037	-1.154104643470937	-1.759619486766243
Si	0.080339838410304	5.359775469738228	0.08443483017393599	14	-1.3043600383803906	2.4909331140552218	1.3082089830446524
Si	1.552749376913064	6.906918607927271	1.6436191941441358	14	-1.445424760212443	-1.42279774784248	-1.432696760435582
Si	2.83667554451754	8.044790069295539	0.171225905608692	14	-0.15742492209468664	0.37723257257212617	-1.7005650542204216
Si	4.181457839720436	9.456164730559403	1.333131068637324	14	0.9420864136714181	1.1131739323268397	0.5809253062344736
Si	2.727459514186704	5.310895568051699	2.718034533143424	14	0.024799596365488296	0.4378844328533553	0.9422059700688049
Si	3.924870855800796	6.676071572236175	4.204500293374524	14	-0.15426991875633297	-0.5572377129199493	0.6133145483945069
Si	0.08682357536938799	8.232899690945557	2.771821924959384	14	-0.379659953104878	1.4654526422142686	-0.267530707656304
Si	1.6120130077145158	9.660979318610268	3.904265897244108	14	-1.0255984855751477	-0.23029467485725946	0.8099606537059244
Si	-0.008531232840899999	5.7045997761837475	5.205725779582548	14	0.7176237770118505	-2.429456443187289	1.3894407416399428
Si	1.256008723755588	6.908381104985712	6.699032776053683	14	1.0159077325129777	-0.34390796229662285	1.1361927811475934
Si	2.661468396916428	8.253374649763716	5.453797780628604	14	0.8275570414064859	-0.4983704568414349	-0.09805064404703907
Si	4.229053993989	9.432829777493627	6.7916738397222	14	-0.36313545921228624	1.2170319319604972	0.012755510603786635
Si	2.76281944306632	5.368972951239083	8.18949602824452	14	-0.5146761496712821	0.5780652086763408	-0.07032821515360645
Si	4.119464214409896	6.855796210751135	9.675815538769776	14	1.9805034019306964	-2.002517462792336	-2.6454454880432445
Si	0.079722339652296	8.362021931238491	8.094449969413235	14	-0.5473623544957925	-0.015762418275699814	0.41024685043548753
Si	1.3940359461376919	9.691025508177551	9.649474341750539	14	0.5737241544538028	-0.7768815839884954	-1.6987791644650467
Si	0.139977218460024	5.322611794486535	10.844480688201864	14	-0.7212703756874166	1.5366403778764004	0.6728556911774322
Si	1.200173836057812	7.1370018951545156	11.901167312859394	14	0.16986264408090299	-1.44714328700843	1.958569559555045
Si	2.8205880768747	8.201634753829572	10.689569749778435	14	-1.3827972626032121	2.1522653215115923	2.2424638099108996
Si	3.9449233154687398	9.672338045764151	12.295797769128455	14	-0.26971743273109	-0.12605100942557973	-0.7333591986816888
Si	2.4224638776327003	5.590053756573264	13.528162790439264	14	0.6904726477205547	0.013807606900791228	0.097059482946122
Si	4.136867929405332	6.687787798671012	14.875187581131769	14	-0.8063742188948498	0.5932457858180912	-0.24408531246293777
Si	-0.171014656033584	8.313028279780752	13.524750297302903	14	1.0323157553345665	-0.524016718188848	0.27316528496540854
Si	1.291693651981524	9.398266097012495	15.139850798807458	14	0.13454954095079716	0.586558597990918	-0.7713490795606007
Si	-0.16964965877903998	10.974464176762547	-0.0808435873971	14	-0.23577035785757883	-0.3159543910349089	0.026511438287642887
Si	1.232056271931804	12.323390213631024	1.2514424829397919	14	1.08199876609898	0.3168121117697103	-0.3814211602491794
Si	2.950457815664172	13.672218750695604	-0.022652454438504	14	-3.3035749163889965	-1.746811011392861	-1.8150890271641813
Si	4.297417606487412	14.73956535391243	1.240506254936124	14	7.796875854906921	-1.250260382897027	-2.39479125859786
Si	2.85991299777942	11.077748969023043	2.550741119625204	14	-0.13813109066176346	-0.7822711349605899	-0.459479403547811
Si	4.101264251015976	12.144721822991603	4.214867772522132	14	-0.2441403341167889	-0.44702162694009756	0.5256393427563933
Si	-0.14657470519032	13.526602793576927	2.717514534189312	14	0.19240146753838505	0.38210558848540277	0.8416595540874982
Si	1.26197246176056	14.871173839204717	4.230272741537699	14	-0.8008306587140788	-0.991481460639975	0.2774513175340954
Si	0.158778430644636	10.781674564525524	5.501897683883964	14	0.4499418883627217	-0.20957953640335844	0.08121427507911341
Si	1.3998696844041358	12.130681851230579	6.97180472742006	14	-0.5133263193782042	-0.9217044904670083	1.1500302128700983
Si	2.556574857891648	13.327199444642291	5.54587009544106	14	1.6913990637540934	2.083274338234995	-0.6983471719845723
Si	4.137274178588232	14.799787732785527	6.849767472876899	14	-1.8958623576808897	0.2278539245768429	-1.0477704123034448
Si	3.006796452348744	10.817976991509466	8.304984545959332	14	-1.2120527293974983	0.6625424735172541	-0.6369026399331414
Si	4.214282773698756	12.323877712650503	9.636035618780207	14	1.058917439418947	-0.8146989437004255	-1.3016161547827287
Si	0.036692426199528	13.740712362932543	8.0876087331732	14	1.1179284202848574	-0.37415418817231283	-0.24694489580000642
Si	1.522410687934092	15.00091357825566	9.410941071518975	14	-0.693915614854765	-0.6309495026748706	0.7516233024338927
Si	0.025886197934388	10.98895914760842	10.905548065375392	14	0.049457010606772406	0.18688130441602716	1.1273823745470417
Si	1.360869762845736	12.353907652250472	12.3552563995377	14	0.6292816266536906	-0.5341851826195015	-0.5147070029351238
Si	2.825365567265604	13.623095099499336	10.836761953726764	14	-1.030079665037634	0.46803012851102754	1.5869697645182992
Si	4.016211922084032	15.061314706769231	12.375065109695903	14	0.21487035693115916	-1.0114975155573276	-0.3408848566611928
Si	2.674208371292172	11.01877783763328	13.916342009683872	14	-0.18067234217840156	-0.9533645671582477	-0.8997570212331601
Si	4.331006288929584	12.15481305269484	15.105888367117018	14	-0.48474102753933	1.1088308212200455	-0.46425471745892205
Si	-0.244919507386752	13.5675039613113	13.49307911100402	14	0.7091231886023769	1.1746914837693625	-0.7641271018268367
Si	1.103226531050556	14.87830757485644	14.835310161338302	14	1.9111537494619382	-1.2294326300301033	0.20543722862206784
Si	5.468179001703264	0.157185933847668	0.024114951496944	14	0.7599189737493505	-0.9924870199306849	0.7707273862941889
Si	6.926678568183529	1.307277370637568	1.446133341352788	14	-1.3542644213128687	2.237247808547915	-0.9817225732868209
Si	8.162309832924851	2.8621879932036602	0.035343678912299996	14	-1.7714712538499973	-1.455216814824227	-1.6056444737901305
Si	9.582963225526152	3.822983560729476	1.3567910210494198	14	1.1574442521712773	1.5998574299355415	0.9714245251480318
Si	8.21926596836743	-0.08181858543606	2.579682311415	14	0.6787342663814188	-0.19960287642958785	1.206541565143761
Si	9.530167081716469	1.406970920121228	3.946808311677396	14	-0.1320164879893873	-1.6633251647633966	0.4725213352842622
Si	5.281661876850215	2.8491392694489117	2.8297205585062915	14	2.040871155074049	-1.8866811976931726	-0.05300050795900049
Si	6.804251314424784	3.98668573147086	4.256126439537455	14	1.0100654098940054	-0.4168031690018652	-2.3478976399952756
Si	5.186924567397935	-0.059328630670716	5.3331092733726715	14	0.9768891523954744	-0.16401415080916215	0.9353850847649842
Si	6.642677889401796	1.197183842071668	6.651485371687068	14	0.8801957948469417	0.745708731755424	0.7342819683810899
Si	8.180184796972451	2.589627291412392	5.415074108514576	14	-1.1107203265198222	-1.1679387327565258	-0.16753990753468123
Si	9.41165607008088	3.874739706630936	6.719572734741108	14	1.3785587954829481	2.079016844935362	1.5556459884029352
Si	8.180916045501672	-0.066576116093652	8.001451406463767	14	-1.3638150491350909	0.7591867229541722	0.5870931307869768
Si	9.442758507523704	1.282918669630884	9.39881859590124	14	0.13243352127231534	-0.07897175701888026	1.0983844203042838
Si	5.617142452089036	2.714020791216372	8.219590967713751	14	-0.8230221258428088	-0.6349054053204504	-0.9036126507712542
Si	6.83912374428492	4.166394120018504	9.476298440063927	14	-0.007423552390863548	-0.6199865667002912	1.3101062016603895
Si	5.338813011900587	0.10125354634599601	10.949260477455432	14	0.30867379209984563	0.14801930461252094	-0.1756653716779452
Si	6.77509887305988	1.4494970845872	12.167114277953052	14	0.3553411534342574	0.600450280035678	0.13410165440402738
Si	8.278854598515203	2.78881939077192	10.812257003014237	14	-0.5835882000145509	-0.06645021699922711	0.10355743742173223
Si	9.65069308929924	4.196359059749208	12.168593024978808	14	-1.6768273243521545	-0.8839910034100122	1.5863149039932576
Si	8.316635772524902	0.260763225519852	13.459002929542367	14	-0.842124409929381	-1.0182816340550702	0.7427625021690663
Si	9.611059419015515	1.619926741797408	14.844393893067947	14	0.31281250033368796	-0.5150163069051377	0.6981263140375715
Si	5.374887939342107	2.667204635378976	13.684796225398188	14	0.3465585147711635	0.3382834122982669	-1.1052302453297103
Si	6.604604215980408	4.213437775398324	14.825267681537015	14	1.9198641400655359	-1.270772146920104	0.5399244039151362
Si	5.378674181726736	5.292728104592412	0.080941087200996	14	0.43340685293831743	1.982376452156424	-0.30213161461272886
Si	6.711464001050423	6.641832891101364	1.531868168912004	14	0.3351692895345036	0.4481611408179872	-0.43958830434901747
Si	7.8296405020317	8.288978328153071	0.003932492090472	14	-0.4831153176454003	-1.5568796047355422	-0.6485201793222306
Si	9.253901387377152	9.293616307497455	1.4372608591982519	14	2.3784811948889693	0.2388713679842094	-0.8937182661677283
Si	8.323574508568836	5.245586949408695	2.7395982397717558	14	-1.7867916991211636	-0.46307098056952595	-0.3017894004946171
Si	9.486259670028636	6.682815308672315	3.9966794613701997	14	1.6469971033172643	0.9306588789654879	0.2586830200286105
Si	5.2246732414730035	7.948119013732655	2.913586639824168	14	1.6564788255169065	1.4049918150583265	-1.1259597819734037
Si	6.773977625315076	9.541217059491348	4.038214377829896	14	0.6213968179683925	-1.4272760990891138	-0.528340031784677
Si	5.5270201333545	5.345589248271359	5.358085473137364	14	-1.6448641143436695	1.5167477360144148	1.9050615154058472
Si	6.840147492225828	6.896876128125984	6.575760523994508	14	-0.4325964405414067	0.2548952676709683	1.076697146928835
Si	8.333015739579432	8.179648548051023	5.28944561119458	14	-1.5782953693891835	-0.11137179782125829	-0.11875832629551171
Si	9.377612388553858	9.257297630546196	6.9891759424808635	14	1.0039238106157675	0.7702815566316752	0.421054234538198
Si	8.016498876198384	5.52669513400818	8.144548618648463	14	1.0591452393503118	-0.08753430906656942	-1.4995588685070969
Si	9.370316153228977	7.103591962352819	9.926633784292237	14	-0.7358739967953256	0.03739878376580993	-0.7332221587681248
Si	5.632449921300708	8.385974383062276	8.232379691991444	14	-0.2750984990556279	-2.9012133888598712	-0.24860325873150194
Si	7.06987328017212	9.139241617995456	9.820651497457284	14	-0.7530237835017772	1.9904512655248812	-1.1666318399222944
Si	5.475978986014944	5.338699262129376	10.989186647150845	14	-1.1960334577003158	0.048451708426594506	-0.4067982268695729
Si	6.95490476141142	6.8062988103066	11.985325893588959	14	-0.9996899714850797	1.1815319094736167	0.48980533368842555
Si	9.247661399927809	9.119189158327512	11.820599974906669	14	0.1979113462394624	-0.5822671661010589	0.29492609195301384
Si	8.044806319262856	5.51613265525278	13.531932782856575	14	0.9102759273189501	-0.6854687625464826	0.22811540598790198
Si	9.29875129716931	6.881097409862148	14.936417457978456	14	0.05293957276291297	0.2551793748088447	0.1701876317933697
Si	5.38905791084166	8.177844801678948	13.29889200157782	14	-0.3343475642741842	-0.8481143139937299	0.8858365428088145
Si	6.520088135969892	9.637790615250335	14.684347964972662	14	1.6778318552007365	-0.8585398889563984	0.3552871602225342
Si	5.839133255592912	10.96499044581732	0.134565979343796	14	-1.4748636590176065	-0.4291696713707134	0.806653183822086
Si	7.086188247357384	12.322415215592063	1.621957987711908	14	-0.4400048234108814	0.08131943328670747	-1.1121480613041004
Si	8.272143362013695	13.578895188399816	-0.036009927572256	14	-0.18118604902136715	-0.057028144443012456	-0.1197168343588629
Si	9.753214133095884	14.932679965495774	1.294439896457928	14	-1.1063029104692759	-1.9737254540857216	1.6064988520880161
Si	8.312914530009541	10.762662102765804	2.737615743759204	14	-0.7139136720348768	1.276496970025946	1.675170761194383
Si	9.6260743888155	12.167780526613008	4.184074084458311	14	-0.9929634457465082	-0.5076133233568352	0.6908081769648341
Si	5.4347528189342516	13.393483061324254	2.906972903126556	14	0.5225630152408363	1.385641162197828	-0.7157363285963297
Si	6.659935354691388	15.081448416273755	3.9928769690182557	14	1.1076712527206587	-1.4014809707436642	0.12955876841385774
Si	5.681833571974032	10.827239472879588	5.497770192185699	14	-1.8973098899761327	0.25125098299019044	0.17105383717572759
Si	6.94336728461706	12.182697996609095	6.810588801678024	14	-0.2920719079371174	1.3401616515213246	1.0801151743414397
Si	8.14874111021599	13.74982859459682	5.420225348153748	14	-0.1262222450399016	-1.3258922741050347	-0.7536932993271439
Si	9.569573252457769	15.102134624667023	6.587850499677612	14	0.6512828319887296	-1.093836906324538	0.7967423441445112
Si	8.099909958431411	10.780147067597818	8.348404458627684	14	1.0763523617054027	0.3058278356209737	0.07804564488256292
Si	9.570142001313828	12.473816161075236	9.555224531317739	14	-0.9336344191524955	-1.552831142298437	-0.5526755436398786
Si	5.539565108122452	13.78593602197297	8.217250972420247	14	0.7544926559711779	-2.6057455650159023	0.2307651871308466
Si	6.771182630936723	15.065783447781133	9.6256681396326	14	1.1027522140221515	-0.11674515082983576	-0.04655860357936947
Si	5.544748847696256	10.672767283573691	10.783949559949765	14	-0.6956233430084074	0.4276640320952347	0.8657433547318572
Si	6.7360989515014795	12.113603135581462	12.152278057793543	14	1.2577875508322927	0.4435642616160944	0.3879790214787491
Si	8.189756027721577	13.653352538641727	10.940339245398947	14	-0.9716317562368357	-0.1051489516149039	0.1988487712391884
Si	9.61855065394819	14.95991491071739	12.266547827959656	14	-0.9001647985369358	0.5024508009845099	-0.04588008888538239
Si	8.223572209706173	10.521220088384675	13.321398206310478	14	-1.3181403915647885	1.6832682002896573	0.7872984171930753
Si	9.45791972702953	11.953248458107176	14.80814021598595	14	0.24026105040974946	0.7445257661976239	0.5407949801765383
Si	5.519902647670092	13.605870134144375	13.566707712912814	14	-0.960678590462473	-0.9600880075704348	-0.5293841576551891
Si	6.774351374563343	14.944087442551607	14.86704634750645	14	1.4979745534088216	1.215377939908046	0.7184768697570756
Si	10.947602980789199	-0.053316142763795996	-0.014397471041976	14	0.30272605416274706	1.2016793478728287	-2.516130717524269
Si	12.403811301877909	1.203976328409756	1.157793921297684	14	-0.6884512447178543	-0.39763429328750116	1.7296851359658867
Si	13.577205191798951	2.73088825729038	0.08851357197025199	14	-0.09002416745860081	0.18444106835667462	-1.8017434478894208
Si	14.927008726902493	3.9361158331834676	1.34127230226264	14	1.0140272260818213	1.3860340270907467	1.0040351394761298
Si	13.989401862736607	-0.29565190534730396	2.118296989411812	14	-0.38090616785355375	0.9684502705136845	2.4243301733999782
Si	14.669966743898003	1.3548410249715	4.004511945616512	14	0.11175592095608841	-0.8200869520093277	0.5122672810968352
Si	10.996044133358195	2.4782012655265797	2.643902182247832	14	1.084185491173766	0.980128745098861	-0.06761184238287002
Si	12.18815798562727	4.002236950192272	4.17266660740248	14	-0.24876369570347914	0.9701927085891486	-1.7419125415369148
Si	11.043981536940395	0.028079943522047998	5.283823122503243	14	-0.2550618752957139	1.5113574137107242	0.42789003225287564
Si	12.333903942484476	1.349543535626484	6.856364959607196	14	-0.043751213680299786	-0.8779082824436059	0.22925620541845168
Si	13.516869063154644	2.8623992427787677	5.567563801807919	14	1.2250890047022451	-0.8451868534762093	0.21143973110248557
Si	15.016529796846337	4.239307723365395	6.876449919209772	14	0.7229927591413837	-0.7602444756828811	-1.8594441934841839
Si	13.716304912023912	-0.157689682834464	8.323119509483988	14	-0.26283689778384167	2.2873846194013345	-0.8464220124720084
Si	15.037411004847396	1.3778834786255878	9.597604446077868	14	-0.4218569336191482	-1.3942741625312893	-0.15898198347656833
Si	10.833073211146031	2.556184858676064	8.1404211269502	14	0.531482950928026	1.3981166794322504	-0.1890906552176304
Si	12.24816911492526	4.058234337563207	9.5176058569812	14	-0.44429728374286864	-0.2548749559389391	-0.6472312842252405
Si	10.878995618781047	0.08258233389991199	10.930719264747875	14	0.2518572496246813	0.6493545029986186	-0.5647204007331762
Si	12.14676931887342	1.664337902472036	12.262127836849704	14	-0.16311503527870636	-0.3171275863924925	-0.8141561833673421
Si	13.658926277431116	2.743904481110496	10.774979577991331	14	-0.6933492003527364	-0.01609846174104317	1.158686867372505
Si	14.931704967456815	4.107715488040427	12.193422975037656	14	0.14776476518582626	-0.4289734960347861	0.2896956924002366
Si	13.380336837765611	0.168040912014756	13.445775456147144	14	0.15913702112737327	-1.797507551874477	0.7504287669021519
Si	14.716929149441244	1.2098425666108321	14.950879928889695	14	1.3401158858466262	0.5294232384560553	0.28630877536200555
Si	11.11192265028859	3.1325061995053196	13.739396115579947	14	-0.9974068299607883	-0.7227978693581165	-0.324497145571633
Si	12.4198500196188	4.4321460855043675	15.173585730955475	14	-0.9580257239931441	-1.1343235875798456	-0.019868987693040324
Si	10.65290982351354	5.470600246833348	0.051349896718559995	14	0.526117825456473	0.46833274760720894	-0.06883183185728027
Si	12.176328009421225	6.805860061189068	1.257373721010132	14	0.10434188165490942	-0.49400883377633575	0.290275990870994
Si	13.61211012159372	8.187984781284133	0.046003657471596	14	-0.6013997892304087	0.31140893393941915	0.00047616870529142423
Si	14.790704001055882	9.66331931390377	1.501773229442772	14	0.7104161974678793	-0.26555789854415446	-0.35950840093715336
Si	13.582226431699596	5.404219130347488	2.5720123268418478	14	-0.44451582769508124	0.23151415011060575	1.224111727570057
Si	14.87895757354908	7.0043209120193755	4.027928148518868	14	-1.0515278256183092	-1.1456223099092364	-1.0583870203914003
Si	10.923000530272775	8.130346147214281	2.6382146936872317	14	-0.6728862873307419	-0.20397658368969174	0.7746766040659364
Si	12.265735329593856	9.434357274421332	4.120016713298639	14	-1.3448153521507928	-1.1729716714207155	0.9576241173421369
Si	10.861575653818294	5.464197759710843	5.454902778406092	14	-0.7919953123919219	-1.18652319623162	0.08631843336067138
Si	12.25133785855188	6.647406629890751	6.8769861681312	14	-1.0185037775547314	-1.8187009159179255	2.5504387755847286
Si	13.413438021188302	7.849254212582112	5.5656463056646315	14	1.778135044618757	3.907997554144303	-1.3683021421398132
Si	14.791922748604584	9.749102891364934	6.806965058966556	14	-0.022558106747383202	-2.3257575949729485	0.0001493812191006034
Si	13.825780941831804	5.341364256769199	8.364865675518793	14	-2.4426570121219933	0.879264797610516	-0.913799627160213
Si	15.139477049559192	6.778202616817236	9.459203474447495	14	-0.12948394924904144	1.308482805761248	0.5387429810205281
Si	10.84246569225468	7.912694084983776	8.377134400842372	14	0.6206805080261992	1.635200100776829	-1.1283521954738018
Si	12.078454456276956	9.77817408289326	9.467084708595754	14	-0.3519467801905979	-1.908250971555491	0.3888295431186541
Si	10.941281743503275	5.449735288799603	10.917654291025812	14	17.892542266636415	-29.602689784030865	23.377913706023165
Si	12.14070808106455	6.988233444376536	12.172883016350232	14	1.181412610186762	-0.30357991823956826	0.09040134860906654
Si	13.5549102366414	8.258867138716523	10.593938692123775	14	-0.18883817267519185	-0.4438275428008776	0.9429307646585547
Si	14.764801553154179	9.60278818565167	12.13016185227647	14	0.5944701461715456	-0.13774465353214518	-0.6898067314426364
Si	13.481232884830655	5.413367861946396	13.4659416655863	14	0.7864198705051807	1.9133731275742898	-0.032431408287283844
Si	14.865242601134375	6.833810004972587	14.944054942616976	14	0.8225498137954975	-0.9603602876238387	-0.6500720984934719
Si	10.652129825082373	8.245818414961775	13.477560392217239	14	0.6215762811197388	-0.666656242029491	1.0146062389999186
Si	12.078048207094055	9.450217242521747	14.994446091263892	14	0.40707744890734104	0.6847043729348026	-0.5083260337515803
Si	10.79545453680949	10.810827005890427	0.21661206432228	14	0.18753539360947283	0.15308875297225694	-0.41120484427777476
Si	12.364681380580981	12.340582679051352	1.5470293884178319	14	-1.2588882410198479	-1.242782580183908	-0.17117956422588282
Si	13.734326125777356	13.690824963272423	0.343719308668032	14	-0.8680290673614689	-1.5408695890175121	-2.5586727403725034
Si	16.18412244843557	15.925845467915064	0.14351971133491198	14	-2.1380499373070254	1.2251957055730314	0.2898031646026188
Si	13.474505398361831	10.948626728730108	3.0188214281625836	14	0.6500731269356	-0.6777533897017822	-1.4630890250934565
Si	14.997029836067137	12.01676958034542	4.247432707023395	14	0.004427700471827007	1.7958540740430895	-0.28811266285462145
Si	11.028885317303832	13.501756593550764	2.9923014815028717	14	0.07814488954792065	1.8148972227072984	-0.9318307887704114
Si	12.590182177025111	15.066953445427883	4.133146686889968	14	-0.5581242300343364	-0.1302138860494315	-2.6156162954504825
Si	10.789978297824	10.582742464643053	5.5700825467419	14	0.2164546720294344	0.9193856105787666	0.43711875768901526
Si	12.138059336392043	12.181072999877495	6.821508779714375	14	-0.952745187886624	0.44429419841648443	0.048515728949066195
Si	13.449187949283504	13.42426049942076	5.347750493924388	14	0.9411613299772287	-0.6640709956300822	1.2153671412657014
Si	14.718862895551847	14.790216502036403	6.792697587663108	14	0.9313335370014947	0.10579069950281286	-0.8462466630891744
Si	13.510612825737985	11.020337834495615	8.254528397443151	14	1.3352230724223844	1.3677958915022763	0.036283438277929694
Si	15.166029496153536	12.548501010859573	9.628284384370476	14	-1.3396975670110378	-1.7510445934130168	-0.6323425275373268
Si	10.840255696699703	13.817672208141119	8.164243579035455	14	0.5182425298608594	-0.8521571199991307	-0.98021282024283
Si	12.284032792791672	14.975628629111965	9.583044475362732	14	-0.8535100356185926	-0.4264183315676229	0.7992373447471829
Si	10.49130389855592	10.758924610283124	10.905093066290544	14	1.7917896707529997	1.6342166529918722	-0.7315979915373874
Si	12.054940753570703	12.192171727554323	12.196640468566224	14	0.035031824208081604	-0.15354769527190334	-1.2156551050615578
Si	13.609526376790475	13.574751446734235	10.920579285142692	14	-1.529008823065137	-0.4586587067296198	-0.2212937493524851
Si	14.793190246055232	15.064662200036329	12.10739564806675	14	0.4739310723312994	0.3703587224987102	1.0327083631169536
Si	13.41442926919458	10.865296896333659	13.421611754748252	14	-1.3649944151454427	-0.8706793627254774	1.132057672461199
Si	14.591999400715835	12.322642715134489	14.655163023673127	14	0.7110988259303787	-0.556452240244644	2.7305909831568647
Si	10.816205745072024	13.523694049427363	13.551546493406986	14	0.08570471052075204	-0.7146428375036707	1.3136805522764596
Si	12.355142649766488	14.657616768737842	14.951887426863287	14	-0.6109208493414491	1.7852613772346113	-0.3205432998103092
H	10.587129955818371	6.103939472980985	10.398653084907014	1	-16.61589154451233	29.55628004744953	-24.196716133814544
H	8.348570208294307	6.488566449370316	11.05823600826999	1	0.4268808734147176	-0.09592871082632087	-0.3758143508775325
H	5.240165960312078	13.886749194204704	0.3599237760755472	1	0.8117779109462052	-0.6151192072187188	-0.6245163400533281
H	6.041386848794774	5.980673720908735	12.965826171482158	1	-0.36966940916237856	-0.4156919372824972	0.41334040435668973
H	3.2612465655663296	-1.1366754637738103	1.878772471173972	1	-6.251170788113807	2.6265342370819593	4.299723447406105
H	14.708280916835669	14.536725136890462	1.0293476796450935	1	0.8217175470033656	0.3810249529193445	0.262130872262929
H	17.06105193464351	16.86341495715612	-0.7954651500593687	1	0.2554681099362973	0.21906614370310878	-0.2597186612515661
H	6.948978398331275	4.575734046702007	7.248964169961756	1	0.2551243531549935	0.19464758514606645	0.03966906976350068
H	7.939127906816713	8.201187879728382	10.69124024641852	1	-0.15320393849059954	-0.07592139766705658	-0.1342700618024971
H	0.8825617248796656	12.624445233110897	3.478791378012548	1	0.25158934045032194	-0.20181402700491516	0.0833930297274069
H	10.180045524598329	10.18156002155218	12.800165879679195	1	0.1654285158457756	-0.003111037437379176	0.11306924155362007
