221
config_type=divacancy dft_energy=-22993.881068537423 dft_virial="-49.50002938902144 -9.46347266733759 -15.605668291142468 -9.46347266733759 -58.337069019678495 -16.775797925696697 -15.605668291142468 -16.775797925696697 -56.851752951574305" pbc="T T T" Lattice="16.249967316 0.0 0.0 0.0 16.249967316 0.0 0.0 0.0 16.249967316" Properties=species:S:1:pos:R:3:Z:I:1:dft_force:R:3
Si	1.208152570009968	1.291254902863992	1.256089973592168	14	2.3105230246194752	0.8513665051131852	2.0814339410468334
Si	2.60511351026454	2.997647720749836	0.24137701451186397	14	0.08756979031998746	-2.383790784485607	-0.2616320778308203
Si	4.1908990707310325	3.995655713429292	1.412317159368192	14	1.028483265744354	1.535121111742725	1.0617140306756718
Si	2.717855783502948	-0.20093084586233997	2.525667420056616	14	-0.23486610011648276	1.0373314675931116	0.2995409688921476
Si	3.8039223490678076	1.3130136091001159	4.068926816057136	14	-0.2029445420141843	-0.9507983469382079	0.5292646012578022
Si	-0.15469968884832	2.5990197725210398	2.6782871130884875	14	0.5942408035769884	0.7492409162442434	-0.6654822753403115
Si	1.503658225651428	3.9080358896614196	3.926609602303608	14	-0.039325827203260916	0.7625096194699317	0.20485384482492625
Si	-0.15851843116758	-0.108013532749452	5.021629899859584	14	1.5487587685818545	-0.7835227490304378	1.7123710556294778
Si	1.281586172310972	1.1763026340706078	6.641264142245304	14	-0.8314404388820377	-0.6542210911485948	-0.036190621375872346
Si	2.647737174534408	2.6771983652783162	5.6456448947613	14	1.053472095461405	0.69768202703825	-1.0245687578944285
Si	4.410257379529716	3.958475788210284	6.925053571451928	14	-1.773513997026855	0.41055718284762943	-1.143478008072233
Si	2.6448609303194757	0.101026046803572	8.21387097921852	14	0.6076439756109203	-0.26144515847404554	0.44606980375057875
Si	4.189712823116963	1.541130650282124	9.521619598908252	14	-0.6952474474106017	-1.8504239846895085	0.5429418531188619
Si	0.010497478886135999	2.535937399400328	8.032667593677804	14	0.7773978619367811	0.8257125304498116	0.7610515456428757
Si	1.4554770725594879	4.023069408291383	9.375759892279836	14	0.07081543961177451	-0.4808303763473847	0.3669592070444105
Si	0.28011693659320797	0.137133474179724	10.75322087175521	14	-1.9756152164960306	-1.2273646900211084	0.6157123612160771
Si	1.3199035952421	1.4048096744682	12.337836434574946	14	-0.05846204988005903	-0.24872358646048487	0.6124403725856566
Si	2.699720819978292	2.5917722870981037	11.018712837764015	14	0.8328530041449269	1.5828387696004171	-1.4925549205044817
Si	4.344022512749699	3.809821087203516	12.171566768997636	14	-0.6032286164446301	1.2565071403828587	-0.3018850456125266
Si	2.626205967840708	0.035164929271824	13.715996162644908	14	-0.34267357463241976	0.48881597236123275	0.9650764661125861
Si	3.9999294548334	1.4683470466737598	15.199260679314754	14	-0.699210292040546	-0.7962070400168563	0.3876008118861553
Si	0.214207069159512	2.713614542033472	13.967123157546371	14	-1.4243985180148042	-0.8126999093140103	-1.8254428682884178
Si	1.599386783109984	4.1565628897923235	14.890673799983915	14	-0.4956206597015366	1.6874686150511833	0.5071528383939967
Si	0.15534968754096	5.51938264871598	0.05414489109691199	14	-0.39442298274263615	-0.8735649142262796	-0.5994637469243373
Si	1.482679517846472	6.952662265921812	1.2574712208140277	14	0.5166420167990672	-0.5861657330979994	1.989929074034359
Si	2.675670868350612	8.219899717092755	-0.250671995816616	14	0.7519030386927248	-0.08009687270697706	0.795194538741782
Si	4.179442843773252	9.4229497973655	1.321106092823484	14	-1.3612886810475133	-0.5039392138543436	0.6785409192613436
Si	3.0742500666774597	5.5505825859627	2.802160613938356	14	-1.3237320314150463	0.09631669061913121	0.017555507125971082
Si	4.353544993596876	7.08449825075652	4.30640383841316	14	-1.4347528733601045	-0.7210068373921014	-0.4952280519191499
Si	0.10637228605053599	8.252480901561336	2.793986880378408	14	-0.03658014383187478	-0.9381991595378862	-1.808019515975902
Si	1.34444104588926	9.462973466864808	4.190021572495968	14	0.5967054651368824	2.617723316260344	-0.11218298154976501
Si	0.085848577330428	5.28741436528008	5.276413137407148	14	-0.472482254483396	0.4706711678958836	0.15421798242886595
Si	1.395449693294184	6.696579030988968	6.669620335211723	14	0.4111138271494415	0.09049493684271992	0.6661913861876083
Si	2.74104448686288	8.40862683750078	5.636642412868236	14	-0.0938507435065772	-2.214910816858064	-0.7788497651110687
Si	4.301057599166196	9.250001395221311	6.99008594065056	14	0.025979733707436264	1.5385093143336162	0.775781665132536
Si	2.91776288142438	5.3693629504546685	8.041491325930393	14	-0.8924946771458699	0.24643787383087326	0.3384389641701359
Si	3.989155726502892	6.869884932414108	9.51606211008618	14	0.26582040839734156	-0.22758241585503527	-0.6639025882316125
Si	-0.038073673421387996	8.061560035565652	8.147392362928764	14	-0.4813628522591873	-0.2585549789836671	-0.4177958727659743
Si	1.1647976572108798	9.401402340704482	9.669006802464372	14	0.8444713148656121	0.0002517112108424969	-0.7369248075396702
Si	0.11764976336784	5.338569262390847	10.84839693032502	14	-0.997126579480892	0.09141950631584517	-2.13743158647753
Si	1.3943446955166958	6.718776486342624	12.030614552498651	14	-0.5670341384107774	-0.39954231054558303	2.6662770975681482
Si	2.6488746722465275	8.109594938951748	10.932994260172116	14	0.9729602463557561	1.6262873641845355	-0.8511942410567354
Si	4.0606555826932915	9.518970854235743	12.21131418905257	14	0.25738564028406374	-0.7212904303089136	0.06400689561349039
Si	2.805199357826448	5.253354433785744	13.268618312468112	14	0.7837572338356354	0.8638430507897359	0.3374699145749721
Si	4.0794567948779035	6.708327757358435	14.779410273771264	14	-0.7741083897901836	-0.5985255505930153	0.4004249710019899
Si	-0.002811244345668	8.02724010459426	13.626052593550849	14	-0.5318040819825125	-0.6304843897224558	-0.8699450550460432
Si	1.139252708590128	9.55403828370367	14.867647596297143	14	1.683507570194963	0.34777413336652957	-0.37549836203368625
Si	-0.037634924303855996	10.96396669787641	-0.012008725846523998	14	-0.4664311581124274	-0.7499088894064179	-0.9795255637907542
Si	1.356596021441628	12.03329579710579	1.317157350765696	14	1.5646602836553742	0.9686081363803416	0.6576841129043023
Si	2.535303650675004	13.683008728993428	0.012317475225527999	14	-0.09051396302208901	-0.4669957728407319	0.29218092280269176
Si	4.238836474313231	14.694975443597327	1.3694659955559	14	-1.4156575312578967	-0.36639767764249015	0.3512767501441672
Si	2.884434198459264	10.854994417055314	2.796993124331868	14	-0.7736250219899958	-0.31973494429765464	0.09178331771864613
Si	4.1331791868246	12.3845063407065	4.184171584262208	14	0.6104058569458234	-0.3027445661210521	-0.47112368243222974
Si	-0.031216187214035997	13.501740343583448	2.4152163922097643	14	0.34727276782910066	1.1370271048239813	0.6982304438030376
Si	1.515829451171112	14.629374325542637	3.93761083017654	14	-3.033257387676184	1.7932695989752767	-1.8284857714348128
Si	-0.134045980389684	11.102611419016524	5.272171895937672	14	2.568692594915652	-0.7840665378056492	1.4540140517554618
Si	1.6830578648200678	12.195665470527263	6.836751249056784	14	-0.273277128046835	-0.44748288323453217	-1.9440124754534307
Si	2.872717972024428	13.937905716312203	5.4310965762881525	14	1.3164678875540319	-2.2917585837719705	2.451869539594616
Si	4.197399057657432	15.019276041322739	7.112529444376619	14	-0.7479453362734207	1.6642083394408678	-2.824361251066921
Si	2.68969459014432	10.580061220035912	8.25075840502584	14	-0.054356508904846584	-0.4039949507390155	-0.4295944179696018
Si	3.9166158724042677	11.930141004583824	9.598465694345615	14	0.5471530665227325	0.8161112518527828	0.7964047580159757
Si	0.405956683488312	13.440672966409918	8.187838531578288	14	-3.027029656369721	0.010022682759001242	-1.5606457598084953
Si	1.41317840763594	14.731651619829538	9.584620722192383	14	1.7945860048991926	2.1851844684781083	0.9695208787689942
Si	0.102147294548376	10.992322890842832	10.94857797882816	14	-0.6449023770262502	-0.6194772307363698	1.2005586030637765
Si	1.47866577591942	12.244496622311843	12.521201065768691	14	0.6222146865707315	0.12004902116622605	-1.3503501705734753
Si	2.87689421362464	13.575287695655664	10.978754168133971	14	-0.5463210568411325	-0.48079669486769083	0.6856798502932667
Si	4.036963130346564	15.150072028249223	12.349308911500044	14	1.2174739049650305	-1.197721388342993	-0.5176054099625267
Si	2.880940455486324	10.836453204347759	13.705612433529982	14	-1.9317231062441866	-1.2600665785880716	-1.0859269008071022
Si	3.9189396177304556	12.283057794752713	14.945874938956367	14	1.2930402329873747	1.0023652065706938	1.406026684949686
Si	0.09164981566224	13.682147480725678	13.69149121193238	14	-10.37342111969137	-19.072517886059753	-24.493950307013456
Si	0.630287482285692	15.14269454308776	15.41374399791864	14	5.44745766322531	-0.545636371494377	4.096978166054232
Si	5.3586379720261075	0.019272461236776	0.296578153484316	14	0.8621209244463006	1.4635556807090635	-1.0684158738031697
Si	6.6653303438403	1.547695637077788	1.5980705357573879	14	1.0019579434879822	-0.8793311321277758	-1.1314907437381063
Si	8.164373578773983	2.571508577855052	-0.08397983108908799	14	-0.1861737362319224	0.987627373765073	2.4037536175228325
Si	9.602495686239983	4.008574437445512	1.4043059254814039	14	0.2224630880520884	-0.12472946129102361	-1.8425098654035605
Si	8.384186886657517	0.36178927232342395	2.7278657633696035	14	-0.4954990464198935	-1.0494210619189799	0.327797159250043
Si	9.465573461635367	1.77335893319508	4.307768835667704	14	1.477942300527952	-1.4091847736144238	-1.8696908195165698
Si	5.2775831350538995	2.678547112565544	3.03850013858226	14	0.5156392857242095	0.7215907354103069	-0.8105311819764655
Si	6.79183633939536	4.095040513533948	4.0967467601021275	14	-0.9334832381596706	0.7009966960169848	0.8231419393507275
Si	5.408021622699431	-0.055038639299291994	5.183447074392312	14	-0.1799074383456575	0.7407225872080607	1.822966379644051
Si	6.91322359524588	1.48150952019972	6.531804362404728	14	-0.8026278613328621	-2.1902670294749775	-0.4139821522445987
Si	8.218112220687996	3.04191263171862	5.5846750173916675	14	-0.7886541610283894	1.2650149278872287	0.2018780475273869
Si	9.288351318087072	4.381299937772604	7.167389334035436	14	1.38421856962419	-1.0171133237975951	-1.3834125281063239
Si	8.190129776969844	-0.048733651980683995	7.785668090474604	14	-0.7589982609342054	-1.1807094128817013	1.1801360563953083
Si	9.255932633291652	1.2078925705329118	9.418676055961392	14	1.3327424700095054	-0.7537280092489659	-1.0231464224313227
Si	5.6968810417086475	2.53995114132738	8.102379953463444	14	0.11558429677778892	0.9694527444780101	0.9197293673600704
Si	6.944537282263812	4.236577728856307	9.250326394567631	14	0.015844436535412537	-0.5435103245051466	0.4385269520728603
Si	5.61095121454164	0.08878982141462399	10.952104221735732	14	-1.2945615560053063	-0.9239218116951038	-1.3613969245814916
Si	6.751162671203412	1.5404969015568	12.215522930587415	14	-0.04804907333345931	1.2584277560570092	-0.0587425574704872
Si	8.266537123289677	2.654090911754964	10.719242190097452	14	-1.9442407896058598	2.0318149508048915	0.7944890274419334
Si	9.520092101980547	4.095901761801696	12.03415704537354	14	0.769305050831083	-0.551764343914418	0.5045084565722244
Si	8.1392023794015	0.254571987972456	13.346861905094652	14	0.6978931147850341	-1.769510528932852	2.087729549533748
Si	9.55798702576146	1.261631212446924	15.01630229730391	14	0.3480518127411055	-0.4378404669523807	-1.5526596495735832
Si	5.443154052036624	2.6648483901181557	13.882704577339751	14	0.7983063475107574	0.6023189593823617	-0.9029071394714056
Si	6.962558496017256	4.105586742322032	15.012369805213439	14	-1.1456577911626546	0.969085076417229	-0.6725960095400971
Si	5.4614352652671245	5.554206328674168	0.101919795005952	14	0.30088848519043726	-0.7130657215002919	-0.472865863397162
Si	6.910396100932896	6.825571271543376	1.497466988104032	14	-0.3468719325096896	0.5215808530085396	-2.1880383953834723
Si	8.100641206960631	8.315010775793302	0.023432452869671997	14	-0.44441375481387135	-0.22782872774470547	-0.8048616376350068
Si	9.516500859203711	9.734916669898068	1.213986308276412	14	-0.30338091468778877	-0.021651535011498985	0.45720037579203177
Si	8.000216408947752	5.2184657539582915	2.5108799497990555	14	1.3382852588586804	0.1689306184023493	1.3071897968957455
Si	9.258808877506583	6.831145010332763	3.8395097774898477	14	0.5435308933477079	0.3433772861585443	0.6864694367370842
Si	5.668524848742228	8.223003460850112	2.705148309061836	14	-1.6790204771902406	-0.21834057778176302	0.3435243533828568
Si	6.502716920909088	9.448608495757464	4.3665287174823595	14	0.7816967500320686	1.641624521640283	-1.0073390098125201
Si	5.521982643486539	5.538460110344964	5.632791170614344	14	1.2404567583113022	-0.41547416466188064	-0.4833477455663417
Si	7.357806451044324	6.438659549749416	7.118233182904536	14	-1.3605767419843644	1.269987959797459	-0.34555886902268995
Si	8.007382644534108	8.31424702732945	5.523461390512296	14	0.491792540990368	-3.1134267655531893	-0.603939527065651
Si	9.422689797888443	9.516045860118863	6.694742784682259	14	0.9230995722137204	0.9690781344328646	0.6039845214087536
Si	9.277691339527776	6.773815125641916	8.970079458235896	14	0.02342405501920907	-0.2885654345014995	1.76793932647171
Si	8.215950975034968	8.134229889402805	10.64551608838476	14	0.8217211465508139	-0.45165527294806834	0.9322766184329252
Si	5.740447204082844	7.912092836193084	8.28358333900416	14	0.16142556197283706	0.5026505758678854	-0.18529030444391953
Si	7.110693198069912	9.6012931886586	9.41409356517828	14	-2.0481831214940183	0.5710275791940315	-0.354501430436697
Si	5.408606621522808	5.48899520983506	10.628063623487375	14	0.8006522240048604	-1.020684074866217	1.3163884403996393
Si	6.8075175578552996	6.872956176236832	12.048993265533047	14	-0.9199674517127162	-0.18254976328317368	-0.06971397809262307
Si	9.331056232193518	9.610945669244304	12.185736740497187	14	0.3479829071185256	-0.21450063198612185	-0.5025348761284788
Si	8.06209628448708	5.385027918947292	13.324225700623463	14	0.34069485197803384	0.18183936688321678	0.9222454510263675
Si	9.309362525826659	6.928839813836556	14.747869087210908	14	-0.26735741515772604	-1.4235230566532937	0.9842036899207637
Si	5.38272042358842	8.119588668851089	13.590058915945907	14	0.6693849561057642	0.11660733958467583	-1.4391147535357356
Si	6.616239192578664	9.662360565832127	14.765890300964353	14	0.6870142539544236	-1.1208715645448308	0.9813988711270142
Si	5.337204265136304	10.80590326579368	0.02754369460062	14	0.25802378862452446	1.6966258637594227	-0.7469544322830357
Si	6.847427477583396	12.129203104204825	1.202513831351316	14	0.9510899102815126	-0.5312438381332522	0.748261839338331
Si	8.14033987711362	13.81060347235866	0.080941087200996	14	0.477675887230095	-1.6148945394004275	-0.584353618068359
Si	9.656933076748583	14.841322649245223	1.497873237286932	14	-0.5190573131368144	1.0315009720586117	0.5252048259572883
Si	8.076185006150052	10.699433479939248	2.9392128382815	14	0.1999862282328219	0.7373307850697215	-1.074162808414765
Si	9.49786214669226	12.117194378358299	4.1742591041994475	14	0.5241604429762443	0.2591388770018727	-0.3238996206952305
Si	5.742673449605135	13.461537924443665	2.6457709284891715	14	-0.9232494676538852	0.37838031398704025	1.345150110063476
Si	6.985698449475239	15.084292160554057	3.958345788471756	14	0.25570773695213506	-0.8275544703011658	-0.3461095997822657
Si	5.35501422931464	10.946481733044395	5.678924827824467	14	-1.7249231918024406	-0.969397208603095	-1.206076195080814
Si	6.79305508694406	12.15676304877276	6.758052657345396	14	-0.46716752267611783	2.486285069857458	1.2726472540300884
Si	8.09633496562189	13.549580247361751	5.443820300696579	14	0.7303448348043471	0.5114555831472646	-0.4298106479270263
Si	9.748387892803033	14.716149151010077	6.751877669765316	14	-1.0043786391469016	0.35002462185325517	0.34514594950827415
Si	8.28569583475524	11.082851458760269	7.9932939228711355	14	0.5083859405055398	-1.2260896788928468	0.9359949509469232
Si	9.645249350248381	12.274835311290817	9.44085726134773	14	-0.27034503953973815	-0.7946106407235765	1.4072168496023825
Si	5.085004772391984	13.494135358879559	8.363744427773987	14	2.523564297225881	-1.5977054147825775	0.042031401331652736
Si	6.795492582041459	14.743952845087751	9.429173534847529	14	-0.4835200096227916	1.3860083160375452	-0.36055535502351765
Si	5.511078915417504	10.761280855543943	10.868676889535386	14	0.4963449400702223	0.43959833165976603	-0.024633760072338744
Si	6.733628956469448	12.356361397315187	12.258747843647976	14	-1.2937825110933014	-0.2763025476770532	0.36157634094614843
Si	8.092028724283152	13.425739246446515	10.793033291679407	14	0.6570428792374574	0.7060733434716173	-0.3187921199767564
Si	9.335963722322951	14.905071271025891	12.119209374305484	14	0.6204668491740949	-0.22295468338930075	-0.041222531597934146
Si	8.049697559424972	11.011725351818136	13.592561410912571	14	-0.22442329874816933	-0.7888053420212141	-0.5255627238178531
Si	9.497309647803517	12.147923066552854	14.89366379397006	14	-0.06950340456690295	0.7699691673352772	1.448112336603594
Si	5.365040459148611	13.757644828875815	13.830899681536343	14	0.07318908404333523	-0.5471335261222995	-1.5504603260827283
Si	6.758020157410764	15.155515767300082	15.014969799984	14	0.6234076794392802	0.6346040717769291	-0.4821041019229861
Si	10.91981553667884	-0.15955842907580398	0.03152493659304	14	-0.3890352315442659	-0.2745315703325353	-0.7694004388384604
Si	12.167114277953052	1.3690434964056841	1.163156410511964	14	-0.5638081725655877	-1.380082432495668	2.1846769322879114
Si	13.44294796183416	2.619397231535304	-0.044411160674628004	14	1.2005902276592142	1.57823494841416	-2.6003192472377297
Si	14.893485044329584	3.980136994642512	1.058782870441296	14	0.8111963269227876	0.32890530564302684	1.9007885954742931
Si	13.417029263965139	0.022961203817508	2.739435740098596	14	0.1509490791248297	0.48782815369723176	-0.5892340901870641
Si	14.709730413920255	1.410058413911268	4.065433073084195	14	-0.44473488586835785	0.46970468940604	0.10852532712132236
Si	11.058574007590165	2.712672043929144	2.7015083163830518	14	-0.7299211166475867	0.5816220757762337	1.1308991324039406
Si	12.241685377966176	4.200437801545524	4.2030540462834	14	0.33823558973931217	-0.46459667446650177	-1.2077065329643202
Si	10.616574896594964	0.328281839717832	5.703397278602363	14	1.254118069319377	-1.3288714138394904	-1.4743044436104744
Si	12.210192941307767	1.5167881992427559	6.830625011378652	14	-0.2076414372130308	-0.8328051815859722	0.6524598840042936
Si	13.531526533673675	2.8471080235344117	5.592085002487764	14	-0.49326347034402485	-0.7972660782982254	-1.9190542418896892
Si	14.935166210495124	3.9626357798431795	6.833322505953108	14	1.4574305365048745	1.5799449905625906	-0.08643310465794998
Si	13.64119756308936	0.054632390116391996	8.033415092174339	14	-0.2960159834982246	0.47569562191251696	0.7713249111705913
Si	14.918997493015702	1.4033471774097601	9.507985876330126	14	0.19608406168843318	-0.8685633430469956	-0.06573364994650183
Si	10.61984114002548	2.60584475879376	8.120628666759313	14	0.487067363633	1.1098785466380057	1.0143642979892928
Si	12.055477002492132	3.911107133484144	9.619330652379361	14	0.25702799953403116	-0.4238431124789626	-0.5573135605268936
Si	10.742300893718856	0.042607414302552	10.796835784031352	14	0.43380074627336407	-0.7190448269222964	0.2668102839455985
Si	12.189392983143287	1.095767796052512	12.332181445948981	14	0.7687777171299206	0.10028853411769598	-0.12813489028755976
Si	13.526586543609612	2.5330124052834475	10.94890297817448	14	0.2732218492824518	1.0957582933302845	0.9345867565630781
Si	15.24209559315973	4.060883082235716	12.347602664931864	14	-0.9745741291652131	-1.9056518411873535	-0.5849588562607219
Si	13.654945035438695	-0.373960497843108	13.723649897250743	14	-0.3977584776744643	0.12295771261490956	-1.0706974726642693
Si	14.978764872803952	1.187271362008908	14.967552395355911	14	-2.3447765752471477	1.6090095364331407	-0.07328961426135301
Si	10.92244803138403	2.593478533666284	13.55868022905871	14	-0.2995437971079998	1.4490919277305703	0.12143998914442615
Si	12.307838994909613	4.304015093217708	14.676694230366827	14	0.10563797584679606	-1.9149800683993823	0.024073516223078475
Si	10.8651343966605	5.497347693035484	-0.241734513792816	14	-0.7291770387679358	0.40525890611440024	1.2168221297663728
Si	12.222672916206456	6.7915113400490394	1.3296535756316998	14	-0.3623170763888831	-1.0214181254351191	0.14155348895341255
Si	13.398715550800008	8.247150912281688	0.026292447117288	14	1.845260176764523	-0.8900580406339655	0.6180230135672942
Si	15.018349793185727	9.495960900516287	1.2697074462029758	14	-0.9916097587954503	0.1898596728188867	0.9293036493512378
Si	13.733968626496402	5.332150525301028	2.670665878417284	14	-0.6972181996384952	1.1624147129761875	-0.00020980219412408324
Si	14.989684850840304	6.916408588839816	4.033209387896568	14	-0.58572427431453	-1.4122862979621187	0.5697363701022531
Si	10.794398288933952	8.271249613811316	2.428931364624468	14	-0.31849592864387527	-1.3221531156379436	1.2258680496142502
Si	12.211086689510148	9.393244857111851	3.9210196135469038	14	-0.03958268062474371	0.37442621111518454	1.2723394927232665
Si	10.596132437711434	5.390422908096204	5.305273079360364	14	0.11762164063347424	1.6529522974597912	0.9291054171310544
Si	12.149060564264975	6.873329925485099	6.76348014642894	14	0.0528740095772492	-1.6886875760834656	-0.39071750575523884
Si	13.585281425555003	8.217153472616351	5.516685154141523	14	0.19062534798322678	-0.3625533609678047	-1.1054454468450066
Si	14.993341093486404	9.681925526480592	6.72838021702638	14	0.43658319645082844	-1.6879972343050058	-0.2478188144983248
Si	13.427477992949328	5.121632198722248	8.127047403849131	14	-0.5255413836436957	1.6313236452856419	0.1782609024986347
Si	14.619250595904768	6.718207737486564	9.449567243829106	14	1.4379608414680534	-0.7814293550787733	-0.0668165995073482
Si	10.749060880122311	8.205875995299047	8.023665111784739	14	0.642312759747797	0.20827598600604333	0.2812035886383195
Si	12.036984539686523	9.54518205151645	9.511950868355232	14	0.3439519281975974	-1.143845676133014	0.11573239244422943
Si	10.77319208158657	5.537533862207952	10.642883593679567	14	-0.1936430542974846	0.2459200532193954	0.47467515021095025
Si	12.080631951897299	6.86268619689312	12.30821274415788	14	1.291900976220017	-1.15099643424941	-1.9450319187128695
Si	13.469256658918765	8.161741084068792	10.83437320853131	14	-1.1028044074601506	-0.29468955026356025	-0.1719372689637305
Si	14.880192571065095	9.34803744803874	12.165993030208247	14	0.8415937337913023	1.508224778988656	0.6073053610402568
Si	13.876042090740192	5.524615138191732	13.360820627019095	14	-2.0044511911036196	0.4737834908859228	0.9856028854359883
Si	14.80396397438574	6.723342727158419	15.11957083959709	14	0.684365244143075	0.9509528703679488	-0.9180306380750485
Si	10.61862239247678	8.132247393390251	13.396814304624035	14	0.6760963123229468	1.4054669553214898	1.0756537923899185
Si	12.182519246968619	9.383023627670088	14.81663894889222	14	-0.795350090613651	0.6661613042553626	-1.307943644975613
Si	11.115692642705904	10.913608049164127	-0.117779763106368	14	-1.4268207563369157	0.5334495893874073	0.778871362395758
Si	12.291182778410711	12.140545581391391	1.5418131489093958	14	0.6648873215692293	-0.15938538990129958	-1.6114644277928178
Si	13.671568752002964	13.51196157302521	0.151482195319752	14	-0.6882131603652086	0.17438650389170354	-0.35932302424357065
Si	14.955787419019128	15.339124148003567	1.131550224082344	14	0.5129856479232846	-1.45176150638448	0.19238167002741993
Si	13.655221284883067	10.825565726246039	2.783424401623008	14	0.31911865035241516	-0.6936572187700901	-0.17859951706929816
Si	14.900700029817887	12.413041283313396	3.950757053735184	14	-1.2734044445468717	0.49427237207165087	0.21365422411472912
Si	11.0455090338681	13.496637853846224	2.804760608708916	14	-1.6376053698038273	0.2844557797577748	1.3070144475129115
Si	12.165635530927295	15.015067299787896	4.230825240426444	14	-0.898485352541815	0.26378717831016846	0.3418644477881692
Si	10.939006748079034	10.755479617212133	5.515498906527456	14	0.36452745563261446	0.674242802497652	-1.0027606425689326
Si	12.393687572240038	12.093453176109625	6.899151123550224	14	-1.458510914960401	0.7192980807963308	-0.203547209101227
Si	13.523872799067838	13.642188811095634	5.573023790826095	14	-0.029542771460097473	-0.9188603337618604	-1.1519927375609673
Si	14.933232464384519	14.898278784687804	6.76746138842136	14	2.059186938043188	0.008862085817486398	0.22887311072574962
Si	13.544039008506996	10.59440994117594	8.141672374433531	14	0.8112153531021568	1.5599340778558781	1.1488940414291249
Si	15.12205708459644	12.109199394438829	9.363052417838723	14	-1.5063928664480504	0.23540834622850199	0.18776447909349803
Si	11.081063962355508	13.641473812533732	8.383471888095611	14	-0.2795727365337496	-1.2944952214880465	-2.4146214226005664
Si	12.319116472226916	15.046478486609722	9.504134634076236	14	0.31089856953336975	1.5140850993448696	0.6263518521413818
Si	10.930280515630344	10.863395650157686	11.012781599693675	14	-1.5165261067358182	0.03571265289685682	-1.482736897728964
Si	12.3182877238938	12.258975343190398	12.039747034130244	14	0.45263769229089695	0.24802553136606467	1.2368368991310659
Si	13.656927531451247	13.618431358879644	10.670264788607028	14	1.3121111495890412	-1.0131517647203108	0.45376692174750605
Si	15.209741908233575	14.664100505696927	12.155170551975791	14	-1.9448411426981143	2.984744229832438	-1.6336533238162279
Si	13.552813990857636	10.855270666499688	13.567032712259135	14	0.030742706313010584	-0.4556605408157951	-1.0250765511951578
Si	14.906290018574591	12.263622833842774	14.816508949153691	14	-0.23615319543974886	-0.12174723623018385	0.9857170425122028
Si	10.652211074918952	13.315206968763084	13.361519375613684	14	1.0183662234201032	1.6193721193154653	-0.16845573524971796
Si	12.046637020272227	14.494678346460312	14.971891136629283	14	0.7272340544774999	0.7722775056917062	-0.5305246999752068
H	0.4215534021182088	14.19042533341265	14.440671580085585	1	10.70869351054921	14.469232003930253	22.11528964897314
H	-0.4037093130085092	15.920892477877146	14.942031821686134	1	-1.6553591091499822	0.6918849558729121	-2.195988253033371
H	3.5419290010221345	1.0244970644012674	12.836356181888657	1	0.18832240894797014	0.16190790133089686	-0.14944626806520311
H	8.457836613523822	5.3353436438786215	8.117997797050851	1	-0.0035175291884945873	-0.40994037468132594	0.661029892257411
H	0.42419889679725353	0.5420469097663487	0.2457043808081148	1	1.0548916027086588	-0.1936731362297303	-0.2682655295568024
H	15.798255599540026	0.3571937815664592	16.038685240957367	1	-2.541062982924277	1.5753735653033674	0.27385228430695213
H	14.117011231072425	14.381190199722099	2.0710274594862996	1	-0.4690218038330086	-0.30895018592176154	0.45098935667015005
