224
config_type=interstitial dft_energy=-23337.413133019447 dft_virial="-8.049823042058309 0.0201952409484654 -6.078767525488086 0.020195240948465396 -12.092910279941082 4.665100659095507 -6.078767525488084 4.665100659095507 -12.686650363825963" pbc="T T T" Lattice="16.3852778749 0.0 0.0 0.0 16.3852778749 0.0 0.0 0.0 16.3852778749" Properties=species:S:1:pos:R:3:Z:I:1:dft_force:R:3
Si	-1.300007946594566	-1.409494373354648	-1.328682182875641	14	-0.15336154724672463	0.06481345135242084	-0.1890803707963498
Si	-0.0993603250333936	-0.0049811244739696005	0.3434845800915287	14	1.1625908336906177	0.004425643587570888	-1.151465918080869
Si	1.3196211242108213	1.5529147105936476	1.3760356359341022	14	-0.5837221546017306	-0.17921041169336538	0.9621263798682482
Si	2.781728624821773	2.8578873963843083	0.21479460766206412	14	0.11665464792256655	-0.7388017144233782	-1.3371236334750378
Si	4.144148094841833	4.1454097612382	1.439626899366589	14	1.0080020978745863	0.6862300668317785	0.06280670365004526
Si	2.59719762539465	0.22107016908815083	2.7796968503652857	14	0.42618950319412974	-1.7169296253620998	-0.46809774858094744
Si	4.096548862615249	1.2644355083281582	4.155142616295891	14	0.4883865977727679	1.5670429269555555	-0.29668884176050736
Si	-0.21164863431008332	2.694771955139679	2.81097634582847	14	1.2546942540216222	1.1082132417221457	-0.3861602215752763
Si	1.4150981383878636	4.0821298180853365	4.150653050158168	14	-0.6477874143059883	0.09088008841967811	-0.8109397306118369
Si	-0.06334548426436341	0.0040799341908501	5.468684802415125	14	0.6134976110933015	-0.6379385382666292	0.4667093517080674
Si	1.4816387518378327	1.3359080904184721	6.813080466772795	14	-0.018386745475974957	-0.5032362736598152	-0.2137074459948562
Si	2.8470894982647494	2.797179941857804	5.48334962611316	14	-0.6255722930083129	-1.3477813792481155	-0.29737558399151887
Si	4.099465442076982	4.092960486760646	6.816013431512403	14	-0.6022461971018015	0.558272839921841	1.3182473495461062
Si	2.6676870908124695	-0.10796259591771612	8.354115850907139	14	-0.2275631325651342	0.35598701509067854	-0.18084023535580723
Si	4.020701411332337	1.3617476736271894	9.57468797036419	14	0.46186641772703657	-0.18646144291724698	0.050092330731380995
Si	0.21168140486583312	2.6750604658561743	8.225376722644052	14	-0.804085420938854	0.28410662365529865	-0.04755207867507469
Si	1.3800172584577028	4.156551750193133	9.629005166519486	14	-0.5015863953758761	-0.579925146264936	0.4302107119148414
Si	0.0014419044529912	0.05395672004204571	11.02919270204119	14	0.9863343648995704	0.4400603592857966	-0.3655116747491671
Si	1.4497202305375274	1.4050048072169254	12.381158364777065	14	-0.4451704311095909	-1.2002662683888754	0.7293788705355675
Si	2.7229710183623816	2.688365311490593	10.993374484606658	14	0.142776306643675	0.9123153280588914	-0.6714901771419015
Si	4.080687913632346	4.095713213443629	12.257105425986197	14	-0.0004034064247312336	-0.21017371884284464	0.5073947794046226
Si	2.816891431141309	-0.024037202642478304	13.84251214260577	14	-0.599268600030538	0.4251204376020122	-0.3337634091454466
Si	4.090666547858159	1.5051188550325643	15.13116509163303	14	0.025803612993006125	-0.29941909849997256	-0.04731810809094121
Si	0.15525050786467753	2.7871685370762402	13.775938758600052	14	-0.6525645279908234	-0.3883058089649399	-0.1504456567031447
Si	1.5358904068816266	4.1035781468235815	15.131247018022405	14	-0.44755050330445206	0.3057550733404135	-0.4064662971727418
Si	0.05552970671803611	5.327738642135235	0.0493360716813239	14	-0.5401588887203337	1.214284963036451	0.024382563082560278
Si	1.3944690735433647	6.807280078405081	1.3702188622885128	14	-0.45520108429508466	0.4354161717460131	-0.30763377999784575
Si	2.719169633895405	8.175073919568108	-0.0909874480393197	14	0.5662543221671766	-0.6928915436057501	0.07952300199952002
Si	4.020259008829714	9.597135801052804	1.2544241035465944	14	0.4503296110450001	-0.015679114463327013	0.2374143225992815
Si	2.7598378935809067	5.49495040284859	2.7077818657723496	14	-0.618803601142491	-0.4858769418697713	0.3194325823120052
Si	4.014851867130997	6.8631211054027395	4.051980906795521	14	0.3517513761862666	0.06983764825852219	0.5608287757206001
Si	0.019531251226880802	8.236666179099856	2.765916831672495	14	0.04830001321270577	-0.3135889741403727	-0.7026851408807262
Si	1.4157535495028597	9.56425054835788	4.165154021077456	14	-0.5211735899258282	-0.05780127581278098	0.5594339510844197
Si	0.0632307873192391	5.572452767196866	5.407649642331123	14	-0.25011429732815293	-1.6621406565424046	0.5988911617695402
Si	1.2894230570873808	6.861744742061249	6.831317281047559	14	0.6728690609250969	-0.691691865863369	0.6070194541286564
Si	2.681811200340633	8.134389274604732	5.55143045568337	14	1.132839288478524	1.21488968700775	-0.3798283605033476
Si	4.290190076540817	9.595202338263565	6.835429985794159	14	-0.4186384239793869	-0.8236965267682836	-0.8058260592405944
Si	2.6373743267439043	5.479122224421436	8.245170138316931	14	0.9792681961482075	0.26822901986125625	-0.8060885690937815
Si	4.073085144698392	6.927236697727223	9.519158263646155	14	-1.4493238414304477	-0.9056014007363887	0.2790677714488725
Si	-0.0069309725410827	8.14117277964494	8.22216520818057	14	-0.1727679930926703	0.2113176035997785	1.007787153469822
Si	1.4358419001774871	9.60678672972112	9.498676666302531	14	-0.7946821174514765	0.3247809955989773	0.012179583012073465
Si	-0.19582045588292993	5.506092391803521	10.837042548402238	14	0.0544297854064708	-0.541675840859221	-0.006561717887549913
Si	1.316376839191591	6.7564693317150155	12.106655804538864	14	0.5274105772114435	-0.2068238257212237	0.6509087361646482
Si	2.6638529357897425	8.22627791292717	10.867420853582303	14	0.47274682122083916	-0.25931242661098275	0.22212781591834113
Si	4.126648618071441	9.411326749951439	12.279405789173934	14	-0.30690152920266756	1.3889997970775374	-0.5888579374787263
Si	2.739602075405405	5.455511039003706	13.60916940038932	14	-0.49236821147154924	-0.041965066814392916	-0.6293032239383798
Si	4.145180367347952	6.809262697027943	14.842997209647164	14	-0.3057234487449757	1.3026926765802747	-0.013258675914939615
Si	0.13262243911944063	8.020200273094554	13.635566083045784	14	-1.679649883772613	0.11710124891667628	-0.25875398253544657
Si	1.3851294651546717	9.481504895089634	14.956448873652972	14	0.029974460043350335	0.08993443588292764	-0.34773196723927907
Si	0.19044608473996272	10.820231253302591	0.037702524390144904	14	-0.672679570463002	-0.0005815840234174955	0.9956970449228896
Si	1.3212432667204366	12.223433679953276	1.5760998787866312	14	0.5284230784865177	-0.25238509754690774	-1.7634920855994496
Si	2.818529958928799	13.49906033306999	0.2640651382318884	14	-0.050652831691173274	-0.022673292265725835	-0.7358377442103116
Si	4.044509220084566	15.097739124768236	1.4180638736832205	14	-0.015387036898958192	1.094357298041336	0.2544008441179038
Si	2.686530160368604	10.86540546440369	2.7391760581806577	14	0.7071928027280097	-0.3814126756016229	0.5031038617358274
Si	3.9828841899970673	12.233543396402089	4.1372007370228765	14	0.6949278590193073	0.8282255287897244	0.001955582706504629
Si	0.0984919053060239	13.554426187009277	2.8684886711693687	14	-1.2965269089120277	0.488179366683964	0.8003845719410331
Si	1.407036581673413	15.002540660315065	4.105282215722571	14	0.15361685800501534	0.6251835418839066	1.0239216106853473
Si	0.17214372935369943	11.034681770129282	5.6574759740897225	14	0.4136507367688316	-0.8349949919871423	-0.3040766557874208
Si	1.7135723601570423	12.32028705747181	6.975851817182051	14	-1.9503991010686783	-0.2045679379133258	0.31765774830950705
Si	2.8451888060312607	13.746068397034108	5.643401020395183	14	0.41124238241544886	0.5531887362617801	-1.249344298071458
Si	4.207509964384072	15.043503855002315	7.122958841942904	14	-0.3748003069392661	1.0059410998499558	-2.063978707028348
Si	3.0058136850389054	10.87915271254073	8.24195862385345	14	-0.46153397380914135	0.2775868147844672	0.5185256085566077
Si	4.214719486649028	12.408144917437024	9.610309564464224	14	-0.056421620697989526	-0.6114145015629175	-0.9487784865986996
Si	0.013681707025541502	13.539777748589119	8.256951153108982	14	0.634376528956096	-0.1953880634782691	0.7581976187375112
Si	1.3545545366401084	14.914568103404727	9.813601707058108	14	-0.9084015915405621	0.44209178959924567	-1.3595763249042947
Si	-0.0892014527509556	10.932093545354531	10.86470089745507	14	0.21131503249445835	-0.36439144416117863	-0.091312291223995
Si	1.397352882449347	12.291891370914609	12.212684937667342	14	-0.3619386096857573	-0.8717790244709048	0.10084723530376415
Si	2.814826886129071	13.593865550854163	10.935092051205638	14	0.07297465385963486	0.855653309013468	1.0712872842247112
Si	4.0829490819790815	15.084335967466565	12.343210061218794	14	0.622414718564639	-1.277279871595931	0.5878554635144007
Si	2.690872259005453	10.837140860069486	13.555966403129519	14	0.7546687766856081	0.46641084638039826	0.5747124873388677
Si	4.110771283810662	12.254827872361586	15.039423920811464	14	0.08754870725636223	-0.3234424781693082	-0.09517023475687719
Si	0.04718960027971201	13.553770775894282	13.723489484122497	14	0.5687002146582335	0.20896298534758692	-0.47929054137114796
Si	1.5555855108872563	14.871769757595489	15.230623728333674	14	-1.0520222491713738	0.511238324747712	-0.09527050786436297
Si	5.454822857332959	0.13390049079368282	0.05436635198891821	14	0.5117384047324809	-0.09413999285509386	0.360926365521215
Si	6.95658273040117	1.6155064720757657	1.353129017464992	14	-0.7462774602522408	-1.4626493660837112	0.3180490705392336
Si	8.323344299058078	2.7333428992571935	-0.13358917051405972	14	-0.8868457016469725	1.230052266412259	0.12627289581470852
Si	9.46430035332099	4.2446881598822195	1.2379568992823198	14	-0.0031832854968753366	-0.5950689566006081	1.1188666166161796
Si	8.160441866425822	0.13062343521870282	2.842403308792528	14	-0.1445002327608343	-0.5641807257264772	-0.3516660154896377
Si	9.580308120675282	1.424568828999556	4.215407668319774	14	0.03375141375864787	-0.350629602935086	0.09713250233721421
Si	5.508091395704259	2.7682926969643553	2.7902161987609713	14	0.060431259444760445	0.18642390477957282	0.33438921618037065
Si	6.872296861012684	4.3306125570581955	4.074740057763757	14	-0.4627984434055902	-1.1259155589618974	-0.08451583142071557
Si	5.577941835284959	0.12919791604358652	5.504961807630154	14	-1.4618248126075395	-0.8709225892887635	0.9913593331372679
Si	6.914603648485675	1.4848338810234383	6.730580592672674	14	0.10239915447500551	0.577373838455753	0.799691144836189
Si	8.282528571871701	2.948448827198881	5.493934515620346	14	-0.13335012031894813	-0.25380383346256546	-0.43876015132539775
Si	9.68537052240914	4.164138133849211	6.889140926668081	14	-0.4280625534198576	0.7724903932122145	-0.8386534177471809
Si	8.136879836841716	0.08590801189810071	8.191704976611131	14	-0.26668095734799513	-0.6995861876383516	-0.1838718256387938
Si	9.395875432915407	1.4459843871820501	9.5526825421782	14	0.6984147920544921	-0.6343680443085395	0.24550919058923576
Si	5.390035468615605	2.6997366943357735	8.140681221308693	14	0.20644998700767417	-0.29219223566610036	0.0026667504380575874
Si	6.7706917529104285	4.196384360707015	9.483782448714246	14	-0.8877677000147777	0.439128847828307	0.04163956488086217
Si	5.4219048340822855	-0.0077830069905775005	10.968812953072183	14	-0.3364003347617905	0.32738269707243517	-0.4958682571438669
Si	6.790452398027559	1.4066433350044152	12.225662077744264	14	-0.2703658654928313	-0.4647540261120949	0.129163589526151
Si	8.000963956869422	2.7402574865204015	10.80949889629453	14	0.24247091543241675	0.6319959425401709	0.24895421460770217
Si	9.428580447553708	4.046196903705681	12.113947253193194	14	0.3979721365265686	0.6393942980988969	0.544487858747867
Si	8.147268103014403	0.0325903176931761	13.529881040752677	14	0.6686789305848516	0.2460082421318765	0.3067133242932327
Si	9.565905461423243	1.363435357248304	14.969311316784768	14	0.5339728093200574	-0.3057082792235868	-1.6987058879634223
Si	5.444139656158525	2.7082570388307214	13.60164855784474	14	-0.03664159324902632	0.5355540390919484	0.27312980371199047
Si	6.889550558614954	4.115637711339507	14.849256385795375	14	-0.18050650588525202	0.0750032559572317	0.43146258309522145
Si	5.3854639760885075	5.473289065497972	-0.19750813950404464	14	0.7795493628686809	-0.8668041927869503	0.933718751406996
Si	6.6591735516938595	6.983700365284129	1.1581769813094316	14	-0.6011233954084928	0.11278924818425592	-0.8432847497603637
Si	8.171993487327628	8.215627482308486	-0.12257826378212691	14	0.5616553860810277	0.3555375858807167	0.586543428469529
Si	9.55197797522958	9.60042924190566	1.3483117457697713	14	-0.5733881109884594	0.5296548950454006	0.11030504622392887
Si	7.916858325537559	5.693032027078256	2.4538264439892745	14	1.099566100309424	-1.9878125401348132	0.2803630943091631
Si	9.413669844687549	6.6380856990688635	3.858700168983201	14	0.5692987679767639	1.5946100610876512	0.9444202059705165
Si	5.36145954400178	8.20851627171078	2.621726386373375	14	-0.8046592916463112	0.15004533560479766	0.10312189218049915
Si	6.679786231260484	9.577194917879051	3.9115426901297528	14	1.3390257371908831	0.2611458818147803	-0.04974703128688511
Si	5.294722307217312	5.413663039311211	5.434849203603457	14	0.7483006630286653	0.9080087266476435	-0.7224980784777871
Si	6.749489203340309	6.737937582438504	6.680113936817982	14	-0.08356092290481257	1.2547950413501723	-0.5850200485673412
Si	8.14929987747089	8.177777490417467	5.217301869258408	14	-0.9579478195019436	-0.9291300997421278	-0.1132157945568685
Si	9.500790367148394	9.386470283415216	6.595959149652495	14	1.1847532473292302	-0.056229302020042435	0.4451560329197981
Si	8.109319799456134	5.516267649363835	7.993180949878843	14	0.8426864535523653	-0.5465380581301531	1.4369285426820138
Si	9.498840519081279	6.830940419656437	9.489451754858962	14	-0.3419284683106409	-0.06592725417710898	-0.5865827663809273
Si	5.441305003086168	8.031964902608731	8.164669268117546	14	1.1371662016218014	1.3788560152579572	-0.6555984322685982
Si	6.688273805199682	9.602542942751521	9.490959200423452	14	0.9810054920130316	-0.2323749561717913	-0.4736947877523777
Si	5.264704478150495	5.6234109813878055	10.988852147913185	14	1.4547324185819113	-0.8237793163595923	-0.8978443759855022
Si	6.849750718656821	6.924074339097367	12.156516205112185	14	-0.1832030811450233	-0.3032937542174357	-0.21104223821999069
Si	8.161883770878813	8.27707227433936	10.828833524186912	14	0.5203598350920015	0.4484647883562967	-0.43362848221691425
Si	9.67409745123121	9.662218124771908	12.096628014479425	14	0.17711213264159253	-0.8420251652640232	0.5126213222994196
Si	8.155280503895229	5.602618063764558	13.4850836910427	14	0.4722392850306419	-1.31948945052627	0.19210424776337595
Si	9.499037142415778	6.829138039090197	14.94125972106294	14	0.5767536878525333	0.34399100899846363	-0.3467163806378206
Si	5.647890586532907	8.259327018400844	13.553770775894282	14	-1.3712195753465855	-0.8255289535299531	0.516394676467269
Si	6.857517340369523	9.57147645590071	14.93223143295387	14	0.6544684314803931	1.1872441341633897	0.3140833976934372
Si	5.580694561967942	10.946856680719817	0.045977089716969406	14	-0.7692857675411819	-0.03723731835170463	-0.721191956975152
Si	6.789256272742691	12.499902473536464	1.3227179417291777	14	-0.4617396622347532	0.8348412398889975	-0.6351020948774418
Si	8.19804607914872	13.88167295672678	-0.073242192100803	14	0.19705105439934087	-0.5515864234262638	0.5770362523272176
Si	9.587566798773864	15.161379544034347	1.366843495046283	14	-0.647695111624995	-0.022613385511766382	0.555148432736797
Si	8.008009626355628	11.129028200132954	2.588218493119204	14	1.7202383807985986	-1.476329960381687	1.210727838826026
Si	9.571378144233462	12.331887834207238	4.122159051933718	14	-0.8498364403371651	-0.528739324440896	-0.7680740056037961
Si	5.340437232488283	13.738776948379778	2.776518106457555	14	0.2422567423592484	-0.47377012113825806	0.47817262477794764
Si	6.732645137684911	14.989579905516019	4.249407119910191	14	1.3503308872835742	-0.1584225109589041	-0.8763699901305612
Si	5.5735669660923595	10.981806478426979	5.353184978674955	14	-0.7860131216435333	-0.15732747720305304	0.5393551611972554
Si	6.9761467521838	12.251092029006108	6.755125738929275	14	-0.393099377723824	0.033082669264877344	0.27507664466040666
Si	8.368567665992803	13.676512892455158	5.606616071566033	14	-0.2954138306322459	0.3879052307560608	-0.5324620278339383
Si	9.654664511671578	15.132852775254147	6.926401048555604	14	-0.5642573446650176	0.024328312760305153	0.06911105389504835
Si	8.323196831557203	10.788574896448283	7.983824956212276	14	-0.8049989346591028	0.34307440995183086	1.085247614781519
Si	9.577276844268427	12.196955070907437	9.455009900765921	14	-0.7884250755443643	0.16464689982845057	0.5891505292641592
Si	5.586019777277285	13.62706212382871	8.139255702133577	14	0.18436316386547413	-1.278265633375676	0.1910302970711501
Si	6.688486813812055	14.988351009675403	9.5565330824788	14	1.1202516710521433	1.1469934803764714	-0.014748888558497441
Si	5.432309485532847	11.009169892478061	10.914249977748767	14	0.10307818339005663	-1.2221731141586654	0.6454788188390275
Si	6.929088234127088	12.189827475031857	12.257842763490567	14	-1.1905865710795822	1.1193031902995405	0.031585514636955116
Si	8.06499762280453	13.62673441827121	10.830488437252278	14	0.931338164991071	-0.7165976488785795	-0.18899295321546478
Si	9.429072005889955	14.887876485746515	12.257318434598568	14	0.41774779309648763	0.19523122605374005	0.37582592085147315
Si	8.279038507684348	10.896390024865125	13.481904947134971	14	0.7175451011890539	0.004883043224025232	1.7265738414179754
Si	9.58638705876687	12.41940160333708	15.030969117428016	14	-1.4932007821609026	-1.5616739448260224	0.5515684256890228
Si	5.62757284196803	13.611922127072301	13.75737423876779	14	-0.9708000036657678	0.335923651835435	-0.759825899736761
Si	6.850553597272691	15.223446976624466	14.995216441104985	14	-0.7466793240137798	-0.37730713462641047	0.2137136166476245
Si	10.908482359936801	0.09842636419452432	-0.025970665431716503	14	0.3558072948288002	-0.8691647245813782	-0.15088608704448606
Si	12.135493893598689	1.4307296934805185	1.3901925160180157	14	0.7776426311632592	-0.5377621043408916	0.636754287156169
Si	13.66050447597138	2.6889224109383396	0.08956192886420342	14	-0.7657229868990527	0.778456128886554	-0.34856526247353914
Si	14.93146132489375	4.181326290339982	1.4138364719914964	14	0.1040827142386385	-0.5306722814205833	0.3374352046531501
Si	13.431749611559901	-0.0818772335408753	2.87070068368248	14	0.4428209550680396	0.37675743230896275	-1.1494285742251837
Si	14.94106309772844	1.234155514815343	4.052538006243267	14	-0.3292192376026169	0.012974825887595265	0.6379511366826979
Si	10.84079477703559	2.7965081454649328	2.8060935330217496	14	-0.5142573166146299	0.3761861327068259	-1.0025649814540694
Si	12.274932608314087	4.0226184888437	4.132711170885153	14	0.5297631385793788	-0.33789054740534835	-0.10089120120473868
Si	11.045840144362087	0.009831166724940001	5.550775044568375	14	-0.5344240383037433	0.5207077056418175	-0.06386265660503007
Si	12.284354143092155	1.4051358894399246	6.97939103720303	14	0.6243739008185919	-0.15905037487808427	-0.12221209207206664
Si	13.710545114601324	2.6787799239337766	5.449333789244868	14	-0.3154954487352625	-0.04666967532919987	0.8209567569391337
Si	15.15979017208048	3.99235488060876	6.8379041627532695	14	0.15375955435028357	0.40412067778917077	-0.7102285067795087
Si	13.701369358991382	-0.09609965473628852	8.336747456359745	14	-0.6167102071908266	0.4769549492983255	-0.4530390418313721
Si	15.105538517036686	1.350671225783757	9.527826075641977	14	-0.10925629236384045	0.07904657618369657	0.34166493001532566
Si	10.831700947815019	2.8093214327631046	8.316724646796619	14	0.7887852873997169	-0.9127652714899174	-0.4084015681472173
Si	12.349174302365258	4.094041915100389	9.480423466749892	14	-0.35336808721157575	0.15854926645118742	0.8159153336273874
Si	10.705681775679164	-0.07325857737867791	10.912431211904652	14	0.5748996638061745	1.400770574343707	0.6129034286538152
Si	12.307473770173639	1.4849321926906875	12.204066281505144	14	-1.1061347601813383	-1.6650115527428822	0.3487622091410625
Si	13.65491709621604	2.6754537125251723	10.896717730422624	14	1.277801805975921	1.0043017630978293	-0.763991861686997
Si	15.055022705348371	4.026223249976178	12.351435470711994	14	-0.07815054597962497	-0.11101672817654584	-0.3979063162303728
Si	13.610218058173311	0.0450103583223503	13.70323728066912	14	-0.9939571779527454	-0.4630972058437914	-1.5481172778044776
Si	15.006030724502418	1.259208604686065	15.11654942376862	14	0.9583879927327529	0.6702601603567427	0.2894869186482406
Si	10.932814497581028	2.7821710273243956	13.497061329169252	14	-1.2992175706295623	-0.24339085691596574	0.47000602294956134
Si	12.117535629047797	4.0266656524788	15.012978082321377	14	1.2533225693333232	-0.1970829361053107	0.37039471797319234
Si	10.87751418475324	5.484267201674155	-0.08526898606097962	14	0.33330678084058835	0.9657580661329574	0.646235752245279
Si	12.207228640135	6.904412005647488	1.4911913688388994	14	0.3507609864169456	0.16626078263790756	-1.0033185724234046
Si	13.824635804444254	8.339287174430357	0.0015402161202406	14	-0.5407700404549328	-2.956755948648902	0.36588782745750476
Si	14.983074950199684	9.596398463548434	1.4212590028688261	14	1.341473429455664	0.6944061817498494	0.508492898486858
Si	13.544447552783463	5.472977745218349	2.8265423598096246	14	0.5949871954514274	0.4841424742207995	-0.5928218105507987
Si	15.10565321398181	6.808263195077575	4.055503741538625	14	-1.2177464421289663	0.492675972778371	-0.06353201246085903
Si	10.834584756721002	8.27787515295523	2.8890521949023684	14	-0.08139888044110005	-0.3341297916535677	-1.0577789539831852
Si	12.307522926007264	9.586960543492491	4.154110343789773	14	0.016721440560115045	-0.7664940613845651	0.25263038099444984
Si	10.914118895525768	5.461000107091797	5.241437383568137	14	-0.604946629019553	-0.23762541034606569	1.041279914033263
Si	12.373916071956357	6.674133310393643	6.611148302242527	14	-0.47862848175121	1.1335555984207173	-0.09482724930716943
Si	13.745724306198735	8.260998316744082	5.4665219457356375	14	0.13753022334844486	-0.7585341764239186	-0.37029778730262275
Si	15.191938087271035	9.486617101786605	6.841377841662748	14	-0.6074190038954075	0.9537250361241322	-0.29614685275902014
Si	13.617788056551516	5.350465022547722	7.9949505598893325	14	0.5054715926251518	-0.5931156878888916	0.11474534511182458
Si	14.753320583837837	6.794253782494535	9.397595887092272	14	0.8268710705070703	0.43290728717461263	0.6087953165732827
Si	10.93238848035628	7.9831531598194045	7.994770321832709	14	-0.6834609864019789	0.24964687038095004	-0.2668262247985835
Si	12.144407484762633	9.372362559164927	9.417602311377525	14	-0.4226637464686107	0.8820161374136064	-0.8339521516692903
Si	10.846283845123681	5.4280329280074975	10.798815695120094	14	0.4688605955294354	0.03552367665582593	0.47618490325494117
Si	12.270115336618867	6.773559176538536	12.26364315185828	14	-0.6409192206642768	-0.7861329351514522	0.5324409447703131
Si	13.371369862590896	8.169584851480016	10.800568919852712	14	2.1643065790574423	-0.8359547856031535	0.7123890065800289
Si	15.01306000871075	9.3437210934396	12.145406986713002	14	0.6736391069684812	-0.18349155916194393	0.012326907346917949
Si	13.600239423947498	5.264196534536373	13.686933929183596	14	-0.2487536683927306	1.0390440808468622	-0.2986943039102229
Si	14.99221793525388	6.656617448345375	15.00573578950067	14	0.6278194390581223	0.7091093046336481	0.27372501459360477
Si	10.96746936028644	8.247038059994669	13.638351580284517	14	-0.5426724012813104	-0.4671374407438721	-0.3948130194197027
Si	12.319058161631192	9.431284018403066	15.129035005509294	14	-0.6245831887916519	1.7569653347442538	-0.9079231088404824
Si	10.93496096898264	11.048838650213195	0.0189413812233844	14	0.6015903081346318	-0.6718033377698955	0.20808623843341642
Si	12.347732397912267	12.332395777821361	1.5364966621629979	14	-0.4689444135628722	-0.254976000378021	-0.051425191729345766
Si	13.880444060886164	13.480102566568732	0.1000648919820143	14	-1.0791939473052305	0.4042317495390011	0.7229436510297689
Si	15.040226799427336	14.965034759259419	1.661303323736111	14	-0.49856097574565783	0.17223037497022736	0.3295493675257239
Si	13.659816294300635	10.899241063215358	2.886020918495512	14	0.49098598525143755	0.4562128142385629	-0.7004135693303752
Si	15.10421130952882	12.17198390742609	4.262941359434858	14	-0.23959024903172285	0.5978226103984867	-0.23775370850154107
Si	10.841581270373585	13.70885743098021	2.755528565499808	14	0.5569638902033535	0.14092588214476442	-0.1330811827024606
Si	12.263020511299034	14.90023098526419	4.225763163936711	14	-0.3218975009824312	-0.27813831687563895	0.25849995732981595
Si	10.892916345955646	10.899159136825983	5.4020622625757815	14	-0.3072715112582368	0.4688163725179288	0.8990983040501382
Si	12.238590061987558	12.20167403093541	6.9040515295342395	14	-0.4532645277679491	-0.023831575212452546	0.3192266367758614
Si	13.633239373587546	13.493800658872148	5.563113158808174	14	0.6488783342933272	0.7415867357061626	0.189083713233266
Si	15.080092180496967	14.937867968542836	6.976785778020921	14	-0.5296875480829666	0.16310320819423368	-1.108456468285432
Si	13.644872920878727	10.683102862767551	8.222738692906193	14	0.32414310436904853	0.0025276536402375764	-0.23503939261506074
Si	14.814208276420963	12.204131822616644	9.532053477333701	14	0.7917166045752178	0.7196235827298617	0.2865802840838132
Si	10.857835466025485	13.696142455349287	8.307221185629176	14	0.9129336788883871	-0.33647181148969063	-0.8638615627480407
Si	12.183060355269523	15.055448722573118	9.70513116752627	14	0.41475579783543126	-0.043467363652955435	-0.7737659185615399
Si	11.116329609779907	10.954279211597147	10.746890749534538	14	-0.9542747384415801	0.17239261171592868	0.39982847456771553
Si	12.352762678219861	12.25558159514383	12.288761782840503	14	0.3094183842005605	-0.6660170652469023	0.7509494157294818
Si	13.571221096831051	13.72035989604839	10.97158206503304	14	0.4767513177569698	-0.4879772778058004	-0.20899640971674882
Si	15.03205054576776	15.069802225991529	12.202771844553027	14	-0.2213138039739822	-0.6422207141773357	1.3652885495940676
Si	13.813035027708825	10.65862325762245	13.601156999508493	14	-1.0958649942010708	0.9374823353746288	0.5127383075914864
Si	15.166639218232188	12.027482141847347	15.07866666132185	14	-0.2190581732766163	0.06773396988557705	-1.0579918415036935
Si	10.887640286479929	13.54841279002919	13.677217459403778	14	0.9855082687602068	1.1028540297928293	-1.4254490716486168
Si	12.279045313060687	14.908292541978641	15.051221320881394	14	0.015857806283077307	0.42093776346719525	0.33104086572194186
H	13.142895186431078	12.535779677971345	-0.8927829970418889	1	-0.22979510909355472	-0.40986478418491357	-0.776407986388524
H	14.95626044295741	2.9353995918993103	15.154206069380715	1	0.057787906065116204	0.27621692986989227	0.036391424701375914
H	12.595469606741817	-0.8377055239932	12.675767299495552	1	-0.024577195755295485	-0.16701103117032676	0.0907952419441132
H	14.922228220811242	6.904412005647488	1.4911913688388994	1	-0.12987578569983202	0.1241699887733594	0.041608197395956364
H	14.859407065438875	9.372362559164927	9.417602311377525	1	-0.10861403025486745	0.24519191619272945	-0.16227582650221004
H	4.196638332514075	1.3359080904184721	6.813080466772795	1	0.210301502777256	0.025526704950026177	0.07322096574930505
H	9.691146332860043	12.251092029006108	6.755125738929275	1	-0.022495371777571587	0.008824290569280222	-0.06746914603760179
