224
config_type=interstitial dft_energy=-23335.866410195467 dft_virial="-76.64128930325701 -5.508740541091276 6.549762375628211 -5.508740541091276 -76.97646678786171 1.55758948728064 6.549762375628211 1.55758948728064 -72.9425071790311" pbc="T T T" Lattice="16.254729908999998 0.0 0.0 0.0 16.254729908999998 0.0 0.0 0.0 16.254729908999998" Properties=species:S:1:pos:R:3:Z:I:1:dft_force:R:3
Si	-0.005282787220424999	-2.9077436145013733	-0.329223299576886	14	0.1875433640359653	0.47025130639710344	0.625904736926208
Si	-0.045204403876929	0.05750923441804199	0.015572031252821998	14	-0.36818768116637723	-0.2220180297211708	-1.4997619858273887
Si	1.231880960883474	1.4058715898294099	1.2436493853375898	14	1.00306660410203	1.1281369939585053	1.1030550902288647
Si	2.689751431691775	2.9077436145013733	0.019944553598342997	14	0.410808894058472	-1.710817336684512	-0.45580837937170354
Si	4.131952342867799	4.128490085397183	1.313934837464106	14	0.05102409929940266	0.06890947923794874	0.4115946238443092
Si	2.7185548130905226	0.19040790615402597	2.646660142703016	14	0.6932635825455755	0.3885698614813191	-0.650887395990491
Si	4.051020042650888	1.5579183333981959	4.073370296275764	14	0.2609774744163106	-0.373339919117422	0.14389756567379156
Si	-0.10648473563385899	2.785833140183874	2.6542348468406094	14	0.43559280668150735	0.07091314161394015	0.38175591816186266
Si	1.3455177776772929	4.123256062366484	4.083415719359525	14	-0.41571250612505833	0.5697044883962833	-0.7651252049121182
Si	0.17623378167337797	0.007590958867502999	5.4882632612046685	14	-1.2803963083544825	-0.4713221717629451	-0.4828944596983996
Si	1.4165021831898958	1.4146166345204518	6.7797665713943545	14	-0.6178204104680665	1.02198993925832	0.3347553415779597
Si	2.7347932882696138	2.941748509471002	5.516579000706146	14	0.03211079145386138	-0.7299951644808069	-0.26780992969407214
Si	4.056010244732952	4.1970850456131625	6.975002132331353	14	-0.03746383273040967	-0.6451610302214571	-0.15878915057755721
Si	2.6127852855726594	0.0010890669039029998	8.09711490213935	14	-2.0816116044244555	0.32562046148600565	1.5498604872115378
Si	3.994811186625567	1.2609931821504927	9.343462572641833	14	-0.7218475888317897	0.6370304238675528	2.025333194292798
Si	-0.11718034791398099	2.605730732792154	8.291765292799624	14	1.177965015062975	1.0662918836981956	-2.4642581534692174
Si	1.3127482421807488	3.9585956483883145	9.492307134418548	14	-0.2713130606927739	0.38856960437078714	0.8523872339252839
Si	-0.19278109672073998	-0.058712084431307994	10.760354869349545	14	2.107073774630946	-0.11577712967680001	0.19671192560761333
Si	1.354327841287971	1.3595781190485778	12.011172590577004	14	-0.8459844103465192	-0.8131542236240803	1.2303589992769528
Si	2.7446924187841946	2.753730048613599	10.885402506539483	14	0.9724102869277766	-0.12153923380978385	-0.8488851313687102
Si	4.220248035733487	4.158853920867195	12.164617240917964	14	-0.13419292864289262	-0.3660876023408802	-0.5004060009233962
Si	2.7945456754150975	-0.05385192018851699	13.356592839874844	14	0.23295036954244042	0.26587440160906467	-0.6582474420799467
Si	3.952321322643441	1.359253024450398	14.917632081415567	14	0.43547222184199236	-0.07873033022931836	0.12256176239560677
Si	-0.045643281584472	2.6754960335615814	13.544009875725612	14	0.20066114337936078	-0.7667691696538209	0.5515501708412498
Si	1.3952735059287418	4.098418835065533	14.880490023573502	14	-0.994313533150118	0.4260666043598267	-0.6132299590294741
Si	0.15711821930039396	5.522349429823841	0.11404318504154398	14	-0.6450543293506709	-1.1142859353778036	-1.1092403982975452
Si	1.305124773853428	6.936787262315294	1.3879913869295097	14	1.0689889731790307	0.02463453140393479	0.46501679307581395
Si	2.7644906798133566	8.084257410781332	-0.035272763902529994	14	0.3439182467179035	0.7384461305576018	0.7213084280461546
Si	4.177579369722363	9.413991845716984	1.5068459720241179	14	-0.9499627377091596	0.5998854081968416	-1.520813167746633
Si	2.7344356842116158	5.513864460811344	2.6005617286810914	14	-0.1159316531065409	-0.3001678043691997	1.0802792108608652
Si	4.153587388376678	6.733765685751884	4.083009351111801	14	-0.04904331976076058	-0.4151566331548423	-0.36958687668160184
Si	-0.03605299093816199	8.143652193868816	2.8437324881197314	14	0.2776960867605735	0.45368156105087715	-0.283452534461853
Si	1.5103244842246437	9.385513558916417	4.105018255408587	14	-1.1278809118686186	0.23187307641329838	0.25285869514687903
Si	-0.15788219160611697	5.482330284787884	5.396424037218818	14	1.3599018268378256	-0.5472854784467202	0.2040346906699271
Si	1.36474712315964	6.718372456528061	6.82827068544281	14	-1.1811691265129438	0.5254953608584652	-0.9709684110642375
Si	2.7894904544133987	7.985379888744884	5.4267391084991035	14	-0.2611024301348698	0.8531511093159	1.0186120210887095
Si	3.95475953212979	9.537885397083382	6.870890587264208	14	0.5444166391304988	-0.8956879899534937	-0.9073214701955677
Si	2.533185873208287	5.421033698301044	8.230289904283786	14	1.3383945308347869	-0.12425792057530845	0.15157745726507388
Si	4.091429301204663	6.797272915506347	9.407847557811381	14	-0.06876601156108447	-0.3601635185727271	0.14794731366355682
Si	-0.057915602665766994	7.945978423445468	8.275234232482173	14	0.5435830867857069	0.44161793488874235	-0.030157265631612862
Si	1.351808358152076	9.46265850706453	9.463324950990799	14	0.7113207123195074	-1.5695651812746207	-0.15539349178123765
Si	-0.006355599394418999	5.315117878214	10.934816885462842	14	-0.061723239868134855	0.05071376688726079	-0.04164033621245821
Si	1.3365614214974337	6.822386473215753	12.200491429827128	14	-0.3704073163892611	-1.197009192169312	0.17524319618437686
Si	2.7286327456341026	7.981153658968545	10.875925999002536	14	-0.21634205761641187	1.0327525861284599	-1.5004055334890216
Si	4.1104473351981925	9.261717535929472	12.127962824973169	14	-0.40388645009450524	1.4792160261035532	0.5654994456451812
Si	2.7393121031843157	5.396326508839364	13.456705721384376	14	0.22639456519712686	0.33085626035995513	0.6964612662322436
Si	4.137560224686405	6.727995256634189	14.893412533851158	14	-0.8958607682310078	-0.9046783739264556	0.302864122518439
Si	-0.019651968459980997	8.109387223220645	13.544513772352792	14	0.13912765108385286	0.6850491581582343	0.1657966981276208
Si	1.3973216018972758	9.482749353232055	14.888909973666363	14	0.3037992335233769	-0.5874332880208324	-0.3986092564249013
Si	0.038409926774967	10.775162928296645	-0.053136712072521	14	0.06951343187765154	1.6909871726818058	-0.05481956497300525
Si	1.465347646566441	12.291826757185799	1.3943632410538378	14	0.686101254455239	-0.46975816839669904	-0.03236918753853626
Si	2.848527633442887	13.523398878201002	-0.26038451841227095	14	-0.7521745474145323	0.9256261974118302	1.452160799040699
Si	4.058936096116572	14.940567505317166	1.325589478808859	14	-0.5067784854593831	-0.22155445943194813	-0.19140902088480793
Si	2.7472606661098165	10.797155577863522	2.758281372988119	14	-0.15241666604157023	-0.6286265090181168	-0.45660336513669336
Si	4.047330218961545	12.037570271949221	4.152530830932594	14	-0.23630334799044553	1.8116568586723156	-0.13526405111926632
Si	0.16129568488700696	13.738611502196163	2.7428231248446595	14	-0.3145467108721279	-0.522662774127258	0.5045981881478977
Si	1.655430458122287	15.079447917659662	4.061731909660919	14	-1.4279160472032988	-0.8878795430962041	0.6932059897864041
Si	0.11514850667535599	10.774073861392743	5.476494836750553	14	-0.43064548582447837	-0.9650294148852274	0.06944761158145572
Si	1.4311476948379047	12.123817868846373	6.782042233581614	14	-0.4223518713932768	0.7475015634951632	0.4966843259724818
Si	2.7585089392068447	13.603583460842097	5.526364348111364	14	0.6606547679912014	-0.15712898787233762	-0.1416966995197448
Si	4.0177466105271655	15.100465283431998	6.996458375811232	14	1.47200818944905	-2.613855088306181	-2.007482781386606
Si	2.737897941682233	10.870626957052202	8.273543740571636	14	-0.5025076224120852	-0.2523308472246526	-0.9049874207859374
Si	4.147589393040257	12.156603659072827	9.501165962218952	14	1.2056756168719351	-0.35543448455737875	0.28035769498799074
Si	-0.13888041234249598	13.39162178282874	8.106786466435205	14	1.4351663070955845	-0.06578301516864868	-0.3973249893174874
Si	1.2609931821504927	14.726687769174545	9.400809259760786	14	-0.5197800508423079	1.3490129386964664	-0.1016692176746155
Si	0.165424386283893	10.706194109292758	10.859216136656084	14	-1.9854831187147592	0.9653001522754391	0.9281605359259
Si	1.4905424779253909	12.073850829106108	12.19832955074923	14	0.6279050568652833	0.023626401007904727	-0.9253271778630969
Si	2.713694648847732	13.44654651519125	10.616191669786625	14	-0.6286090255019398	0.12254453598996178	1.6263254165432737
Si	4.181317957601433	14.696242660054986	11.912506380029374	14	-0.36216846650137857	0.5428762899331981	1.3999704463680773
Si	2.8180175054036933	10.753511628057856	13.568245678019933	14	-0.05774676837999383	-0.6737530069341638	-0.9452190483934865
Si	4.126409479968831	12.10926988557782	14.805669501802376	14	0.2612644097700392	-0.7512183533459692	0.6367843690884146
Si	0.09229435642330198	13.471026138434203	13.300481512228975	14	0.04143721889216652	-0.05538675080662992	1.187599203808102
Si	1.380270390222735	14.952303420311464	14.773680193341464	14	-0.08364962603835768	0.16737381413099964	-0.09295599885516566
Si	5.437288428210044	-0.063003333127284	-0.05919972632857799	14	-0.5743432766148945	0.9822182823925455	0.008226765692877808
Si	6.810699322411181	1.3506867817883548	1.266503535589644	14	-0.0014639873692923163	-0.6333915385079473	-0.11789340646581391
Si	8.167400354265865	2.7385806403384105	-0.054030722217515995	14	-0.5838936473265844	0.16143121840454142	0.17726691318186544
Si	9.348777869322078	4.043315300674022	1.3991583863769927	14	-0.05962341815316992	0.35000071057377774	0.6081509975800536
Si	7.919401940044253	-0.19970561166197398	2.7179696428137987	14	-0.854384982759039	0.7720355646810801	0.017667607317929542
Si	9.316609758832165	1.112522479161687	3.9544994564512463	14	-0.22969612153872904	2.048382639266862	0.05175043655234449
Si	5.500129214038238	2.7169781042893497	2.5862250569013536	14	-0.3052457373764922	0.7616788953409918	1.2228444297577559
Si	6.7089284584509326	4.245751706960709	4.1010683560407	14	-0.11910542551373168	-2.2830073125937824	0.15979625253145924
Si	5.329031927016104	0.08727164488142099	5.540327161103195	14	-0.5428852888018186	-0.0633042125294939	-1.1613351058522574
Si	6.605824706638145	1.393826834966841	6.8942161246836235	14	2.0538938035205985	0.3080582694862022	-1.5519281701100012
Si	8.144871298611992	2.7244715347773987	5.340101398084133	14	-0.7154542783427096	-0.3059401929234642	0.3716357905112278
Si	9.584601490841848	4.159227779655102	6.599810456571815	14	-1.0844166335420475	0.46746140001421077	-0.18812160562246658
Si	8.09761879876653	0.10490802683268598	8.138044312050212	14	0.5110912575233996	0.8874164870280454	0.10255059257836226
Si	9.607276839064905	1.4639172303344488	9.414967129511526	14	-0.9300446419045046	-0.19380066305360966	-0.4072638540430518
Si	5.352617540114063	2.63245350876255	8.236596739488478	14	0.5781976206003284	1.8784870850378605	0.23872198676510883
Si	6.974075612726541	4.050646183862981	9.421761606613488	14	-1.2107355521419865	-0.7023511542996388	0.6243412477810261
Si	5.424577229421207	0.043790242374846	10.693125306445921	14	-0.07014412401268384	0.7599369714865916	1.0620585587885718
Si	6.687390941321508	1.4625355782921838	12.180416838389512	14	-0.19767583299213684	-0.30691875560831255	-0.30175571901492315
Si	8.227396562359985	2.643295413611853	10.867473539449856	14	-0.08217921090576498	0.8895695306231375	-0.023981213542085163
Si	9.69381702110042	4.1039454432345925	12.121542206659116	14	-1.0100466408251683	-0.6494360070372672	0.5896693783177651
Si	8.037882666350955	0.130866830497359	13.512134350374064	14	0.23230322233335918	-0.5580041594158854	-0.12090159969038715
Si	9.444404445376724	1.463478352626906	14.85680688209609	14	0.6888618502374819	-1.4840083093097773	0.19494249092628743
Si	5.431452980172713	2.792139975388566	13.688660717185805	14	-0.9401948514873851	0.0356620021220499	-0.5550854406564534
Si	6.994052675784701	4.1025150270026005	14.72561495700055	14	-0.7010296061650827	0.5795610777516029	1.2496289194303984
Si	5.532248560338423	5.4021131926869685	-0.011784679184024998	14	0.2092679184385565	-0.21674623537273918	-1.1373875737898662
Si	6.842331026814095	6.8611214945888985	1.2147972397491147	14	-0.06625429877383182	-0.002504513692356244	1.8096087161742858
Si	8.30597192674009	8.178453570603986	0.013979067721739999	14	-2.112642017422791	0.3229079453732494	-0.7662796312008647
Si	9.47601989504973	9.56408802169669	1.2931775473703129	14	0.042212150035659146	0.899544905044248	1.3809635502888824
Si	8.047960598894534	5.449658277670793	2.805257542425129	14	0.6604668201922986	0.9752022501949253	-1.6981531003195909
Si	9.553441173606295	6.7924290059934656	3.9866838216710665	14	-1.009958451912687	-0.7959345028529207	0.43241466339527235
Si	5.5122227330905345	8.164360719772882	2.8418957036400143	14	0.04004573669290237	-1.2923048968658124	-1.1223715473886053
Si	6.728580426910913	9.525141688834726	4.119046087320054	14	0.5595416803973341	0.6370707902210792	0.2276376946194185
Si	5.4059167994856745	5.420155942885958	5.559442723476179	14	-0.17224245916523204	0.4904164854230248	-0.041566802600301975
Si	6.771525423330491	6.8852435137738555	6.7552869481514	14	1.0907896322990984	-1.1982908881714058	-0.011420592721565752
Si	8.09270987033401	8.057534634810935	5.235843560447807	14	0.09847513353539553	0.3358316062649737	1.0003463746733134
Si	9.41880324577005	9.510918800164353	6.515643465103013	14	-0.26031335791211635	-0.5163306559447973	1.7211022721861682
Si	8.226047419777538	5.433062198433705	8.140645068835651	14	-0.05498591548721884	0.4633630581338947	-1.379097699158051
Si	9.396095388087177	6.760472206992371	9.64635320976614	14	1.5803157439497557	-0.12271217205683543	-1.1227330447966182
Si	5.467310914351967	8.16215007650526	8.056380548987397	14	-1.0784647818364366	0.7389819489063206	0.5312461521280404
Si	6.709237298319203	9.584991604359665	9.422216739050938	14	0.8642587985200036	-0.8959299309641197	-0.06061380792249096
Si	5.5689517404729445	5.502843753933042	10.696457526077266	14	0.29469263558994435	-0.3081893958575297	0.9390052010557526
Si	6.89637800376152	6.880367094801155	12.31814316490847	14	-0.5894744885344979	-0.827903883514174	-1.4074271660175706
Si	8.056006690199489	8.163694275846614	10.789467090616565	14	-0.14367670772679086	1.0025181873372426	0.6396100138352574
Si	9.48967386817329	9.47341913826429	12.175134051169088	14	-0.7870343646766962	-0.5410819155302669	1.284918882612623
Si	8.336010667611923	5.5551839842400215	13.516848222047674	14	0.5365655119248947	-0.7421505791028711	-0.030777673345364596
Si	9.592777619986077	6.747143328466992	15.116833796450363	14	-0.4840555708609785	-0.3778169848113958	-1.0104891280507657
Si	5.361362584805105	8.024846372963935	13.536695247266563	14	1.0370216494020337	0.8376709984043526	0.6603297802787347
Si	6.685407864272609	9.501572330466677	14.890210352059086	14	0.5212234693690392	-0.8480873173878682	0.215319786141121
Si	5.4354028795406	10.86365367792124	0.032688261846999	14	-0.12087923107410187	-0.32917938547015463	0.7375598705537466
Si	6.7793764578765385	12.256537738553359	1.3843503274298938	14	-0.13965755589033535	-0.44856583279537854	0.16830763958327744
Si	8.065466943006527	13.65086847014738	0.07296748256150098	14	-0.33694283798434177	-0.7648372411162616	-1.3976330545215307
Si	9.357945536990753	14.891413202072352	1.4178513257723429	14	0.4925790421078014	-0.5379263979708491	0.6504029997481751
Si	8.106152531968753	10.864108810358694	2.7877674530430445	14	0.1268110281582155	0.3362977476595166	-0.6927527039184621
Si	9.421095162687218	12.3257828879657	4.110934977095463	14	-0.0894181579346419	-0.8631213415263701	0.17264920802687947
Si	5.277878291992481	13.475106075641362	2.679624734958468	14	-0.7329943588367598	-0.6674345156099	-0.04114822665418187
Si	6.414604063988669	14.802386046360757	4.089104874827676	14	0.9622042843594487	1.110073950642337	0.42000599489917356
Si	5.3914338351367554	10.843887926351897	5.5132630358047106	14	0.12802947496943365	-0.6601068654474779	0.5931293147470884
Si	6.721623402509861	12.180449347849331	6.865786602072783	14	0.24545648293017272	0.535598776324519	0.030182976684814344
Si	7.904155003389611	13.582858680208123	5.373602396426583	14	0.5778826601986102	-0.14325273245949843	0.8355871175423725
Si	9.320966026447778	14.941559043841615	6.777100795689278	14	0.5749369448333166	-0.38149366541920754	-1.012942733857783
Si	8.20374593034239	10.877909076051434	8.174129812448193	14	0.15554390144246633	0.23170903989387295	-0.6576540309720567
Si	9.560853330444798	12.367443760722466	9.524198914500005	14	0.03289189325012236	-0.7129168545022554	-1.3473790012655122
Si	5.447593926972351	13.651860008671829	8.241716979409814	14	0.059242894565788004	-0.06971552075581515	-0.41654528713825434
Si	6.861836702704895	15.075628056131047	9.50526215415602	14	-0.34332252161522514	-1.358538369686551	-0.4736616204937479
Si	5.489937498385295	10.73639539746368	10.944553468678334	14	-0.6591349876364618	0.7873770930158719	-0.3979202001991016
Si	6.95556147536019	12.125118247239095	12.116080617409692	14	-0.7676531156628879	0.19145658633323065	0.07933248309529703
Si	8.110996441481637	13.62516974216125	10.753527882787767	14	-0.2640365755262228	-0.32509492755856734	0.28051633218624394
Si	9.345868272668366	15.013876337206757	12.051890688999048	14	1.0094948816234643	0.8289865759644883	0.3987321552592044
Si	8.0701157957605	10.862028204930342	13.642806124112514	14	0.6306245149624039	-1.1596636302836292	-1.026108335760133
Si	9.352922825448873	12.168957253803667	14.953067392617188	14	0.7722008867531658	1.3606883279552588	0.010617379419551492
Si	5.444424254640095	13.290045975627397	13.459680336957721	14	0.795766866786047	1.9920913736086037	-0.9675812369154745
Si	6.702329038107878	14.906253770479267	14.786765250918208	14	0.37757941467981415	-0.7273641524066995	-0.15780878811898477
Si	10.668531900093605	-0.07590958867502999	0.13930303532012997	14	0.4522666817931996	1.8080747947402853	-1.26823343752699
Si	12.060830790449	1.4419570902273897	1.333521787004451	14	-0.10157254411457792	-1.1213719016401318	0.9198887758899197
Si	13.306820856893486	2.7982192443745317	0.030445109119556998	14	1.971491420673045	0.19904083280660348	0.54763129211228
Si	14.854222380040557	4.2975555311806914	1.3487687236590928	14	-0.33380608949376106	-1.3047055949354187	-0.2628507817525705
Si	13.598316928351583	0.0029583608434379997	2.60449537331907	14	-0.7211783301169552	1.1146993691132834	0.8848826627350395
Si	14.953441251405094	1.3784173510131088	4.120183918413683	14	0.009709522131007205	-0.6588951035100921	-0.5514943778558025
Si	10.669620966997508	2.7192537664766094	2.7475857607079965	14	-0.41291591486833323	-1.3154309607784163	-0.41689187213541024
Si	12.117592307291227	3.9901623338715924	3.9309138433532875	14	0.31023676702396363	0.3954023167590806	0.5359499893112514
Si	10.695514751742545	-0.025162321899131996	5.280852907565828	14	0.9266739228297904	-0.6659849264304004	1.2609669796711875
Si	12.003240282381414	1.4199481859306038	6.64265792461194	14	1.1752419574184063	-0.7162816600347331	-0.16427408955702913
Si	13.491377060280271	2.7621825081662785	5.2898092637456875	14	-0.18931048472250303	-0.8416698385087787	0.8617182893531654
Si	14.83177459803623	4.0355943039672475	6.728369115422097	14	0.5460912000255114	-0.4038746230100326	0.26131866009229426
Si	13.497131234668057	-0.019912044138524997	8.01697908368798	14	0.004789197879839827	0.9609205314730986	-0.17925514892593594
Si	14.833432580486946	1.3544091149375157	9.516998069150318	14	-2.229418021516468	-0.49774619246970303	0.13805215772843493
Si	10.777926232381175	2.832793054890975	7.975350720391031	14	0.6574372867935682	-0.13634622934851667	0.6889232996546335
Si	12.236593184955016	4.155993088403211	9.270966477247693	14	-0.7884006500438229	0.09919118636705676	0.4147845942150169
Si	10.92574674617362	0.049706964061721995	10.610486259588566	14	-0.902480078877729	-0.6221092712526055	1.2310495981659444
Si	12.188641731723466	1.2621472679740318	12.110814084919173	14	1.1627733821683481	-0.1339800411223844	0.14979105328863498
Si	13.395100295029264	2.8643434856443437	10.775585551274277	14	0.5249124912823875	-1.5464481162306374	0.061076092659053595
Si	14.818331936401487	3.9547432773998814	12.217883990829757	14	0.44032364047057987	0.6152040536942837	0.05643267645086616
Si	13.576177986215525	-0.16922799308259898	13.627429149618601	14	-1.0159871796673703	0.9800428701811682	-0.3356382591448986
Si	14.66776437325442	1.3829849301175379	14.994094330907503	14	1.2164688598953846	0.033803607196646865	-0.45848515712050975
Si	10.936409848993925	2.5925156373761364	13.486094273059846	14	-0.6445226247704644	0.7956257131039709	0.13829718406544503
Si	12.128791816198529	4.049605881148805	14.87449202823708	14	-0.6595394225033212	0.7029044561645348	-0.09559395291363759
Si	10.793677065662996	5.350325623196894	0.17408815732538999	14	0.8691053320484828	-0.13674166534675544	-0.4040959951780973
Si	12.050899150474601	6.873816438647828	1.4556110633509498	14	0.3690885964705571	-0.03932479876113286	0.2426732614211124
Si	13.66369345204558	8.025935439867839	0.13254106767798599	14	-0.9616255285518834	0.8355328672201173	-0.5848560120479158
Si	14.998987004610111	9.5328626855415	1.368924588746253	14	-0.7222425106089645	-0.533705414366762	0.5898858653857216
Si	13.422522024385747	5.449902098619428	2.7590941094835686	14	-0.1494115581433811	0.35973260132107027	-0.9537576891616983
Si	14.763423458768884	6.781001930867438	4.0357568512663375	14	0.09627915248145705	0.3765761693838923	0.7680282399290974
Si	10.66113599798501	8.299339996937219	2.8260961061684666	14	2.368433572408362	0.8337690889704957	-1.021002891925915
Si	12.366354693818565	9.65740642610426	4.096273210717544	14	-0.9351405726490379	-1.5117081124763925	0.12164593468057001
Si	10.967001250682662	5.491595480836013	5.245352577444573	14	-0.11723571772492002	-0.01938536278232047	1.0161810410085095
Si	12.158180367874001	6.878400272482167	6.773703557138297	14	-0.42495845796684284	-1.074096473897505	-0.3255106752888353
Si	13.56486469419886	8.116067917213243	5.556468107902832	14	0.11705239791559346	1.1125866918717178	-1.3662205752726215
Si	14.922280934169542	9.354857138308043	6.953578398311291	14	0.8563914733508826	0.5428852888018186	-1.0190830475833605
Si	13.56159749348715	5.493513538965275	7.9690438851863385	14	0.14602721221047021	-0.011464044401476255	0.5877351357854177
Si	14.770835615607389	6.598315021420188	9.654057951743006	14	0.6381537397819255	0.1579496846905289	-0.7516837234089161
Si	10.74289728942728	8.135931197162042	8.025431543240659	14	-1.2470398163730094	0.059583566020707635	0.6133474585426049
Si	12.082985987314967	9.378621553435	9.448435618394157	14	-0.12028607707674371	0.3663904785475937	0.3886691061466768
Si	11.025680825654153	5.449788315510066	10.867782379318125	14	-0.631909810511946	-0.005408320040931484	-1.2151645381664735
Si	12.208472502212446	6.721867223458496	12.325571576476882	14	0.40159868058063747	0.5665466568420775	0.5007929522740784
Si	13.435607081962493	8.05337342395423	10.832217030277235	14	0.0934239400234326	0.40204348180102306	0.7629217676527514
Si	14.849264687418312	9.427808366139635	12.217640169881122	14	0.06093082520846522	0.22045839723396898	-0.7615855642178704
Si	13.614360346771765	5.345400440034467	13.642546048433971	14	0.13741092406158997	0.7851857399515096	0.15318156987431428
Si	15.06501371750047	6.783472649813606	14.993996802528049	14	-1.0062570886938018	-0.7043224207485964	-0.2585554932047311
Si	10.81197989154053	8.060362957815101	13.72611161489614	14	0.3672505132771832	0.5120559362395191	-1.5510028293052798
Si	12.229668670013783	9.443542944691547	14.921988349031178	14	0.01844742356153045	-0.7370695607691944	1.1923228385022782
Si	10.82937245254316	10.8547298312012	-0.05320173099215699	14	0.5521489812703122	0.23973140271379897	0.15860943031567887
Si	12.159545765186357	12.226726563900252	1.3780922564149287	14	-0.32527721892576583	-0.27342342393955144	0.1609625059046784
Si	13.421319174372481	13.594123208035061	-0.029095966537109996	14	-0.6151066088026501	-0.22263329522428224	-0.888208387466651
Si	14.869908194402743	14.840828482595542	1.2693156038639009	14	0.47588074149556764	0.5055752081695539	0.5115679404497551
Si	13.64843026066103	10.940928663908627	2.698268910164091	14	-0.08880597775791466	0.26116336533095735	-0.47315742674046674
Si	15.00555391549335	12.232301936259041	4.068054999595521	14	1.3056003395868303	-0.4148419298636562	-0.5307237035269863
Si	10.776430797229548	13.596138794543776	2.77890862524264	14	0.5174791686913075	-0.0033560637743892878	-0.6769355210994431
Si	12.238592516733823	14.893932685208245	4.058042085971577	14	-0.03195935335050465	0.26351875491474497	-0.23875798223959088
Si	10.831810662029511	10.849999704797682	5.356307363803406	14	0.39645518438768124	1.1102729541941163	0.06606172298535272
Si	12.236349364006381	12.071705204758121	6.852604016116583	14	0.34104966451221425	0.05441487299561395	-0.9695062234686692
Si	13.605859123029358	13.44066230296419	5.318498862035073	14	-0.9899339123477776	0.5973932358100219	1.439330212161564
Si	14.89289238249407	14.773208806174102	6.813413862305985	14	0.0164445325171351	1.1526990201924119	-1.2840807022782548
Si	13.570537594937102	10.66584986965862	8.234272313111493	14	0.0006798002466471522	1.4055641431025914	0.47894112815813994
Si	14.945395160100139	12.21149588197552	9.611844418169333	14	-0.6136151106064323	-1.7034413497420713	0.24102389735823743
Si	10.906566164881	13.606655604794899	7.945230705869654	14	-0.7158656551939333	-0.17239389726858875	0.8873246985681161
Si	12.219038076653296	14.891071852744261	9.39131649749393	14	0.2552698777161139	-0.32485144388474935	-0.21305104280662235
Si	10.70240675722396	10.801934468456768	10.794993698785625	14	1.1490850745544117	0.33785815147831444	-0.09279479055159238
Si	12.038935669261576	12.165966383500413	12.196785351407877	14	0.4919419222094687	0.23383920065161562	-0.43883317071649
Si	13.515759155143773	13.5822735099314	10.853461962268298	14	-0.48022822348140604	-0.7204306526898562	0.22804881436011012
Si	14.934423217411563	14.842892833293986	12.20497773528201	14	-0.9259385867082279	0.21639399394387887	-0.11505644885556252
Si	13.410526033712905	10.768027101866593	13.535102283735482	14	-0.2534503064810451	-0.8667869663813053	-1.5183186813650253
Si	14.705491601373208	12.145778008953434	14.695007300581903	14	0.9317400287526103	-0.23925549111903957	0.8192896522495499
Si	10.662989037194636	13.627575442187783	13.432860032607872	14	-0.49046147976612736	-0.8854120533204579	0.43046036624142775
Si	11.901778258289434	14.938454390428996	14.866153351793765	14	1.1354859842950846	-0.26717460956946354	0.21893476022124925
H	0.06483199024204649	9.219941254590353	0.11381724429580889	1	0.10838263077605415	-1.2845931235685601	0.15763112474136254
H	2.3495269309124778	13.231603719712577	2.291282982702549	1	0.3135105554281082	0.4463248573983375	0.4197833371784488
H	13.960192729369668	13.841614474683512	2.120715599875448	1	-0.06865031182167781	-0.539383443355777	0.2229310292203554
H	13.809615413384655	12.9191878108616	13.844871922557276	1	-1.122592405335606	1.5892007126045915	-0.9706796759367848
H	17.637282463301954	9.354857138308043	6.953578398311291	1	-0.05713355976113853	0.005268966132579458	0.04532781546261459
H	4.110275035061157	4.098418835065533	14.880490023573502	1	0.09457965186483917	-0.1990241206220225	-0.034773685233938735
H	6.709812715757981	1.2609931821504927	9.343462572641833	1	-0.06338828767346276	0.08431348543201991	0.010976305722244164
