223
config_type=interstitial dft_energy=-23318.791873774844 dft_virial="-12.242355062959723 11.422428280452031 1.0299572883717354 11.42242828045203 -9.49580229396843 -1.0986211075965178 1.0299572883717354 -1.0986211075965178 -23.931360523931495" pbc="T T T" Lattice="16.3852778749 0.0 0.0 0.0 16.3852778749 0.0 0.0 0.0 16.3852778749" Properties=species:S:1:pos:R:3:Z:I:1:dft_force:R:3
Si	-0.5034376627063025	-2.3296096524196575	-0.16627779987448524	14	0.43321299159717824	0.9903753711312473	1.3508001140045014
Si	0.2196118793572847	0.08084496103475661	0.135506248025423	14	-1.6338574695786474	-0.13416901736341527	0.07182614111312471
Si	1.5476550363958046	1.428484910411657	1.4236348681606867	14	0.6523084459009367	-0.23852658276077754	0.5960714305649338
Si	2.8546431113650783	2.7420434818087656	-0.0717347465363122	14	-0.5723689248395528	0.6257335013118862	0.4070491667488194
Si	3.9334334213706192	4.376130858994668	1.306103269964029	14	0.3411270547823507	-1.1922359351424572	-0.12897204217979996
Si	2.8506123330078528	-0.06993236597007321	2.9092388572442447	14	-1.1866011007228205	1.0119232905983444	0.3143705901576977
Si	4.062696878525705	1.5183253889997337	4.216341629158643	14	-0.15040426190749032	-0.21195600905077128	-1.1534415554088708
Si	0.005095821419093901	2.719169633895405	2.636899153685532	14	-0.4382415593823239	-0.7218378186315731	0.9273845763402794
Si	1.2759215881184631	4.086455531444311	4.036808139483363	14	0.3332810697873868	0.23123004297272937	0.3014374161762889
Si	0.1233156012864974	0.06890009346395451	5.5163331904753345	14	0.5774684551315344	0.26652900502357435	0.26893324560844484
Si	1.5048403053086912	1.4117391564235093	6.976441687185549	14	-0.8800705820178503	0.006947897906636154	-0.41303444282359214
Si	2.7074541602148514	2.8426490879606514	5.563490020199296	14	-0.1727638793241581	0.19237935603263182	-0.474707289027452
Si	4.179114277826869	4.230301885908058	6.73274344935216	14	0.8302613299822177	-0.7474210878986426	-0.288626369697587
Si	2.745681013496993	0.11073170787857421	8.392490171690156	14	0.9884344437250674	-0.5514604392655765	-0.4008024092629876
Si	4.219389290843374	1.4812127346130852	9.631643196257343	14	-0.9064357244127769	0.7139378404248862	-0.4186361099845987
Si	0.04846765195395421	2.5500080251149373	8.423376420484344	14	-0.4683499740128539	0.1779053186328582	-0.6091236467226655
Si	1.2397428945706839	4.153143612395154	9.594366689091945	14	0.9987324918638566	0.2045648525869416	-1.5643985451337834
Si	-0.027052093771459902	-0.014763135365284901	10.924310538363954	14	1.006068883784367	-0.7725353875553169	1.4064113223055803
Si	1.2773143367378297	1.4062664736132926	12.430625518681387	14	-0.30745765928341556	0.1899969698429826	-1.4121795970913325
Si	2.526478766086581	2.8016367374397766	10.874613990569383	14	0.8669929119174492	-1.3899608762462086	0.43615073653597947
Si	3.7787400129536883	4.105921241559692	12.27206518468598	14	0.6507030477390363	0.273676677813586	0.3315190913114894
Si	2.6655570046887322	0.1357356419156716	13.733124027512938	14	1.316329562087808	-0.08382728941597992	-0.42040271645007243
Si	4.1866842762050736	1.4204069684193315	14.939539266886074	14	0.44862625377040194	0.5899591418873458	-0.11603166910349468
Si	-0.0704075390284453	2.740028092630153	13.812264919648705	14	0.41657511195996805	-0.3244554936654465	0.34226168356013204
Si	1.2897016068112541	4.114015568829893	15.15166307425453	14	0.11539197809984181	-0.001014558159330432	-0.04417287495280407
Si	-0.2182191307379182	5.506157932915021	0.007062054764081901	14	1.1008642513855667	-1.1525516958575674	0.9095688733559093
Si	1.0871468017217403	7.011293173225461	1.2701867408622483	14	1.4453270582102775	-0.1756288619823991	0.0786423984273693
Si	2.9290486581949993	8.288443657184542	0.04684550944433911	14	-1.547431821126126	-0.4097205451764533	0.04838897345678289
Si	4.28899395125595	9.60781900222724	1.464712759793061	14	-0.5930249278710904	-0.3434027401012138	-0.8615627374812964
Si	2.489972366981304	5.604404059052921	2.6134518210465503	14	0.00039697866143086346	0.49688127264000514	0.6411040831367953
Si	4.012869248508135	7.04830751594486	3.9127060448588713	14	0.24463835721730157	-1.034819754805859	-0.19722434689791885
Si	-0.0360639966026549	8.21551278536336	2.92727904818451	14	0.08858254870559379	0.19798642251481072	-0.25530998695910817
Si	1.465171547573558	9.620140731189164	4.19800650321663	14	-0.6689278135798419	-0.15945069597643133	-1.2054331616402452
Si	-0.1861203713809891	5.335439722736439	5.427361131614627	14	0.4994765463501627	-0.15316948567930957	-0.3825534750321726
Si	1.2836718245532908	6.671560821767283	6.598433326611604	14	1.0709394136748953	0.7829979864345957	-0.29161142297427894
Si	2.8009321704911563	8.317248975688615	5.4400433366898	14	-0.24680168523367416	-1.2613477603691015	0.49986118370605676
Si	4.139740455093485	9.595562814376812	6.820683235706749	14	0.5181432851955018	-0.07185390905058231	0.7160610591982645
Si	2.7335886784253174	5.438077103344812	7.940764445957038	14	-1.2268167874773848	0.35367739118158953	2.0229402665713363
Si	3.998351892310973	6.680490798209104	9.534740662905186	14	0.8171913731977769	0.46133239915204177	-0.5964748369896651
Si	-0.050728820300690404	7.889855387599724	8.004781726614272	14	-0.3576227522953568	0.16905428856824845	1.3286256161708843
Si	1.1778720853150617	9.22561601051732	9.525351898682867	14	0.5331575118230384	1.016936945972633	0.30619833189760703
Si	-0.0118957117371774	5.404601980646391	10.975137670331895	14	-0.3332944395350516	1.076460348128849	0.02050173671232877
Si	1.3014662363254321	6.800398261697622	12.329741362805628	14	0.3022542563364999	-0.20327492904782335	-0.004495834762810931
Si	2.7153190935948035	8.061573099728676	10.954770769933393	14	-0.24678034505951693	0.34166570134692176	-0.47125095214557705
Si	4.112966911045899	9.592154676578835	12.168936245741358	14	0.04751788297431673	-0.9361785278667819	0.9971859720137874
Si	2.6303122719798226	5.479859561925807	13.746183093979232	14	-0.25147158382665913	0.2066291930484885	0.05467609729614099
Si	4.109149141301047	6.866709481257343	14.96396971619755	14	-0.2752782193175063	-0.12090648479049541	0.4655423270032522
Si	-0.05241650392180511	8.087920626551515	13.68280483915912	14	0.3289485002124053	-0.005888088293671116	0.8365412547266794
Si	1.4154422292232367	9.524139388120124	15.021858902929573	14	-0.42744060304291376	-0.45539186030983964	0.11046342631164997
Si	-0.054268040321668806	10.900977902670096	-0.057397628395774704	14	1.3296340036774463	0.24072873446748444	0.32659773861819386
Si	1.506347750873182	12.270803518289613	1.2872602004078941	14	-1.1761094483534242	-0.07199763383797861	0.4466015083307853
Si	2.8522672460732177	13.69494633006442	0.034409083537290004	14	0.23047053846115761	-0.4078395245242329	0.28257578754768253
Si	4.097744987900117	15.061724283999204	1.4902574080000301	14	0.31958016375738174	0.6036734176650156	-1.32077448896528
Si	2.7957871932384375	10.856065856014995	2.673979037516431	14	-0.10597787597011962	0.8590721077576691	0.6412010138073649
Si	4.171019950556669	12.336590408957335	3.9751175682843654	14	-0.5547211150325884	0.3449716285675682	0.5572567390993184
Si	0.18566158360049193	13.517231606233254	2.971896159837863	14	0.33292188637416215	-0.20634431457901609	-0.4726457767817573
Si	1.4747569351303746	14.952549177518746	4.3431472946324945	14	-0.4316330473779472	0.6195173399793642	-1.0785077192952828
Si	0.015533243425405201	10.740598802830576	5.5678485041140195	14	-0.0474237805195993	1.4710795062074127	0.16053390264780973
Si	1.4709883212191475	12.167740120456491	6.95979424486465	14	-0.2373510734084059	-0.1788363158692838	-0.8709922662429395
Si	2.7872340781877396	13.64013757557288	5.624000851391302	14	0.744805759566988	-1.1620215909727367	-0.4178789194678151
Si	4.034006256966756	15.194313952562895	6.819831201257254	14	0.025216886758948332	-0.6162098700955256	1.1905042957093372
Si	2.666277956915228	10.742974668122436	8.332585595779522	14	0.3102156839603384	-0.4493680176552647	-0.00908140110129503
Si	4.066727656882931	12.157024148726308	9.601707293579901	14	-0.2871173879851921	1.4520646397017256	0.39895764119578137
Si	0.3359145817133249	13.638023874727018	8.302125364210083	14	-1.7924206199985642	0.39691309824519966	-0.44628937614491937
Si	1.5403144319078497	14.996543648612851	9.72816886821838	14	-0.048927877131885934	0.08319376906509543	0.7681120579625342
Si	-0.1431745580708762	10.838500838133104	10.880971478384845	14	0.6277011682133954	-0.48759289756043817	0.12154206202563603
Si	1.3368092807015917	12.152714820645208	12.356416595185966	14	0.29298696432055815	-0.9614447798478769	-0.7618848408771356
Si	2.7938373451713243	13.627291517718957	11.312559697609709	14	-0.31507250191009817	-0.7057478415380865	-2.501638682387254
Si	4.161139627998105	14.960004478951825	12.476684534787731	14	0.2778868627753285	1.0125061601744219	0.7674417708055717
Si	2.778189404800795	10.842449690100953	13.692439382549562	14	-0.28072047794866367	0.046081920653014016	-0.6531525397775414
Si	4.101005658197222	12.108294332326354	15.113993320420136	14	-0.004152335092039147	1.7708691009840187	-0.9978171783698837
Si	0.1664416526532342	13.606318362039087	13.618525394055887	14	0.3757433883706964	1.8044117409906704	-11.776257834270346
Si	1.477673514592107	15.059872747599341	15.063788829011441	14	0.003707790982185545	1.1084963204178941	1.128479722297681
Si	5.456674393732824	0.07166920542481262	0.043568453869359106	14	-0.06666130474601126	-0.11931985569743205	-0.17294205692284434
Si	6.755994158656644	1.575968796563632	1.338038176542209	14	0.009836534733822521	-0.46524819255462724	-0.3899407748380221
Si	8.162178705880562	2.9881831260455134	0.0509090583573143	14	0.7203728028201528	-1.2066582933252956	-0.29790934545598163
Si	9.727054669322886	4.206887323824826	1.43866016797197	14	-0.9481891892593216	0.07630937745986692	-1.3131786725179666
Si	7.969913855296484	-0.0088808206081958	2.6215789188725007	14	0.45011055287172347	0.7404168827854952	0.08219232354289775
Si	9.469428945295833	1.242823326811165	3.9551602998327366	14	-0.018092611027350016	0.6847439679567329	-0.06716935515727251
Si	5.212582909230438	2.8059952213545	2.538833265604256	14	-0.026940298655043583	0.3421159018884797	1.0609439846322875
Si	6.663892511721831	4.109526002692169	3.88668622359353	14	-0.3700172797121946	0.6563052291211069	-0.3533644876641275
Si	5.363016145399895	0.06293585231749091	5.425345742436014	14	0.8928420334746219	-0.17419007144524423	-0.0824206376953269
Si	6.778818850736379	1.424224738164183	6.705593043913452	14	0.2418569354819654	-0.16535986733372765	0.23294394177914005
Si	8.013793629445468	2.705799247149487	5.111059727517557	14	0.675577720379873	-0.4064303016982597	1.2135843368367105
Si	9.424566054474356	4.036644286704615	6.523126589498564	14	0.07354055414059946	-0.4528652351117301	1.139262166678786
Si	7.971798162252099	0.0915609327649412	8.321656615436964	14	1.0839309517470714	0.350924765825839	-1.2081279371262923
Si	9.524106617564374	1.4666134520265495	9.466528751111976	14	-0.000567442944156681	-0.783472869587227	0.3039154474838475
Si	5.603732262660051	2.8659981089323843	8.122690186202052	14	-0.8672461657914837	-0.38277304742651325	0.20324253312078944
Si	6.948553944242468	4.126091518623694	9.5488320018776	14	-0.4933038366975511	0.46894647044712834	-0.04266826411945342
Si	5.38851163777324	0.05764340756389821	11.02684960730508	14	0.09744154919669601	-0.11179654442014676	0.4696856632266708
Si	6.698514603871494	1.5441485869305762	12.312307427146735	14	1.152005078866504	-0.32227853879087714	-0.135136524295387
Si	8.291606015814397	2.772962501158702	10.89149082678053	14	-0.7610592589588361	-0.057121218455601815	0.631842190442026
Si	9.671885438718098	4.095500204831255	12.261562221568168	14	-0.5268968703684778	-0.7608368583486433	0.5160848582761911
Si	8.092213569354739	0.0692277990214525	13.72540656163386	14	-0.6219856010867063	0.055033223825109556	-0.8247038858327177
Si	9.427597330881214	1.183836326461525	15.184351703614954	14	0.33268097380566425	1.7081210185352727	0.609982395899595
Si	5.408845767615991	3.0693394073598927	13.528422751021811	14	0.19549553568065126	-1.2389467481567793	1.1821911408777026
Si	6.907344970387094	4.332955651794307	14.956121168095473	14	-0.7820317650552839	-0.08873938613012282	0.1463740543181582
Si	5.434423186378709	5.619167194418207	0.053923949486295905	14	0.9358221726694093	0.20867502155173034	-0.8007854072604441
Si	7.039197301446415	7.046881996769743	1.1560468951856948	14	-0.9502242191202187	-0.7470943004124517	0.012335134883942424
Si	8.371943033235032	8.263243099812945	-0.33974873673605155	14	-0.01616222515298284	-0.5000311337677186	1.3175495515622184
Si	9.430776074788945	9.590811083793094	1.264632131662657	14	0.6841065909478682	0.547907171713132	-0.13113434175404448
Si	8.060376974443807	5.429294594403865	2.4760612660655137	14	0.7417692841838931	0.7934202189603479	1.172563637006408
Si	9.495629004617799	6.900151833400014	3.9174577754425917	14	-1.1008596233959904	-1.0836805260888889	0.7023498687469788
Si	5.636977991468223	8.23450332242037	2.634490517837922	14	0.10051402005427294	-0.3247190319607617	0.6419913715827786
Si	6.785717052721711	9.671410265659727	4.083686419483453	14	0.2305381585310775	0.11764760879720773	-0.1328361563654505
Si	5.39824449283093	5.62763838307953	5.254906081981305	14	0.2089192765571444	-0.1640167219144823	-0.0018586520359350465
Si	6.864481083466356	6.924828061879613	6.632170613756024	14	0.24853898109849823	-0.9527901822297266	0.11219275174998156
Si	8.189181643818397	8.332503669390148	5.346270391411747	14	0.7348941485578172	-0.26351875491474497	0.00810643796389488
Si	9.628890469574362	9.651977326100095	6.739723577726869	14	-0.6394220660363545	-0.693793487352058	-0.08278007821908359
Si	8.221067394562953	5.471552226043232	8.025541873681771	14	-0.4794856882649473	-0.16309626620986928	-0.3620239703823862
Si	9.508901079696468	6.817537262354768	9.408262702988832	14	0.3182215917062155	0.8028294359899618	-0.016210047711937594
Si	5.595195532887227	8.081612294569679	8.127146981784026	14	-1.4546198041688887	0.9138731607723692	0.7478365785183786
Si	6.860597772610005	9.712406230902724	9.376409722800027	14	-0.8467230889049977	-1.924154286402735	1.060241044437759
Si	5.30892834313485	5.260362379513646	10.963946525543339	14	0.571486521493678	0.8463878167712504	-0.9912441476189253
Si	6.676804110687252	6.836970201914399	12.103051043406387	14	0.7253280941036742	-0.16079846938525294	0.9010382030141899
Si	8.12147767563931	8.210957678114138	10.79806197233785	14	-0.07447926469298552	-0.1753583817027195	-0.7617457440793156
Si	9.73442804436659	9.403134111013987	12.007574029229344	14	-1.2131325936319606	0.543134171796809	0.6413992460275484
Si	8.311989301490772	5.538912103386947	13.485673561046198	14	-0.9827312179039149	0.34951297189454567	-0.0022103792437313035
Si	9.721778609847169	6.7549127303169	14.914830267850727	14	0.01458253804428386	0.5404273121157571	-1.018154621452255
Si	5.506731417640642	8.191606664943883	13.694487542283923	14	-0.22283538410244588	0.38801321717950704	-1.3966537205050862
Si	6.932234207479068	9.581291237347775	14.933788034351984	14	-0.847995528927939	0.19169029980683214	-0.3720847055001257
Si	5.492394299500105	10.867273386081427	-0.040946809409375104	14	1.4098668878558593	0.22525299443498112	0.7671417228147104
Si	6.865251191526477	12.422039633074938	1.2467066376675164	14	0.40893070162210376	-0.9851897088110405	0.21037272239462412
Si	8.293899954716883	13.704482561787612	-0.1271825268649738	14	0.6296104710241376	-0.8793203334854313	0.3909769302820417
Si	9.481898141758633	15.085876183586807	1.4171462981222263	14	0.5514085029381096	-0.7061759305738912	-0.37305529775848156
Si	8.240942736625206	10.988376974854814	2.770324471420843	14	-1.0781487929925904	0.29670015462391597	-0.9645558172852562
Si	9.44958637378933	12.30229602236517	4.247490042398828	14	1.1951124877746389	0.42721151755888864	-0.2933698019027282
Si	5.53909234144357	13.763944735195624	2.6177775344055236	14	-0.14385874198345733	-1.381925143678618	0.519118505443434
Si	6.775033851547277	15.00683360311829	4.069611465788913	14	-0.7601485734544396	1.4136255867233836	0.004440555998427746
Si	5.480777137486801	11.056752739426772	5.449792577025365	14	-0.06496437523471353	0.1106670578530057	0.3870714213007368
Si	6.857009396755402	12.52420184062494	6.824271611561352	14	-0.3497122325568571	-0.5281585117490746	-0.3489190465655915
Si	8.206238718086167	13.896599944870815	5.394525034753328	14	0.06700557574837909	-1.4531113366775579	1.2519298015813989
Si	9.435183714537294	15.062723785949572	6.988517636979349	14	0.34646389809538203	0.44667709882719775	-0.1680101626977363
Si	8.161113662818693	10.919706275281108	8.040796567383302	14	0.6826150927516502	1.4453980207171135	-0.7394784293436412
Si	9.401823288783996	12.231478851389852	9.518060450028537	14	0.6669233798722545	0.7917459151758673	0.4517226359074563
Si	5.377222181317434	13.753687551245935	8.228457154884532	14	-0.36343756408740363	-0.36443412450949303	-0.06525311036216615
Si	6.69428720217977	15.119482388508226	9.619288696739668	14	0.01700786169277954	-0.9298050148886667	0.7269669166347366
Si	5.527671802764765	10.914102510247892	10.905451083529945	14	-0.10277325029908707	-0.16229022469200288	-0.6652459907613899
Si	6.906148845102227	12.152272418142585	12.243702268684526	14	0.5793533324417349	0.6838345680049965	0.94041750920811
Si	8.156263620567723	13.725668726079858	10.985755330394829	14	-0.07951374602036748	-0.11658419963679449	-0.6264629238912123
Si	9.500184111867021	15.182385470269969	12.31129153991849	14	0.2218807326970749	0.17148681131164054	-0.81616833039089
Si	8.414249820708024	10.72195235660894	13.561701250385733	14	-0.9713751599258849	0.11311372167565863	-1.5055454301345297
Si	9.596414848826308	12.18034039914229	14.7962336265922	14	0.4370758202301687	1.460721551314664	1.2581235942976357
Si	5.5970306840092166	13.515281758166141	13.748919435384341	14	-0.39571907693452285	0.04212961755488239	0.2529720808914976
Si	6.866889719313966	15.046879222244545	15.113042974303392	14	-0.8926725976340242	-0.0372038939825427	-0.5715466853581694
Si	10.990441519867051	-0.0496146214051972	0.09436281528154912	14	-0.6965396849445081	0.7286821009938074	0.4370472809611151
Si	12.256794105706572	1.3529323941304932	1.6285327679863113	14	-0.7076864549494781	0.3533279779685814	-1.6146492559528853
Si	13.478201874335243	2.72326595336413	0.14168349778426031	14	1.4274686748775929	-0.5608539725527376	-0.089437184114011
Si	14.910127693100629	4.097171503174495	1.4821303101740795	14	0.5838957042108406	-0.4529271987499457	-1.345360426478664
Si	13.561930644275982	-0.0104210367284364	2.8342925962444525	14	0.2614904099276802	-0.2318072561171026	1.5437427992127777
Si	15.041652318602452	1.248607329901005	4.182407718679725	14	0.5335532049318092	0.702890315085274	-1.2223613190681
Si	10.902337880733715	2.8241664945177645	2.81582638807944	14	0.030994931744917104	-1.382255273601725	0.5221410968578
Si	12.387106220645654	4.077066767221993	4.0711680671870285	14	-0.7489946043545733	0.3135036134437438	0.9494174062707563
Si	10.771648904403511	-0.07511011377854161	5.405224621205637	14	0.7151385466093954	0.8883094319057327	1.1172033685845757
Si	12.263249905189282	1.3516707277341258	6.839001976370887	14	0.1337144459428131	-0.7128086109682772	-0.5594306086475035
Si	13.725226323577235	2.656135469910665	5.442222578647161	14	-0.5388591949809988	0.10671295498114997	0.5821198417662143
Si	15.168965927690426	3.87020263405138	6.927613559118345	14	-0.7998361551762454	0.03409825586633584	-0.22852678283912567
Si	13.65909534207414	-0.06767119762333701	8.262866238421822	14	-0.6665114887999667	-0.20619236225459536	-0.9542778237679642
Si	14.925300460412785	1.1970920162623193	9.674474312622332	14	-0.02290469174453916	1.2444645972843493	-0.01625298517078407
Si	10.86958371026179	2.7103379691208342	8.097391317163208	14	0.06459850694765645	0.9071579478972065	-0.4170379109175947
Si	12.303656000428788	4.011738664334767	9.572181022849332	14	-0.7444553179118518	0.07431702794728418	0.22100115756705224
Si	10.941236530408727	0.19701658116779763	10.880529075882222	14	0.5957649548107722	-1.1834975194908697	0.4058461465695221
Si	12.37278548778299	1.448982893033157	12.501246066322205	14	-0.2116500475176737	-0.26156522909249647	-1.2736965221112406
Si	13.79001371229459	2.787430701522238	11.042972720733982	14	-1.2023694325407566	-0.7464942044307292	-0.3685676905326951
Si	15.112731654023769	4.06284434602658	12.401099247950816	14	-0.9218173619905627	0.8228701735183881	0.21565865782231652
Si	13.799402476516908	0.0579711131213962	13.775856832210676	14	-1.1560072614078465	-1.4957832003444593	-0.43570027888388957
Si	15.042422426662572	1.2963540296284635	15.188628261140305	14	0.10262849706956273	1.057948389823783	1.034772446467968
Si	10.756000964032982	2.5721445355239276	13.782148778914639	14	0.7672851904915746	0.8122885324627864	0.07138416810859126
Si	12.316223508558835	4.021225740224334	15.010667758141016	14	-0.7363586501481734	-0.6870898444508359	-0.7587861447452932
Si	11.03233867539317	5.406142196766631	-0.12302066628474921	14	-0.23030444505747608	0.6614646661670481	1.0525125589559259
Si	12.292382929250856	6.908524710394087	1.230894844518238	14	-0.9044937685644688	-0.972664312133407	1.299643859891643
Si	13.652229910644555	8.139091849354827	-0.035457741321283605	14	0.6256221724515237	1.4303989636109657	-0.30489066773177975
Si	15.12046550518072	9.53398694012294	1.3716771520193787	14	-0.6816421864985062	-0.5793813574897246	-0.2010959172889978
Si	13.606908232042583	5.461442509594419	2.6935266740211867	14	-0.6915278293439435	1.0944362309746645	0.027607500485622015
Si	14.85933333168844	6.782931555482979	4.1501942623776715	14	0.7052577888640663	-0.11525056730723368	-0.6189601814564881
Si	10.750659363445763	8.224786852640555	2.6083068437938315	14	1.0387311773294001	-0.13332080971829843	-1.0459392710944353
Si	12.1209273815679	9.524483478955498	3.942674718092063	14	1.0946414051792124	0.6026989687486795	0.1642841168677777
Si	10.775417518314738	5.457526428182319	5.338077752474297	14	1.021486002615571	0.2747606558165604	-0.5089464414653321
Si	12.242129282008536	6.714424708688022	6.741476802459482	14	-0.17592659597847224	0.10217572542268466	0.29903908913365473
Si	13.486607521885066	8.143335636324426	5.327607559912236	14	-0.17363882646460446	0.5296469246189082	0.8191238159564003
Si	14.948075996658897	9.405968764086346	6.8157021112327785	14	0.4753726910843064	-1.2216241831728136	-1.3286338437079086
Si	13.631469763577057	5.214926003966549	8.097686252164955	14	-0.16953997036322438	0.7703962279289538	-0.0191879018937331
Si	14.930412667109756	6.608592198894043	9.50931071164334	14	0.5303863745089828	0.11600184428178095	-0.5806661388182026
Si	10.953967891317523	8.282872662707076	8.05834519998732	14	0.10249274270865891	-0.979556417054596	0.807781899057631
Si	12.297544291781449	9.660907302541917	9.497693549630037	14	0.18124724132798667	-1.0835051767060548	-0.11397761306322839
Si	10.809023723236159	5.512253256284485	10.880103058657474	14	0.9765042579290482	-0.6204401096787654	-1.139467597993866
Si	12.316190738003085	6.767840714560196	12.06846172181247	14	0.12158885614246273	0.30261806773930083	0.3216213642710473
Si	13.689375335586954	8.125918085943407	10.74322044729056	14	-0.6194422637040159	0.32556903937960263	0.1740365764576314
Si	14.986089841328665	9.322207223589858	12.292087994249108	14	-0.11246528891391727	1.488745056641086	-0.1976971731662941
Si	13.492080204695284	5.474124714669592	13.599256307275006	14	1.0022515637155431	-0.8459180758292594	-0.32389653536884633
Si	14.887401312688143	6.685947095741446	15.024251153499307	14	-0.32149075212078376	1.228192328823664	-1.2129613580176386
Si	10.993833272387157	8.13271797626149	13.383544124051944	14	0.6411557623537304	-0.06943732716017513	1.732353171956604
Si	12.25554882458808	9.574524117585442	15.004670746438803	14	0.1310597796997602	-0.960750581411437	-0.29420078314220005
Si	10.922508157797715	10.943497698755461	-0.06801528845870991	14	-0.3532804125201587	0.06516440722862105	0.5689660669483367
Si	12.16697001239637	12.243145169236781	1.5401014232954757	14	-0.5952237371408811	0.2663737102622374	-0.19911025265024748
Si	13.373254169546508	13.791275378690957	0.2045374237123767	14	0.7493758992735513	-0.4233039516933275	-0.7933695681855409
Si	15.098935250053103	14.9232031448448	1.7935980572980539	14	-0.21300836245830793	0.6831413980106845	-0.29881206053388565
Si	13.752245646792945	10.896816042089872	2.642486533440873	14	-0.6482602405743636	-0.13612228607513177	1.0435954514845882
Si	15.07381661907088	12.19402210616783	4.167333263034817	14	-0.2645659661116413	-0.08675732103882067	0.6114250430947301
Si	10.857573301579485	13.774775403870933	2.9025864344270356	14	-0.24708707792421059	-0.9443029635679177	0.14455165486723723
Si	12.33092110281262	14.962904673135682	4.331022189005068	14	-0.014723691726359988	-0.03864139896703749	-0.7532626391860191
Si	11.00464755578459	10.950985770744293	5.4668988071267615	14	0.03715118632347966	1.1453171197077348	-0.03902037989122732
Si	12.305917168775522	12.340277096479188	7.009507177937096	14	1.23927353564297	-0.9295785005099617	-2.016763700260745
Si	13.856374087687934	13.723030696341999	5.637780870084093	14	-0.612778215824724	-0.9559387578047799	-0.1109833038073839
Si	15.229099897491308	15.158479349850488	6.8866012085974715	14	0.02355543850106864	-1.0394333461923329	1.1129461323954744
Si	13.738826104213402	10.76278446907319	8.068356604768883	14	-0.7491067045465317	1.9494133392889337	1.1633588228497458
Si	15.05515378757137	12.275882954430832	9.396481688196777	14	0.5481185165704481	-0.2892619469327276	0.27545254025821225
Si	10.887017645920682	13.592161481955173	8.204190558351804	14	-1.7789943080167507	-0.14990263925952943	0.14367156551615054
Si	12.291088492298737	14.847552316896385	9.522631942555634	14	-0.10829624163729716	1.8065953807390724	1.0251691109866832
Si	10.933568220363274	10.977939552848502	10.830259043362028	14	0.4771770927979863	0.819206348437177	0.4330494692988168
Si	12.428872293948771	12.3463396492929	12.331084955591368	14	-0.29871024476320773	-0.7287713183484165	-0.8790637371744805
Si	13.786638345052362	13.625652989931467	10.830586748919526	14	-0.23633728658067152	-0.1932748720156394	0.913246068184785
Si	15.105423820091563	14.939031323271953	12.418336560275211	14	-0.5925880970771973	0.7418045083267792	-0.8891134165393431
Si	13.721736259389884	10.845808672065308	13.73292740417844	14	-0.5862714055266574	0.06697163715815314	-1.1429352477391495
Si	14.900689773044686	12.293775677870222	15.105210811479187	14	-1.3030462035617951	-0.6102523619582105	0.048222365832037296
Si	10.877530570031116	13.690079902535576	13.470205858732292	14	0.12020740125394719	-0.2970930195168347	0.5502833872500128
Si	12.12590850604187	15.013109164544375	14.967459780384905	14	1.1680914564125424	0.4143763026901774	-0.04842933981030922
H	0.07433181307948385	-2.9698348918812	-1.6126308558087206	1	0.1674992840706229	-2.6849551492768957	10.258964509706997
H	11.751578640350843	13.62035890665009	0.44425076196658875	1	-0.18847693237771104	-0.08783307150477063	0.06466741257023642
H	2.247360473071022	14.199524408110817	14.172393665005558	1	0.5845659913678032	-1.5979851510414096	-1.473188069680466
H	9.572008977431645	12.52420184062494	6.824271611561352	1	0.17560057982387745	0.17213601540497794	0.030975905565548013
H	17.645412247786	6.608592198894043	9.50931071164334	1	-0.07030327543200102	-0.02865728278783847	0.015033767027969849
H	12.184428525972077	1.242823326811165	3.9551602998327366	1	0.13013880977408315	-0.1926711764864686	-0.12242395115044681
