224
config_type=interstitial dft_energy=-23339.136065687246 dft_virial="-44.882390093590494 -0.411069373967617 -1.819879946885761 -0.411069373967617 -42.55565761763786 1.9435998555556258 -1.8198799468857607 1.9435998555556258 -42.835025153344006" pbc="T T T" Lattice="16.3199774331 0.0 0.0 0.0 16.3199774331 0.0 0.0 0.0 16.3199774331" Properties=species:S:1:pos:R:3:Z:I:1:dft_force:R:3
Si	-3.6165559591072594	-1.5933193967935528	1.4367781732552578	14	-1.5915766710309405	0.5117324911902444	-0.3343035983732097
Si	0.1320938973435114	0.13135949835902191	-0.1578305017555101	14	0.10976665676988984	-0.09291768938589545	0.6536996709896689
Si	1.5608752816565503	1.4271493865697287	1.236254610534758	14	-0.40523062395587867	-0.02277150848895549	-0.008710904824661692
Si	2.8265874514580536	2.835285999429896	-0.1605232980319716	14	0.10999574225391504	-0.9348304973474281	0.6112260395429507
Si	4.010324374613096	4.106481681648921	1.336296072199661	14	0.1374610606153329	-0.40077309866233796	0.718152396265673
Si	2.878109620214351	0.0738152579299113	2.5837135472986597	14	-0.7499040043063097	-1.0066131867806425	0.39851258286486374
Si	4.1596848080808275	1.4006294232409413	3.937357755509706	14	0.32678645774869275	0.6306301713941082	0.882078615272886
Si	0.14260396281042778	2.6022530416626615	2.7372845349441306	14	-0.2552647355054736	0.2035582648541036	-0.41959590360061005
Si	1.2669851280412854	4.107118160768812	4.108505358850626	14	1.2616542361232632	-0.5380356699469553	-0.5266886108375458
Si	-0.013725101021237099	-0.020889571114368	5.590946828963697	14	-0.05111588775933194	-0.29452294263881457	-0.876332451992887
Si	1.388683199759912	1.5005076851315133	6.6594973513959195	14	0.06725882962241367	-0.5134379053490987	1.1077789820335728
Si	2.840965351576615	2.874600825066234	5.386392231817221	14	-0.5219091831579227	-0.9113439644689395	-0.5429122854076802
Si	4.060345105445547	4.103805205349893	6.894945665823253	14	0.3126356082876618	0.19395981447292682	-0.4728496654336451
Si	2.7242122330202174	0.0179193352215438	8.115043498699244	14	0.2323731563980672	0.42560663361805223	-0.4933364897351169
Si	4.069973892131077	1.4074838137628434	9.506811174194011	14	0.10762466892767449	-0.7176016655060972	0.14677463252703726
Si	-0.0930075513912369	2.700107626351529	8.173256858203109	14	2.471994352267011	1.7200512043312919	-1.2561425576484617
Si	1.344782460464873	4.133246444639205	9.559394141483459	14	-0.7718514735401577	-0.9642832801213206	0.3928903468612959
Si	-0.0245778860142486	0.047735933991817504	10.832923580475418	14	-0.7842467722885915	-0.4245349969206144	-0.3387302704029087
Si	1.464440535004362	1.261517935601197	12.045824303303409	14	0.16154614681235202	0.6775518150446826	1.2103673698601414
Si	2.803151963864122	2.793082537787899	10.923842174755217	14	-1.06869920960945	-0.2826596055811194	-1.0531468506384065
Si	4.020850760057446	4.0636743808419	12.316605368873404	14	-0.05328307243368476	1.3900107556894197	0.2799136650992012
Si	2.7864239869951946	0.0655736693261958	13.611057018934597	14	-0.44119036007400175	-0.6531394271404086	-0.8953486040512342
Si	4.1475917048029	1.3446355806679753	14.90425203073344	14	0.22759012917099572	0.336948494416046	0.46773110896229425
Si	0.2222291327065227	2.762107220619876	13.459101709055004	14	0.5585556615070572	0.7245590765024178	-0.5005918918380429
Si	1.3933180733509125	4.139676515747847	15.010544043755223	14	-0.4089494706909409	-0.2837497542368621	-0.839277682118913
Si	0.0583765592781987	5.420794744246196	0.0186863741608995	14	-0.37962061519347967	-0.4043124822460538	1.057309213041194
Si	1.366112670969935	6.796895241405188	1.3462675784112852	14	0.058466420759103285	0.5414827508496779	0.2517047830791965
Si	2.7932294175847976	8.225513425943896	0.0622933538621427	14	-0.012033544229889054	-0.8021336948903298	-0.25749851180761824
Si	4.041054892119623	9.642936105963498	1.4216332341973412	14	0.320331183621397	-0.5565057192353032	0.03477574211819486
Si	2.6748116613302235	5.400704852026051	2.7356851771556867	14	-0.10947972141616133	0.5151394628499727	0.03709153668005224
Si	4.14338115062516	6.791232209235903	3.9871826466129603	14	0.11110260309423879	-0.34705319543476004	0.32565568562889163
Si	-0.1434852415918152	8.107046709757023	2.708577694639308	14	1.0740550791018506	0.5445819612025845	-0.057343619065794625
Si	1.3796745722168409	9.439899266718301	4.1037562454175935	14	-0.3517824865606404	0.3803654644047266	-1.020183737770916
Si	-0.0104937454894833	5.469819956455229	5.3406146951173765	14	-0.8202885266664274	0.7241561842987507	1.6813059327093203
Si	1.353758448053078	6.830644954736839	6.818192811955384	14	0.02039272184675449	0.1503798364069489	-1.3487098053792208
Si	2.835383919294495	8.180551888115707	5.367493697949692	14	-0.7371448941550748	-1.1245261336468895	0.33760592604640793
Si	4.1213818210453415	9.391494213651725	6.801562754951055	14	-0.0901853757621741	0.7072529665925011	0.6412454939294037
Si	2.5555615862265624	5.398942294463276	8.123725726693651	14	1.3684073003474073	0.836414756344928	0.7580690634715038
Si	4.206702663065588	6.686327394295937	9.503955178143217	14	-1.4174634756347686	0.13793800065222034	0.37557138142477847
Si	-0.0047654334104652	8.178495570959134	8.146606335054859	14	0.9283999058312058	-0.1759834174060475	0.49312823020418506
Si	1.3596989198387266	9.578537475012485	9.514759003203931	14	0.17690618710544864	-0.8174425701875554	-0.6531512542248812
Si	-0.0272054023809777	5.578037726814115	10.860226902720994	14	-0.18130689097141411	-0.8752698141640698	-0.21495828873310818
Si	1.3697846658923822	6.829094556880695	12.157877268359075	14	0.7043561022282904	0.21258310163835542	0.8298432682571615
Si	2.726072710447591	8.249895472228948	10.847448360390876	14	0.6139465260821994	-1.0804149652217687	-0.3208163511953089
Si	4.045657125755758	9.649317217139838	12.260644166255304	14	0.3026540632137829	-1.1757006426075207	-0.011997034534342952
Si	2.6906583594177635	5.534952986390731	13.745827392577137	14	-0.02420772792079021	-0.17324930400860203	-1.704704276675328
Si	4.186384291161379	6.780248864423427	14.963705708522225	14	-0.5950093069571806	0.7939886903466327	0.9879068529133731
Si	-0.030942677213157598	8.106965109869858	13.510819717540498	14	0.18955911060696137	0.25403806115723093	1.491435204137557
Si	1.4688795688661656	9.542241845201271	14.99595398393003	14	-0.9436527310324523	-0.1485494665295355	-0.8410859404905731
Si	-0.0462344960679723	10.884984308487008	-0.044896257918458096	14	0.4419989726971883	-0.495559981615981	0.36310074929046426
Si	1.2832724655195191	12.323720879034235	1.3029543583038379	14	0.1274915997364587	-0.023008050178409116	-0.03011715638861855
Si	2.793996456524153	13.569163636863829	-0.061509994945353905	14	-0.46556855227751776	0.6494378068109915	0.6866653549624795
Si	4.222222961604466	14.854851459043447	1.4020166213227547	14	-0.8096827172208164	0.2722283741867466	-0.8269813709253048
Si	2.629115724517544	10.995356315867062	2.7307402239934575	14	0.023594005080870863	-0.33585140377593886	0.2615631722082403
Si	4.119064384249842	12.221443580460997	4.127599732447353	14	0.055488052356243746	-0.22333983496625892	-0.5483463165018132
Si	-0.0196982127617517	13.655887996943324	2.801373086323914	14	0.4600044232541853	-0.3221530688512539	-0.26863808271769185
Si	1.4084466924313963	15.048226871648248	4.065616458156439	14	0.4747959921609972	0.12598364646619184	0.4249497162087544
Si	0.0754146157183551	10.84925987788595	5.431761769081239	14	-0.6699140895806507	-0.02220457976586284	-0.7074108324591583
Si	1.3929753538248173	12.248534742999944	6.627673395401375	14	0.3861625355700644	0.1417990295114867	1.9432334305414258
Si	2.836738477421442	13.592386964751132	5.455719495953031	14	-0.44204525259295097	0.8614524370630622	-0.4961544211659993
Si	4.218420406862554	14.930380314603834	6.798380359351601	14	-0.23556338387930695	0.4317623739755508	0.20536806588895584
Si	2.716101204235967	10.837950133524812	8.137075468233927	14	0.6234665577511116	0.925153628253987	-0.3828344968436648
Si	4.105567762912668	12.306992902165309	9.639998510025539	14	-0.8255317817458052	-0.06739535531491353	-1.913692715965584
Si	0.16646376981762	13.534826404344587	8.302625319315293	14	-1.083770771885626	-0.8014996603183812	-1.1739198950627863
Si	1.4198053967248339	15.012355561250295	9.544412402199873	14	-0.659866981321108	0.8124325143607148	-0.5604863044919564
Si	0.0551941636787442	10.781874691064681	10.894759974969434	14	-0.9248674642318543	1.004955595180743	0.21495520340672405
Si	1.376116817136425	12.32026104381842	12.130704505932961	14	-0.0662018482253008	-0.9135198909013807	0.14832449481402252
Si	2.6834122894374675	13.694664263324368	10.837329974382355	14	0.9183633391034758	-0.49774027892746664	0.7121403806955706
Si	4.081756915837775	14.880734943252344	12.29842491401293	14	-0.13463541586849012	0.2803818633780002	0.18041214632000258
Si	2.7523478741148817	10.984372971054585	13.5619502068384	14	-1.2760881642800423	-0.15406114500433693	-0.026176423264427595
Si	4.077774841344098	12.242545311281996	14.883493019438538	14	0.6472114867142752	-0.198980668942112	0.709541764548497
Si	0.023288607797033702	13.626724197270374	13.4569801119887	14	0.8702577014529732	0.5489366422833192	0.6475441877427023
Si	1.4333346580168738	14.984774799388356	14.893431885695296	14	-0.13034372686809895	-0.6171856045645219	-0.08296854023905045
Si	5.457204613899443	-0.0967448262234168	-0.0651493499129352	14	-0.09530624622831303	0.3764206175120234	0.23392430423771254
Si	6.739351000976078	1.339853827280077	1.3139377031163142	14	1.1023871170666903	-0.3558715724618039	-0.8793576145125733
Si	8.27138888250834	2.7158400845970374	0.0591762381724206	14	-1.5561193288923745	-0.005843093950568524	-0.8422275112527189
Si	9.339253965888373	4.167714236977913	1.4647179746207248	14	1.0749043151890953	-0.18395692922489074	-0.17486318681805899
Si	8.206043692866208	0.0782869317465807	2.662767517984596	14	-0.4709239075488542	-1.04209109776177	-0.3047343445283147
Si	9.48043809066212	1.3946889514552927	4.0084802171631555	14	0.7750663836324708	-0.34222183142766976	0.4769284669135281
Si	5.542329616190493	2.7870115061827865	2.5659900518063132	14	-1.0818825521385094	0.05424106627597193	0.6659602438193271
Si	6.783610779774645	4.1277302922668175	3.993645357676468	14	0.5007888385055662	0.2833584320071356	0.34815671383816754
Si	5.512676217194549	-0.004161594245440501	5.322907519602462	14	0.19224694410864418	0.31947757665510784	0.621371878246787
Si	6.921938908497601	1.4086425321605935	6.773818793314786	14	-0.24356337808294767	-0.3472539987602636	-0.8286970695054396
Si	8.268500246502683	2.8256408927669336	5.311287695670096	14	-0.7699223732184506	-0.05103026995217101	0.8831672212654367
Si	9.621067336203144	4.083176753874454	6.8031784327169325	14	-0.3849109215002164	0.40846893110660515	0.06992917960791947
Si	8.261009376860889	-0.0522728877182193	8.118340134140729	14	-0.8122653925149051	-0.012459833491969606	-0.23815660070520828
Si	9.554906147689357	1.3342560750205235	9.432457357008806	14	1.0250364419521634	-0.04956679680394272	0.8614814905531797
Si	5.420011385329408	2.650690734684102	8.088588815280188	14	0.7009835833798521	0.26565302944099983	0.39562626003246554
Si	6.89266086898262	3.9929109586919784	9.436080391998956	14	-1.680133251572801	0.43279133032467393	0.03564554704800095
Si	5.33805245866038	-0.1387687681136493	10.844021165129925	14	0.9067784527519526	1.0665916745785247	0.07333692259924372
Si	6.864313068181325	1.3166468193702088	12.199950170181605	14	-1.5473703717089744	0.014471466294453464	-0.5390638549644825
Si	8.116447016758489	2.6554235281397007	10.761637919047637	14	0.5554351109799934	-0.6042280050825717	0.41402586103504124
Si	9.291338512144792	4.053376475081614	12.208893517814944	14	1.464483335508573	0.03923892384343991	-0.2669815195599204
Si	8.190490754372464	0.0580501597295367	13.601885191617196	14	-0.3187170437014081	-1.1948173248838856	-0.11396604308928772
Si	9.48696608163536	1.397806067145015	14.86092249064856	14	0.6817645711117452	0.637069247557887	0.739457346280016
Si	5.38490711387081	2.738149493748085	13.514834431989039	14	1.6040136216855607	-0.6096070145228534	0.6388430531182573
Si	6.736707164631916	4.116322628041081	14.983926160561836	14	0.19512966739359422	-0.964293050321537	0.15725445781196085
Si	5.369044095805837	5.389917346942771	0.0895640361528528	14	1.3317865330514742	0.972799038052183	-0.6020561924186425
Si	6.920029471137928	6.843945736344816	1.255348984131485	14	-1.812235614479881	0.5466882106808497	-0.2939642414527464
Si	8.286289021904762	8.16277943269106	-0.0430031405362185	14	-0.768088660904121	-0.12576021741387097	-1.0116692653927137
Si	9.611699669156543	9.284255641938826	1.391098556420011	14	-0.1686390550590445	1.8011338388180136	-0.12683622499035294
Si	8.106752950163228	5.6560308989669	2.720850317668999	14	-0.11580875427223783	-1.380226671504128	0.5357867241234218
Si	9.589635059666994	6.755181379086185	4.030740666381904	14	0.2797437150375394	1.1135855662885954	0.9873029002736703
Si	5.507943423738951	8.193689469949351	2.6381569920154813	14	0.05702325934290416	0.16924686435672753	0.3045520531611162
Si	6.872048737484614	9.480748170233351	4.171271992058329	14	-0.09300382141412042	-0.14062454860124307	-1.195206333118824
Si	5.448489745950167	5.374005368945499	5.4617252476484115	14	-0.4378412382839768	0.4806573409593387	-0.3274536595792712
Si	6.830187995368712	6.767388722206144	6.744475473890072	14	-0.026831283789469307	-0.24916427391235826	0.05895467365939941
Si	8.207545130790052	8.10038815896432	5.443006233532645	14	0.4666615291491127	0.15510912753282927	0.16436330691163825
Si	9.460250278577377	9.561401498707731	6.897263102618753	14	0.9737580603365982	-1.159209573084091	-2.3963953712071007
Si	8.129209239111173	5.429591212082637	8.143211779748773	14	0.8071506927015347	-0.0077588245246108575	-0.24690992876765241
Si	9.44789605566052	6.840795980700228	9.53976120863144	14	-0.48648346561479433	0.17484416063868988	-0.5131514842164342
Si	5.499228555789675	8.061154933215146	8.158421998716422	14	-0.5504039720895276	-0.3915927100062172	-0.6473719236862525
Si	6.701488653331286	9.459711719322085	9.4610009975393	14	0.41498848286690465	0.8144302631944699	0.4464593262065812
Si	5.482696418649946	5.305314583929581	10.941043430969705	14	0.22619633297694344	0.19049267894870714	-0.4432426163405439
Si	6.760566971639108	6.847323971673468	12.22172102007736	14	-0.3970709641118567	-0.7111918999429679	0.6064088166151212
Si	8.015230516718404	8.184517642631949	10.869561929812726	14	1.081078053283835	0.12580264065165342	0.08142304883110944
Si	9.54444504215474	9.490719676444973	12.231202926965992	14	-0.6320170256037961	-0.716781225798438	-0.7027645880351187
Si	8.12370940671622	5.4447524711179875	13.643664333845932	14	-1.1606810166588117	-0.09548005294795503	-0.6079267971961367
Si	9.465619551152866	6.65202280173156	14.98204936315703	14	1.2791169263471769	0.6688221411511839	0.40689644309280265
Si	5.3977835760655255	8.199776821531898	13.625712358669523	14	0.8041288726187646	0.40593742080838735	-0.51453679576293
Si	7.002135277603855	9.568484368913696	14.815095994016415	14	-1.397184653753697	-0.6358644276048657	0.8132768653478514
Si	5.374837687794587	10.760952479995446	-0.1216980717186267	14	0.8484503574590732	0.41541142969206907	-0.09245077665975657
Si	6.811828020756475	12.031919682530408	1.2939457307607665	14	-0.6973809506052606	0.4479353977708782	0.3557661571436778
Si	8.052211585581807	13.567629558985118	0.069523103865006	14	0.2230840099869042	-0.8131064010651257	-1.3528204885650736
Si	9.441074305093483	14.856662976538523	1.290730695206446	14	0.9451966797772012	1.3856679016931577	0.4580578394163012
Si	8.241131644347373	10.760381280785287	2.658850723400652	14	-0.4914860652362064	-0.520633657808597	0.056785689211322495
Si	9.47133154325445	12.13894609453668	4.042295210404539	14	0.031552347378325206	0.4597344571955697	0.15348341763889964
Si	5.523333162458364	13.523581939893182	2.732731261240296	14	0.6255774352189531	-0.5950293615786779	0.13953208595071215
Si	6.920878109964449	14.944235975444537	4.027476670895284	14	-0.3411977601786548	-0.19554541512386214	0.02465432891489993
Si	5.4207131443590315	10.748940976604684	5.422557301808971	14	0.06995309088739685	0.7595798449576229	0.5898012760206888
Si	6.7218396651903625	12.140072172979563	6.902811894946008	14	0.7619599171524839	-1.2402230448377007	-1.6481389311899424
Si	8.060893813576216	13.414238091091411	5.4365108825142725	14	0.08011461333368608	0.43488986648697886	-0.2363547700968485
Si	9.435068553398104	14.7929497846397	6.726360298939331	14	0.9245069952659696	0.4747993345979134	0.20401000805885364
Si	8.152236727269278	10.760267040943257	8.132358994755762	14	-1.48849925897248	1.567033928086935	1.4406401903221795
Si	9.401400439953617	12.208420238469385	9.52970810253265	14	0.23369727563794343	0.11093805235374932	-0.7001325475188831
Si	5.5736150129297455	13.509350919571517	8.173779097480969	14	-1.5123953689284682	1.054598753812694	0.9012989130936531
Si	6.836389586793291	14.946651332104636	9.488549119446372	14	0.020300162055229158	0.5683482303399052	-0.026479556581673055
Si	5.360606667472924	10.874996482297949	10.828060227200353	14	0.8039908042630726	-0.3966809274347902	0.1184089130825036
Si	6.713124797241086	12.308722819773218	12.059223004775985	14	0.9551640837718193	-0.1112833517982452	0.23884205738355974
Si	8.23510957267456	13.70683896648946	10.848264359262531	14	-0.3285592348669349	-0.20060149373593333	0.5775874973078573
Si	9.618603019610745	15.02727202062415	12.298898193358491	14	-0.7732781798823078	0.548984207731742	-0.933245410917557
Si	8.134790671393294	10.89169181921201	13.32741581114732	14	0.1907433617174216	0.9717274013547452	0.8678794290318362
Si	9.468198107587297	12.176090363174414	14.948577089441741	14	-0.3421783797477593	1.1577460999358626	-0.5424921667983681
Si	5.495556560867228	13.520954423526451	13.607988863177175	14	-0.25416944463909047	0.4220006584065445	-0.4679733070834522
Si	6.822517605975156	14.917960811777245	14.893954124973156	14	0.41422769280267285	0.2657461034535893	0.19622804358636145
Si	10.83284198058825	0.041926022025633905	-0.0933992308496313	14	0.36271688326616613	-1.1487634292788613	0.0693100574468278
Si	12.236572199541483	1.4588754226996752	1.3041130767015878	14	-0.11118050758543928	0.4952699609358684	0.010091845492113225
Si	13.754950259962241	2.8852577703300484	-0.08582676132067289	14	-1.2295964094389968	-0.47618284637068503	0.5627524767211348
Si	15.059716135761152	4.019169802381836	1.466333652386602	14	0.11618207876472333	0.5726756577042464	-0.17023879678924064
Si	13.513773633455887	0.0725259797126964	2.8309285654552587	14	0.39666010148169706	0.8300044765607348	0.27261352576370473
Si	15.025150423557847	1.4161170818249533	4.139839715522177	14	0.2887613527268948	-0.8138692480136136	0.28201348681416616
Si	10.76855758947927	2.842483109477893	2.7767136004225	14	1.0526082040738354	-0.12188196214895962	-0.3799126927578485
Si	12.162822221521305	4.130178288881782	4.229289511832999	14	0.7128034687576369	-0.4876384061246048	-0.22516480552250004
Si	10.816162963651625	0.0415996224769719	5.453108299563735	14	-0.5887792616559299	0.40409933761501354	0.790593031550313
Si	12.342439893150003	1.3660147511053362	6.815875375159885	14	-0.5809823847725808	-1.1007824902363859	0.36754079106782794
Si	13.690910668514755	2.7022781833501313	5.542231696325894	14	-0.6125406456931425	0.986255431966242	-0.7253545764884717
Si	14.940270220928292	4.162557124109052	6.893444227899408	14	0.39166495806571333	0.2855330728869168	-0.7495512486563852
Si	13.614500534172983	-0.0731950987874535	8.28212742765932	14	-0.10894261751478239	0.17342671027569226	-0.814015029685266
Si	14.934705108623605	1.511572629831155	9.405855793792853	14	-0.9210817687584684	-2.351030788938408	1.9592719855285092
Si	10.991651680989749	2.7318989423912075	8.16493366971223	14	-0.8947922168599542	-0.6719411490150555	-0.7485022376857648
Si	12.216155907772674	4.03619153884456	9.511250208055815	14	0.24679345769664973	1.4921705402591192	0.7575532997442822
Si	11.011088774112569	0.0527298470863461	10.961198603099584	14	-0.38352946661170084	-0.6112129269058179	-1.0809623535444284
Si	12.369628975553546	1.3724937821462768	12.302423308484041	14	-0.5888921331794844	-0.347730167465555	0.14656765854876536
Si	13.545613909427866	2.6705031872878853	10.870981767849408	14	1.123218726591594	1.3880446314511026	0.21931836913501535
Si	14.971245538096316	4.132789485271078	12.346634127350308	14	-0.0607256510039174	-0.44771016894483323	-1.445127797547966
Si	13.751294585017225	0.06374583185368861	13.678148446162071	14	0.12737924243396823	0.9962619167617262	0.07514878051835208
Si	15.130479557911073	1.5929603572900248	14.927818078146837	14	-0.5255696658022174	-0.9386550165111484	-0.3997580262819435
Si	10.850744995832363	2.710258652314917	13.484071274527647	14	-0.09322467936112114	0.5989122448331654	0.3104326852493589
Si	12.190680422999604	4.12384613763774	14.898686918428755	14	-0.6694116956010937	-0.7843218485639398	0.9869719990189673
Si	10.858088985677258	5.38069655969307	0.13592909204028988	14	-0.15513612413869082	0.045266108934931035	-0.6904248251616
Si	12.198726171874124	6.73035869341044	1.5023355226040205	14	0.9017496278562749	-0.09576287453317132	-0.9832559804997573
Si	13.497208856361292	8.143489219365136	0.02121597066303	14	0.104959975373873	-0.3438148882840335	0.30660713764351055
Si	14.84564699177118	9.53961432883454	1.3713840236808261	14	0.36065948478898363	0.01689319039550094	-0.44941506888262345
Si	13.624015081016479	5.368179137001882	2.7934905372237266	14	-0.24967798075532383	-0.0014251636789580802	0.209590335045703
Si	14.852778821909443	6.869274341320987	4.1377344384333075	14	0.03379049455951411	-0.5939191583014378	-0.15334226395682352
Si	10.995796955257756	8.176243414073367	2.776060801325176	14	-0.552561129453132	-1.0821103520698745	0.15522688415649208
Si	12.237224998638807	9.594335213167726	3.9906424818287776	14	-0.16198452026943724	-0.2207813280621796	1.4570183883220549
Si	10.919354180961115	5.602109693527938	5.566238383129984	14	-0.13619890501367218	-0.8206556805061445	-0.465207569090569
Si	12.284389733420465	6.925904663013844	6.860983792784973	14	-0.5389437843460317	0.3981366872670581	-0.13284849767098722
Si	13.54753966676497	8.297843565927396	5.449060945160325	14	0.4051542621278703	-0.10899969605288967	0.06498031608769844
Si	15.067925084410001	9.512245726679232	6.786842135306399	14	-0.5682176181896417	0.19850861400533282	-0.5343191372066812
Si	13.570877234494306	5.554765438994514	8.188630276945089	14	0.07348681803940837	-0.6276628587441253	0.5207290458159746
Si	14.930282394739235	6.953403824988618	9.502878059632634	14	-0.12171329763995792	-0.8378556037663389	0.1297631712868095
Si	10.769634707989855	8.196741305729342	8.137385547805156	14	1.009245998628474	-0.27502445122240765	0.8109664701071664
Si	12.21592742808861	9.55550998685438	9.484077445629703	14	-0.15679448707018634	-0.6304820757276677	0.14278427707016744
Si	10.722796372756859	5.448848785453696	10.827505347967628	14	0.7940074594154696	-0.5966805254152769	0.7313226261575995
Si	12.195821215891032	6.816854573805871	12.21654758723107	14	-0.6661710744555792	-0.5041053072580252	0.24271208511144668
Si	13.53910223843206	8.152122487427246	10.9181628226085	14	-0.7239548667521831	0.5843438478681424	-0.6860372339327674
Si	14.909866102970428	9.458650920788932	12.17143916960598	14	0.5047578537882789	0.361204044895791	0.7958334584138388
Si	13.489505827012868	5.385755752697332	13.575822187656534	14	0.901839102321416	1.3479724123734025	0.3612510961231497
Si	14.971147618231718	6.709224322634576	15.114730779688133	14	-0.854364413916478	0.8895443337910001	-1.7968308369542136
Si	10.77903501499132	8.140127304013918	13.63302370855955	14	0.7569668306207564	-0.1832095089083237	0.23129072105828485
Si	12.123670595659297	9.570540686070267	15.038842884624216	14	0.6293106801438082	-0.8686170791481868	-0.7647012296448258
Si	10.820683597400592	10.896979491900334	0.0449452178507574	14	-0.44838225587552	-0.49447188984449436	0.2042784314542771
Si	12.266143998650259	12.232475885205774	1.3801315315849678	14	-0.26187530439410633	1.003271006974982	-0.45968560619448695
Si	13.735121487381022	13.548241425794595	-0.2355135943370661	14	1.2131205094369557	-0.5467753711512028	-1.0685477715060934
Si	15.082923143671021	15.098247602480702	1.4184018786655872	14	-1.0460986796242846	-0.24566191424525252	-0.32060783455384495
Si	13.519583545422071	10.934450160086733	2.7267418295223482	14	1.3301250847935948	-0.10929254494885454	-0.17330406855192118
Si	14.968063142496863	12.188101866565175	4.0319973046442525	14	-0.15900512342444967	0.5895395374990976	1.1528802831174825
Si	10.862299539854998	13.56669932027143	2.7111399310963042	14	-0.49485472742666436	0.17125669738548727	0.726296629477774
Si	12.161108623890827	14.98457895965916	4.278265764109732	14	0.46962421380951935	-0.6331837931980793	-1.0305077540734386
Si	10.81435144615655	10.813339607555697	5.372520250999087	14	0.514534738878674	0.3611947889166385	0.9367678252061598
Si	12.316442169099075	12.140741292054319	6.78863733282404	14	-0.7878864289797931	-0.184100911122819	0.02997086049590213
Si	13.605622466449374	13.624667880113803	5.5347245067066675	14	0.1673051656189517	-0.9698088425648507	-0.8825321582513602
Si	14.946504452307737	14.812631677424017	6.93551712972194	14	1.0932404098902635	0.9849084298890163	0.49598575665699757
Si	13.714346156108688	10.775199820294542	8.160413035963261	14	-1.5010418820557583	-0.2953616371942469	-1.049508993720929
Si	14.917895531867513	12.05994108378304	9.464934112100677	14	1.837096917373053	1.6967428490514893	1.507564776252974
Si	10.857224026873302	13.479566960756111	8.14156346202803	14	0.36181802484624237	0.17312614806376694	0.09253716579851354
Si	12.325679276326209	14.796719699426745	9.578814914628847	14	-1.6144916471967603	1.1987598577818008	-0.4779327406515778
Si	10.712759586635501	10.802372582720654	10.772670223792412	14	1.541287393632036	0.6850208759997128	0.730219879085788
Si	12.157975188223674	12.226372213645794	12.2073431199588	14	-0.1871371293953819	-0.08832389551038687	-0.49248159721616774
Si	13.651938562404512	13.550868942161324	10.866069454642044	14	0.4505334996968878	-0.941582477028669	0.8645606462845891
Si	14.920490408279376	14.990878470948337	12.319069685465802	14	0.42367907595953713	0.06581875353259874	-1.7045032162392921
Si	13.478897841681354	10.798178348520347	13.529506091701396	14	-0.0985247558680744	-0.14301130566993656	-0.27804832818943376
Si	15.155400163451418	12.120618759879306	14.680668339899972	14	-1.2813183067222877	-0.46025022092279144	0.855147829707527
Si	10.90491100093282	13.735888526320378	13.606144705727234	14	-0.8307346704716569	-2.003741566035259	0.4328442950942691
Si	12.34332117193139	14.980123605819923	14.766837820746739	14	-0.43140756144137027	0.9104062823586815	1.9568592602960824
H	16.574373241327162	15.331156528419443	1.4068832385933052	1	1.543593160883145	0.40335243151951056	-0.149218211023306
H	14.6617192141024	14.37819551015264	-1.254626009131199	1	0.2512301570370972	0.48244683026216184	-0.023345379196412545
H	11.98630860960038	10.636321708332092	1.3438799657128226	1	-0.22956088139888925	-0.6930154708821812	0.07481659371098895
H	12.259441383918485	9.490719676444973	12.231202926965992	1	0.1895907352023992	0.05757836098152414	0.14179671551669856
H	9.537513947738901	14.917960811777245	14.893954124973156	1	0.3411080286029816	-0.046110717032599675	-0.030133868573199517
H	17.64527873650298	6.953403824988618	9.502878059632634	1	-0.056715755146614456	-0.012312766267657135	0.04133643156361671
H	17.686241879860063	4.132789485271078	12.346634127350308	1	-0.22439964457922396	-0.2731853395869057	0.131889989607636
