67
config_type=vacancy dft_energy=-6794.7677036965015 dft_virial="-14.445882612252042 16.130145253581716 13.997459578508195 16.13014525358172 -7.915796524045891 -0.981297089757755 13.997459578508197 -0.981297089757755 -9.809402544523888" pbc="T T T" Lattice="10.93436990700795 0.0512936934644024 -0.0032475435853608 0.0506048205826592 10.85779567223259 0.0190697508850816 -0.0009403661560304 0.01667509753426 10.911943267635642" Properties=species:S:1:pos:R:3:Z:I:1:dft_force:R:3
Si	7.042724709972164	8.99894874227987	10.907811123794202	14	-0.898329543559414	-0.1027092297766154	-1.6350556046578368
Si	0.08818010265920415	-0.5560986477568007	1.080354966641786	14	-0.660179113506974	-0.07382311861528373	0.019250636863544713
Si	2.7019540761221483	2.108449630886692	1.0358045732753365	14	0.34999865368952165	0.1544388403758667	2.3701351299092366
Si	3.970645795183507	3.6436258102808043	2.5518169651687646	14	-0.012821330899982426	-0.6125239335085615	0.1489652142598034
Si	2.6144923694681905	-0.7332953415744686	3.9086133389070405	14	0.7000101629056441	0.505665968187355	0.6792801120408861
Si	3.911870723533569	0.8282766971296135	5.380917293178372	14	0.9265389398004827	-0.48680896754832503	-1.935476662901071
Si	1.214973849122631	0.8131542972018224	2.5792712831287776	14	-0.0181062378855468	1.1730673165386252	0.6780146140023092
Si	1.2820186757005425	3.1440650374818033	5.2538213399457705	14	-0.7349846514650864	-1.0437242638611277	-1.8688107301654833
Si	0.1964545179339556	-0.30039996854391127	6.760018933447886	14	0.5857965223740261	-0.9853910263576081	-0.2584385079126644
Si	1.4560017228524273	0.8675402644909387	8.360546186890037	14	0.40561166176432467	0.560704334223105	-0.3032050510838906
Si	2.8761405047915	2.198281935013061	6.842334869020123	14	-1.0117697956107314	-0.3722690537515803	0.2852628497177693
Si	4.438032924058044	3.6129348832256167	7.832245200085102	14	0.4864698387565975	-0.32821162142765087	-1.2305258640122303
Si	2.9285188996823934	-0.6386945062778103	9.56465552656346	14	-0.30441475613702035	0.5205446975645199	-1.3255510884290511
Si	4.18419529507488	0.9717404887222375	10.662955085050147	14	0.5810605463743134	-0.8149133738841257	-0.012404297617054407
Si	0.11347923260347784	2.4675054851375084	9.625773859460343	14	0.18820850898228758	-0.12239489766032914	-1.9574531856250366
Si	1.8165392005235015	3.7235099152355873	10.688210477033676	14	-1.3799538772296605	0.5129133998637885	-0.5958004360641903
Si	0.0702759684279928	4.671260132488863	1.0646169549165003	14	0.9496410924336091	1.8891988240226616	0.37836103069713917
Si	1.3000452762218415	6.296106785554586	2.692733020547957	14	-0.09523991171105321	-1.3270973511685882	-0.41451565659852946
Si	2.7960344296859336	7.445352320717748	1.359715882618045	14	1.5780557423733457	-0.06490961069139438	-0.47042871266419367
Si	4.348496944615726	8.878366464851307	2.606538621306603	14	-0.9354321359923429	0.20894755871566603	-0.27500259682718636
Si	2.6836409919579656	4.967783824261695	4.162582181772442	14	-0.45351083965761935	-1.0535268600047245	-1.6307371761621157
Si	4.30804479817114	6.295637695925589	5.1357999201188616	14	0.03902603632293165	-0.39487575438951433	0.9691511538239567
Si	-0.14670477448387287	7.627129472474499	3.9073471249434553	14	1.3456959557229435	0.00018563380411469133	0.7236910713463359
Si	1.3424885933293718	8.755564485914904	5.453033536304735	14	-0.6445383085129172	1.6007483179289728	-1.237866369701253
Si	0.05060810092971512	4.628349912650373	6.6014480502137305	14	0.11392130585671713	1.296809730497244	-0.02949032091156645
Si	1.4850557567267109	6.049835823780411	8.006149518907645	14	-0.8081567662133085	0.6819746304164013	-0.15473837414566394
Si	2.7882578202653665	7.39639423435716	6.5321408776162535	14	0.5787144127696783	0.2142406932382549	1.279397691048137
Si	4.098421873705702	8.914749887497534	7.927338087440148	14	0.2461167427763867	-0.5762158126195583	0.5076475190575933
Si	3.148343703491742	4.849042914980521	9.085098310111459	14	-1.3625055851955394	1.2197511329470858	1.910578078980757
Si	4.299149590404503	6.272360353216781	10.577042795655602	14	0.12638293912241083	-0.023720246352090135	1.2454254193424885
Si	0.16830695329612472	7.717673611912002	9.470577359897712	14	0.7565140589738784	-0.46297559256214843	-0.9168620707070413
Si	1.6616193435625861	8.918517912815767	10.925601539327475	14	-1.1133089153561473	-0.22778296207000684	-0.4313533111191152
Si	5.450933020739928	-0.5374061367831499	1.0821033916225915	14	0.727616634949138	0.6602076527760277	0.9935632846176987
Si	6.965493312336603	0.9386877117867877	2.422430236242112	14	-1.034631292785892	-0.10853792553739108	0.5676530034613371
Si	8.366007964738143	2.368607395197595	1.1382093542180285	14	-0.3229894494118981	-1.4488065350400339	-0.21401829262806207
Si	9.938826126598938	3.268176968342537	2.504871918451493	14	-0.1275959866124567	0.4950102792985334	0.6571107564179093
Si	8.299957083318175	-0.455108789844229	3.842497943994973	14	0.35173543533328167	1.6384013840109453	0.16077172988992341
Si	10.12015933805412	1.2155041718966713	5.17221505278663	14	1.340653503969069	-2.4352784540742323	-1.6082777998590263
Si	5.367351964653124	2.2446212109740054	3.883273751349077	14	0.7090995344334315	-0.3254595102929644	0.37548062140697724
Si	7.0418051193474875	3.6163136406932144	5.254008319727958	14	-0.548601884370636	-1.9211301523251767	-0.2503665227600595
Si	5.346054858117072	-0.5843468097043465	6.551638167067623	14	1.03070572918309	-0.1752537377161895	-0.3536226266382704
Si	6.828946679235895	0.6108935649788884	7.959528133099891	14	-0.8264051862230596	0.9672624198557761	0.05793420195783263
Si	8.325342595734922	1.9092746117943598	6.672428199809728	14	-24.317357537646533	13.140656524313114	13.382184101203567
Si	9.4503737023803	3.5705462385690185	7.89560182312314	14	1.6322479576482347	-1.470150308744711	0.611197243163365
Si	8.212383844864316	-0.5205692087941312	9.36026912944829	14	1.1727251024205134	-0.14128326578426498	0.669242002649964
Si	9.731151728284717	0.9842943769052434	10.636177612032672	14	-1.1469472004807089	-0.7956727643313296	0.5631288865400045
Si	5.543646563030413	2.2999377033779846	9.285947399651329	14	1.223794967394615	-1.2989195795229573	0.10940258825655687
Si	6.925295939513359	3.5809777422068443	10.679866367572433	14	0.0796950089454379	0.619444577698804	-0.08767571985917756
Si	5.566444975069057	4.811189896853242	1.276121705143017	14	0.16420878348189738	1.0709913500023622	-0.5708118634576711
Si	7.169948596739947	6.141947969110644	2.685948169387296	14	-1.612123402086372	-0.0944603525779843	-1.2943934057173687
Si	8.299308668050122	7.504423717051736	1.1922804081897764	14	0.7127217076084561	0.6906019743181583	1.006848185806904
Si	9.685386513058559	9.106166885802615	2.553850780343435	14	-0.5720457369008102	-0.5568250505160656	-1.3253137754080015
Si	8.468457577090598	4.690012783158539	3.8140299987946804	14	1.1119022636354945	0.0006060095239589022	0.4581393434549499
Si	9.691345810210146	6.188235852967712	5.247760352035448	14	0.0428364144073911	-0.7468731853549191	-0.0030035652349969856
Si	5.798436586108813	7.5675135385292265	3.9368888370800526	14	0.0531118368193629	0.505490104583457	-0.4815880810852323
Si	7.090822251955082	9.066963458137314	5.199730603891687	14	-0.3546891211250678	-0.7547708495668178	1.6174805571314326
Si	5.790574687664792	5.084337835505589	6.5655490254827615	14	-1.3210598816558166	-1.1804165639857362	-1.2025789776243487
Si	7.027501712734658	6.335517968533427	7.855490832772369	14	1.4144007749774083	1.522101291512027	1.4395803807092145
Si	8.679354369662752	7.682464553511794	6.702361366694998	14	-2.5654830841445113	-0.6162142409745699	-1.313097939810914
Si	9.767601851321082	9.149243309891938	7.95218890328678	14	0.621738003644376	0.5444665185737098	1.5598672291175544
Si	8.321960557920269	4.925301142989494	9.233006971964855	14	-1.0869283463293	1.1109296144928822	1.3142415674573158
Si	9.668242325895301	6.360656361471961	10.676845167933932	14	0.38783966757039706	-1.1979026512680635	-0.3500711588595498
Si	5.70466786551534	7.6773461186555405	9.259757108756864	14	-0.31700674444244553	0.3850657020404893	0.5489397276097033
H	9.110610662614368	1.5157390296387678	6.219635334986978	1	21.44736636624188	-11.262504711409	-12.116919004768688
H	9.467710336570837	2.13592363092904	4.2060096029967475	1	0.13643159004514557	1.000563118851802	-0.7386081101927711
H	2.0962303381033895	-0.06539043821270928	1.7370552979095413	1	0.8210189776878815	-0.9282518101647652	-0.5959091938192325
H	1.97880484799164	4.041191845519103	6.130940217839996	1	1.447503498863783	1.6415957252606974	1.9020476657495695
