223
config_type=interstitial dft_energy=-23320.049249661737 dft_virial="-78.71938970780613 1.1829793574283343 -1.888823707360574 1.1829793574283343 -75.75011152066101 -0.8754047244969674 -1.8888237073605736 -0.8754047244969674 -80.68313544113715" pbc="T T T" Lattice="16.254729908999998 0.0 0.0 0.0 16.254729908999998 0.0 0.0 0.0 16.254729908999998" Properties=species:S:1:pos:R:3:Z:I:1:dft_force:R:3
Si	0.9200014581194909	-3.4015297996769758	-0.9138246607540709	14	0.23874255560767005	-0.34370458786579916	0.04534349920506749
Si	-0.10520061197104799	0.061247822297111995	-0.055314845880327	14	0.6323232442474258	-0.6474611410408616	0.8650707535801064
Si	1.435081339475883	1.3034505366728009	1.2381552866283478	14	0.37662347772178306	-0.23244746134181946	0.37511243912513204
Si	2.742107916728664	2.712979440731736	-0.21865862673586797	14	-0.49403531616113316	0.06372561669146619	1.9674082483141175
Si	4.150856593751967	3.951589859797535	1.2018584747415508	14	0.17988712661362832	0.5370792187678604	-0.17572733531616078
Si	2.7490486863998065	-0.03980783354714099	2.86197029507763	14	-0.33935144944825646	0.39060823377913245	-0.6996396666290107
Si	4.142404134199286	1.3447538053715697	4.1173881048693355	14	0.40629146201097177	-0.0057333077533982015	-0.9547521926995316
Si	0.11602626209044199	2.6412148081835007	2.626553041805583	14	0.555307327045582	0.6983983369804432	0.4864999206888433
Si	1.5248562127632899	4.0978174100589	4.017372751739258	14	-0.9396695746704788	-0.4890579133718585	-0.2114595286134507
Si	-0.06521397639490799	-0.06974904603951898	5.280235227829286	14	0.39479733567724973	0.45071553395355424	0.5218839863257851
Si	1.277768063416581	1.3551243230535117	6.669738304640334	14	0.08157088738701795	-0.24024870910421278	0.052914118820243515
Si	2.7437496444494727	2.618864554558626	5.3443926467801095	14	-0.4888964479577532	0.6273697527376284	0.6315061469766826
Si	4.066624583363528	3.895592315261031	6.793631856006731	14	-0.5510716881411701	0.45257804264746954	-0.062390955919777315
Si	2.6525118454702556	0.109118001879117	8.105437323852758	14	-0.23574233280958926	-0.6668770999764919	0.3214979512156802
Si	3.9945673656769314	1.3736384604198628	9.568119194714123	14	0.4218618187192565	0.08643439021061006	-0.12517631939566534
Si	-0.04353016669630199	2.7260157341187536	8.058184824007295	14	-0.26750268260831445	-0.10414030699780981	-0.6306461122470931
Si	1.105321633812	4.075402137514389	9.490519114128556	14	1.6844110566044632	0.27477453978528926	-0.09047848176867097
Si	-0.08112735697581899	0.12885124398864298	10.904550578372284	14	0.7926388600535549	0.17247925796521768	-1.784876996989249
Si	1.2463639252323928	1.4654614296758037	12.184252954648036	14	0.0994053594402251	0.7865540822028925	-0.25653203331777463
Si	2.640824694665685	2.8663103079633325	10.84564343718207	14	-0.4109803867833258	-0.617863605037445	-0.23267757526797275
Si	3.8996559977382805	4.197507668590796	12.27620596174325	14	1.0344142914968715	-0.6325996380693416	-0.669814587804761
Si	2.64236889400704	0.154403679405591	13.419433625703038	14	0.9541256143330115	-0.248587060767985	0.3114647269248664
Si	4.074069249661851	1.4600486046161067	14.772656145357196	14	0.952036077039327	-1.0268750393666013	-0.5549530287324658
Si	-0.19102558589056798	2.7501052438438918	13.535069774275664	14	1.1419818818864387	0.32161802183413113	0.3453866049662401
Si	1.282091821572375	4.027206863334204	14.92036287604028	14	-0.9772107976710249	0.5940022050032787	-0.6647945046671719
Si	-0.08005454480182499	5.405136572450043	0.031745487512276994	14	-0.13730422319080385	-0.050540731499214814	-0.8607680088268387
Si	1.4292784008983697	6.561969445343664	1.304490839386977	14	-0.438278583298934	0.2608316927446582	1.0526920221072724
Si	2.470816474547454	8.166425070471327	0.10131573152279699	14	1.2082420942025072	0.4045690785570046	-1.3019192880999741
Si	3.9152442837210115	9.453198254257494	1.4135438223464578	14	0.40863965249986306	0.12823953427408977	-0.5629926179580367
Si	2.9622782333460687	5.310761610598388	2.642222601437859	14	-1.2127952646139573	0.2598050503903231	-0.32317662587920487
Si	4.001930758325709	6.721948497108041	4.151734349167053	14	1.2360113172127662	0.06432417000999666	-0.42648646585860683
Si	0.05277910801452299	7.991377884081305	2.6671573571182647	14	-0.13162208043327658	-0.7763185119233829	-0.15523742568830468
Si	1.2290201284194897	9.339090050296313	4.0850574470803345	14	0.7256155436784667	0.343771436604123	0.3427460798024479
Si	0.0065831656131449985	5.416888742174249	5.326805029018572	14	-0.5318048533141085	-1.042601719278351	-0.6806463974080128
Si	1.243779423176862	6.584368463158265	6.765121059746345	14	0.6310636597510852	1.9954019288188265	0.16256430451913065
Si	2.6991629203090857	8.067092415997427	5.45232405337587	14	-1.5302524667084927	-0.537717367108321	0.03441553026284211
Si	3.9501594435655436	9.36106644513328	6.834918869975591	14	1.4627756073549303	0.3028558949814145	-0.2580962937945527
Si	2.6293163458901128	5.298781874655456	8.04999244013316	14	0.08320096815999185	-0.29180579853648214	1.0475040457922775
Si	3.9635695957404686	6.671315013441506	9.496370816895798	14	-0.724923145015751	0.8137167814681289	-0.6103598341605928
Si	-0.09580537808364599	8.162036293395897	8.01259030661255	14	1.5398318909103004	-0.40923614893413734	0.5065113476166198
Si	1.367656719813351	9.411456107851182	9.491023010755736	14	-0.07975645836258946	-0.3222127184946813	-0.16967598183466023
Si	-0.029274768566109	5.578639559498708	10.811589778022714	14	-0.6616559564028671	-0.6107529561640435	0.5811919298561729
Si	1.2940065385956718	6.927148207479257	12.180173017440877	14	0.6344706314108134	-1.0972528768528866	-0.13206919564845035
Si	2.7914897861922054	8.172016697560023	10.983564820459932	14	-0.06604012570066349	0.07463610211751456	-1.4590505899670998
Si	4.136324865213321	9.686063514933826	12.116860844445322	14	-0.022465546955857868	-0.7995481913803888	1.2503886810525024
Si	2.5441090517071343	5.450487268896152	13.548821275778678	14	-0.4579002306601761	0.707128525095006	0.5726658875040298
Si	3.9073607397151466	6.854034432348575	14.827629641909434	14	0.7906336550143713	0.6823950061362456	0.2628623517265112
Si	0.033338451043358995	8.198658199880873	13.509598612508261	14	-1.8087216848388346	1.090880649427432	1.1879753565164397
Si	1.3241915720366848	9.67998424594786	14.891657023020986	14	0.3920783918011932	-1.8378008860097095	-0.8179601336885011
Si	-0.19959182855261098	10.657917561463027	0.20333041643168095	14	-11.527321103178824	-5.2118731962823786	9.246034631375815
Si	1.3904783606055868	12.147501010323788	1.307660511719232	14	-0.432183521026991	0.22658405565922177	0.7865635952925769
Si	2.9654804151381415	13.744869573211126	-0.08784056042823599	14	1.5712916784971003	1.0955829439474505	-0.8638600200848489
Si	4.149962583606971	15.004416084399718	1.48291900959807	14	0.20596044855471798	-0.39889593466809786	0.10434753808661373
Si	2.5421097199283276	10.733973442707239	2.7135321015486418	14	0.6551245775580948	0.1486122014993471	1.0997360503710856
Si	4.026199070079845	12.150963267794404	4.132244928006162	14	-0.21142173336524453	-0.17804852919919045	-1.6008370210625178
Si	0.16609083021016197	13.547813482524319	2.657306990793411	14	-1.2616802042869966	-0.13141819178138883	0.769307364825871
Si	1.4435663084883807	14.767730962194769	4.1729630264282065	14	-0.2571544979157825	0.5220487941768066	-0.5195746195272282
Si	0.058760848621035	10.831258001212603	5.4497070418605205	14	-0.15505513432110618	-0.4366739564686296	0.531901269763614
Si	1.4651525898075328	12.144120026502716	6.81299123932835	14	-1.371818899996712	0.11275016738338968	0.48401134784947186
Si	2.7774131900910115	13.427593500117355	5.506631106001838	14	-0.015764732270487945	1.0502013923836448	0.017333106515778275
Si	4.02189156665396	14.911617831349238	6.810748086600908	14	0.23438967430065935	0.09493240751476349	0.3964230455711794
Si	2.7326476639216257	10.76271180518635	8.124650414605197	14	-0.34098075888963425	0.5078606636886335	1.154955165110842
Si	3.9489891030120954	12.32449876430289	9.473256590965198	14	0.2461637940037454	0.00563483441963653	-0.5189935497248748
Si	-0.012126028512114	13.604981367614272	8.125024273393104	14	0.1700279661529885	-1.2050135572519969	-0.019959747710841552
Si	1.2419588934270538	14.972264228639716	9.50009315004496	14	-0.18938401833465932	1.339822265619065	-0.5125459889135394
Si	0.048276547829729996	10.797448163001883	10.834102578946679	14	-0.5557932659510901	-0.008932019882194426	-0.47178188539418753
Si	1.4091062810813009	12.126126040493451	12.07755690752536	14	-0.26615413786789677	2.4328212487197667	-1.0280819162038788
Si	2.7360449024726066	13.878776038201469	10.74809880299816	14	-0.26356683458423175	-2.2560824405706597	0.5688552523090383
Si	4.066705857013074	14.933057820099208	12.255269869620458	14	0.1863894519682828	0.976722030549665	-0.344639441760205
Si	2.7102974102967505	11.082588635065562	13.491702154878451	14	0.9654194515622939	-1.542896391341385	1.5235804484027085
Si	4.249994191466958	12.198557116967956	14.854141106391012	14	-0.6022215144907281	0.5466167339529496	0.04078672924616905
Si	0.11215763637209998	13.684792091467463	13.309194047460199	14	-0.45163393277391123	-0.7175684982474673	0.018266417746992027
Si	1.356359682526596	15.113192736950747	14.821972995901103	14	-0.05019697471791103	0.20076295915003864	0.33878709183048394
Si	5.394245903411012	-0.017798929250355	-0.11353928841436499	14	-1.1521719436017817	0.15360297403628653	-0.054231810296819394
Si	6.66881178503552	1.272030143758704	1.2811327925077438	14	1.214254881104205	0.1313186900054991	0.7521159262132331
Si	8.182826092949506	2.5992125860986444	0.065132702745363	14	-0.49206867770175194	0.026688330333669078	-0.7904292521414197
Si	9.69399582312942	3.8309147449531196	1.272452766736338	14	-1.5931879827350772	1.9201479900928804	0.3895893047407578
Si	7.967028298677623	-0.04795145323154999	2.845357961110632	14	0.5059482755515073	0.6692417455394319	-1.2184779215925485
Si	9.555473014844921	1.2723877478167018	3.967795825516809	14	-1.002140234855181	-0.20478288231809014	0.8279005410772577
Si	5.487661836198035	2.7086394278460326	2.633656358775816	14	-0.6357559269603554	-0.505194941692704	0.35088928457242097
Si	6.738837161483492	4.014398136165911	4.0676486313477955	14	1.0356535642611828	0.17546508257350565	-0.40745797249472293
Si	5.416774959064886	0.030818967907463996	5.5382140462150256	14	0.2975105670208267	0.38201662824132565	0.34044956853049174
Si	6.865315214905421	1.4771485804803748	6.868192302099314	14	0.5347482546846141	-1.2276742511016543	-1.6317530198741064
Si	8.248543965971594	2.7069489359354963	5.326756264828845	14	-1.0249510812555345	-0.637085702631936	-0.021386711163523735
Si	9.464007649646978	4.038081277643324	6.696769920479	14	0.2558733161347526	0.712683398139186	0.36835068924367464
Si	8.186759737587487	0.016904919105359996	8.094985532521271	14	-0.08255896316155086	-0.7136907572036199	0.12220026498759395
Si	9.524247678689733	1.4217362062205938	9.37619959867856	14	-0.07691847231021001	-0.05011804178458248	-0.41569630816154135
Si	5.431339197063351	2.6213027640449758	8.112768207041716	14	-0.5599283746374842	0.6234295338345015	1.5962697095718068
Si	6.698265355630628	4.059878870451294	9.519289986067488	14	0.2173437602491416	0.12092885340678072	-0.6534962965588451
Si	5.498292429558521	0.056550205353410994	10.908598006119625	14	-0.9125472417587689	0.17320636654975557	0.01981036649174095
Si	6.8499382404115075	1.4523438626392409	12.217298820553035	14	0.38311834687100915	-0.45246645667657515	-0.4467807143715996
Si	8.208167216877637	2.7093546359620286	10.714939153983801	14	-0.7508110902632578	0.4220047721750567	0.8363165401216985
Si	9.49178698306146	4.009895575981118	12.197077936546238	14	0.0626023007770935	1.1074434527892936	-0.49485215632134427
Si	8.228225553585345	-0.029226004376381995	13.512183114563792	14	-0.48084940252675384	0.7971264672793413	0.46064128604198595
Si	9.586113180723386	1.3850492808159807	14.887430793244645	14	-0.2399592026451641	-0.32645658493611773	-0.15331372468776988
Si	5.457379274377568	2.848934001690612	13.448074459802696	14	-0.5314263866109827	-0.3660945443252447	0.13542937319135184
Si	6.898539882839417	3.9964204048865577	14.820493815479384	14	-0.3731581419712875	0.9997146540961531	1.3400215262813764
Si	5.422317821963855	5.547479242263155	-0.047463811334279994	14	-0.7192389453739675	-1.530622705874594	-1.4979614407716888
Si	6.5709583109833405	6.714503830809719	1.4391287672232238	14	1.6038662973507163	0.7141952080674331	1.2068439271294105
Si	8.100463376500604	8.053926084771136	0.23470204515605098	14	-0.6605408680255189	0.314740829323799	-1.2806246225069116
Si	9.53031069294579	9.428929942503355	1.3826435807894488	14	-1.581722652780941	0.43734372940452815	0.5314166164107662
Si	8.199210860697779	5.349220301563083	2.6926447736155765	14	-0.3580559835418017	-0.14170287017251318	-0.3526630901327911
Si	9.465665632097696	6.829115931398078	4.067746159727249	14	0.23930614189384647	-0.16656340173408898	-1.4571096625609201
Si	5.317507323510623	8.247032276090057	2.798349282213804	14	-0.4849012074007752	-1.7085696764136387	-0.3842702020544354
Si	6.685277826433337	9.487902102613209	4.051865288606156	14	0.24232847619768055	0.3967153802460803	1.1706839019068478
Si	5.390946193239485	5.267507774310539	5.467034583943514	14	-1.181173240281456	-0.238811975451314	-1.1717046307189465
Si	6.656685756523407	6.689422782560132	6.5538908445788895	14	0.8181902476146544	0.8857185290746196	2.179918587671913
Si	8.053357169224322	8.076357612045557	5.359119432077663	14	-0.6612594919625003	0.11598307521294389	-0.6129936744505524
Si	9.337757162443774	9.361342775541733	6.687114610913055	14	1.4883887014437134	1.1109566110987439	1.1594651409529138
Si	8.044888454941733	5.415084467154351	8.005535753832044	14	-0.13375918317538366	-0.0066486212473709175	0.6192774558529943
Si	9.370591716859956	6.801011503385417	9.466380840213693	14	0.21228845296866647	0.14505173485200606	-1.1525115866145734
Si	5.357510213816672	7.988988438784682	8.14605789389535	14	0.48455359396149117	0.5328268676788673	-0.02504770802888259
Si	6.67321681684086	9.568200468363667	9.548385952604598	14	-0.0275100555939884	-1.2641839466477567	-0.13116956589693052
Si	5.258990295838223	5.40110539943261	10.807834935413736	14	1.1555516615451162	-0.2887420694369937	0.6414321561756463
Si	6.817688856272052	6.709741194946383	12.072469177063843	14	-0.5257933519650704	0.6056184588397078	0.5226311495318202
Si	8.205452676982835	8.206785564835371	10.892001926882536	14	-1.0469330033006725	0.13793620087849623	-0.6584009370675596
Si	9.571776508943648	9.532488826753594	12.202230685927391	14	-1.4189462320728983	1.3199653621210294	0.13847690432732337
Si	8.14961767974542	5.488442063233667	13.549130115646948	14	0.24618564839896667	-0.6191378448341103	-0.4782474439427639
Si	9.437041052727947	6.846394709291346	14.947264454039676	14	-0.2635892032005171	0.4494266388565641	-0.505420941850345
Si	5.556159268034562	8.215676902095597	13.479657400015883	14	-1.0910002058248185	-0.15988958365458059	0.2652789336169184
Si	6.7490288771364355	9.547378159350238	15.052513830200448	14	1.0213528193599872	-0.42590179650880516	-0.5683831973722592
Si	5.377340984305653	10.86997676785584	0.11428700599017899	14	-0.3197179750025417	-0.48765640386184583	0.3529238002122541
Si	6.7339932519706105	12.153255184711574	1.5384939311569408	14	0.38243777529276596	0.7874542261754762	-1.8828232541602903
Si	8.186532171368759	13.485232772374669	0.022220215785602997	14	-1.1205864289648266	0.4880263859174151	0.23655505920128805
Si	9.366105411405071	15.025514723821601	1.361349884608659	14	-0.32860988564174176	-1.6065641581631478	0.9008443416730507
Si	8.024765099314392	10.78288392500342	2.7326476639216257	14	1.1224237408266045	-1.0197618193878797	-0.11875832629551171
Si	9.397753370537894	12.065138293874885	4.012658880065649	14	0.36108320294574403	1.1555406057922397	1.0582116710085663
Si	5.484199578727418	13.544351225053703	2.8198217804235925	14	-1.3143734651602392	0.00440276075022157	0.05838183139407042
Si	6.690398066354672	14.894794185893423	4.205488740976116	14	0.23152829118986654	-0.05252999568541339	0.3066207645017074
Si	5.304210954445061	10.848276703427327	5.470659388713222	14	0.46999676697040876	-1.2275577800306512	0.3146426131005694
Si	6.75561204274958	12.116486985657415	6.775995474055466	14	0.08487861438138845	0.48191718256621136	0.1792592626944482
Si	8.08557404390396	13.54812232239259	5.4551036121903085	14	0.4901161803216315	-0.8010931685672658	-0.31115336607059646
Si	9.569939724463932	14.82836110475534	6.726109707964745	14	-0.8400898942895477	0.2781239186858462	0.5753722329640177
Si	8.054982642215222	10.732608045394882	8.137767981641758	14	0.8081521382237324	0.4833490311190018	-0.01989932673581807
Si	9.51971260904512	12.197029172356512	9.485984044483946	14	-1.792440931730593	-0.841047888131835	0.13257236095960334
Si	5.450259702677426	13.537751804710648	8.112849480691262	14	-0.49887387926311993	0.17472974645194328	-0.017676606186550058
Si	6.708066957765755	14.9559769892709	9.476523791676907	14	0.5400658147077443	0.2125707603328187	-0.5472078310660516
Si	5.3680757882575225	11.068804624102729	10.783810444608232	14	0.65545830702865	-0.08587620324560591	0.2124512039354318
Si	6.864193638541701	12.279863275972774	12.200003787929857	14	-0.1627044297590787	0.1225679330483751	-0.9764050132636908
Si	8.125641953129644	13.651096036366106	10.745189206344449	14	0.5589755230058373	-0.3211626790819329	0.3943162818718501
Si	9.559211602723991	14.998808202581113	12.083343591372964	14	-0.2568948162784475	-0.7434525868369941	0.3086722494366535
Si	8.155599420351932	10.97954990217241	13.578307355833603	14	0.12887331173550629	-1.5123778854122911	0.5272383131549935
Si	9.591997392950443	12.184513030326581	14.962251315015772	14	-0.013708362235433515	0.560392459147771	-0.36551064630703906
Si	5.49408245451209	13.609435163609339	13.46262244307125	14	-0.11134994342603703	-0.16947620695128474	0.7605283257102254
Si	6.765397390154798	14.93726779514564	14.87613375595789	14	1.243387561265739	-0.6835903129995823	-0.03237407263864453
Si	10.776333268850093	-0.07459295555240099	0.053933193838062	14	1.0151726535019474	1.104726308686961	-0.8873573516056819
Si	12.16742930919222	1.2534509874727169	1.41773754266298	14	0.010894544573063455	-0.97507395203945	0.3088733098726891
Si	13.48536281021394	2.5468561010617554	0.10370517681941999	14	0.30742423491425364	0.7529949871221917	-0.3599025513827321
Si	14.979985225346491	3.9978508211185497	1.3997273019238077	14	-0.8236553890831612	-0.14329541280781288	-0.1499563753607205
Si	13.5591592840008	-0.11500221410617498	2.790693304426665	14	-0.13928371717678584	1.457058754675581	0.010980162380224387
Si	14.87613375595789	1.4479225761039929	4.052873081860515	14	0.5376500041489332	-1.197516728359509	-0.834279710487077
Si	10.892538332969535	2.6303403938743797	2.7462203633956404	14	0.4993055678463728	-0.2551009560965802	-0.2602971599485994
Si	12.201824317679666	3.9788165323951104	4.038032513453597	14	-0.415862401565223	0.8449220296282342	0.08430037279488715
Si	10.86059778869835	-0.024788463111224998	5.414336749578536	14	0.5098758960385656	-0.3203430107058697	-0.41304884101338496
Si	12.274125356314897	1.3194126814434388	6.69498190018901	14	-0.7626438311676433	-0.5210869436765393	0.47278615913223737
Si	13.493717741387167	2.6705058314795185	5.379762939062093	14	0.2950237939551794	0.7602089944294632	0.2759230525317994
Si	14.838634094057829	4.0480941912672685	6.658928909250848	14	0.6780866049512734	0.012388099653537474	0.1405803255897365
Si	13.60324211151401	-0.06953773455070199	7.995246509799647	14	-0.699611127359957	0.42475996863612747	1.1132644352341088
Si	14.89500549738224	1.379620201026375	9.37504551285502	14	-0.9265993607755061	-0.03078487244026101	1.0029347063991065
Si	10.902795067542112	2.720765456358147	7.974911842683488	14	0.5731873076629559	0.475765298866693	0.20164741938016958
Si	12.201027835914125	4.039544203335135	9.480083577526978	14	0.060811783032142366	-0.01005199335965093	-0.0738156624098553
Si	10.794554821078082	0.23387305393069197	10.831501822161238	14	1.2037190057233025	-0.9727743554411095	-0.1932956979687326
Si	12.184074152619038	1.4501332193716168	12.31146247091587	14	-0.19559992255664926	-0.8694781423199043	-0.6009429038150185
Si	13.49545699748743	2.7191562380971557	10.992683723938882	14	0.6114726085431529	0.38753807691634373	-1.8895094135453354
Si	14.775110609573456	4.187185915098581	12.273637714417628	14	1.0990899316041327	0.03656060343144165	-1.2524915880938514
Si	13.605956651408812	0.021456243479879997	13.425659187258184	14	-0.9227139064156984	0.7912890297604771	1.7801736740271024
Si	14.840032000830002	1.3693309569939778	14.908106809688894	14	-0.459757082922387	-0.007511741303344629	-0.6374464287083528
Si	10.947658122090953	2.8453742158405406	13.586873598495645	14	-0.6303915728203985	-0.45600224071284273	0.7367420019514076
Si	12.274190375234534	4.0382925891321415	15.049035317999923	14	-0.16813486130576347	0.6716310737134455	-0.48699383002084373
Si	10.747481123261617	5.41900185706242	-0.09331840440756899	14	1.1036947812325175	-0.18928117412185338	0.821793651720842
Si	12.209756625875258	6.742283164224201	1.302800347476441	14	-0.3659194520529426	-0.10895341615712702	-0.3793789312933858
Si	13.499244349556228	8.242318404416446	-0.04094566464077099	14	-0.9260182909731527	-0.3566215638836911	-0.05975043075598525
Si	14.7719409372412	9.292195154508848	1.5323658979812478	14	-0.12630297774695423	0.659866981321108	0.5225154497924135
Si	13.50974490507744	5.331925268939907	2.680534999833372	14	0.20804998584840234	0.07666110466766317	-0.3233316635300098
Si	14.851215255007393	6.72456550862339	3.9840830648856262	14	0.2568410801772564	0.0428086464699335	0.2253656088480036
Si	10.896358194498148	8.162361387994075	2.6109810105527607	14	0.40269088612063636	-0.634150528798455	1.7144374529752804
Si	12.201157873753397	9.514429821824695	4.114267196726807	14	-0.5264615822377767	-0.03902037989122732	-0.28613239753704334
Si	10.776593344528637	5.3894995222775846	5.289061546169873	14	0.609426780039911	-0.18425492033149588	0.8243030505133065
Si	12.140088853485283	6.70505983273259	6.71562540717344	14	0.7891411283760253	0.32390502001640287	-0.08518123347756988
Si	13.62130111644291	8.17838855168435	5.341353012287126	14	-0.8079940152465432	-0.9265345689214385	0.5890353437458166
Si	14.83192089060541	9.510707488675534	6.779100127468085	14	-0.29209119122701854	1.0444588286510939	0.13896515722761948
Si	13.597097823608408	5.3668079193246205	8.086126704720867	14	-0.9867691388092076	0.11207139557887058	-0.18740478145920933
Si	14.9296118173585	6.796834037798804	9.351736230165514	14	-0.8411142226490946	0.27487301311905094	0.7693891259750518
Si	10.868009945536853	8.120944336185945	8.102348925170048	14	-0.71323901399887	0.10697083684476083	0.16797288167059413
Si	12.0996633402016	9.475207158554278	9.672133211401814	14	-0.2634778743401546	-0.2076000424173764	-0.5319454927751206
Si	10.758127971352014	5.450194683757791	10.68826514220313	14	0.3352153123197342	-0.5056153174125482	1.1582634063262762
Si	12.133034300704777	6.749386481194433	12.184903143844396	14	-0.2616832428266913	0.07183745397653336	-0.08987015824992395
Si	13.562719069850871	8.078828330991726	10.86368618738106	14	0.24816514238494872	0.5427970998893377	0.16733961843024167
Si	14.811472440379887	9.696092683287679	12.233748607220942	14	0.07501405459957632	-1.3971450587317664	0.15880329165681803
Si	13.503503088792385	5.464450081887983	13.60650931222572	14	-1.2271086079312215	-0.07931371402645995	0.20626332476143142
Si	14.720250896130581	6.847256209976522	14.899686859596033	14	2.3138788312833327	0.29182199649999907	0.011975951470717738
Si	10.800812892093045	8.240806714534909	13.51234566186288	14	0.5708823117434432	-1.5594219136761045	0.7937392931305782
Si	12.069998458117675	9.590566976718453	14.875597349870894	14	0.6097021454196989	0.33487181264896243	0.5778523211558326
Si	10.797870785979518	10.830396500527426	0.18380848581097198	14	0.26730187928281085	0.02033615752971123	-1.6138977218678063
Si	12.081978194060609	12.175491655227086	1.4713131324430437	14	1.3332878014479088	0.3884893858847985	-0.30126566634090296
Si	13.453406011212847	13.567676762473116	0.061979285143016996	14	0.282896147270573	0.3505581262071859	0.40161564987575044
Si	14.933480443076842	14.942940695883879	1.4676070540237918	14	0.20708890667973098	-0.9492124891767406	-1.1786337595567455
Si	13.548674983209496	10.943041778796797	2.8631243809011684	14	0.06819111241149937	-0.6067931968604834	-0.6571176984022737
Si	15.020231936601176	12.186268541156752	4.143785786241551	14	0.41451128571948515	0.49179639764834826	-1.0488104244054448
Si	10.727699116962365	13.507599280729455	2.7084118616273067	14	-0.3210801466011562	0.9543374734113916	0.4507247899327068
Si	12.233911154520031	14.810383373475986	4.081465151770446	14	-0.6117487452545367	-0.5550494451819713	0.41201937044319764
Si	10.864515178606418	10.907330137186724	5.4969107775162565	14	-1.0840114273435921	-1.1997106525291916	-0.6960874275186941
Si	12.247012466826686	12.218517925296208	6.7492564433551605	14	0.3528142711256158	-0.5270706770881198	1.0273843753305227
Si	13.685637337422731	13.490222974456733	5.4592323135871945	14	-1.321798303103763	-0.052597358644801265	-0.7694369485340066
Si	14.908578196856254	14.863893944336413	6.702735406355603	14	0.9531149128316613	0.44634234091451447	0.3783916268504489
Si	13.420295126388215	10.814694431435333	8.33084166350086	14	0.743156652614645	0.1421397009664063	-1.1837361180645796
Si	14.9068551954859	12.19278668785026	9.55987804665026	14	0.09007199001755556	0.3445458535265516	-0.6035700592311457
Si	10.776950948586636	13.372847569783843	8.102674019768228	14	1.2010288582268314	1.8711838603759803	-0.3812620088298622
Si	12.112748397778347	14.949523861497026	9.405848226032575	14	-0.08630377806034653	0.1752475670634211	0.10752131049380452
Si	10.83423261678595	11.027241279725416	10.960320556690064	14	0.5085170668768673	-0.7419389771350229	-0.3375190226865869
Si	12.294947665328326	12.42441658905351	12.13511490613313	14	-1.4555405169840336	-0.2897859381969738	0.5478583207120491
Si	13.543701035857342	13.668049719661193	10.797285615702794	14	0.8724228292430699	0.7016250741572291	-0.8651365738763023
Si	14.917339496277204	15.047507373388477	12.145615461654344	14	-0.4462472100176689	-1.4157794016500718	-0.5342674579897463
Si	13.391134140931468	11.09058596218079	13.563678098915503	14	0.7066883518641968	-1.5616909141211353	0.07727045662853828
Si	14.789479790813012	12.139259862259925	15.039932669250883	14	0.1176501799025279	0.9017465425298907	0.10389939442931194
Si	10.907102570967998	13.645553173467135	13.556753583974269	14	-0.6058071779702066	-0.03622815951354651	-0.16842488198587616
Si	12.25034468645803	15.010414079736139	14.850272480672672	14	-0.07958985073784386	-0.29586197428954775	0.686814221960516
H	2.394663064923789	13.088225623604263	2.005084327721795	1	0.5983424878942206	0.5283084071892391	-0.13537203754271254
H	0.5725501044226523	-5.201053562023575	-0.5006245500483182	1	11.451723407671574	5.213103727288601	-9.87866152316155
H	4.067503964251605	14.862543176280976	-1.0642670624808386	1	-0.6546334964419467	-0.414091424220705	0.11219120908678948
H	12.179009178779394	4.038081277643324	6.696769920479	1	-0.04777859305377974	-0.09434182462272547	0.09149792502810969
H	12.301114709855801	1.3850492808159807	14.887430793244645	1	0.12566920028553774	0.1423495031605304	0.1611152295606952
H	17.694986754478908	3.9978508211185497	1.3997273019238077	1	-0.12959347833567975	-0.05895775898578358	0.08933948211184538
