221
config_type=divacancy dft_energy=-23005.763158210655 dft_virial="2.847110364189185 4.9976304259024955 -1.2757322399994215 4.997630425902496 1.4012804921898407 -22.963180319989586 -1.2757322399994215 -22.963180319989586 7.168400205711035" pbc="T T T" Lattice="16.3999889955 0.0 0.0 0.0 16.3999889955 0.0 0.0 0.0 16.3999889955" Properties=species:S:1:pos:R:3:Z:I:1:dft_force:R:3
Si	1.1416524339437413	1.649248493343462	1.100406461620059	14	1.5424212510782216	-0.7556015736957578	1.03796807327038
Si	2.747424556460133	2.8357712971788915	-0.14015430595554298	14	0.47364542253023095	-0.35063088848774604	0.8036174797705872
Si	4.228245162819809	4.064950472391616	1.4229942451615438	14	0.3112001601874231	-0.5694754029122582	-0.7070256808822002
Si	2.5402106955019903	0.19553706879334648	2.5959542580976946	14	-0.3723618706536376	-0.15055981377935926	-0.048927877131885934
Si	3.8597046101129338	1.4429858317470583	4.161398807674153	14	1.2537737983170092	-0.6270815318312398	-0.5171158715095705
Si	-0.038999173831299	2.7555753509908967	2.7004385879880255	14	-0.8855462650181697	0.9805002698176224	0.680439937650805
Si	1.333122305466204	4.199135182352798	4.106491644517218	14	0.3198748124270707	-0.8825223880511437	0.020712824459112922
Si	-0.166591088216289	-0.0794579466831975	5.477989924232892	14	1.8175871130932373	0.2800594467708536	-0.6247474824216094
Si	1.1957723976288916	1.337058302825124	6.879860983568231	14	0.34191252745765593	-0.7112528351390556	-0.31164213319195655
Si	2.653157419713999	2.729122168741155	5.6420226141658825	14	-1.6243387234623956	0.06134451605447705	-1.4738706981429655
Si	4.066557671313175	4.04489328585012	6.753761468181832	14	0.18328227118888388	1.4344245432107217	-0.06601364331586596
Si	2.5838346662300204	-0.10587832895494799	8.17109771713993	14	-0.7820798447247708	-0.19930694220723877	0.9686911830821823
Si	4.0651800722375535	1.255845557319408	9.34755092773212	14	-0.5955705792485689	-0.5624909953100758	2.0795562628315287
Si	-0.174594282846093	2.7045057852589096	8.110942557504435	14	0.5961483066140062	0.028154631697749524	1.6456740125195162
Si	1.4272090423333876	4.201545980735135	9.559143585752063	14	-1.9719326223459828	-1.5401473655330826	-0.14907911422548598
Si	-0.004132797226866	-0.046608768725211	10.979874632432228	14	-0.6652606460617148	-1.0067263154147288	-0.25576198727439026
Si	1.338501501856728	1.26673515001242	12.340384919520917	14	0.8574613102745964	-0.23687181937673027	-0.05193015681422283
Si	2.5774222705327796	2.6910085943156132	10.900646285594966	14	1.2804693277455748	-0.2043416806451528	-0.1285956323609303
Si	4.049304882889909	4.061260474867629	12.275604962988691	14	0.3214866383522716	-1.3958605345138204	0.022891836217938423
Si	2.7758785373673254	-0.030733579377567	13.703453604892903	14	-0.4032534439646848	0.08026502299491475	0.4873535276551324
Si	4.16067720815835	1.1578556230712953	15.311784125692592	14	-0.15199191944268173	0.6385036672159976	-1.3767795906014055
Si	-0.16334389039518	2.4069443849245573	13.599182474859514	14	-0.07671021277927802	1.6968734612017529	0.20375855395854317
Si	1.1423904334485389	4.01734130433768	15.044300305175987	14	1.3009836628739724	0.04648378441455316	-1.4902573807903972
Si	0.024419583614299502	5.338065218123286	0.1404987057244485	14	-0.6744546615760322	1.0600374128964034	-0.3941818130636063
Si	1.220191981243191	6.786594246150823	1.601098125652674	14	0.7767450582959955	0.136334659374576	-1.824420082592063
Si	2.6639650124620333	8.082062176883358	0.0613195588541745	14	-2.261485875511483	-1.373173615389898	-1.6666673445690572
Si	4.177503596867733	9.289855766445953	0.9728637472020555	14	1.9916956804998327	1.909565834816215	2.431298125928111
Si	2.7411597606638516	5.4325127547483705	2.6280818365398795	14	0.4445662213593562	-0.16278747646091948	1.1908357111851042
Si	4.1890655891095605	6.779394650981799	3.9803921291308186	14	-2.2477800843813696	-0.19178465937208156	0.6539904630013775
Si	-0.1894690728650115	8.060791391156195	2.8363452967937337	14	0.8917068904757766	1.844945216362805	0.2402546226464491
Si	1.440083033694855	9.577085173713138	4.062670873921242	14	-0.18021262854715908	-1.2241940029403016	-0.27937758963995035
Si	-0.0658131558389415	5.3963179790353015	5.613847433071614	14	1.565351139654898	1.548093109414468	-1.4261782371174105
Si	1.5526689581489623	6.7609938633288476	6.967666524650139	14	-1.894659851722656	0.7067063496014377	-0.7455387816937622
Si	2.7850625312048054	8.142742136166708	5.496456311841825	14	-0.27846304747757367	-0.5441590143774201	-1.22333242554752
Si	4.2146823719205315	9.487606833753691	6.645373940910573	14	0.06834897827815645	1.3084372971970815	1.3091898597242888
Si	2.8197977078972745	5.398761577395631	8.260362857242436	14	0.6180703219051847	-0.07617259465683504	-0.4012027303613347
Si	4.02390129993588	6.839353010749347	9.574362775539885	14	0.27544456983171983	1.520171676969256	0.01780284745776933
Si	-0.0425907714213135	8.304462427651334	8.085719374429356	14	-0.09717286869074053	-0.47844387638922325	-0.558708385163074
Si	1.1983143959231939	9.751154656911377	9.415676482019428	14	1.0547075115677365	-1.0663895857003611	0.27350235687287994
Si	-0.3127641901331805	5.293276848176576	10.74443639041283	14	1.3976451387165352	-0.43432190932175807	1.1314022977150933
Si	1.1643664187025091	6.54949960524288	12.174089031106545	14	-0.060100872411121414	0.1721115899044365	1.2021017804769292
Si	2.4036315871474665	8.163684922113962	11.035355795204005	14	0.06643350481464613	-0.2926756034662882	-2.1173587101326024
Si	3.7828050617130344	9.480226838705716	12.283099757959635	14	1.7819305102923597	-0.5600070504602809	-1.4490114521340498
Si	2.7017833870856562	5.288783251191808	13.681871219374825	14	-0.9978745140185231	0.6666531567031069	-0.3311763629723136
Si	4.023802900001907	6.753466268379913	14.987113543548679	14	0.2616025101196386	0.2940195202171296	0.0496444441846112
Si	-0.08162274523060349	7.90512269561091	13.834669916845899	14	1.2326951055708393	0.5653228107096869	-0.7969038095586165
Si	1.2167643835431314	9.55033679166148	15.059617894897785	14	0.525803893496883	-1.8149576436823218	0.12350458671650506
Si	-0.053923163817204	10.84304952424277	0.07204515165723151	14	-0.043242134826910465	0.5406430278521175	-0.3135288102758812
Si	1.305635923909746	12.026702330003987	1.538482967667855	14	0.43154100180748595	1.4505883110268967	-0.7910751137978408
Si	2.5812762679467225	13.621732459728328	0.056694761957443496	14	-0.46448328872188327	-1.4350212967555278	0.33551407475793543
Si	3.817983038108382	15.027211516642677	1.3687266815754344	14	1.2291374671393505	0.6368111085837442	0.7859367598155249
Si	2.950079220477526	10.625536470195454	2.553609486511314	14	-0.3428288693937567	0.83960652648936	0.676724433352659
Si	4.096930450932842	12.179894627210954	4.071772867813745	14	0.2000885582245638	0.26627420848634764	-0.13183522506431686
Si	-0.17787428064519298	13.762263965430765	2.416161178740029	14	1.6150133244662181	0.3486089712639816	0.43173100649064494
Si	1.3899810673136024	14.992640339840163	3.9122501748545155	14	-1.730109368343711	0.7311184803951797	-0.15917507348611146
Si	0.028093181149291498	11.019956205537229	5.2618544692611975	14	0.5326738869123185	-0.339899094881448	-0.4099714850556997
Si	1.2493347616881945	12.29492415002539	6.693721108469307	14	0.9299389694758464	1.0650284425438747	0.7731424255214039
Si	2.6568474172379863	13.757770368445998	5.351660809000555	14	0.8828162653892365	-1.290282465420984	0.6531322280455122
Si	4.044811285905142	15.081118280470884	6.9037065675676885	14	0.26362931244351134	-0.3292657746089116	-1.5315498464530393
Si	2.7756161375433974	10.981153831573877	8.072205783497063	14	-0.2532839559668315	-0.41678028616451585	-0.29465124079429
Si	4.204202778952407	12.133449858375696	9.568245579644564	14	-0.14733461926576552	1.1739738882745092	-1.4884686628191701
Si	-0.14404110334747647	13.715933996518478	8.06128339082606	14	0.20765429273963154	-1.0844593138903618	0.9683222294687411
Si	1.225505577677733	14.734717712907933	9.729719871294257	14	0.8010887976882215	0.9976708824771674	-1.197685135757979
Si	-0.0891011402125515	10.87388150355431	10.949780652625485	14	-0.8339179559685324	-0.5330089019355339	-0.5669858016307587
Si	1.3259883102531613	12.064274704792679	12.186520222765134	14	0.5310826298296789	1.1502564701382714	1.3728712534042486
Si	2.8278665024830603	13.447138176882234	10.991748224464969	14	-0.9679319356811424	-0.4265458583915023	-0.6921528650472715
Si	3.9353905593271663	15.07770708275982	12.12728346251339	14	1.5961828062119856	0.3221458697563575	0.5308738560776829
Si	2.6549122185365173	10.711767612333793	13.670620826923912	14	-0.9134887805270071	2.433049305761664	1.4816714316842947
Si	3.976554531705871	12.239246187385667	15.139895841030757	14	0.2223838980082279	0.46104032158767294	-1.1707975447619983
Si	-0.0996955331036445	13.608743668443891	13.403678206044159	14	0.24481062127375147	-1.9933278181570626	1.2112258619265388
Si	1.350998293471299	14.703229734036574	14.811272861538928	14	0.63594027521181	1.0395323337471585	-0.3410620058177509
Si	5.575438658844153	-0.172068684540786	0.265417421903172	14	-0.9479853006074338	-0.39225734073147545	-0.9405108403312312
Si	7.099227236372039	1.2976819292469286	1.091550467562489	14	-0.41850164117635497	1.0532041862870456	1.8796566808479962
Si	8.310038423909804	2.9363852296662842	-0.2559218282747775	14	-0.7448335275044456	-1.3137648845309604	-0.6028146684880862
Si	9.595633561267048	4.177979196548603	1.1612012208263776	14	0.7522249410788072	-0.7440673381190416	0.6265104893396349
Si	8.355613993328298	-0.013251191108363999	2.672181406948779	14	-2.178173835601661	1.7767301926718282	1.7702993440450736
Si	9.650212724644073	1.4008542600176188	4.096077651505076	14	0.06279307679184847	-0.6948406985489544	-0.08750834090283592
Si	5.594495446056923	2.5326995005420514	2.9168528427726432	14	0.09887262641789044	0.8248147004720161	-1.3751353687491708
Si	7.097456037560526	4.100259648698928	4.0411540883591455	14	-1.7845340115395414	-0.6416468434698787	0.8146032985825159
Si	5.430413556156946	0.0122179918016475	5.355629606337466	14	-0.8451125485324571	0.7273952627810732	1.366835069444137
Si	6.899704970252786	1.2938771317999727	6.860082596839659	14	-0.6133891104487912	0.09128272351281329	-0.6526732857458657
Si	8.343789601262543	2.7061949841254456	5.570633462068471	14	-0.5770146550425284	-0.2960321814617415	-0.9178141510070922
Si	9.613263549437212	4.057111277651767	6.885978179463553	14	-0.3677768185362176	1.7376933577065519	-0.4393239947221062
Si	8.316221219761108	-0.152093497944267	8.105235361334001	14	-0.33850221336101155	1.0697942433653014	1.5891786010988385
Si	9.526114007915124	1.3841426712312044	9.671368710448268	14	-1.300179678240362	0.5114481269418362	-1.106166641887308
Si	5.2343024877487565	2.6090250493271085	8.001521830926459	14	2.127709208819922	0.42263957807860125	0.7024874228816067
Si	6.418939292849704	4.197970783134116	9.452412457369347	14	1.6619701922596788	-1.0352136481409058	-0.28726239832524847
Si	5.676052591331545	-0.2050818623887275	10.759655580200654	14	-2.4443351725644535	-0.04614259873856951	-0.7158026631135896
Si	6.645849540591443	1.0183901166535634	12.334038123779656	14	1.9926595878843563	1.1815537638688376	0.37421383781574025
Si	7.881900311193282	2.6916645938754327	10.909715479509478	14	0.3237175864385641	-0.16655414575493643	-0.08951251749989134
Si	9.476979640884606	4.015619305493153	12.214761003815386	14	-0.8180346957427854	-0.037249402546709325	-0.430048218058608
Si	8.12932694516839	-0.18820627371235799	13.868224294330693	14	-1.2558648782738857	0.237909003262878	0.22002310910326792
Si	9.612591149888397	1.27296714583071	14.936404777574593	14	0.007552107656870954	1.2782098403902287	0.025547273792587356
Si	5.5019011081883304	2.421491175163566	13.699648807445946	14	-1.6426483357787658	0.9487458335611336	-0.09865742490259403
Si	6.797664238722787	4.117217237320275	14.634120180409537	14	0.32962830045905245	-1.3375568647214826	1.0134060470364736
Si	5.620981428284656	5.3343096206433165	-0.2244010494254265	14	-1.4322745849420138	0.7031319989853678	0.726280431514257
Si	6.908593764288348	6.800698236686953	1.1200864484146589	14	-0.7960589443504159	-0.09785626848483589	0.1922752262671658
Si	8.03945500547305	8.504935893132327	0.027683181424404	14	0.7176235199013185	-1.4350256676345723	-0.9988543622560314
Si	9.45966125250536	9.652492323114448	1.503157391371548	14	0.4349076071136878	0.5165515138917981	-1.8348963083295382
Si	8.169080518493482	5.393316781049125	2.4520443546621826	14	-0.19075338902817018	0.35996965723158797	0.3594343531039331
Si	9.351027725399168	6.833891814413845	3.790562256507906	14	0.8750168174005674	0.873033980977669	1.8064647685888087
Si	5.445649145933766	7.953961862839509	2.605039852001202	14	1.0198656920428137	1.3097778715110067	-1.063296546000223
Si	6.827741818540532	9.333824136942887	4.049534482735846	14	-0.3077129700417063	0.2824251207759219	-0.12559720933657356
Si	5.389380783690205	5.472348328018439	5.3601232033222335	14	2.0868432895298925	-0.6368918412907968	0.534434579835556
Si	6.9490197371622555	6.892948174786641	6.7684558583218	14	-0.9857628081869015	-0.859246428698375	-1.071127104363266
Si	8.286816039492177	8.36056679000494	5.5903298488520665	14	-0.7263349389470442	-2.1300779681513746	-2.585986363520032
Si	9.422564477397538	9.609360352056283	6.971290922218144	14	2.4443724535915963	0.7610196639369058	1.0329762722913127
Si	8.080618977851756	5.482532721184645	8.128474145740624	14	-0.48199174462049554	-1.576009656759572	0.35572167702163926
Si	9.760502650638811	6.461972863973896	9.322212944734074	14	1.3464238356390772	0.8480708623138195	-0.6802427338727496
Si	5.649107409411939	8.239092071515273	8.028040613132182	14	-0.7984611280510302	-0.24961730266976834	2.2629542337598196
Si	7.215650758251094	9.360949718741445	9.738985865076714	14	-2.628860316065097	-0.5086757040751205	-0.6097042023039551
Si	5.377326791778513	5.567337064280376	10.96568864195112	14	-1.8474427880707969	-1.506821983925983	-1.0480658323047298
Si	6.573738788978229	6.962221728303633	12.111703472967665	14	1.6677176410923378	0.20688887468582348	1.0741959756733948
Si	9.244509796873395	9.606933153684949	12.130694660224453	14	0.827800267969772	-1.1546985687998912	-0.4624428595398137
Si	8.004375429011676	5.5236638935853595	13.341997847432083	14	1.1963065090853156	0.5290699685850669	-0.022685633571262544
Si	9.310765752415215	6.716861492941957	14.911247194455497	14	-0.21419544178462027	2.4163214374382482	-0.6977218791707123
Si	5.338754017661096	8.291621236267858	13.4877117496571	14	-0.4731666827196194	-0.020745477496678807	1.8386940879979288
Si	6.703495501910624	9.748596258628078	14.910541994928689	14	0.528254413977516	-1.5108033405142325	-0.6376834846188705
Si	5.556578671499328	11.006114614825027	-0.05083996588605	14	-0.6036762458808678	0.8949927630749257	1.3108510508716367
Si	6.941442942246334	12.472634430780627	1.6239269103344098	14	-1.1069243466251557	0.031379826211343276	-2.0350072351703874
Si	8.335540406797806	13.748094374938654	0.07168435189933049	14	0.6207566127436756	-1.644091240084433	1.1388880708547044
Si	9.617609546521019	15.198427401755696	1.428799841265951	14	1.9894251373916099	-1.7773421157380234	-1.5169428829082139
Si	7.994174635856474	10.868075907449905	2.7736317388749416	14	1.3590821584617623	0.400357608042602	1.0907770338830298
Si	9.53746280030001	12.321984131867966	4.047074484386521	14	-0.3270116865747377	-0.5347035174520436	1.0536505301706236
Si	5.34442841385354	13.790603146414991	2.748687355612786	14	-0.09079575616517724	-0.5831917355741841	0.5740010624967827
Si	6.814326627542213	15.097600269411362	4.154920812020929	14	0.2018315105210922	-0.03387122726656676	-1.531818784069527
Si	5.669918995447229	10.84928152006106	5.376178792548828	14	-1.6276104549822838	0.19102618330263788	-0.6409793845287682
Si	6.832612615272197	12.35253731136658	6.650097137741277	14	-0.2597780537844615	-0.5679504803468782	1.5247464446653956
Si	8.176394913585474	13.763231564781501	5.4668379317159514	14	1.5896270018666723	-0.28997722843279283	-0.15071613698282427
Si	9.745365460795965	14.936535977486558	6.971241722251158	14	-0.19887011141334562	-0.8258603690057202	-1.055638508804162
Si	8.017528220186067	10.89224949122927	8.29842723170099	14	0.620331609034255	1.2072365349117968	-0.667350697576463
Si	9.413347683582067	12.18770102197281	9.662119116654805	14	1.9630057446744282	-0.9061264204427629	-0.6388083431964352
Si	5.5041971066477	13.700698406741658	8.093820968993134	14	0.07895273083951117	-0.8950981783930518	1.0644059779458668
Si	7.103835633279775	14.805352465511552	9.586498767396556	14	-0.6497306557069563	0.12516937741130094	-1.1560982785361797
Si	5.375998392669877	10.598525688319866	10.7769739685799	14	0.5381212877541164	-0.41131848713292535	1.1918800941661485
Si	6.4582008665049315	12.125463063734887	12.24455978382021	14	1.5667709040126838	0.47574601557679186	0.5827842153809406
Si	8.235287274068316	13.441824580447692	11.100545751461116	14	-1.413891953234551	0.06581438265355448	0.4656533987530826
Si	9.370330512446872	14.960020761728114	12.45334804372192	14	0.7550457007255417	-0.5351598886463698	-0.2278834922880246
Si	8.22918647816199	10.907567080951068	13.630522853829914	14	-2.195571733971507	1.1588498754498024	-0.44409262375938485
Si	9.44985405908605	12.226060596233285	15.013730725688374	14	0.73469925877455	1.409079872517362	0.09577238762285586
Si	5.347249211960766	13.781353552621528	13.583389285456848	14	-0.47419795306353074	-1.3424838738464824	0.6889991472615778
Si	6.754253467851697	14.701310935324102	15.3022721320752	14	-1.0242540546032426	1.885509287888249	-2.0000939389175643
Si	11.007131414142748	0.12726391460508	0.008331194409713999	14	0.10854229641643533	-0.2334800172383909	0.08389285260164368
Si	12.366395302067778	1.6059689223843374	1.2920731330104673	14	-0.6610908274534986	-1.83645594081674	0.6859755274050838
Si	13.712407998884444	2.6794630020627808	-0.07855594728844499	14	0.7043563593388223	0.01231353759925318	-0.9813811305003052
Si	14.877053217399878	4.083466059967535	1.268276748977997	14	0.7926033788001369	-0.18912947890796464	1.2715496491689169
Si	13.766987162261469	0.192831070609089	2.582276667275448	14	-0.11399843901632156	-0.4534339636085468	0.9689727191147386
Si	15.076427883618171	1.455827023130535	4.250253948051771	14	-0.41277527540732123	-0.4415721692140437	-1.7916469744077312
Si	10.938743460031512	2.772565739590234	2.6216202408756524	14	-0.6001579453607772	0.7286044536131389	0.3972308868627699
Si	12.18507702373353	4.2699011348683795	3.9317169617921746	14	0.38382874327096606	-0.5865686253016665	0.7770250516653596
Si	10.948944253186713	-0.18241707759694648	5.423837160569751	14	0.25167418692588683	1.335564258098368	0.1010236131287263
Si	12.268044568061766	1.3342539047068935	6.78124784973829	14	-0.9566452975467564	-0.9021964859609167	1.3421403741757107
Si	13.578075689022306	2.6680814096999037	5.492635114405874	14	-0.7878123811465729	1.0589696328569458	-1.5552310120042632
Si	14.999347935339323	3.991019321999902	6.649408338203465	14	-0.1795114881263547	-0.674920031638979	1.0067522835784624
Si	13.350460241753762	-0.17570948209778697	8.423313147901723	14	0.4962647215842336	1.051873639283869	-0.3461463665883438
Si	14.914773192089529	1.2951563309416214	9.682192703185297	14	1.7016228069491304	-1.550333570590445	-2.317587136486582
Si	10.870814705612151	2.7360593640862514	8.230924876995514	14	1.361837354922833	-0.6586102250406197	0.4937506948021929
Si	12.53173999112041	3.9915933216147446	9.517586013637466	14	-1.0053654293687744	0.25943583966634987	-0.7000150480057524
Si	10.628816467994554	0.0902163394642455	11.17924929865052	14	-0.5532450434682913	-0.38319907957806176	0.5137240693712312
Si	12.245592983126926	1.1660064176020588	12.350831712511049	14	0.9357393830781006	1.649244506477606	0.26758007287845087
Si	13.687102815864389	2.5499522889653177	10.909731879498475	14	-2.4263567186133184	0.33131880220704985	1.2371351473482028
Si	14.798513670100428	3.8958009858920297	12.315210936412823	14	1.1385965075113997	0.9578233780044484	0.45212167145314336
Si	13.901221072189637	0.0619427584360035	13.692482012254914	14	-0.6946308963548302	-0.21565968626444462	0.4685006407846146
Si	15.469535619840308	0.9689605498211264	15.618693519754379	14	-4.194156948287209	-0.4436804755765651	-2.267986658202945
Si	10.948321053604884	2.8222741062355947	13.5398309146848	14	-0.23231376386517177	-1.7464945083279508	0.30451297236025
Si	12.295170149860322	4.002384514373784	14.967121956963165	14	0.6168176793932086	1.0436371033907748	-0.6890816797423547
Si	10.7977527546372	5.480843522318109	-0.3249001819898505	14	1.1017286569942004	-0.3239800962917512	0.7793102500739073
Si	12.168627834771046	6.8526042018577105	1.038676903040997	14	0.2893599060454253	0.680440451871869	0.6710551461217324
Si	13.675622823567538	8.403354361294198	-0.009249593793462	14	-0.9163524776325879	-1.214160521538956	-0.6928702034315929
Si	14.966925157095218	9.624563141855113	1.4720958122140708	14	-0.24004687733658117	-0.27522808276376337	0.2397740830621134
Si	13.584602884642514	5.556726271400287	2.4956027254342303	14	-0.3761748198434172	0.15013763828579094	0.8547410808458795
Si	14.949737968627934	6.746414273111848	4.1621204071899545	14	-0.315920709555215	-0.781927635289818	-0.26669355576406384
Si	10.837834327742202	8.182036509799927	2.5560530848716434	14	0.04842188360488079	-0.8830191255989961	0.002668293101249676
Si	12.137648255558545	9.507680420284181	3.917826171112986	14	0.5806689670340547	1.6385021713394952	0.9569579439536867
Si	10.776367168987068	5.647385410567412	5.307905638360562	14	0.6060511758650886	-0.6172113156177235	0.5682831813753053
Si	12.433258057202432	6.906248565861992	6.704758301063278	14	-0.8982398119837408	-0.2496620399023389	-0.5048414147111836
Si	13.665208830555397	8.309464424294962	5.246372879649445	14	-1.3102627819743866	-1.0495388185426426	-0.4669816317614711
Si	14.97519075154895	9.665251514552947	6.393109310181792	14	0.799292109290502	-0.06221483520534717	2.582897180477874
Si	13.791915145534631	5.3866747855059485	7.943695469728326	14	-0.9542713960046637	1.0042953353345287	1.628501857196779
Si	14.992509139928199	6.854145800823288	9.513797616179504	14	-0.4371894630853193	0.12737255756013585	-1.2771983675572824
Si	11.152123716851962	8.25363886175428	8.145972933998822	14	-1.6084896589374067	-0.7761254219138398	0.19335946138067225
Si	12.461367638340718	9.367985314020515	9.676255907168928	14	-0.05597784791973196	0.7241345870140615	-1.3004257330195002
Si	10.941908657907645	5.177591325802319	10.850199919444808	14	0.5555811497621779	0.672070732723191	0.22269011665185753
Si	12.112933472142325	6.810439830150281	12.192998218418358	14	-0.622880859959182	-0.7313737911534705	1.278527629007799
Si	13.635377250572583	7.987352240434347	11.060136178576204	14	1.4955574572973505	0.7989249554507849	-0.5000779278845452
Si	15.167480622521188	9.36260611762999	12.424467663100843	14	-0.8248123864772279	-0.30177808763120845	-0.724439262994499
Si	13.709193601041328	5.5655822654578575	13.611105266859242	14	-1.8001354786222001	-1.1636269891346374	-0.19011678335090149
Si	14.907245597140594	6.706021100215931	15.161511026526826	14	0.59253358964441	0.48967754975401423	1.0275036746173773
Si	10.739565593681165	8.41909835072988	13.485333751252753	14	0.039434584958303175	-2.2048647370406496	0.8757328702322285
Si	12.211021806324412	9.650852324214897	14.924285185706918	14	0.12228202613677465	-0.8310866547899853	0.15683588186584074
Si	10.845575122548079	10.93751346085685	-0.113717523694797	14	0.22344165073693678	0.2876069264381483	1.5302619797981774
Si	12.195720616591611	12.507927207098945	1.3150167176151721	14	0.22047253831322977	-0.6139526967349677	-1.3574675043207096
Si	13.662781632184062	13.853021504531863	-0.0402947729619435	14	0.5228250108729594	-0.768627821689756	0.12157574350532999
Si	15.165922623566615	15.419679653293986	1.0150773188764723	14	-0.8333402286030951	-0.7754502496567689	0.185003369090191
Si	13.53953571488288	11.174690101709771	2.6193898423722644	14	0.10343788102434535	-1.4786164443428949	0.768123885047007
Si	15.169579821112611	12.344255316923855	3.8817953952898723	14	-1.8450143790959168	0.7102516467273899	0.5385342072685321
Si	10.928936266612203	13.710620400083936	2.767744142825557	14	-0.33958387736919776	0.5121392400518919	0.028069013890588596
Si	12.407329674600547	15.036920310128012	4.0673120708069685	14	-0.13193215573488645	0.578849138688454	-1.1948816025168894
Si	10.888149493980395	10.957915047167253	5.687630983562368	14	-0.5465511707672858	-0.18032678562337365	-1.9345076133059071
Si	12.297761348121611	12.341122919025713	6.908708564211317	14	0.630850515120045	0.156319861028087	-0.3079058029407174
Si	13.696401609624838	13.700321206994762	5.371799995487029	14	0.5307275601849665	-1.0462606592594539	0.6501741713746818
Si	14.865622425070017	15.153491431908026	6.840041810287158	14	-0.8605227253792965	-0.8837254082304409	0.9266001321071021
Si	13.670325627121994	10.83648952864457	8.065563787953886	14	0.21026062220266567	-0.04914744952622658	0.8132817504479598
Si	14.925515184881581	12.221944198995416	9.593927962411517	14	0.2562525541694745	0.4612071863229506	-1.316309764576843
Si	11.004638615815432	13.53512411784309	8.453341527752483	14	-1.1946872269546862	0.1740211498257105	-0.25877763670439197
Si	11.845121651845812	15.061028293951397	9.992316495090204	14	2.3103175933043953	-1.0998640914160291	-1.8007648852045726
Si	10.974134636283804	10.603658884875456	10.920572272224499	14	-1.1604861268755444	1.3354256755216118	-1.0951707957646306
Si	12.346649715317197	12.047513916039277	12.042987519076519	14	-0.5715597979953021	0.8193888969149076	2.0511681747707105
Si	13.55527970431856	13.61115446682623	10.904762682832837	14	-0.6176682010331136	0.25887765270134566	-0.7134007365235072
Si	14.885335211842605	14.878545616398467	12.246675382400628	14	0.30220309134062895	1.630011867351302	-0.1375086260637556
Si	13.673654824888079	10.760163979859515	13.53742011630246	14	0.4186458801848153	1.2503053772401296	0.5615633405105664
Si	15.03339431249398	12.24124698604312	15.072836286028158	14	-0.6590231445550354	0.4565696836569995	-0.8095618752707696
Si	10.88506629604924	13.56851449543793	13.591031680328749	14	0.9610902244242285	-0.10012269782454641	0.21012589628388992
Si	12.33771172131465	15.147062636221792	15.00784312963899	14	-0.4296887775348513	-0.3733807996920123	-0.8326416592876108
H	10.585445057097054	5.553723433415211	8.353209754941558	1	0.15755836246080235	0.2670753649041058	0.07528736309510807
H	10.189683802655447	10.510482347397526	12.98674620580826	1	0.4507381596803716	0.4701309786681205	0.4289526700816929
H	2.286237185919878	13.817786128175031	13.993767850090142	1	0.3066007098802102	-0.18703762761949216	-0.20031507260326886
H	8.126265067222931	8.460039283258245	10.602715885508216	1	-0.2845185147275864	0.12122658740285386	-0.3767818578095042
H	0.16166945151873943	0.7022524487840086	0.11237600459496509	1	2.8663718264454805	-0.0137307308517188	1.7920161851317047
H	5.675498271703498	6.045801823227389	13.08788165794571	1	0.1659108552038354	0.23366950770048586	-0.1827827054251791
H	15.96461848763646	2.512065034387913	15.195742723557132	1	-0.053907079694884695	-0.03434482486653804	0.0078040759782454635
