222
config_type=vacancy dft_energy=-23115.91502377901 dft_virial="86.32332866183228 -4.235662800962661 -1.9876368471730526 -4.235662800962662 194.5627404638914 -11.196731584511955 -1.9876368471730526 -11.196731584511955 189.97989218744002" pbc="T T T" Lattice="16.292690975672496 -0.233938961867688 -0.041452999860096 0.1971624600264 17.0464055831916 -0.18699474307958402 0.03131787174964801 0.173388903895944 17.01404486867818" Properties=species:S:1:pos:R:3:Z:I:1:dft_force:R:3
Si	12.36715869603596	15.688238127044288	15.34690754325131	14	0.47787694766613065	-0.1176848898243499	1.6283221369349008
Si	1.406077933933728	1.5579810180122498	1.3985156944545336	14	-0.047953428215549807	-0.0458296952211075	0.577269451579755
Si	2.855864015204218	2.6972476308338886	-0.012853037063539201	14	-0.07003922291562181	0.8347201408284185	-1.266948141977448
Si	4.109168743128398	4.1919704585722135	1.4301252362896755	14	0.13378103757060494	0.45540857249442057	-0.6222655944560705
Si	2.7471688398242087	0.1122180285913896	2.819498132701167	14	-0.3140826263618411	-0.4212020730941065	0.15028727661542357
Si	4.1423067013892	1.514732373268277	4.304960842585524	14	-0.35394427191382094	0.1861894199743753	-0.2687926061474327
Si	-0.012856295947176001	2.8912440854071373	2.8057782325902387	14	0.16686473527761034	0.5093467625636791	0.23467146744374753
Si	1.4271433577620034	4.375641140342261	4.232590813663107	14	-0.02019011874752682	-0.25851178441428857	-0.33115425146656036
Si	-0.10983252576925201	0.15911499356676	5.682875504130027	14	0.0418380542115776	-0.29561643373147356	-0.2991907843475434
Si	1.4275344237984193	1.421226854519393	7.063736196482197	14	-1.2591826325790048	0.9889219252937677	-0.04707770974350737
Si	2.712161911797703	2.9558791540176097	5.686655809148714	14	0.41689341479860237	-0.21750265455792675	0.10004376489121787
Si	4.1051961639751395	4.3443656340798915	7.199605573067662	14	-0.49642695832993494	0.045590068205269695	-0.6315552550882975
Si	2.6181480072014787	-0.053727585078103206	8.403953721558015	14	0.7793462455483893	0.22665450394499384	1.3252772657124554
Si	4.1770105532374835	1.3417475709432962	9.900706833802065	14	-0.7687329798973501	-0.020907714242380148	-1.0207655789048655
Si	-0.10127143845537841	2.9631578706204023	8.530184949787644	14	0.3480461563094012	-1.1512856835979266	-0.41241557777303245
Si	1.4429815322368513	4.289094967599763	9.732476742703176	14	-0.25986367159162244	0.036878392049011964	1.1694597986639252
Si	-0.0471462695735856	0.0771410345666928	11.293851888023154	14	-0.2789052775926391	0.64899866202231	0.6061288232457571
Si	1.239931898920572	1.6575464308837633	12.762431951227068	14	0.6546903178695219	-1.5568312679555234	-1.657773891266665
Si	2.7732285028258805	2.756929196316425	11.18124931116262	14	-0.6338931611559081	0.9905844019937752	-0.0018866770839246604
Si	4.096543827919436	4.24370849519005	12.502324153755877	14	1.0276211741305084	-0.8373287842862407	0.5401689160310822
Si	2.6537676053517028	0.130893061272072	13.858381482748364	14	0.43527681783766115	-0.5394227812671752	1.352218078588563
Si	4.137899061270428	1.3484853128623802	15.444983646300807	14	-0.4909397053556749	-0.015895344420751467	0.3242284650656775
Si	-0.007405813064628001	2.431459599183754	14.471802779145044	14	-0.04570988171318859	2.7408941735062933	-0.6691250173578973
Si	1.4174416611752496	4.232841747703141	15.377254267677193	14	0.48428799878191986	-0.43926048842069854	0.7022015159700062
Si	0.0369769231849512	5.3633810701454285	-0.1304384470047384	14	0.5466108204107132	1.3546295182683301	-0.4766700708288531
Si	1.3687751223850968	6.87954409333026	1.3481317239877872	14	0.09357974900583357	0.4652361083596226	-0.37519188627952466
Si	2.7286551218835484	8.402537736617825	-0.0265566427562832	14	-0.39078615426728674	0.2281190055353502	-0.12078538572991647
Si	4.234477707288814	9.82212374322609	1.2907101943073713	14	-0.7448186150935888	-0.46476225364911933	0.2512872355752045
Si	2.877336799487093	5.731177047952858	2.7660556999412838	14	-0.688029069224286	-0.5648240162775782	0.479915319963944
Si	4.129473217627481	7.189076120037162	4.186365178716917	14	0.19714335708033418	-0.5161802462835686	0.3849320045638416
Si	0.0927576049542384	8.402565437128738	2.7503462513700887	14	0.1465355197322635	0.7859850965955436	-0.547161551170289
Si	1.5184670539160499	10.0659387519551	3.985903099008257	14	-0.7765257430121869	-0.6064381272157708	0.9200558977357293
Si	0.11273944997327762	5.749169344511631	5.687235890436066	14	-0.24434447987920865	-0.2908269787411017	0.0356360339583164
Si	1.5525647534078881	7.188685054000745	7.05006517962582	14	-0.6085083812195542	0.49921429360750746	0.03641713575457739
Si	2.7578433131765476	8.667876042326082	5.5221082565594095	14	0.5102240236989136	-0.30573990381902466	0.06002682457790115
Si	4.317325047103544	9.962687541690366	6.873572189065825	14	-1.056440179442984	1.0950088161294613	0.07792583137464403
Si	2.839294221352908	5.864424652652518	8.59974745045696	14	0.198998152458289	-0.3351278947388492	-0.3558525462824348
Si	4.312954884146595	7.122140279579108	10.04346386095391	14	-0.31744357523633865	0.9673686065054982	-0.6879997586236364
Si	0.195972967498968	8.7145204438196	8.45614148411773	14	-0.4715697692052754	-1.0756460790739584	-0.026716612492190706
Si	1.6534728263377634	10.07896450985139	9.752447181629487	14	-0.5644162389738028	0.7513787903179465	0.16323304901290117
Si	0.074441049473604	5.553184970919935	11.392741082540033	14	0.09296602616591423	0.22276647847986591	-0.44041440048838104
Si	1.4894043296430672	7.179058311737638	12.49769653899162	14	-0.07068328479831891	-0.40502416419867077	0.3686036860071772
Si	2.853009233138381	8.762950713546084	11.305950493524774	14	0.7897823620428704	-0.982904253291961	-0.1514995527738734
Si	4.256599009415412	9.968540496702058	12.873367609107378	14	-0.16672769536404644	0.04368385072091191	-0.050401377590862786
Si	2.820420396770381	5.6496088199655725	13.816196863511806	14	-0.6317100356285704	0.7799252584664865	1.2378522286219922
Si	3.993567993322011	7.249771198330743	15.43157985790265	14	0.6104307966674289	-1.106272571426498	0.37051967369175154
Si	0.242265409559712	8.428426308228564	14.095685241971045	14	-0.7700236747680643	0.6944964275465865	0.2448101070526875
Si	1.4240979310034136	10.027558879364507	15.537390921264091	14	-0.05278402089104402	-0.051311034653131186	0.2099312636111547
Si	0.019471829729880003	11.54731482175891	-0.2672561587285128	14	0.6846125844748732	-2.235999794025515	0.7062620626021161
Si	1.4872730197446	12.760778067781393	1.0243437108117048	14	0.6739396691804066	0.8703803431767443	0.8750911223443196
Si	2.865432097561863	14.270904009029053	-0.3226034089741056	14	0.3101092402000843	-0.28382534473327453	0.590674423387411
Si	4.268873594633419	15.593257963449753	1.2810557515333514	14	-0.8009515006641256	0.2635802043318965	-0.9233543687509472
Si	2.8808824648839315	11.337385685085348	2.577356560719653	14	-0.5689390703424752	0.14890299351105585	-0.9400102461253984
Si	4.065836996851687	12.75646167640445	3.9586262429682413	14	0.8760144062647848	1.153580909317223	0.7992322025365426
Si	0.14343324550647843	14.363549182497822	2.3814732125206968	14	-0.15918021569675173	-0.7938555070910489	0.4482927814103788
Si	1.2586802564830826	15.827257214664721	3.8711920244347158	14	1.4098524896660665	-0.02098099074400437	0.7436032536087548
Si	0.3355036998503784	11.544205846769405	5.635937803109196	14	-0.6660008672833854	-0.06812323523104745	-0.8939321821303646
Si	1.6423176676489968	13.092721437258568	7.036749381085856	14	-0.891316082467114	-0.34077378491136234	-0.13900038137050552
Si	2.773978046062344	14.442749831522972	5.387172550135887	14	0.16305898518272713	-0.44658068237769216	-0.41391813172212705
Si	4.235421154101668	15.675507298117129	6.906014375670169	14	0.4153114136951152	-0.09213761603176253	-0.4326139240575837
Si	2.9736808058836295	11.62458132334562	8.381821013338687	14	0.5336737897713242	-0.891315311135518	-0.009858646239575794
Si	4.3355324299823454	12.81994961797477	10.005035105108762	14	-0.29731876256394363	-0.08435565155927034	-0.9346191524901121
Si	0.0063417875572128	14.400711862050072	8.479825420948174	14	0.8365854777381858	-0.496671213335349	-0.5959482746200988
Si	1.533430218134417	15.627618003074353	9.806697817531298	14	-0.4421128726628708	0.7183161756745663	-0.38333791926534977
Si	0.1403340471678816	11.407484272112914	11.247683283540608	14	-0.020181891210502345	-0.043671766525907214	0.49732453119719866
Si	1.478457739507056	12.838499183635436	12.799112316001072	14	0.3495667079957368	-0.1667048125266971	-0.7061306791202565
Si	2.763347567639103	14.201488158123395	11.20606896894049	14	0.7197202562898992	-0.4854339404231098	0.5144100402706466
Si	4.267095873609545	15.526085853928032	12.505799753154525	14	-0.34204879603962385	0.3986393383571471	0.37771671170391
Si	2.878454596574515	11.439145956086247	14.294076301128518	14	-0.16194569657910304	-0.33308103779347936	-1.1025745506445292
Si	4.337352516493498	12.770104992749916	15.520910746712794	14	-0.2195091451497703	0.7924254583119826	0.18695535224924742
Si	0.17008928421368402	14.452378203227898	13.974821395091226	14	-1.179907228021815	-0.5497807361599238	0.5300966109394022
Si	1.3982696487399553	15.961661723055446	15.350818203615471	14	1.4183083408429695	-3.350694535149222	-3.6479806446756
Si	5.444126430014422	-0.2829721250669808	-0.1273392486661416	14	-0.1308774883325617	1.2354557013530822	0.6619706596940532
Si	6.801265708374324	1.351234181210021	1.3333494278112625	14	-0.46515280454724983	-0.36024219439552363	0.14423566602339105
Si	8.309804573290862	2.613522021879041	0.0642456320158752	14	-0.040873889716522074	0.5764996626469027	-0.5843253359098373
Si	9.636717705919446	4.302806720501599	1.3926073384210151	14	-0.2418296817655718	-1.093389019777768	0.14634011572793224
Si	8.118946423659851	0.1407071893442952	2.898262091318986	14	-0.14127915201575275	-0.8752574728585333	-0.25828475581451954
Si	9.6701880703112	1.4414270447420976	4.19378565675791	14	0.17683882414606075	-0.24493146322379847	-0.5036983012858457
Si	5.486210023858239	2.8447072270736333	2.757654297925613	14	0.19978156824933813	-0.3304238004451063	0.20651966396185023
Si	6.782212645191773	4.372447434378197	4.0857748469416295	14	0.7049963074530072	-0.277479342582085	0.43863262450151835
Si	5.471054585505301	0.171164715813828	5.781163434615915	14	-0.37802138768434757	-0.9432105009173868	-0.48506961479924493
Si	6.847659175827809	1.6128182529686834	7.019345313023526	14	0.3251594623021031	0.049759886813485844	-0.3883094085123881
Si	8.310396060670943	2.9130232047518714	5.440139185884797	14	-1.0680592614952653	-0.014894413119617823	0.39691618357158376
Si	9.692922042561518	4.17252144102779	6.857061055119977	14	0.12650969461469413	1.0448648061811454	0.4160302947426286
Si	8.102353817623085	0.0626145607556568	8.320514894363207	14	0.24140699205093946	0.006848653241278438	0.5984903264501291
Si	9.478800352089209	1.479386521343544	9.74823996285438	14	0.7274382002399197	-0.30485724336261777	0.6854615634515862
Si	5.462128503224105	2.9205903325565212	8.47340379074186	14	0.6409703856601477	-0.25823024838173236	0.7171697198123124
Si	7.069867786044836	4.2674576096932295	9.772235123072136	14	-0.8664753484165034	-0.10439124687705627	0.9828273772428885
Si	5.402049353937879	-0.0951659199618336	11.274090017649598	14	0.69431567884258	-0.7237013557676165	-0.25815645765904416
Si	6.766597704246046	1.2793301726476656	12.624545325670423	14	-0.18110068832473822	0.9527480161024761	-0.01909714187593187
Si	8.237545346412096	2.748772210573515	11.429525731590411	14	-0.052394755545573594	0.4347320006203217	-1.195777118499897
Si	9.625085120777888	4.105331407646067	12.89066739289333	14	-0.13652517827879895	0.4389046474443901	-0.9435547719197547
Si	8.10864346304211	0.0589157278278888	14.040235336890893	14	0.10922903864744689	-0.7763182548128509	1.2001125162907307
Si	9.57344159178552	1.2449440619539704	15.551172740164118	14	-0.4522643677984115	1.0713119668357847	0.07484796119589476
Si	5.462509792609611	2.728200507616215	14.037703184305101	14	-0.007433579701612126	0.7502158793816436	0.2064695274081073
Si	6.7974560734029055	4.0546508787683715	15.695937239636228	14	-0.1276777477616374	0.9764116981375228	-0.5481820228718557
Si	5.373987106941394	5.705585034753068	-0.0479675082500592	14	0.3994474367592696	-0.9106996454757105	-0.2621355002525053
Si	6.908929447083286	7.099565992626994	1.2807314926114897	14	-0.3352232827462267	0.2000278801390083	-0.33555084156401355
Si	8.29968411015678	8.500830555429168	-0.18597471250126563	14	-0.4857332170823751	-1.490133453513966	-0.33389736373262635
Si	9.521351595734908	9.855675579708764	1.1718196014696338	14	1.1799203406589478	0.19309643730642112	1.2173013837980484
Si	8.281815651176206	5.8032651834406925	2.738754402273991	14	-0.9813808733897732	-1.1773206960697462	-0.5757429863511832
Si	9.656029850351123	7.024002257740513	4.065222697286151	14	0.9643143904956942	0.960108319302464	0.3658778001467562
Si	5.523638302426887	8.451789245020784	2.726831776488759	14	0.648822798418412	0.3201010696952437	0.4035372939920291
Si	6.9172461181244	9.943875635896939	4.150282819090267	14	0.568553661654985	-0.5121412969361481	-0.4805136161719424
Si	5.42713135184851	5.637638940367606	5.68078493027702	14	0.5620968448644972	0.9108855363903571	-0.47913421816768303
Si	6.932434145313707	7.203421725806355	6.942445435845956	14	0.2941151653350391	-0.9006790196009653	-0.17269883035955835
Si	8.473263658745477	8.473980613145574	5.518487636838925	14	-1.129813868848306	0.7290659670181054	0.3659513337589124
Si	9.630913634162305	10.039201241156974	7.036690721180393	14	0.22681828335388723	-1.5418856898400346	0.4538347989279579
Si	8.368560615820549	5.682679971111819	8.319374285090326	14	-0.4119638345682824	-0.07473457545127622	-0.1875886154895999
Si	9.5399744862774	6.940173993951106	9.983228285253118	14	0.9222426228105152	0.13140585047585213	-0.08236947269945595
Si	5.553598849141808	8.58344162618023	8.297648937325599	14	0.40141458943971486	-0.6029797334496397	1.4754210746510146
Si	7.012174139580747	9.826984368170377	9.886894055507488	14	-1.147297899246377	0.5957757534531168	-0.4754228276380492
Si	5.653765526044311	5.662588953490947	11.404598530652528	14	0.6755718068376365	0.11425040733769608	-0.6582916650914533
Si	7.082751782502925	7.047181067607252	12.91733972601872	14	-1.0679551317297993	-0.0465920279485314	-0.5739308713215427
Si	8.293528078966865	8.448932833513128	11.346007061746501	14	-0.1307245075660129	-0.32203505511705915	0.036905131544341496
Si	9.592706482404461	9.90264749900778	12.68811636877348	14	0.7411051676796988	0.1946280447456333	-0.4795227121815574
Si	8.246740286593328	5.490826232529766	14.285321310238256	14	-0.3094510372381264	-0.3824642576775635	0.09254590755660205
Si	9.59658944225771	6.858781745680208	15.61250655965051	14	0.5780089014698295	1.3781134800414985	-0.16512101164948592
Si	5.648575753852707	8.496004148763069	14.281912517954163	14	-0.38669038349229085	0.07644230360491858	-1.0838839005197127
Si	7.013339190480903	10.053879253057122	15.385091882823696	14	-0.6023025043083127	-0.28582412200915763	1.2609716076607638
Si	5.583075451636663	11.132861406923416	-0.0401070809180976	14	0.6972526524497852	1.015618740274993	-0.8178660312337839
Si	6.86987987390533	12.796381371513434	1.2120733321513872	14	0.7248200436924129	-0.803875104523666	0.1042287530208229
Si	8.378148251480015	14.053648901939962	-0.2099503194172032	14	-0.7179173972394114	0.22647298390939136	-0.06769874574269101
Si	9.518910691890945	15.62665337351786	1.2336487712688216	14	0.4832947807967466	-0.6651814560178542	0.9321038401554111
Si	8.273994330447886	11.306054777801153	2.6538083413971627	14	-0.034731776217220324	0.31548259320866173	-0.040063220209079375
Si	9.848225771715038	12.628495092638225	4.02817407866119	14	-0.3348309320743721	-0.029985001575162946	0.5056808805982119
Si	5.575004826310129	14.195134964473453	2.5862419069553884	14	-0.0683847166421065	8.304670184078295e-05	1.1787366037695515
Si	6.91685831097162	15.727559817005917	4.088380324409251	14	0.5239385565871155	-0.6970433644767252	0.09071939433716886
Si	5.554811153854697	11.433372843723655	5.3875994638923075	14	-0.012749082840486264	0.2451561778287794	0.7650899807692323
Si	6.906723182861172	12.912382964007149	6.939657460894673	14	-0.07118387900415173	-0.682003426795987	-1.0021343213129443
Si	8.448170254742116	14.06719608121814	5.413012238492074	14	-0.741159932223018	0.7595839587261352	0.15645587249952284
Si	9.67807130982862	15.622811149710074	6.861752218115151	14	-0.3286703066167653	-0.6525591286696512	-0.15567014271368562
Si	8.09240933420539	11.361727916410423	8.301952293167993	14	0.6147751933268831	-0.21286977988155192	0.5562951457095829
Si	9.65155051479234	12.621407020728187	9.653784479525367	14	0.020685827853251373	0.7748653231964353	-0.3296786941233274
Si	5.615561633170104	14.240578467346811	8.38078142945855	14	-0.8423768924718195	-0.21957239434064596	-0.09958585103369949
Si	7.054837814711915	15.608252087062668	9.567107951437398	14	0.13621150342974092	0.7680876324619929	0.8014335829116533
Si	5.606510083868892	11.276987165202714	11.391962209350837	14	0.40098264374593	0.2922236031510062	-0.686343966797461
Si	6.983109785865946	12.91250354270171	12.505798123712706	14	0.8763123973713899	-0.7151526876886563	-0.23236749996636283
Si	8.534876112782818	14.276331679726145	10.966951640973928	14	-0.9816917200229791	-0.2498381606167691	0.888573741532644
Si	9.705183592244977	15.70356139790452	12.606730638269857	14	0.22615776639714122	-0.38780804297495924	-1.2480155508420057
Si	8.286576880169571	11.389896077125105	14.009601830704973	14	0.043815234202771475	0.8785037504357521	-0.850841228296279
Si	9.659966581784376	12.782353506898827	15.368140799586882	14	0.5408101496979272	0.4080264438810076	0.36426983087953557
Si	5.661099643668929	14.124161367189403	13.99269148351362	14	-0.3757009651329139	0.6214639238172484	0.17840616994922304
Si	7.018207962634282	15.624996231188547	15.329889652899942	14	0.46246677081929105	-0.4782222471106265	-0.24831195249872914
Si	10.784595918751329	-0.1813845748988328	0.0911086098340176	14	0.2748388174182929	-0.2718239393198873	-0.8999709371957966
Si	12.157003066949638	1.2987791901920882	1.3291878334070688	14	0.18916084639287042	-0.5681291721666285	-0.16121190312073275
Si	13.627043110022841	2.250303146139497	-0.2865014960456352	14	1.4547239339343545	-0.353095807158172	-0.3654769648273451
Si	14.94311393679179	3.8646449272083845	1.1349534803283337	14	-0.3855830084309031	-0.3891180211355747	0.8809373016212723
Si	13.51775970614639	-0.03263609018073361	2.736460148193684	14	0.5156778523040118	-0.2462653526638913	0.2168560215699095
Si	14.843902112794868	1.3478693838550249	4.198902104067687	14	0.47887273675662395	-0.3279683948643649	-0.054102997920279984
Si	11.120793760816344	2.8524959589655854	2.687588299734413	14	-1.7115693849906555	-0.21522285547055142	0.6833432297783161
Si	12.40753789373773	4.083019460826716	4.168249044579945	14	0.05581715383722271	0.9070098522307659	-0.16722237602764292
Si	10.833627452508802	-0.14647541338143122	5.644197443686666	14	0.4983627435254745	0.6540981923142919	-0.5754606789870308
Si	12.142460298720417	1.3166737202417569	7.003702671566885	14	0.03855321005455641	-0.602602809409706	0.6072585669234302
Si	13.531724022530078	2.638072821756874	5.7002926077269045	14	0.3563107172504852	0.4929567374793312	-0.8539494375178059
Si	14.906749683730556	4.04158601426844	6.986694557866426	14	0.6119989138021872	0.636007638171198	0.3205201598624279
Si	13.448992373084453	-0.17182301030846162	8.410867443193487	14	0.18751791009329583	0.510855487165542	0.5133684855054547
Si	14.725091362606232	1.2851619449157194	9.9555440687585	14	1.2271317478791028	-0.4633437748439936	-0.9906782473379605
Si	11.017790225708008	2.871878169395453	8.393654019823908	14	-1.1789420350846314	-0.5469908297770312	0.13835014883504007
Si	12.168990870407608	4.209196917476338	9.943158681496842	14	1.6413560982448594	-0.6032928940776338	-0.5194350085083441
Si	10.906804055131328	-0.042740258896632	11.28039106916135	14	-0.07046551217770236	0.008008478851197235	-0.06925992089308491
Si	12.35592532413991	1.193593832488913	12.85997359736013	14	-0.3496798366298233	0.746366420496318	-0.5427312795931418
Si	13.56002253859023	2.7049662967276493	11.375840511999586	14	-0.41411482127911836	0.14309203837698917	0.1889590146252388
Si	14.998286836762812	3.8683502779034256	12.894568276606579	14	0.5014565545572086	0.0839540449082632	-0.5283261478159481
Si	13.824617818829296	0.29510983717224243	14.653979262767619	14	0.3548199903858633	-0.03166264779655957	-0.3547641974004161
Si	16.278467578039685	0.47121502057945924	16.702915988989243	14	-0.9258069461158365	-0.00657920140372692	1.5347629567716283
Si	10.92177210767515	2.6270708305990373	14.114449893951742	14	0.43467955007179077	-0.03074733430258685	0.95896443454553
Si	12.367367264588715	4.048230878003875	15.53472352500737	14	-0.5719508631144966	0.26816834177570076	-0.7121264967268418
Si	11.085167644898847	5.431890951400057	-0.0356961819156888	14	0.28239169640675993	0.7026535162852883	-0.10676746241393711
Si	12.461759199686808	7.052074281387907	1.3647373655591015	14	-0.755970270198667	-0.21283044197015366	-1.0896406053315244
Si	13.673806460769102	8.330881403211867	-0.29722485265252563	14	0.16833566463126703	-0.3278133572135599	0.5988109432835517
Si	15.09865393500898	9.682949858632908	1.0938948053882904	14	0.09653600590293984	-0.0899439489726122	0.5088531103422107
Si	13.659811184990865	5.453639111350241	2.5187015435827083	14	0.8059178477005237	-0.7000389592852297	1.1360143464383752
Si	15.064046220227981	6.7220047700018934	4.066285093351747	14	-0.37666872917541766	0.8912605465921988	0.5038132296936564
Si	11.076160090526733	8.465782891357204	2.7017742202054036	14	-0.9018591569429132	0.10186590723160681	-0.3035328670122095
Si	12.402807624138916	9.885158699970892	4.08265772474303	14	0.4379201712173054	-1.1993144451993567	0.7212364370971905
Si	11.021451581473952	5.639133138515079	5.409002182176991	14	0.3444697488090752	-0.24551664679466415	0.97736712087449
Si	12.363505487479106	7.019068307914398	7.04997393088399	14	-0.400826577652997	0.24637128220308138	0.1334331670207889
Si	13.797409399345652	8.382309845884206	5.592210102470614	14	-0.7961167942201192	-0.9788385644492107	-1.2214496051215757
Si	15.100772209372899	9.777103895225515	6.855811273245265	14	0.7850258172005964	1.0116738933822897	0.8935655425117116
Si	13.674464755263735	5.501772822665777	8.468432363753921	14	-0.45508564166621	0.2354816227301262	-0.06306921350323237
Si	15.019873681972976	6.8435839418399915	9.939072041416294	14	0.517402806863299	0.5115283454278247	-0.47482298876685874
Si	10.96579962560832	8.500962540216458	8.76037782491483	14	-0.6908675694977295	-0.7522097715574184	-1.9650757415676798
Si	12.372760717007619	9.806093294616671	10.00660751646352	14	-0.05519006124963859	1.490913783978631	-1.0495748140171246
Si	11.036621684803256	5.528456561883896	11.393207102900094	14	-1.7874630147202542	0.6035412628515601	0.3084776167639183
Si	12.313563095745147	7.073535659578054	12.626120995908817	14	0.24199526094818932	-0.8585656000095998	0.5939703232973088
Si	13.655377473802998	8.388555496374135	11.23428927179336	14	1.258670725509763	-0.393410995688626	0.7650930660956163
Si	15.044985009836338	9.709249049581885	12.774467008497771	14	0.5597178011117641	-0.08419804280314526	-0.82332217383367
Si	13.65753485477056	5.431446113783633	14.002789134462244	14	-0.08680617203990347	0.9204919571980263	0.7623669231246634
Si	15.042431674506906	6.883415647090779	15.491294012221555	14	0.07700306167524289	-0.24793579979039146	-0.48038557512699914
Si	10.904785176718331	8.356421274273469	14.043503997178604	14	-0.2477393673439322	0.34360714297416556	0.6597728788663906
Si	12.210021844836739	9.903369341733333	15.47559434030127	14	0.45849158488381014	-0.9178141510070922	-0.42637590832984046
Si	10.94676611572759	11.180724630897098	-0.19916178513757682	14	-0.42482476049019513	0.5560701739940701	0.3352883317108264
Si	12.225198465933316	12.550819601155098	1.3172586898545624	14	0.43819630792868924	0.2766334489317563	0.3962680079203745
Si	13.535535286943315	13.944890178329036	-0.1018124131390872	14	0.32444778034948607	0.16894141704469395	-1.4005072931589242
Si	14.989220622485234	15.52813406229376	0.9622065765088393	14	0.18409808290696683	0.15202457248024764	0.5683531154400135
Si	13.799570039196851	11.033828821526518	2.617796047768704	14	0.026634851343009996	1.3864641730108074	-0.21867353592072217
Si	15.180235198530813	12.66134463969717	3.9322928337410787	14	0.19555929909259093	-0.3757619003290015	0.337607982930664
Si	11.08199675112024	14.299179712903747	2.7596829529895213	14	-0.38025567820755624	-0.929237829055042	-0.7329570778096176
Si	12.602256191036531	15.58467569339224	4.10720200685359	14	-0.8235114071852329	-0.2018327960737523	0.09440275981881299
Si	11.208609268735376	11.11686843547582	5.6836918544810455	14	-1.1711644414911835	0.87113779080406	-1.3804287603822918
Si	12.337590844799273	12.721754565672532	6.8466358863658545	14	0.5575339042528303	0.23103361052627006	0.713796172521746
Si	13.83869619614027	13.998254397881636	5.489540602935048	14	0.020117613577498642	0.24365208121649276	-0.5996187845751421
Si	15.04848668030408	15.505398460601624	6.89397605951583	14	0.3315273188485139	0.08734456149394249	-0.14296322600044975
Si	13.590975415372556	11.181725108173595	8.265720024894051	14	0.8219795426354887	0.16999119934691037	0.7734949240607962
Si	15.10269658016043	12.603079059154823	9.75091713576201	14	-0.707909112670203	-0.4470941321101258	0.11218503843402113
Si	10.9628226354061	14.125301976462284	8.239142199394129	14	0.48812254525638865	0.06149955370528197	0.6270434794725017
Si	12.460033620801124	15.466322816354573	9.77696865155459	14	-0.8739840043934638	-0.035880546074262484	-0.4450786426496616
Si	11.001528396360374	11.403081520319597	11.156670810773877	14	-0.007202437333330814	-0.7953691167930201	1.2374341668969362
Si	12.277648568625795	12.67452356512439	12.84561332661457	14	0.41261638109853604	-0.6457279589445497	-0.6698829792062769
Si	13.582663632656898	14.115025086913635	11.459111506687101	14	0.2719890042814408	0.7818898400416119	-0.16202925750200783
Si	15.042751045103312	15.686253466909479	12.677800372621192	14	0.46917092794157716	-0.26171820985904526	-0.20268537459791336
Si	13.755755978141893	11.150521297351235	14.189249420625393	14	-0.7018988968738248	0.45366716286108427	-0.7739903760559889
Si	15.020862753156745	12.724915682800228	15.402561128558764	14	-0.5905456110108717	1.5761029878826933	-0.537855692574545
Si	11.046777995657344	14.334761833892149	13.991270610247975	14	-0.6334293337561534	-0.8439231552113566	0.07919235785534898
H	17.634366851175784	-0.3695101506003864	16.492981963990225	1	0.8021864025493928	1.8958603007966333	2.6395530288705293
H	15.52117797517101	-0.35415917922924006	15.54765640472001	1	0.1538508285891488	-0.6033522866105291	-0.039402703252333346
H	12.509076560651327	15.149587027368527	12.336528448733677	1	0.2506789120564574	-0.23576521564693856	-0.25955411051107663
H	14.167732641413421	14.677521438159863	2.002378685144482	1	-0.14587500277551746	-0.2491843285338554	0.33494148960313846
H	12.951919740288805	-0.557342426774628	13.779795133288747	1	-1.2286335304966014	-1.326400581626828	-1.2456136242519233
H	-0.8473276694280025	1.4909376343941816	15.455126921620346	1	0.002863439995048916	0.9996899714850797	-0.4157644424525254
H	12.822361191866003	3.1850780696355723	0.5196094425859392	1	-1.0269524296367378	1.304814866911525	1.1723965151605984
