227
config_type=divacancy dft_energy=-23083.173000523275 dft_virial="-60.02810149365948 -6.53720033552385 -27.182461224208147 -6.537200335523851 -63.228855259892775 -19.479899168310084 -27.182461224208144 -19.479899168310084 -59.36959230235214" pbc="T T T" Lattice="16.3199774331 0.0 0.0 0.0 16.3199774331 0.0 0.0 0.0 16.3199774331" Properties=species:S:1:pos:R:3:Z:I:1:dft_force:R:3
Si	0.9049753886202613	1.2458997171977202	1.0052290099917944	14	3.845147655924879	-0.6934520445655423	1.1224769627067315
Si	2.7204749581880376	2.704301860551835	-0.1124936044463583	14	-0.36196509207055483	-0.9567784808023402	0.07005567798967074
Si	3.9738981849824166	4.045314406229663	1.3458106190431582	14	-0.15754422138154153	-0.4679614799989796	1.078543457659233
Si	2.460220278062392	0.1562474639444994	2.773041605500053	14	-2.123569986365016	0.8336112231038386	0.6969112096632695
Si	3.764578154425476	1.467655570558683	4.149778581778936	14	1.3669505120730114	-0.48315851221477885	0.6995399077425889
Si	-0.171033363498888	2.7142733667634595	2.25799943768885	14	-0.2031579437557566	1.9745728903992423	1.7089725686173056
Si	1.165572788272002	4.054176153975836	4.014583888723135	14	0.8424144306094935	-0.3097881091455978	-1.0651125176878435
Si	0.0206610914303046	0.0803269289257182	5.159821985113495	14	-0.356498407938856	0.7687679469297041	1.1198166400319742
Si	1.529981564375692	1.2795351906873393	6.632389868879541	14	-1.9349791540216223	0.8459047060815946	0.39101755374610003
Si	2.617773340201539	2.985756191363078	5.522451883676977	14	-0.5881118027148194	-1.2058869617292514	-0.9888296226127742
Si	4.0388680151435885	4.061813903414526	6.869045861636923	14	0.5732359015535067	0.7404968441609517	0.4541119640814699
Si	2.789687982481815	0.0008975987588205	8.046499593480222	14	0.8395700167938137	-0.3932716417802739	0.7845211092262513
Si	4.2144383323688785	1.1706483012536961	9.655192409015756	14	-1.4810235131436174	1.0333344272624094	-0.5169713753905782
Si	-0.06586742891999159	2.673098063699748	8.106720310208361	14	0.8326262326556898	0.32656302869637194	-0.7220836163001795
Si	1.4386386506826312	4.021568839064502	9.464101793251588	14	-1.53687254868681	0.8055218974812209	-0.6380208136368739
Si	0.1069774520739705	-0.10962128841813269	10.789186040954709	14	-0.7825022773288711	1.5495128737722539	1.3921041496410842
Si	1.4368924130972895	1.3833139271844224	12.282039656670099	14	-0.35620555904289114	-1.2378704834697651	-0.4583992822028168
Si	2.6599115219338034	2.7666604943237108	10.890451500927096	14	1.0623699196428416	-1.307492158881395	-0.1835848902850653
Si	3.8326814202538024	4.1758415857395965	12.261019525736266	14	1.7155111465569743	-0.29920826786372046	0.05195946741487253
Si	2.6786142160721362	-0.060383916502470006	13.724040222703948	14	0.44211724354191506	0.5887013571647294	0.2898977812784002
Si	4.297833417052019	1.3342560750205235	14.987565515529417	14	-1.6170036170945448	0.06437327812161149	-0.5231849656177802
Si	0.1245703877468523	2.796640292868315	13.543247512700066	14	-0.31490897961173675	-0.20958236461921056	0.30625592465677837
Si	1.4361580141127999	4.119602943505134	14.881763101830629	14	-0.3913579680904877	0.537751305698547	0.21055629931448266
Si	-0.0188332539577974	5.555777277595367	-0.2010947619306582	14	0.17331229608894566	0.38153917398337417	-0.07143353333073811
Si	1.3631424350771106	6.80843346545039	1.2911060546874071	14	-0.722805582674077	-0.7013548509880815	0.2743852744398188
Si	2.6108863097247714	8.137271307963125	-0.0424972212357924	14	-0.11703208618356428	0.18223454577092352	-0.7694050668280368
Si	3.976835780920375	9.117008513204418	1.4459826405275262	14	0.9967108317506241	1.7692850429962754	0.4054692225295884
Si	2.6538241703512573	5.418950586796257	2.7004993058099234	14	-0.1637945784148215	0.4392237216146204	0.4498390441499158
Si	4.045347046184529	6.902338615600447	4.0823117950705	14	-0.23253693580696064	-0.7349460848852841	-0.9863891294428896
Si	0.0667160677465128	8.246354037125965	2.6386465913384742	14	0.18496248851560063	-0.8358020619471368	0.7209782981230476
Si	1.4125919666994036	9.472816661200865	4.171092472306563	14	-0.4035496352975658	0.6147890772956118	0.17271991342318355
Si	0.08582676132067289	5.5191226082806235	5.41217779616152	14	-0.682714851638072	-0.7297213417642112	0.1622943384605151
Si	1.4772517172893458	6.781260703024279	6.7471193102342335	14	-0.7866412426732455	0.008164544944130225	1.185932613339582
Si	2.849663899548457	8.136063629633075	5.60049401576206	14	0.28355177912721075	1.680515060712843	-0.5431110318489276
Si	4.38096738209623	9.502829099700334	6.985358340802628	14	-2.1351399603056826	1.0778662285179061	-2.125796306461732
Si	2.7754080022278522	5.505577027011151	8.198128503811155	14	-0.4972394276111018	-0.9072078273404174	-0.118502758426689
Si	4.190496925474521	6.722998383588112	9.491192955790535	14	0.8701456012610147	0.9448488092273852	0.17737798493169585
Si	0.0618690344488821	8.168246625131149	8.168752544431575	14	0.5869074969828622	-0.05627841013165727	0.7706150289916984
Si	1.5730499848216428	9.465848030836929	9.65832584468291	14	-0.5662023858397096	0.7155756345138206	-1.378468806796743
Si	0.0444229785728982	5.579996124106087	10.76702351160056	14	0.7920385069613003	-1.1197333362196014	1.0141118154468545
Si	1.6370079763819616	6.902909814810606	12.148281121628411	14	-1.8515231322138717	0.566835649080062	-0.7400846959781321
Si	3.1038149081141233	8.272776080590154	10.830328704063554	14	-0.2161021734900421	-0.40092093721824645	1.2478993368815348
Si	4.315654832408964	9.547170478386068	12.485158095802461	14	-1.4754928084894467	1.5405605421580302	-1.7939959362282185
Si	2.692763636506634	5.587193234154085	13.621567084401512	14	0.6963072570235668	-0.009674812209185207	0.906614930453591
Si	4.127354932785856	6.809575863870708	15.097170483970118	14	0.32094722045610447	0.5447565392538225	-1.315566458028788
Si	-0.0270422026066467	8.10991902578525	13.486617191007209	14	0.3090818265141531	1.1418893220949136	-0.4623798674594701
Si	1.1597791962832515	9.512049886950036	14.977300249723996	14	0.24292265863716675	0.6507547269559713	-0.2473662999619787
Si	-0.3209976361316439	11.05583815223413	-0.1298254204803105	14	1.0764744892081102	-1.5918839181166982	0.7861475904517771
Si	1.200970819324396	12.21302247210552	1.2744923176605114	14	0.23897884018659166	0.26918084305077505	-0.09723714632374422
Si	2.7506505964618393	13.441280293698059	-0.12333006946193671	14	-2.3137037390110304	-0.5036034274995324	0.4585016121945587
Si	4.045102246523032	14.568974414347833	1.2173723966446612	14	3.171463811723828	-0.8774082024588369	-0.6799773958037103
Si	2.65736560545424	10.85526562958133	2.6593403227236454	14	0.0074744602762024815	-0.6154549935735302	-0.048581549245261986
Si	4.0897863447348595	12.220137982266351	3.9565010890387327	14	1.041281199585923	-0.8418945531137598	0.04377203963339299
Si	-0.0791192505956688	13.789026372842553	2.5764674773183636	14	0.9316505542874691	-0.7112024414747806	0.03752553925809323
Si	1.3706496246963367	14.866814002501911	4.141863392723882	14	-0.2810544645297509	0.2010102994818369	-1.3395918945823797
Si	-0.240230067815232	10.890255661197898	5.3819205580005525	14	2.0037258822928057	-0.7057056754108361	0.026361542847478252
Si	1.508471834118866	12.043180466959246	6.746384911249745	14	-1.7945723780409957	-1.1521148650636743	1.070084264045414
Si	2.552509750446572	13.25045079757282	5.3168038480424835	14	-15.121532736515231	-12.430063177688675	-12.616006799994443
Si	4.252659719517197	14.889743570795416	6.759408253241358	14	8.595022022556234	9.6740725021846	7.337576942952584
Si	2.9231853978845725	10.911798031409589	8.232302536556066	14	0.3662585808446701	-0.767898656220962	0.6222717651088389
Si	4.43792410333775	12.156424790367527	9.66705703260962	14	-2.5086567714691306	1.5439968244184084	-0.6335298639741712
Si	0.2145097833806664	13.626463077631444	7.850708824215322	14	-0.042497285615663564	-0.16406814402088526	2.0542288185438142
Si	1.4572597449337983	15.004032372759415	9.451453810740936	14	0.5251410625453488	-1.392532495787421	-0.7831635656172132
Si	0.2778312958210944	10.99866927128598	10.905106840662018	14	-0.8219744004248485	-0.6723422414449984	-0.6983047487467898
Si	1.2753735964418986	12.532126990854922	12.212304393098462	14	0.5982008199910804	-1.173671012067796	1.9469124251440255
Si	2.772421446357595	13.611889337783685	10.940309031985215	14	1.3543500391200298	0.7074617403444972	-1.095452074686655
Si	4.150480340808559	14.961828911117419	12.374116969347648	14	-0.05988772778008115	-0.7179047988233427	-0.1092971729384308
Si	2.696092911902986	10.944454306253222	13.774517912904527	14	-0.3923792111236505	-0.47935841855159994	-0.9987803144228113
Si	4.178452782128892	11.971372566253606	15.25560482489065	14	0.34858171754758804	0.4522926499569331	-1.309418945208314
Si	-0.2484226964866482	13.656916155521607	13.646226570302927	14	1.2743539537416027	1.3858044273856573	-0.8873992606224005
Si	1.2091797679732452	14.886495895286227	15.161879194492359	14	0.3634794731041221	0.2755476711550578	-0.5967059793579464
Si	5.368456576618246	-0.253122849987381	-0.0349410716842671	14	-0.03811406526587513	0.08367662264421923	0.11443501269968273
Si	6.409410017211096	1.3715961833874564	1.2518238690059353	14	1.5867123968757524	0.22849875779113604	0.05068831294459132
Si	8.136651148820667	2.7998226884677697	0.0451573775573877	14	-1.1584071311136726	0.46242357624991254	1.3003478285282997
Si	9.506664294397112	4.135841321051068	1.6858699888166633	14	-0.7274929647832389	-1.0085556568500142	-1.2602172453598324
Si	7.873540472644229	0.2349913550592069	2.7075984959933215	14	0.29281958536421654	-2.10881107049577	-0.3218921016612589
Si	9.282166684827388	1.2909102149582101	4.1363962002837935	14	1.2589494333264672	0.39907231249305997	0.0648718154431882
Si	5.238549556250769	2.6105272702212425	2.8059263600277493	14	-0.4519350092069005	0.8209855533187194	-1.0952222178710338
Si	6.546057188258442	4.062956301834844	4.036681138167553	14	0.9655225528856317	0.2633883998750135	0.6804196259187758
Si	5.514030775321497	0.0098572663695924	5.348252444556067	14	-2.040349992025655	0.24271748443261892	0.07137748323475887
Si	6.660460230064473	1.253227387065182	6.945537595865863	14	0.2648228195331241	-0.7590483974879483	0.16614276890371274
Si	7.810414799932998	2.494688070401099	5.449485264573587	14	1.2886058476417153	2.126368634505997	-0.062388899035521195
Si	9.432179917392444	3.9348281590075755	6.755295618928217	14	0.4453421809449768	-0.014366822307923436	-0.3485660338051351
Si	8.162958952442825	-0.061199915374124995	8.216145758897298	14	0.35265383415363855	0.8910502301770108	1.621331301569418
Si	9.68727748464923	1.3910822364425777	9.761517061992402	14	-1.4235767927544847	0.732895371281934	-0.666899725703309
Si	5.324082557977646	2.6023509615272595	8.187651078299105	14	0.3818937294070226	0.7473874064189486	0.8969396040233419
Si	6.77026103823437	4.093850019115702	9.50437949755648	14	0.3321940064580282	-0.32415261745873314	-0.16465127070749483
Si	5.606793527051238	-0.051407928914265	11.015739967681002	14	0.28466661039402696	0.22602561158368564	0.4888493967303945
Si	6.948507831758688	1.6060163392365048	12.224772855857351	14	-0.9853452606829094	-0.6659278478922931	0.8556661645400688
Si	8.299883563106533	3.0837902958037096	11.062692542756032	14	-0.1229533417358653	-1.5823690286584262	-1.4765587887551803
Si	9.523196431536842	4.34764198817784	12.528879315345737	14	0.3031862820150536	-0.06365491129516211	-1.5805628271710221
Si	7.972863855302076	0.1427508426073257	13.861568672532682	14	1.323173330228978	0.2827326249722116	-1.5306905830550457
Si	9.487618880732686	1.4101766100393047	15.179292610413475	14	0.45464238310901645	-0.027972854551615054	-1.059855378639737
Si	5.387616230124704	2.9058862218054866	13.589139289241944	14	-0.47506955776706095	-1.3237112054619533	-0.9985412016280376
Si	6.63149227012072	4.109435597564312	15.013889639129006	14	1.0783729933765072	-0.024369450445427522	0.6151636873407574
Si	5.375327287117581	5.402728529227756	0.1380506891065929	14	0.03757310470651597	0.04368565049463601	-0.5738228848980965
Si	6.954693103205833	6.708685763379283	1.169783342449742	14	0.18461230397099646	-0.0032550193353074676	1.3739850562289366
Si	8.122387488544138	8.318178257809038	-0.0419586619805001	14	-1.343587906470954	-1.2513117078624354	-0.2412478406316223
Si	9.5424050449756	9.465391071468803	1.103752713755419	14	1.4927063586078382	1.7036372679674665	1.7974167918566757
Si	8.282209027546486	5.5345613069323365	2.989199706601462	14	-1.9414267148329574	-1.7456828103783801	-0.609234975583028
Si	9.610018711480935	6.935288650037876	4.045053286590733	14	0.0024116967902988984	1.5312073752243958	1.778479829842189
Si	5.641652998848339	7.909166983380686	2.6508049745261335	14	-0.7080392105994026	0.881922292069421	0.6491048486720322
Si	6.826010081145839	9.623433732930943	3.904113961478481	14	0.38140830472257864	-3.364819673557052	0.5039564402599886
Si	5.1893448242899725	5.4613662081448835	5.391402464889183	14	1.4647227054138787	-0.5039029612693294	0.626719520202163
Si	6.765560884733637	6.742451796688367	6.719522228394862	14	0.7829841024658669	0.5646694928478373	-1.0122027697466445
Si	8.366746510649945	8.463785096467157	5.51804548977004	14	-1.8818506050176784	-1.9343569465341464	-1.0646558893829852
Si	9.663123918048242	9.776645681072887	6.811795380801609	14	0.5520469083891023	-0.978599708764969	1.071788135541076
Si	8.155402802891299	5.41913010654802	8.04326823794847	14	-0.499412782938223	-0.23863354074209575	0.4011132558961935
Si	9.410555947293588	6.827397279227653	9.447993975525119	14	0.11938619021469188	-0.21985727281011835	-1.0044215766057483
Si	5.6073973662162615	8.144076738552727	8.120575971049064	14	1.1049718492450353	-1.4504129616440624	2.060127962590362
Si	7.103172257892177	9.337491408325597	9.589324980095766	14	-1.964401340642205	0.06830115571920171	0.6658584280486491
Si	5.436543522469138	5.366791938920068	10.955013331652438	14	-0.816704405850141	-0.4211532220930237	-0.8052838131285751
Si	6.8190414507819055	6.673581491920685	12.178717879541143	14	-0.047517625863784704	0.1284449655891696	0.9401205465436329
Si	8.262119135326339	7.947845329897134	11.026804912380646	14	0.24526133603637346	1.4359517797708894	-0.3835937442447045
Si	8.024092264464576	5.45392429843539	13.738924042122935	14	-0.6009159072091569	0.6674468569154367	0.5655878916681941
Si	9.286687318576359	6.793843405625199	15.139537145386443	14	1.1447543047531543	0.5082483863709117	-1.4246337741515978
Si	5.674358233624272	8.16124535481235	13.5363604822233	14	-0.21362979861418768	-0.9837807430955993	1.5839176053927515
Si	6.938911685028025	9.631920121196156	14.870551277334089	14	-1.7868616331858715	-2.7443559097093413	1.510884587442349
Si	5.505919746537246	10.473818797037485	0.1100782477862595	14	-0.8291958639375483	0.6043221075372891	0.7632141023276522
Si	6.840714380813062	11.929397584295673	1.418369238710721	14	-0.2466697875307506	0.8320346213215238	-0.4153641213541783
Si	8.131281876245177	13.338170676275732	-0.0071318301382647	14	0.04015989376911695	1.2842866478143986	-0.2125327079740805
Si	9.407618351355628	15.089304254847363	1.4552197477546607	14	-1.5157419196131727	-0.09725180162406907	-0.8526870248056133
Si	8.275028237475922	10.708565352435196	2.740287410791821	14	1.5537947925724285	1.5000705184658063	-1.4717963303706698
Si	9.300526659439626	12.408535801754057	4.006880859374712	14	1.23163092507883	-0.730099294246273	1.0699721638534556
Si	5.607723765764924	13.558327171848251	2.6788916556884987	14	-1.1401857077097832	-0.8229095114297863	-0.12851130010642942
Si	6.745291472761727	14.830534692668127	4.178942381451885	14	0.7715126018589621	1.277072640507127	-0.9802632139071048
Si	5.576650528732301	10.698283766652343	5.297301475009929	14	-1.7462301987010393	2.046363293148417	1.8622243296668601
Si	6.8821344835382705	11.96112362042562	6.951298547899747	14	-0.7251848835373419	1.0248834611856148	-0.3955426991095607
Si	7.995271184317722	13.613358135752664	5.651885624698893	14	1.4696697691603755	-0.4391686999607693	0.16628880768589716
Si	9.57150356473882	15.13299283443577	6.827462559137385	14	0.5016499016772838	-1.5664322894420204	-0.5763608229596145
Si	8.316366740313963	10.80346602120867	8.406779415293338	14	0.5519312086496956	1.1725911478333337	-0.461580253704904
Si	9.54886775603911	12.270958391993023	9.836066718906803	14	-0.12040023415295827	0.5818390770652542	-1.3573929422664253
Si	5.511745978480863	13.614533174127848	8.200772340155318	14	0.8135360327641225	-1.0669004643274744	0.1592504068719918
Si	6.8984544609713705	14.817723510383146	9.699076828333363	14	0.10655817444087706	0.3362931196699403	-0.5152055402567005
Si	5.726272081838962	10.955829330524093	11.004267023545536	14	1.2933878464266588	-2.2709375157788796	1.2915441068015805
Si	7.184151985915219	11.957778025051836	12.71668961564585	14	-1.895964173451567	2.2706778341415443	-2.6291061137337035
Si	8.134154192273403	13.565818041490044	11.282636878621922	14	-0.31030284443069145	-1.2800872614950007	-1.4365968700957146
Si	9.382387666244057	14.993979266660624	12.372941930972466	14	0.6710507752426882	2.6857781600898756	0.6156581108938219
Si	9.688207723362916	9.468769306797455	12.156196310683464	14	-0.6436620758198107	-0.18333986394805518	0.23367902079017042
Si	9.408058990746321	12.19059882311244	14.582601595504473	14	-0.5806088031695632	-0.6174583988389896	0.049098341414611744
Si	5.44924046491209	13.264420698255554	13.641999696147755	14	-0.13318274136260647	0.709316792832984	0.5503877741260108
Si	6.774096232931148	14.83960860012093	14.870681837153555	14	-0.4224092070419161	-1.0743145036286537	1.1916903465935218
Si	10.875290241891745	0.0563528820764943	0.21795329861905052	14	-0.6116901240532374	1.2191062997327926	0.06807772666688085
Si	12.165107018361937	1.5517524142714474	1.5386148324378017	14	0.46650880549309587	-1.0939883444278944	-0.8148413829351615
Si	13.581207780209457	2.7782150383463455	0.1487402743252734	14	-1.4067489084341154	1.192619544056223	-1.0096689454536385
Si	14.893905165040856	4.361203889424746	1.1490406511322717	14	0.008707819498277515	-0.6639241855163017	0.6039960913826943
Si	13.745190913457245	0.2163539408306067	2.591481856556815	14	-1.5601320529655296	-0.36618761833783403	1.0102248184238545
Si	14.908446264933747	1.6860821485232935	3.87878535650231	14	0.31266054800926724	-0.8111467045901088	1.5112383715344015
Si	10.799891946150822	2.698312428833888	2.912805892237121	14	-0.39322921854249143	0.8334099055572709	1.050189051078108
Si	12.243981469296111	4.095433056926713	4.228147113412682	14	-0.32023836671933964	0.05714718661933531	-0.7979733893717982
Si	10.982953133017906	0.015389738719413302	5.273800707506265	14	-1.4195280732068476	-0.16688401856751145	0.6283254325851275
Si	12.156522710232128	1.1036221539359545	6.927438740892556	14	0.8582956339509843	1.695402017627032	0.023031961457886493
Si	13.512353795419209	2.737186615079532	5.611689520281168	14	0.016117745030944278	-0.7214130720326847	-0.4838822783624005
Si	14.874500711872901	4.243194132606	6.712374078279164	14	0.9606852753363052	-0.505663911303099	1.3932074109339598
Si	13.733228369998784	-0.1416247641644418	8.170107102558521	14	-0.6854391948353009	-0.03743580768242006	0.33731127737671895
Si	14.98216360299906	1.294304770264295	9.51533020241409	14	-0.21380823332340598	0.5501556033156014	0.32010955434280025
Si	10.982594093514379	2.732747581217729	8.312857945165847	14	-1.020738325188472	-0.8709979226746438	-1.4575711759658867
Si	12.148917600748302	4.191492444097939	9.579206594087243	14	0.9604114526197095	0.005007484721520399	0.6252583610487228
Si	10.968836352538274	0.0113913442483038	11.076189164093206	14	0.20195055269741502	-1.487857768195103	-0.4338405984058264
Si	12.326935914588557	1.3912291162394756	12.356883073178295	14	-0.3530035044771787	0.8918585856896654	0.05058546873178539
Si	13.572705071966812	2.7759792014380107	10.897387491336163	14	-0.2851669474893278	-0.9650852078706748	-0.8301991092334701
Si	15.047100793205365	3.9421721488524706	12.144462246909066	14	-0.06084315051704818	2.2736112082013014	0.23139227971843068
Si	13.823412565294094	0.3944375345805939	13.849671408983951	14	-1.1039698895017735	-0.8143089070233589	-0.3533436617110343
Si	15.116411737363741	1.725511214001663	15.154355684895698	14	-0.8891738375143667	0.7615886495442545	-1.4366503490863736
Si	10.777908936548437	2.8076073177033583	13.553806538099282	14	0.39979942107759786	-1.812254897769782	0.9104764735339216
Si	11.98655014526639	4.128334131431843	14.952216444409322	14	1.3626426251091033	0.29905040199706334	0.888330000748294
Si	10.554374205647267	5.423356980703193	0.1223671907933838	14	1.9822615237486134	0.036735438593211725	-0.039092885061255495
Si	12.161010704026229	6.7794002255969055	1.4060150157938642	14	-0.6066746689052246	0.35757801506278614	-0.5129581370963591
Si	13.35021481962136	8.186182280330126	-0.1444481202603681	14	1.4494968768184937	-0.4449868541897324	1.3890514762944721
Si	14.919478569678525	9.434121994706985	1.3448803803294715	14	-1.0885167751960876	1.0342733949253275	-1.3093803786285119
Si	13.591815765540973	5.435352164116521	2.718418641031467	14	-0.20439027453570358	0.018571607948493603	0.42105063499074974
Si	15.106162791535754	6.705030088434269	3.9873132064324253	14	-1.0188639894100837	1.586081961851252	0.11337468886565365
Si	10.837591094021285	8.32281313140004	2.713865367327632	14	0.7460404043417231	-0.6533209471760111	-1.1509378130481107
Si	12.319542964811362	9.494750710870951	4.047125923724737	14	0.6393151080550363	0.159722718919303	0.4052805033990896
Si	10.870475848548981	5.5660588633782195	5.4212680235917565	14	-0.33624169756353733	-1.3401552237580243	0.57773842119015
Si	12.221541500325598	6.7055196877572625	6.93972768389968	14	0.47927202941284297	0.2607661295589944	-0.9435028355922878
Si	13.676157408915232	8.021774827669075	5.541334097567073	14	-0.11099821621824077	0.2763920221421944	-0.8155150125290404
Si	14.974166814056842	9.503547178707391	6.901914296187187	14	-0.3833890842612207	0.14819079733737484	-0.6287931166428625
Si	13.638099221541244	5.523218922616332	8.33134847959755	14	0.045163007611593094	-0.20425837683277992	-0.13735538818667478
Si	14.889955730502045	7.011829344199116	9.711365771340487	14	1.333483462562772	-1.1029877272694768	-1.8160074259845385
Si	10.89722429156183	8.086858897672279	8.142820100290379	14	-0.37891921766214326	1.3418159006843078	0.16998477158361003
Si	12.432836248151942	9.36092689591953	9.447618616044158	14	-1.2991100984271804	1.0085587421763982	0.291977291261336
Si	10.658348781873547	5.544141133685566	10.808851613761595	14	1.2074057136418628	-0.5348564982185922	0.8611336200033637
Si	12.074612743495399	6.809412664096376	12.20824071871762	14	1.1072035686629238	0.3122324589734625	-0.11507290392961145
Si	13.712616238500777	8.329830721696272	11.022235318699376	14	-1.22531037687031	0.21015572110560363	1.4050710051021869
Si	15.045631995236388	9.856956290021172	12.254589454627624	14	0.07962301799647377	-0.7468847553288597	0.17307601151002405
Si	13.525213937636492	5.384189034863753	13.505809484468536	14	-0.10827310168941584	-0.14054767255217065	0.12162176629056062
Si	14.82348446241703	6.92735714100539	14.819535027878219	14	-0.05321519525323285	-0.9419866547849963	-0.020082389434612612
Si	10.792417396486464	8.155386482913865	13.652085442201411	14	-0.14716286943037962	-1.1909706942144123	0.19772262710896354
Si	12.258571529121301	9.531372740230825	14.719689405942514	14	0.3498209903118994	1.124956536677482	-0.15352429821349
Si	10.866754893694234	10.872956485118813	-0.3393576107438814	14	-0.20556218434062704	0.27882891576463076	1.2248264948490581
Si	12.157567188787844	12.239983074825	1.3231421703885824	14	-1.8735317937543394	0.025818525403862976	-0.27179282894551354
Si	13.327138371530957	13.640906257659736	-0.0175113357857163	14	0.07216475568378823	0.7722785341338343	-1.2851081159641857
Si	14.70030127275199	14.970935458525087	1.234606292814015	14	0.3452495650526762	-0.9653695721190831	1.352093637091068
Si	13.574108590026059	10.973911865519968	2.598956406221175	14	0.05572253716144125	-1.4881506170910679	0.304028319007402
Si	15.031645774576221	12.228379570870066	3.821583835599295	14	-0.8889972025788726	1.3694295718226983	1.319419516461562
Si	10.717476060113668	13.785093258281176	2.7136205676661356	14	1.5646834236032556	-1.100175966491363	0.5265392296184452
Si	12.426324577156137	15.030862415659431	4.02245011784589	14	-1.1225263279288782	0.8164609221763228	-1.6398579151748092
Si	10.986445608188589	10.886322546636519	5.334233583941034	14	-0.31533835420020145	1.804091124157248	0.04964727240046336
Si	12.24904066230037	12.243573469860282	6.944493117310145	14	0.07303481772412633	0.02634868732087751	-1.8916650282457474
Si	13.523304500276819	13.716222953513494	5.410725318169974	14	1.7751487057894053	-1.6996613107003897	1.03584716849179
Si	15.125665164568309	15.01816547321648	6.733557408987328	14	-0.6965155165544987	0.15463141616434578	-1.432539408789989
Si	13.630314592305655	10.899509088402466	8.201115059681412	14	1.0306118838389045	0.4352066266624211	0.6615022043047222
Si	15.235237493054141	12.365418421375805	9.540267127931866	14	-0.6499142326268148	-0.4665777111156758	-0.8214666071241192
Si	10.941092390902003	13.61533285302207	8.227830862739395	14	-1.796468053993541	-0.14192501367217394	0.17650200934912136
Si	12.365630581082437	14.761223748509753	9.552001191706264	14	-0.215614177700278	2.0446571076579674	0.33606634818070324
Si	11.015168768470845	10.834065978895735	10.833478459708143	14	0.5957924656376978	-0.2783445195223148	0.017444692486672703
Si	12.064282197780244	12.44892774590098	12.239477155524574	14	0.3036472811989561	0.044801253093048256	-0.6611491915442659
Si	13.720156068074871	13.605083907194082	10.941728870021896	14	0.3989627834064217	0.15215492751997914	0.7635542595615077
Si	14.897511880053571	15.2638627334718	12.385899993054347	14	0.38608797351578017	-1.2184190432807172	-0.9419758561426518
Si	13.528347373303646	11.259234030982855	13.47382232869966	14	-0.7512839165316331	-2.9478714942151303	-0.6466311882435178
Si	14.705605265417748	12.416858990244938	14.857593215252209	14	0.22638170967052612	0.3581056058744806	2.0975298316825564
Si	10.808900573693894	13.841103420831574	13.678654365462497	14	0.8821626904168549	0.12615822451742992	0.13830258338661736
Si	12.21413223057097	15.395646551244083	15.04285759907276	14	0.5940901368052277	-2.0041028063327397	-0.7558100903372217
H	16.034341924070397	0.8378137854898248	16.047200434289937	1	-2.673076899808344	2.7561397996126438	-2.3073014296533296
H	7.696625389278452	10.603255802054887	14.138388129752924	1	-1.4986479258921686	-1.8704922330448603	3.0763419137469694
H	3.2919271279967504	13.867941623720307	5.785990143262162	1	5.574366907606756	0.10755961996307475	-9.454640490194434
H	3.4649123607966374	14.124824596508276	6.216455660024067	1	1.672219389397385	5.015647209580273	13.644336056530122
H	4.9825397022554725	13.665216496044083	0.29933449808694695	1	0.505214482093137	-0.42151317683784445	-0.20916121756777034
H	8.072515269506328	11.042849082195126	13.61075346735434	1	1.531368326417437	3.162390638159557	-3.0257389614990067
H	2.0138493112941873	14.012043760459095	14.14172393314025	1	0.23627917960043615	-0.30421986635375314	-0.2653761213980199
H	0.10976490421954398	0.23348012514890185	0.03949597738584531	1	2.8036769658768614	-3.59554680832916	2.500274453904384
H	13.69591763759123	14.052094617077666	2.4152603722319443	1	0.773749977708555	0.6037204688923744	-0.8865435967718552
H	8.749591965259807	10.419638103957336	12.985682011689178	1	1.3948328637173573	-1.2142906194681553	-1.4334583218314099
H	3.4152931014090404	-0.624333792685187	1.9595609063629802	1	-0.14848493178599975	1.244046792669825	0.5117882841756918
H	10.197425291228246	12.939111324086083	15.527892224377721	1	1.4812682823700956	1.4713584711346486	1.8153245404115068
H	9.261053530022188	4.062956301834844	4.036681138167553	1	-0.19732821955285282	0.45551578758627076	-0.13624235669358267
