228
config_type=divacancy dft_energy=-23106.509587476132 dft_virial="-8.93012567999595 -4.908531666283488 3.636849369903113 -4.908531666283488 -11.230493655613955 4.701984541712154 3.636849369903113 4.701984541712154 -8.318584193520037" pbc="T T T" Lattice="16.3999889955 0.0 0.0 0.0 16.3999889955 0.0 0.0 0.0 16.3999889955" Properties=species:S:1:pos:R:3:Z:I:1:dft_force:R:3
Si	1.57374294400818	0.991740134535876	1.3821910725407398	14	-0.1862570400442952	0.40336271594079104	0.3491049374802382
Si	2.6703938081482694	2.594314259198145	0.027486381556458	14	1.1204128793557164	-2.422843046082804	0.9520383910341151
Si	3.946657351767075	3.9119385750636013	1.3167387164596995	14	1.2310956209511752	0.31064917231731537	0.5422620528722149
Si	3.0787863341142105	-0.23891503968644398	2.9137860448304846	14	-1.877037752968893	1.2846689711755046	0.41609071571765216
Si	4.236199157482628	1.4753758100131709	4.094175252781597	14	-0.9379852435752499	-0.7135082087258895	-0.01336383412253367
Si	0.0976619344682025	2.661849413881614	2.42555837243445	14	-0.17238078463145604	-0.40722862990016573	1.2130253785401104
Si	1.2845291380725374	4.31337750569545	3.805404246548833	14	0.9635309747046451	-1.0513720166359082	-0.10061660715654687
Si	0.043361570904102	0.0678467544743835	5.350758809605803	14	0.3070259707001627	-1.0860667689365184	1.257817118543474
Si	1.3199531143028174	1.6091505202494645	6.676255120189099	14	-0.13288757847185348	-1.4908677611934003	-0.23985712976395424
Si	2.566385077938808	2.740995760773897	5.104447374882389	14	0.9698726059767904	1.0991048440149893	0.9539518076133693
Si	4.131632827647319	3.9046405799606037	6.903034168018873	14	0.06400509583976628	0.06722334836899563	-1.7889799668591417
Si	2.5126751139785455	-0.112110324773238	7.803787163607716	14	1.4700518354109493	1.8923013768124846	-0.21494517609597544
Si	3.995119319248777	1.180077608160198	9.364803716155388	14	1.1431255095328405	-1.1621270062908629	-0.40506761587858126
Si	0.13823550724306952	2.803184519044833	8.261953656174997	14	-1.4575572919971578	-0.49229853451737327	-0.5251300067924721
Si	1.381502273002929	4.154314012428095	9.573460776145135	14	-0.41293854059515056	0.220580524736676	0.6454631350965745
Si	0.06491115644418899	-0.2886234063318045	10.87384870357632	14	0.19608380457790114	0.4319516073271136	-0.21374524124306235
Si	1.1537228258444294	1.173550412539989	12.36985569974583	14	-0.7720072825225586	0.7528857151460854	-0.286230356649741
Si	2.451634354937295	2.685694997881071	11.042243790582114	14	0.5798804090323653	-0.5053371238169081	-0.014022551305555606
Si	4.018095703831473	3.9414421552665058	12.25669577567688	14	0.2669794626756643	-0.7011936426845081	0.9772683904301964
Si	2.4296747696723204	0.07186475177828099	13.860171899733901	14	1.051891894131642	-1.3003799673448013	0.24013892290704247
Si	4.086040858239829	1.2949923310516664	15.084021078523088	14	-0.46161702051098213	0.38843359289935125	-0.45067748159481613
Si	-0.21711945431142451	2.6585038161265317	13.749881973739164	14	0.061780318406242145	-0.7664187279986847	0.03996217576999756
Si	1.2323443730888566	4.24825314939432	14.804548866050773	14	-3.7386069650001796	6.257019795606611	-5.485787701338078
Si	-0.089379940025475	5.563368266943464	-0.0063467957412585	14	1.4665646452652326	0.7166624407326471	-1.3253482282192914
Si	1.1978551962313198	6.912988961339142	1.4536622245831288	14	-0.09917164596662364	-1.2247007677989028	0.8723868337685879
Si	2.5680906767943403	7.939546272512464	0.0483635675477295	14	1.2608453663895445	1.5180592568382225	-0.8435840264196289
Si	4.023852099968893	9.575789574582496	1.0302637086863056	14	-0.12546068364407373	-0.3131284891775342	1.300598768407546
Si	2.9747284039377626	5.533553086949645	2.557512683892243	14	-2.142837592523674	0.646288459904342	0.8809097907943466
Si	4.10772164369188	6.849242204113633	4.131829627515266	14	1.0921865138195348	0.23250453987992678	-0.6708265748587713
Si	-0.177283881041355	8.204570094679745	2.90247005242359	14	0.1351123559053776	1.2095569574632308	-1.264288333523755
Si	1.4088082546804364	9.536396801015304	4.070592068606069	14	-1.123979516655826	1.5519004021725433	-2.1816587117525894
Si	0.08403354361294199	5.446387145438563	5.436219152261353	14	-0.5128349811515239	1.5051039713510603	-0.13087491722724157
Si	1.463797417782348	6.905182566577284	6.893620574335457	14	0.060759589594143355	-1.7878070286120902	-0.8836025093961377
Si	2.5451306922006403	8.201175296957675	5.301017642982451	14	2.0701742995183086	-1.828070023704545	1.4944673086416078
Si	4.015422505625207	9.474142442788386	6.587252379910521	14	-0.020206830932107782	1.267590661196953	1.0507948034915349
Si	2.7547881515191124	5.253080475148605	8.1478753327223	14	0.6040158888936594	1.9530936194441937	-0.20687293383283856
Si	4.252582746489131	6.732671082333619	9.421039278420958	14	-1.4580499157764983	0.536430786006119	-0.030926283232869153
Si	0.040507972818885	8.172622916116511	8.09765856641808	14	1.1075426974546512	0.37061531880966103	1.2162392601902956
Si	1.3366975030672228	9.590155964942554	9.549188792431794	14	-0.3331589422846798	0.08644390330029461	-0.3605337577388284
Si	-0.1928474705980845	5.502753907616097	10.801852751886074	14	0.4537548375525013	-0.5721439531240398	-0.016795488393335313
Si	1.147704029883081	6.691359510053954	12.26033657323388	14	1.0248402666162362	0.8429463923002323	-0.6501618300691451
Si	2.6265566375632976	8.1752141143778	10.820401139439983	14	0.728397993855931	-1.4849035681822529	0.16387016891123385
Si	4.067197270884	9.350355325850352	12.274834163505902	14	-0.26905177356370363	0.19042120222080702	0.02235447520602747
Si	2.7678097427815396	5.503311507241944	13.427310590186673	14	0.20839965617194248	-0.21209176341167513	1.4006913842998467
Si	4.047878083847301	6.825314620169198	15.042086306661595	14	0.25231516348219973	-0.5181386572059253	-1.0300344135839994
Si	0.0030667979421584997	8.225890080373894	13.552983705859189	14	-1.350359940773692	0.03641764997564142	0.46105446266693373
Si	1.316558316580749	9.352192124617847	15.153967031588897	14	-0.5881624534896265	1.2476334845914316	-0.3753212128771281
Si	-0.0548907631679385	10.853447117265919	0.225532648666116	14	1.068870702334304	0.3486709349021972	-1.1333630226322384
Si	1.3522938926019434	12.371430098689398	1.605722922549405	14	-1.0293247885156385	-1.9667040225669297	-1.4643640362217178
Si	2.704226985445986	13.424014192398579	0.2301082455958605	14	1.5190342199756226	1.5165379338202907	-1.9322550679349253
Si	4.219553168652195	14.823572853285553	1.5792369403216726	14	0.34651711997550916	0.009927294751623747	-2.582668866325445
Si	2.743258959255276	10.948534253461826	2.5763562712480725	14	0.5615839093531275	-1.8848613693475715	0.8232635526323706
Si	4.140505221693886	12.153146245159292	3.9480841508096836	14	-0.06543025951872436	1.1463393911830257	1.0242918498514484
Si	-0.024763983383205	13.697024809206667	2.632788633381588	14	-1.3141199541756727	1.6953662792630821	1.3182980003209135
Si	1.38383107144029	14.872740020294062	4.13046842842864	14	0.6384848981471606	1.100611254622064	0.2105493573301183
Si	0.112799124311049	10.961687044636218	5.310185236830936	14	-0.9674917624503332	0.08876715406758041	1.233787311110838
Si	1.2984691287187125	12.415611669043274	6.799943837193161	14	-1.103475980169773	-0.07306130010892385	0.17636111277757727
Si	2.8046441180654322	13.665864830115218	5.628607423167564	14	-0.19773316864077614	-1.3373820295597125	-2.272640101721881
Si	4.122973633457695	14.810403662122168	7.003697300473252	14	0.7272391966881403	1.6481985808333697	-0.2356752269607334
Si	2.5518874876667863	11.010345811985866	8.087523373218861	14	0.9078107515379921	-1.3336665252615667	-0.27144470128516546
Si	3.9651729393429944	12.120707066926192	9.562128383749243	14	0.5593524470457711	-0.8548999751546648	0.11904037654913194
Si	-0.14720630122360798	13.793145144709293	8.292080435959733	14	0.16018603209799367	-1.292008191311867	-0.9408677097496678
Si	1.5914713321123155	15.001922733611616	9.286444568734888	14	-2.2124685239144557	-1.315653618499141	2.635990762449464
Si	-0.053660763993276	10.865583109122587	10.987451427348148	14	0.609372786828188	0.5402473347433467	-0.2648266761911043
Si	1.275099144400125	12.170563033472513	12.565064768759267	14	-0.40093687807123135	-0.20449954651180988	-1.8654194422482082
Si	2.5448026924207303	13.396511410853124	10.85300431756304	14	0.010858549098581381	1.0352393591941071	1.1544941659269394
Si	3.6775827323179064	14.984784745111318	12.327920927884335	14	0.8013492506571526	-0.15920592674995324	-0.35698717506021616
Si	2.670443008115256	10.715080410110884	13.695876809976983	14	0.5106636827086589	-0.23976045620391667	0.3438596255166041
Si	4.071953267692695	12.265207369965543	14.797218070969784	14	-0.22745514614168794	0.2874565167769197	1.3401331122522708
Si	-0.1532578971629475	13.520593727593079	13.77172675908117	14	-0.6227142523344363	0.3196521547063459	0.01428094739023049
Si	1.190672001051291	14.835200445483363	15.260173360323753	14	1.5423194353075436	-0.4820187412263571	-1.1903407734109759
Si	5.5252546925179225	-0.009085593903507	-0.039851973259065	14	-1.5851419657462058	-0.20697012161394016	1.56191485739452
Si	6.722601489090382	1.5228537781551434	1.2682603489890014	14	1.4877469535558046	-0.11402569273271515	-1.9187256546297744
Si	8.26577485361095	3.036228362670888	-0.0764403487080255	14	-1.0141310987367553	-2.512067085565775	-0.6400928674143812
Si	9.61396874896402	4.170418801621677	1.26673515001242	14	0.4202181110880858	-0.03549590871836834	0.9903925975368922
Si	7.910190292210519	0.2061970616404215	2.67549420472587	14	0.9406949314721538	-1.2275441531724547	0.3873892099183071
Si	9.333528937140969	1.3942778644304235	4.118955636153798	14	1.5247114776330415	-0.40975294110348714	-1.0207259838829352
Si	5.586098651691227	2.7309589675086507	2.6876465965715353	14	-2.4492755514371187	0.28297765130922165	-0.24303167350274105
Si	6.78336344831871	4.122317633897875	3.9156449725765845	14	1.9632934513597526	0.5290563417268703	0.508163025674283
Si	5.253966074554362	0.036178375724073	5.585590252032368	14	1.2523787165702969	-0.7337147825474652	0.45034426634532493
Si	6.765438260346627	1.3783862750937839	6.953103334422135	14	0.023887882418963786	-0.44035577928708164	0.232405038104037
Si	8.055248194875716	2.7188065756629856	5.414111967095419	14	-1.0217073747836358	-0.24362045662105497	0.24213075819856117
Si	9.50561402167075	3.8628370080110743	6.70628350003986	14	0.005453057273502061	1.1805024389034293	1.4075770614577354
Si	8.223380882057583	-0.14864950025521198	8.32597921321343	14	-2.0755875046593486	0.6645757036044273	0.015383694462042002
Si	9.423892876506175	1.0382341033381184	9.822855408799702	14	0.5801927983287635	1.4651729059554364	-0.970578888608235
Si	5.522581494311656	2.8036929187036934	8.45011072992037	14	-0.4726995128829484	-0.7323448976328903	-0.97278206875707
Si	6.79272784203514	4.3386990887045025	9.642258729981256	14	1.3178321160369024	-1.2791359525265458	-1.052288358572009
Si	5.276450459467192	-0.407146126802283	10.806707148628742	14	-0.47764297708199716	1.3442538227488723	0.6981823641335508
Si	6.5114844307513104	1.2184043824426813	12.171104233109366	14	0.48528584475666925	-0.13974985857132868	1.0300560108686885
Si	7.90873069318992	2.534109899595664	10.796768755297471	14	0.5867537448847172	0.700496616032216	1.0938837004413648
Si	9.344566129734941	3.904804579850559	12.313177337777383	14	0.6127190804023607	-0.03593042551747336	-1.1373037557564294
Si	8.148547732271116	-0.0436075707390345	13.760738766454184	14	-0.670578720305909	-0.08571190961564845	-1.08800795345323
Si	9.546859993994433	1.326627909823986	15.039626308312268	14	-0.4251551475238342	0.4674506013718661	1.016105964733161
Si	5.466608331870015	2.767858942748526	13.866469495508172	14	-0.7110731148771773	-1.156245345760492	-2.108886146771118
Si	6.828332218144371	4.250516347875699	14.91957838886521	14	-1.6477766624503332	-0.974830725476164	2.6954881964419464
Si	5.240764083412984	5.371767195509038	0.058597160680921495	14	1.2376964196395912	0.2449435474188032	-0.8156584802059047
Si	6.824986620389288	6.683257915490177	1.339977500866323	14	-2.2140644089866717	1.6720417260197626	-0.7659821543153236
Si	7.899612299308422	8.13975733816953	-0.143696703578571	14	1.6091537754416008	-0.5908446305596048	0.3774675715983877
Si	9.424565276054988	9.409083686443237	1.254730358067714	14	0.792500020366267	0.7484500442477657	-0.09309175321606948
Si	8.220051684291496	5.4957183123370275	2.5430314936092167	14	1.176396897928217	-0.40631203085353296	1.659301642047897
Si	9.806291419914245	6.852637001835702	3.7965810524692545	14	-1.649261989993783	0.662037765542909	0.6930751205256087
Si	5.514889899472767	8.434579940341631	2.580177468684024	14	-0.5173614120676446	-1.3097274778467318	0.42933602188492703
Si	6.859229797411893	9.741396663459053	4.050108482350689	14	0.255323356706773	-0.46072021897531446	-1.7497430998999577
Si	5.624556625885676	5.319812030371294	5.428855557202374	14	-1.9812024854672443	1.1485402573370724	0.8907221571381598
Si	6.805224633649711	6.94637933893398	6.6911955101639995	14	1.5756062503348407	-1.4823933980581923	-0.28966483913639485
Si	8.1019553635349	8.306282826429834	5.245897279968576	14	1.8055057463043933	-1.3955445456699742	0.27376486672606704
Si	9.62676074038051	9.658445519119814	6.5670475934680645	14	-1.146184096421689	1.0151541415436423	-0.07520200239847914
Si	8.300018030633554	5.5088219035444315	8.175476514201726	14	-1.6887999333859558	-0.5799670552816544	-1.2732257527271214
Si	9.813622214995236	6.5035796360554805	9.49657762773423	14	-0.14944112585456285	0.3776845728874082	-0.5827855009336006
Si	5.5189406967546555	8.2488336649786	7.972657850294379	14	-0.5987219830394745	-0.16155026058086425	1.6623340036624799
Si	7.056816864829677	9.27926137355486	9.63109033747532	14	0.004234353351751871	0.437912972122409	-0.8674212580637859
Si	5.272973661800147	5.277795258564824	10.944319456289982	14	0.24355463632485916	1.6025149243944465	-0.05133957392218483
Si	6.81747542542935	6.902082968657134	11.870590834755824	14	0.5433205769325198	-1.542009617116466	0.47155537101548256
Si	9.602062356953287	9.724553874760675	12.074819897716784	14	-0.669623554679474	-2.6180848136683568	-0.04943232799569899
Si	7.985515441666851	5.347938011498576	13.512836532798206	14	1.7612148576173947	2.684677212791788	-1.9872461256327845
Si	9.330675339055752	6.883288581268292	14.805844465181417	14	0.18617502178458248	-1.1955012388990451	0.9875021609359818
Si	5.625278225401478	7.982301043823733	13.431459787402536	14	-1.631722937941861	1.0325690092086013	1.695142335989697
Si	6.74287187548882	9.508434819777976	14.889205609245543	14	-0.7791169029538321	0.6866370728039578	-0.23237624172445137
Si	5.421901961868282	11.04539258846925	-0.0921187381877235	14	0.5834758427120604	-0.4074165776990686	-1.047083670072433
Si	7.009502896577659	12.305518542916484	1.1996099950538386	14	-0.13808378232387272	-0.7213763052266067	0.3756472290317229
Si	8.311629222842368	13.64183884623681	-0.17920267975382848	14	-0.24538500620227263	0.3424010374684841	-0.23067648399730148
Si	9.350666925641265	15.15111343350368	1.414400650927902	14	0.7269810577139975	0.49619118797207734	-0.6899504562300326
Si	8.34055880343043	10.934807462672595	2.652698220022125	14	-0.46360088537600835	0.2416815860991313	0.01495046321559705
Si	9.624136742141228	12.369888499723821	4.057734477233597	14	-0.8577423320860885	0.19337488801259314	0.3588170307165655
Si	5.665080998693556	13.48505495143983	2.69451819196065	14	-0.31027301960897774	-0.13171052645628967	0.39298984863718567
Si	6.653245935628412	15.09341827221751	4.055208878928289	14	0.6221316398688909	0.09034247029723515	1.005929015654951
Si	5.491929914879067	10.894119089974756	5.355022806744633	14	-0.9795183646958578	0.580690821429276	1.262516841958173
Si	6.76222386250351	12.301156145843681	6.819968223756666	14	-0.6079069996851715	-0.4257740125743938	0.4392409480202655
Si	8.134197741900053	13.660272433867751	5.5120855013545365	14	-0.33848832939228274	0.3759585898859928	-1.1104261920711973
Si	9.373872910069899	15.005776731025557	6.914530560304718	14	1.5308471633690428	0.03494800617464478	-2.346852999903699
Si	8.196632500005922	11.000030218907698	8.196534100071949	14	0.09506713343353926	-1.5657339772370682	-0.1480303603653976
Si	9.42773047393112	12.288167354559244	9.635879134262007	14	1.4519887920947812	0.681292773285498	-0.039442298274263626
Si	5.432922754473258	13.517248129837997	8.470512316230772	14	0.3066372195757563	-0.34162096411435117	-1.274881287442765
Si	6.956120932397306	14.692422141288539	9.716222680350961	14	-0.39289857439832043	1.6187049174848869	-0.44011306694485963
Si	5.4126851680528105	10.606922482685562	10.792881957905536	14	-0.16651660761726228	0.35216686680600257	0.02444632649449995
Si	6.598617572284403	12.207266208844441	12.038641521992712	14	0.13239135514506487	-0.7879219102332112	1.5079409289613115
Si	8.20166729662754	13.585209684235348	11.257050846445171	14	0.7209140204900439	-0.8004105401047665	-1.3116820321111085
Si	9.611656350515652	14.913444792980892	12.450264845790766	14	-0.37576729965017375	-0.1343675066941307	1.9363780924263148
Si	8.061480190694006	10.751488385680894	13.401070607793873	14	-0.5210092962958708	1.515673528211657	0.5473309870108868
Si	9.565523181471312	12.219435000679104	14.698719737062811	14	-0.10377418160022073	-0.30276564918467735	1.662664647806651
Si	5.405715172729723	13.718738394636707	13.433558985993958	14	-1.0580990565955437	-0.20540740380035413	0.4778766905555986
Si	6.625431554292045	14.965399958118637	15.039380308477337	14	1.954628055099258	-0.5676761434092183	-0.9242894797558852
Si	11.00570461510014	0.1343651098401315	0.0830987442401985	14	-1.1478653421905336	-0.8042594847690281	0.3106512292015715
Si	12.26322297129709	1.3699402807611014	1.585124536371057	14	0.4114269877774355	0.2400005974408185	0.03926592044930147
Si	13.556968903185096	2.7450793580337765	0.138809506857912	14	0.5988716213691071	-0.07368247915427163	-0.5601631165532138
Si	15.1575914291569	4.221816367133574	1.2587483553716114	14	-1.7359943713109982	-2.120105421946116	0.864090905342598
Si	13.943270643974099	-0.117030321471888	2.704325385379959	14	-1.4968370964151883	1.6176060270710557	0.34531744223312805
Si	15.136763443132615	1.3427162990285715	4.074708465843939	14	-0.4626315786703126	1.538538624934266	-1.1792541672704975
Si	10.827469534697046	2.845693290521169	2.7871781297852247	14	-0.1620876215927752	-1.0747500488698867	0.19653349089839506
Si	12.365476902684032	4.134191225930618	3.992888920745389	14	-1.597731125835779	-0.16613274159296418	1.0376729103796274
Si	10.891363891823515	-0.1347259095980325	5.191678916349453	14	-0.2786347973129596	0.5426993978871719	1.475794913364564
Si	12.265945369470343	1.2615691534788374	6.650785937279088	14	-0.16051050558939636	0.40103200896807684	0.7331673942248057
Si	13.686692816139503	2.814484111462732	5.343100014744905	14	0.4540389446903777	-0.9762746582239591	0.9107268991921039
Si	15.150605033844819	4.160611608202368	6.800452236852021	14	-0.4449855686370723	-1.2187262903664746	-0.021299550693170716
Si	13.68021482048628	0.0245179835482725	8.256476059850502	14	-0.3394157270812601	0.2541324207224804	-0.5045256829778694
Si	15.189587807687122	1.3549178908412234	9.682061503273333	14	-0.25093807947272845	-0.5807738681311169	-0.8320127669263025
Si	10.76200077862701	2.484401532950304	8.264052854766422	14	-0.4888761362257241	-1.105662962355091	-1.3166838604009246
Si	12.136844656097766	3.853735014118572	9.3742337098278	14	2.3502635711108764	0.660055700451607	0.6223337287470544
Si	10.831831931769848	-0.3362489743747365	11.006196614770005	14	1.5620927778826743	1.791921825566455	-0.15165639019840244
Si	12.192440618792512	1.4260282431257114	12.232194192117603	14	-0.0707632461737755	-1.0552412730321992	1.0779461898933629
Si	13.690989613256324	2.678921802425929	10.908518280312807	14	-0.7268990394542847	0.21690050169194808	-0.3307729565475824
Si	14.92584318466149	4.1385700229924165	12.295235749816305	14	-0.10316328697615354	-0.06574959079948675	0.16601318519557728
Si	13.752751971813375	-0.1272803145940755	13.66843962838751	14	-0.764510710740603	0.41240529335175186	-0.6395423937653374
Si	14.894240405867164	1.0419077008731106	15.355408096420621	14	0.3859254796595468	1.6452358961729627	-1.0053785420059071
Si	10.758228781158044	2.834836497806148	13.849151107128925	14	0.7466345867812093	-0.8556381394920793	-1.9655120581405088
Si	12.347486114755968	4.118168436682014	14.889845208816368	14	-0.4954255128077373	-0.32918787011771106	1.700610048563524
Si	10.914094276571277	5.4504707426984425	-0.062287158204909	14	-0.1340340343341075	0.8667537991226754	-1.760906324978977
Si	12.256236575985005	6.845634206534623	1.172992812914142	14	0.5736477926257945	-0.750968956129915	1.1604671006961753
Si	13.611433266639152	8.238501671911434	0.0179251879720815	14	0.7816761811895074	-0.8822213116181541	-1.0829793856680845
Si	14.742097707955908	9.718157879052429	1.3538518915565159	14	1.0680407495369602	-0.873589596837353	0.9930930294546438
Si	13.623060858836963	5.3784255910412115	2.6406770280884233	14	0.8219453469347306	1.8859368627029898	-0.5138680512691596
Si	14.875052418742428	6.910446963044839	4.162612406859819	14	0.20693206925520194	-1.8332909101676378	0.1065553462250249
Si	11.153665315817541	8.375015180309976	2.5126587139895507	14	-0.9673238692729275	-0.6387116696363976	0.610535954875023
Si	12.48596762183397	9.740297864196355	3.920138569561351	14	-0.8670289073919313	0.10240198269085769	0.6210754298033738
Si	10.71942640719469	5.42201676179125	5.392791981401269	14	1.7995238126665372	-0.038856343371801876	0.006119744883016458
Si	12.404312076625374	6.675385920772338	6.709727497728915	14	-1.911670027410224	0.8338238535138148	-0.8947577640486643
Si	13.597526075970968	8.295130833912895	5.4854683192148395	14	0.34058403733873543	0.03684393923772197	-0.20585220502073978
Si	15.172187419362897	9.457152054189047	6.855752999744847	14	-1.4826055142471046	1.811587438828672	-1.8564488557862113
Si	13.632999252168236	5.385838386067177	8.072664983188938	14	0.5974243461843958	-0.17365810975450557	1.269133581499574
Si	15.062192693170077	6.965288526245791	9.37634930840822	14	-1.8963138437751075	-1.3817590502749362	1.1004960691037213
Si	10.962326644207042	7.967262253914859	8.194566101392489	14	1.0080612332969499	0.3136190560726184	-0.07086506194445336
Si	12.193998617747082	9.528672406198423	9.460005652274264	14	0.5679990742374291	-2.1452354053452436	0.5273367864887551
Si	11.027221400662235	5.190629317053741	10.854414716616652	14	-0.6331351993075285	-0.020906942910784106	2.4760106758876144
Si	12.202116612299855	6.787791445347494	12.302205745139393	14	-0.9288444499410595	0.09670955551204985	-0.5127197956331814
Si	13.585111284301375	8.101250164008095	10.965360642171209	14	0.09865305402354978	0.8242346591117905	-1.196730998573672
Si	14.878840816200388	9.643406729210941	12.186405422842167	14	-0.03499582873359953	-1.0949393962858174	1.5598919117286276
Si	13.560609700742098	5.601301441490056	13.653220438599686	14	0.46322061889915844	-1.359493021091922	-0.7742104626713935
Si	14.93466637874107	6.794728640692591	14.934912378576001	14	1.1325096727764814	1.7901711599539663	0.8550241595416278
Si	10.779368366973243	8.232860075696982	13.639247647975521	14	-0.10151315158168249	-0.2048929256257925	-1.0956719041915277
Si	12.107537875762807	9.408181687048485	15.167333022620229	14	0.5710723164266022	1.2294992216578953	-0.6329086849288235
Si	11.020185805383166	10.965737841918106	0.15563589556729499	14	-1.8615221608039274	-0.09010515727618548	-1.3227493549616858
Si	11.990294354433978	12.73921625190248	1.3876686688652369	14	0.7854307662885196	-1.728735883881688	-0.9090420538758108
Si	13.720017593778357	13.679280021113536	0.1651642891736805	14	-0.0777988187718287	0.35874735376238953	-0.7003562336817359
Si	15.137878642384312	15.336548109075798	1.06731128382714	14	1.7745103003384124	-1.2059684657679	-0.3744503795051939
Si	13.461619367165259	11.286062426978212	2.464787146111686	14	0.8034580712407379	-0.08809943801593796	1.5226437947345783
Si	14.999462735262291	12.355587709319744	4.10065324843482	14	0.639760166385954	-0.8965459677988272	-1.5785897609483406
Si	10.794571156772072	13.904074670274854	2.821355706851847	14	-0.20690841508625657	1.1227857524556812	0.4546984332049957
Si	12.565392768539175	14.99501833824451	4.068640469915604	14	-1.1404986112272455	-0.5555112156974698	0.3188746524575331
Si	11.089508558867143	11.140004124984289	5.310496836621851	14	0.17146290003216316	-1.4669140584782407	0.20710021954313965
Si	12.33439892353756	12.211809005796196	6.945510139517219	14	-0.061475642425804604	0.8162606330718833	-0.963024724067108
Si	13.822796324813156	13.552229306365398	5.581359054871528	14	-1.9423230021475613	0.1388196326664991	-0.1673262486825769
Si	14.94432597225942	15.049171101907652	6.778869851333942	14	1.3549863876867663	1.370848050627824	0.8371830026145883
Si	13.550556507487856	10.702173618771425	8.177034513156299	14	1.760530172270639	0.25592525246221964	-0.987004137835469
Si	14.999823535020191	11.980060761300786	9.435192468924072	14	0.10823247822535749	1.8043024690145641	0.537961107892671
Si	10.821204738900764	13.676147623215396	8.010017025226128	14	0.20322967759418872	-0.976150216726464	1.6732696859206657
Si	12.185651023348374	14.934075979137232	9.458447653319691	14	0.3665228904715813	0.11645718703397918	-0.18949946096353396
Si	11.051608184298544	10.858777113689454	10.76826557442329	14	-1.0204881566408215	2.2445806009209774	0.3975049666898977
Si	12.167315835651404	12.139485054326041	12.504696409266831	14	1.446392524254947	-0.049486578317954104	-2.295869009847291
Si	13.47072136105776	13.386015417896004	10.675310436796797	14	0.7300560996768944	0.012241546650289033	1.5374695593421481
Si	14.965711557909552	14.796955671145856	12.14174825280742	14	-0.4045004300449566	-0.3602082558052977	0.31192675455089697
Si	13.57620609027682	10.858678713755483	13.849528306875822	14	-0.2976437502764103	-0.984535619617595	-0.575445766576174
Si	14.910263195115768	12.150981446611885	15.22086258670154	14	0.6990400848683521	0.387838896238801	-0.014584337818007963
Si	11.198962085423112	13.66286363212904	13.803969137446321	14	-1.7453989603510358	0.6439654662475882	0.09041831790417952
Si	12.404066076790443	15.101060667089412	15.242772971999528	14	-0.0045056049630274935	-0.13714610021361473	-0.7790325706993313
H	0.30319807655210534	5.119686244657007	13.891945238413783	1	-0.6626111220293021	0.5749194613171396	-0.6436013977342553
H	10.67157779930142	5.582108534368622	8.513716447240517	1	-0.26204988244534444	0.13668252992439203	-0.022927831692420495
H	14.284147695243366	14.508076424985722	1.991898383423142	1	-1.2012954818485309	-1.3235625955744488	1.1810272014992715
H	5.031019704152836	0.34036701161150656	8.32889841125463	1	-0.3437146151765477	0.26469940647775697	0.48317239618350755
H	15.86932143158141	0.16368009016958773	16.300757582084927	1	-0.5926598309156293	0.9821051537584589	-1.1663374483631375
H	0.7176979584199705	-0.03771505469295135	0.4927901493345831	1	0.955349460465402	0.6702455050564178	0.6628620619085485
H	8.05997303170532	8.228327118738626	10.547608642485537	1	-0.949415606497032	0.9735202330944844	-0.9359836380835146
H	12.020872133916088	7.145601485254614	9.127948515086779	1	0.017383500180053177	0.08137651182481476	-0.08922352526190669
H	1.6870832679560805	3.3747831754983917	-0.8003703029462861	1	2.30554176517222	-5.0072661775681855	4.541354382730429
H	10.336091424414976	10.598860248095374	12.944099674424363	1	0.9896528905362855	1.1060517134794974	1.3934393246338372
H	1.623831790398236	3.578502198801593	11.926486917249186	1	-0.6910701725969571	0.6298588397980638	0.6935366339305752
H	8.67133182147957	10.686437829330243	5.659211442632066	1	0.1960879183464134	-0.30439393018392713	0.24197109255817997
H	2.239600537213375	13.949502639792389	14.181642844024791	1	-0.6495974724513727	0.5481236587810884	0.5989652096027606
H	5.825500771050838	6.046413542816922	12.941554396132261	1	0.02987264427267247	0.06561075111219876	-0.18353449662079038
