70
config_type=vacancy dft_energy=-6826.493421720559 dft_virial="-24.978578700146123 -5.345933803417558 -8.912265642941893 -5.345933803417558 -20.350188011676167 15.420049059635534 -8.912265642941891 15.420049059635534 -27.011221530734446" pbc="T T T" Lattice="10.935184142661841 -0.08420453869366 0.0557609016622042 -0.0799068265239706 10.88071364821598 0.0101482872607424 0.0558593225515864 0.006944140528633001 10.875442662806845" Properties=species:S:1:pos:R:3:Z:I:1:dft_force:R:3
Si	7.670190336040052	8.977531413185378	11.306335877914742	14	0.7240836791287225	2.422887526204843	1.083137508645274
Si	0.829846664480395	-0.15787148083079913	1.803585762803004	14	-0.4074808553320723	-0.2758562037934756	-1.049611837933735
Si	3.602800544552001	2.686262573572889	1.927570931419512	14	-2.3405342514689034	-0.9472059985848968	-0.17848304599829548
Si	4.800162839205345	3.9836861057648028	3.278818660883675	14	1.2950742344061439	0.4299723704516636	-0.07083729400699577
Si	3.4493066061678346	-0.31709351497700955	4.107061064867141	14	1.6157486605877807	-1.7021133738442147	1.7600956554715341
Si	4.688140182910525	0.9415423447093788	5.753384462788078	14	1.3772806990283026	-0.1159990160659288	-1.1378763409112265
Si	2.0655274920665416	1.1367995471547254	3.207172627675184	14	0.4824221476510884	1.8404097865780635	-1.4452828351987708
Si	1.8828211401483008	3.5230238523151023	5.947417965508773	14	0.6187051278087294	1.9232016918816202	-0.15862305717387568
Si	0.9545557734165808	-0.43329687193969796	7.091921681171248	14	-0.8183419428285432	0.25590545495125444	-1.2023833165094855
Si	2.0474716331266585	0.8772472583723002	8.523180125875953	14	1.9349840391217306	1.1576165162277272	0.8570717878185937
Si	3.5587287638520895	2.348865922681769	7.097696800247109	14	-1.4295199027020071	-0.40779093063368216	0.9927808972687778
Si	5.006641116605699	3.684520502571479	8.325393506573484	14	-1.7416266346253142	-0.0877790782930475	1.2787011786169091
Si	3.8205381716976796	-0.2904881614461257	9.947949353274057	14	0.11709070738486367	-0.2290620869667805	0.04046431263902248
Si	4.781209163041209	1.1906488964320396	11.551841318651451	14	-7.585653125093455	4.0317703071457	-5.979803991319842
Si	0.6572404829436431	2.1014150290316045	10.032361669400858	14	0.5052777312840127	0.7771667195684997	0.07737227239921614
Si	1.950230700851607	3.7419479979605557	11.38847685862769	14	-0.28407474194932886	-0.5951440328759564	0.3633311203271495
Si	0.3179432153220092	4.900805853556707	2.2469193783288115	14	4.54922813566285	3.1682357889943815	-3.6780309523258943
Si	2.229144565706386	6.412276229542466	3.0651480036003567	14	-1.4201824195108252	-0.2844151562937165	-0.15503739369439715
Si	3.4217236051357545	7.84892595185444	1.7069298880370583	14	1.6253116297155394	-0.017716458319012356	-0.6818825848459401
Si	5.185733234752739	9.153420478165746	2.9982086760352096	14	-1.661873261589109	-0.4903619779902377	0.21996628767569262
Si	3.263595136427124	5.052565397156872	4.605803453984252	14	0.31639919225529456	0.10445681006272002	0.8316332717810486
Si	4.7963670735715045	6.391186820078737	5.8630482984340375	14	1.4757509474635897	-0.7278122960640012	-1.046503114491144
Si	0.7265244148069616	7.810445571236875	4.238860852100594	14	0.9607220421423834	-2.4118705970185403	0.93249927615365
Si	1.9592908905019575	9.158668498700692	5.528654578234513	14	2.3077881398904334	-0.024092028181383545	1.1942753358823985
Si	0.8038154328042408	5.383597497201276	7.201218078830181	14	0.03837657511906224	-1.0980630321392653	-0.2588079757471697
Si	2.219649137011879	6.665901393653208	8.746699433490118	14	0.45963187009329587	-0.9487296355976166	-1.575488493711178
Si	3.6081087111860146	7.885574610364059	7.038427740661148	14	-1.1154120795080285	0.9909420427438078	1.4665484473017156
Si	5.100542300034381	9.1274854802481	8.563358813618079	14	-0.0694434978129435	-0.2890542016228596	0.18310795024817783
Si	3.364989430234104	4.751571352551915	9.820816903328195	14	0.6958560280398809	1.8320688638089713	-0.20568893983291034
Si	4.83003467269828	6.278739860394135	11.152078630855145	14	-1.4569373985044702	-0.26730393616706694	0.8500182174832995
Si	0.7050041405608247	8.007801325756937	9.834088413478664	14	0.3818924438543625	0.43145744088458116	1.270681129791771
Si	2.2769607144645714	9.381190474635783	11.240307490359099	14	-1.5720581249930365	-0.6988079140579428	0.24100898494738057
Si	6.792770294328615	-0.22504373783415063	2.098954506797049	14	12.497145372375595	-9.400703071456773	4.887040778576997
Si	7.852743588797031	1.3114572574523775	3.2838009450172896	14	-0.2429655960960132	1.0650271569912144	0.2817368358817182
Si	8.960695973273834	2.7963343091270665	1.8570206507794758	14	-0.8458196024954977	-2.7855812695231275	0.033235907141958176
Si	11.461046954630936	2.468466987459019	4.325276580109041	14	0.6980620364045679	-0.6297171718949236	0.9464295247782122
Si	8.911714083759188	-0.29405865259982444	4.522970246349316	14	1.6414802826318224	-0.3574574302232712	-0.08527225060590313
Si	10.448251166705157	0.9057838484659503	5.801622727805169	14	0.5681818798256916	-0.9956934453754416	-0.16513155318129852
Si	6.2208443189977745	2.5499616709983552	4.432935910307918	14	-0.4529837630669889	-1.4019010893529766	1.256787390862755
Si	7.7827696171426	3.33270409782043	6.014642713653128	14	-0.19526927841247824	1.3010595104809166	-0.9258072032263686
Si	6.300868157023567	-0.17502405471924143	7.151751739826689	14	-0.5024790831430316	-1.9839198866801089	-1.2753903662961543
Si	7.471829594882854	1.0590546995008505	8.588032930586197	14	0.8715154861755897	0.7907807222386838	1.3180357475782583
Si	9.243930515172492	2.018095184776947	7.29234160604741	14	-1.4964478310697176	1.1609622955808359	0.9771984563654883
Si	10.58939656416817	3.4962063470893288	8.467799784986026	14	-0.024657928462348138	1.1515389374719611	1.1184678381810247
Si	8.90217381888174	-0.2028782599798416	10.020846425343139	14	-0.25655543037618794	-1.304715622246167	-0.6595463644876856
Si	10.006212332657444	1.0317647740060414	11.65701825530702	14	1.8396477109611717	-0.36505350378111673	-0.8408452850326072
Si	6.033318624196118	2.513445333906684	10.014779324295446	14	1.5563854382930096	-0.7289412684100783	-0.061514209005606814
Si	7.752626579421145	3.714242517599466	11.23173503089391	14	-2.3973322819857623	1.2634658369318394	-1.0239043842797022
Si	6.216028256810673	5.157836380440073	1.7534107933959588	14	-0.19539474835210147	-0.9014824900135116	-0.714575217433751
Si	7.84826215763383	6.1349403796141155	2.962299267761395	14	0.6474210317978673	1.7394926172095915	0.8997791327389135
Si	9.149218999754563	8.013473649681666	1.8714611823827199	14	-0.11868530690441949	-1.1048494646317961	0.6541663266052757
Si	10.5599020107512	9.314533286953532	3.405298252263303	14	-2.602358133756607	1.4236706380986703	-2.157660271804859
Si	9.121347297446961	4.755909526642794	4.4912459130051205	14	-2.9974300634820485	0.06055492961065957	0.9044099505310321
Si	10.286846375945537	6.308399542192181	5.520076650942135	14	0.9125241018108874	0.925779692399443	2.3535247610989516
Si	6.4651654283655855	7.619946472010439	4.390250770582857	14	-0.8431058008300815	-0.34066322738259597	0.20176851844074856
Si	7.665302098534069	9.09935022867004	5.758557027307831	14	-1.2318885498319088	-0.19804787193196227	1.3555797987946565
Si	6.35592917680572	4.929630051360441	7.069515618920671	14	1.20957726919526	1.5489647141179983	0.17962538809203726
Si	7.878774820473186	6.268122433560671	8.61620645695457	14	-1.3635126871494416	-1.2475082717623405	1.1868376424122742
Si	8.909357450241204	7.602224150529017	7.178390993886137	14	1.448701119721908	1.8753428803418515	-1.0463043680498965
Si	10.293217488184878	9.325091661253367	8.483284671582158	14	-1.1160743962384985	-1.3257796596920124	0.741556910884449
Si	9.398934667425957	4.939699601909678	10.103290323682296	14	-0.8881999028190944	0.28112028482594675	-1.3424188248818825
Si	10.489429373257233	6.486824585422295	11.514493871827222	14	0.4244846032563395	-0.16086634656570487	-0.30563937360100685
Si	6.434790554771364	7.520585116351921	10.214568261914124	14	-0.6564916342568177	0.31145881338263	-3.112011886295512
H	-0.619648077461393	4.082371637982897	3.2284785630955555	1	17.50220734135282	25.052538107337014	-25.042493570182792
H	5.834116931217422	0.6856950556294746	1.127239598099401	1	4.4594191697195456	3.134765139936694	-5.199352941815385
H	10.144500243632061	3.744193087803908	3.584382715452279	1	-16.597302453047657	-24.759716722199077	31.72480401056361
H	9.894561488611402	3.688794156301542	2.537644843474892	1	-1.4064755999385838	-1.1363485901299943	-4.591269050084187
H	12.436038185379573	1.4828550491806036	5.24856294340346	1	0.05702094534811604	-0.04357226475001748	-0.21057815370970392
H	5.89434067343039	0.2882157324668345	12.558047281250374	1	-9.366812303789771	-0.0520977928810965	2.9141745878892693
H	4.991962187737063	9.381190474635783	11.240307490359099	1	-0.11401592253249858	0.3911795333812694	0.006204848469113359
