226
config_type=divacancy dft_energy=-23062.6857709554 dft_virial="-78.81630753958724 -8.04907354678214 -4.7868939595400395 -8.04907354678214 -82.47247016876679 5.184816831896866 -4.78689395954004 5.184816831896866 -103.9130273110029" pbc="T T T" Lattice="16.249967316 0.0 0.0 0.0 16.249967316 0.0 0.0 0.0 16.249967316" Properties=species:S:1:pos:R:3:Z:I:1:dft_force:R:3
Si	1.5544881234158758	1.442444598772056	1.513911955027824	14	-1.008271035491074	-0.11872670170007388	-0.8224765372938733
Si	2.859327998956044	2.7657931870851478	0.066527366191704	14	0.4151280938857887	-0.30684984998573256	0.10211581866872521
Si	4.291973867436552	4.02495440450004	1.340508553798788	14	0.17783178502070193	1.7984984558648618	0.7631806779584902
Si	2.655017159891976	-0.211769574062112	2.5410886390394998	14	0.69806357906776	0.7037572917992279	1.4415776153219055
Si	3.9603932843535716	1.334187316512864	4.057161839720352	14	0.3271528402568139	-0.8302896121407393	0.41344504834321977
Si	0.078519842070912	2.688053343445404	2.80872560073402	14	-0.9399853064037932	0.4854966753929215	-0.8483192310877457
Si	1.421937140019264	3.96588577330638	4.1022554990222515	14	-0.15829215591917262	1.113944492591288	1.3499827596232263
Si	-0.214645818277044	0.301241894104008	5.291931856193928	14	0.48124278164073647	-1.6251388514380254	-1.3793434968266574
Si	1.108280270885832	1.39920343574418	6.724512724805171	14	0.36199928777131285	0.8321770605562601	1.4675362659657165
Si	2.730677007715272	2.591756037130788	5.625397435485564	14	-0.750085524341912	0.5937569215557367	-1.6642281369518328
Si	4.097218009154292	4.054513095047844	6.739088945487624	14	0.4582187906093424	0.3632750702311703	1.0077305891527788
Si	2.592633535365852	0.279515687802516	8.1002024578431	14	-0.03805750094883187	-1.7430325150143715	-0.03267926284014611
Si	3.9964844617624076	1.4164771510010878	9.491573409340967	14	0.9323666071191302	0.2740515449692636	-0.05684122508623768
Si	-0.110646027454644	2.833864300171872	8.221979712909203	14	0.24694489580000642	-0.7477874704067637	0.30613302582247526
Si	1.431004621781592	3.853907248531824	9.762704114008427	14	-0.28089685577362583	1.2708755053539742	-2.6693107447353905
Si	0.016379967054528	-0.022116205517076	10.664642299915691	14	0.05188233425526808	1.7243588341846678	2.0172367836396514
Si	1.496638239770916	1.295561144202732	12.10333315623775	14	-0.21353723882266237	-1.5007328351962763	1.252084839232204
Si	2.8234480711223156	2.70009456922656	10.97233543104415	14	1.2860247150108186	-0.38426788805964734	0.5663957329597847
Si	4.234643982745704	3.9996532053890275	12.276509057924363	14	-0.20721154840350206	0.40925388956084635	0.5635495193703808
Si	2.961621543210264	-0.087197324617656	13.683658727686067	14	-0.6956243714505355	1.9215343300815042	-0.9534010768537938
Si	4.259408932935288	1.508939465029128	14.889341302664004	14	-1.0454049954089086	-0.7049451424571364	-0.23131000434818594
Si	0.156860934501348	2.402541417703284	13.663167518900591	14	-0.6890572542418133	1.182616144587123	-0.9506983309412541
Si	1.2043175777233919	3.8463672636972	15.161349505566527	14	-0.9843731257613615	0.0018483676146544544	0.45770971175595315
Si	0.035928677735676	5.618864948624532	-0.001088747810172	14	-1.0570523596197112	-2.134320034819087	-0.44718052124888275
Si	1.488123256897332	6.599144226962232	1.334593565695764	14	-0.32331520845596085	1.542482443384841	1.5911794352589776
Si	2.7663456859738917	7.854324202384704	-0.08726232448691999	14	2.1057342287591485	0.5486826170776886	2.119316606833895
Si	4.076158051512755	9.582101977258404	1.3235273379535681	14	-0.3750455903868082	-1.1437214917460508	0.4021491542296812
Si	2.776810664925396	5.40912662047692	2.829753058440924	14	0.11036058209884407	-1.496383296326182	-1.1521184646111224
Si	4.055244343577064	6.784962603220691	4.0447631146582435	14	1.1919829383789544	1.2866093843606203	0.4134332212587471
Si	-0.045191159105796	8.1083274415011	2.684722100145624	14	1.4166414932639173	-0.9876844523031804	1.458167158179097
Si	1.4572970688988798	9.524918342273399	4.149851653290816	14	-0.9720320773351827	0.1888631123967973	-1.9622043311461383
Si	-0.197420852922084	5.506853923915344	5.4597615186335755	14	2.58019006368629	-1.6243088986406817	0.48329863745472684
Si	1.4588408157939	6.491228194016676	6.912021097664496	14	-0.5992950824153355	1.3001349410077914	-0.7597104571078864
Si	2.560312350374328	8.078086252326024	5.443771550794632	14	1.3753112323530692	-0.9435128629030362	0.4815636555846909
Si	3.886407183163824	9.654381831879972	6.627094170745752	14	0.4098074485362742	-0.8853351772713854	0.34680559799242977
Si	2.886172944962076	5.32974553013826	8.362980679310136	14	-1.2387271757624385	-1.3451269701155946	-0.6144640895831451
Si	4.238836474313231	6.721083981701495	9.48973716303426	14	-0.5586027127344159	1.8810065111410736	0.09621101819047313
Si	0.13134848581522798	8.157191093220312	7.943292773439803	14	0.07440290286497712	-0.5510392922141363	1.7195935475843056
Si	1.2099888163166759	9.551552038704324	9.5785432344162	14	1.2133740204215224	-0.851223037436321	-0.20744114810859127
Si	0.07301110315078799	5.263559413260191	10.85302817101008	14	-0.2196060758203399	1.6323333183448638	-0.1059858463966121
Si	1.193755098967992	6.906609858548268	12.096784419409405	14	-0.13989718290617317	-0.4871882055830469	0.520980499916285
Si	2.892494182248	8.092288723760207	10.97701542163116	14	-1.0514766606224382	0.32670701059430024	-1.2385181448999107
Si	4.183277836059828	9.58845571447896	12.183331745334419	14	-0.539817960154882	-0.8297301396230752	1.2438159074120758
Si	2.488731244347348	5.492375203036787	13.434562978699104	14	7.188575990328831	10.581511214782767	-9.446217292055097
Si	4.1559778909689475	6.642807889140324	14.829931422156708	14	-0.16719897896922956	-0.7731275131105472	-0.06831478257739848
Si	-0.12187475486999999	8.085869986670387	13.645000055441304	14	0.16968986580338905	-1.0615103991343162	0.5248536129705562
Si	1.444118345405604	9.104352938168004	15.015944798022959	14	-1.4418802344180868	2.5200531958006867	-1.5632891131881392
Si	0.058012383318119996	10.653462322402284	-0.054193640998859996	14	1.000895048548633	0.19370990303580843	0.6755653790743361
Si	1.2229400402675281	12.328183953989242	1.3211385927581158	14	-0.47493534606934923	-1.4784932883980595	1.0499838768735603
Si	2.5376436459685077	13.310234478764388	-0.1385309713689	14	-6.935957693529386	-6.316429812018209	-5.97215983809251
Si	4.254582692642436	15.01223980547491	1.313111108904012	14	5.9821616948984175	5.813556578429599	4.703220117934075
Si	2.735178248661804	11.034020306975687	2.6783358629904357	14	-0.6339576958994438	-1.213869215306183	0.0038880254651279256
Si	3.9782844983684877	12.262729085640396	4.136689179764856	14	0.8826020923160682	0.586679182830433	0.5709291058602699
Si	-0.20263709243052	13.855599631856665	2.4473425775934956	14	-1.9490423287912364	1.8250042377208004	-1.5485813623147642
Si	1.2723399409081682	14.88911380312158	3.993965716828428	14	-0.6001638589030136	0.9857674361764779	0.5752444490296064
Si	0.328379339521728	11.052399020010084	5.432169074131007	14	-1.9932807669297041	-0.1979026044813739	0.056056780853060505
Si	1.4097496645322638	12.417315024717505	6.9528572655296035	14	-0.43303327133529995	-0.7462134397297691	-0.6096419815552074
Si	2.604512261473848	13.741589861167608	5.610284965881683	14	0.5803609486167011	-0.6518117083530841	-2.0705591939847348
Si	3.9843782361119877	14.961734907056783	6.876531169046352	14	0.7570079683058788	0.38708941903797783	1.5453615671223426
Si	2.58195730683924	10.895164336260468	8.130216147475753	14	0.5238508818956985	-0.253917476317716	1.0900985191890424
Si	3.9560545430802	12.244057873194311	9.518142105902626	14	0.6838376533313807	-1.7799242768110481	-0.21181177004231097
Si	-0.161410925349828	13.732831128784284	7.851204208660032	14	-0.15161242429742788	0.6460007532190175	1.051037772944289
Si	1.230090025886568	15.0170010458985	9.346997450130514	14	1.3014192081152054	-1.591171464832485	-1.266254971983136
Si	-0.134728479016956	10.94917922761885	10.937593000922543	14	0.6439916915218538	-1.7699800127643113	0.0034026007806839675
Si	1.391614701007608	12.095094422808538	12.17382551445456	14	-0.581419472677006	1.0813642173059677	0.4422859080509168
Si	2.568031084849428	13.510352826260927	10.769633338744368	14	-0.3260758042382038	0.8577351329911919	0.2003626380516916
Si	3.9209058637756917	14.839616402677045	12.160711790830549	14	1.2455969120673422	-0.31343110827371556	-0.36214069856392095
Si	2.563578593804844	10.770039587927267	13.644090057271608	14	0.5820159691112803	-1.4733389935627588	-0.5762739195997937
Si	4.008086938426032	12.050585762330016	14.827461427124675	14	0.9520293921654946	1.0805823441781104	0.6300670993289957
Si	0.141602215191624	13.641343812795204	13.532550281614583	14	-1.0002450731236998	-1.1065888173808764	-0.9426366302099297
Si	1.51636570009254	14.843402645061671	14.763436555899636	14	-0.2041460195302895	0.9776584271072629	2.143163608678268
Si	5.566231304488008	0.17289965224224	-0.065276118708372	14	-0.2742520911842351	-0.934844124205625	-0.1597538292936768
Si	6.584616756181728	1.596851788208688	1.4163309012952439	14	0.9595640163061887	-1.6970092155626566	0.6631055455823666
Si	8.016742625708124	2.673672122370744	0.05541238854756	14	2.3701081333033747	0.12858123417113745	0.4800749856043252
Si	9.545620800633984	4.062930578117532	1.400568432998724	14	-0.9532534954084171	-0.21533444144144587	-0.47910156513011715
Si	7.962451484905367	0.025252449209064	2.67320087331858	14	0.4779808203210646	1.6561785204155135	-0.36798250696182944
Si	9.10878917924527	1.561573109165652	4.076531800761024	14	1.6353361122482648	-0.1489022221794598	0.5066149631610218
Si	5.456755274680116	2.7811819061334	2.970282775789692	14	-0.2276896309468854	0.8490566240935642	0.26916953018736645
Si	6.867057438101123	4.402246145642928	4.19720405804964	14	0.47907945362436394	-1.1093918364009017	-1.5373875410824354
Si	5.316761806252775	0.057979883383487994	5.611194964051379	14	0.8768420450673404	0.8272523654260484	-1.2849255674864555
Si	6.778885115444508	1.537051908485808	6.938784793833948	14	0.7675939802405245	-0.7536724733740506	-1.0149705646237837
Si	8.232265942220232	3.2146497842876998	5.679721076222952	14	-0.9491852354603469	-2.3413922293142373	-1.0700786076137097
Si	9.713092963792679	4.381186188001392	6.930822309849107	14	-0.8881096570223573	-1.43933098349316	1.4503679673009597
Si	7.9768164560127115	-0.186760874362788	8.193916019354472	14	1.4846690833770553	1.189282249350671	-0.9116036461062745
Si	9.472203448300297	1.104981527520684	9.553632034520772	14	0.5266253616466702	1.0199029730699558	-1.3319618824343085
Si	5.444324049683376	2.833896800106504	8.231810943135383	14	-0.988808539549149	-0.4187566948241137	0.21658811239555006
Si	6.7161439916374315	4.051864350375336	9.690229259779068	14	0.17027582070585076	0.7142538292687324	-0.92413187099976
Si	5.307320575242179	-0.007994983919472001	10.857090662839079	14	0.1404535700974532	-0.47011606625726365	-0.2695482540010242
Si	6.971203478629367	1.114325258727384	12.077446958303364	14	-0.6474801672202307	-0.3212182149568481	0.7213760481160746
Si	8.079776248926887	2.574124822592928	10.736304655779252	14	1.395326773049358	0.2884718462678461	1.0120806422439372
Si	9.417262308804899	4.023914406591816	12.23200039744584	14	0.19879323536427324	-0.8018680997107585	-0.07753759447130167
Si	8.348501958431578	-0.145567207216728	13.5731914498719	14	-1.190119144132379	0.675563065079548	-0.14318691216330265
Si	9.444562253895779	1.348958536803108	14.895175040930447	14	-0.06679628777531903	-0.27872195778331255	1.4048743155451957
Si	5.778650877242759	2.495653730423964	13.496117854892113	14	-0.5633227478811438	1.7695051296116797	-0.20043822854810395
Si	7.029638361097703	4.033664386981416	14.870848839858397	14	-1.3602882639674438	0.09762589744815062	-0.6853016407006729
Si	5.781283371947952	5.5176764021478	-0.103967290887768	14	-1.7512284274434071	-1.0330989140150837	0.23741972192045385
Si	7.138594391951484	6.996797177152067	0.992093004576432	14	-1.2170345030658174	0.7081214859696472	0.9918972083702429
Si	8.253667149175405	8.640920120282999	-0.169145909792244	14	2.3013572912636793	-1.7610780748143626	0.9983295996601893
Si	9.730431678918851	9.630153130611815	1.575369331416936	14	-0.8071879737286768	0.6120518785717822	-2.040509143444972
Si	8.136959883911892	5.649089887832291	2.520516180417444	14	0.6904217398352158	-1.0132144996901227	1.0007605797403893
Si	9.565852009942404	6.876206169700032	3.916745872142796	14	-0.9245057097133095	0.14501368249326785	1.6768836315586657
Si	5.621871192577991	8.152966101718151	2.571183578508732	14	-0.7791385002385214	-0.2765971963467422	0.31956165179907664
Si	6.930302310894995	9.48291217676154	4.084364285007336	14	-0.4761108554217209	-1.7350155515156176	0.3185221539181408
Si	5.463954010201103	5.50321393123656	5.48777646228636	14	-1.4185227710266697	1.1658705356369987	0.12771811411516373
Si	6.6657853429251475	7.006628407378248	6.83181125899272	14	1.040928186825467	-2.0016983086373368	-0.6591972083852095
Si	8.253309649894453	8.18973977775426	5.629606177020408	14	-0.2398807839328996	-0.5562401240557319	-1.802235043226633
Si	9.575585740364687	9.433236026676528	6.989630941565712	14	0.11012224063566632	1.2484593236202632	-1.1507624636652765
Si	7.977352704934139	5.410556617600728	8.151909853842612	14	-0.042832043528346846	1.0615885607360487	0.6883527713840927
Si	9.090865465295725	6.959828501508168	9.750581638390692	14	0.9100411854032205	-0.20797156713613782	-0.6003343231857393
Si	5.266468157409756	8.246078414438832	7.9862739369906235	14	-0.16727508368670596	1.1160556271696616	1.4088582432387653
Si	6.9777359654904	9.414353564655336	9.323922496541796	14	-1.4548254925945006	0.3695989608766065	-0.15312603399939906
Si	5.4688127504285875	5.571008794878912	10.956556712780316	14	1.2365476497825492	-0.7580029860647761	1.058211156787502
Si	7.2566991544041715	6.908072355606708	12.115601881561332	14	-1.6208823865805204	1.034229171913821	-0.6373158165580893
Si	9.201933991900585	9.192996509876783	12.36601387790089	14	0.5776977977260916	0.5391618140771802	-1.0781691047246194
Si	8.244843416922816	5.4891739594755355	13.616546362670988	14	0.6647546525347097	-0.3283113803140726	-0.2646181595496403
Si	9.662100566355072	6.8395462434351355	14.878616324235443	14	-1.1256363369241293	0.00478508411132759	1.2541988020264296
Si	5.4534890312496	8.040093828741215	13.53532902602562	14	0.9341776937066425	1.1693415278191983	-0.6126622589747853
Si	6.674966574458688	9.669413051647272	14.911750007592767	14	-1.8035110827970227	-0.33607740393357993	0.20308672413838846
Si	5.37573293764254	11.053292768212463	0.17476839848358	14	0.1204403433959526	-1.0824276264663806	-1.4642262249765579
Si	6.856901208528623	12.196185469481374	1.451512080534384	14	-0.16159679758715895	0.40775442093813596	-0.030428260132356475
Si	8.113153681793952	13.652930039491512	0.179610888743748	14	0.18721297700232625	-0.6194828871680741	-0.433173139464716
Si	9.472772197156356	14.897498786256635	1.55235937769748	14	-0.8795936419809629	2.433453997739055	-2.488319071276227
Si	8.126592404764283	10.7871345535437	2.754418209963948	14	0.8494991113191616	0.7780491229143747	-0.3859229085542267
Si	9.363344917250412	12.234096643229604	4.041253121717988	14	1.3475751766014397	0.1892107258360813	0.08651795113351488
Si	5.4270828343611	13.534987776711983	2.680497108643464	14	-0.6933188613099587	-0.33701945692288215	0.7074882227292947
Si	6.629547915810467	15.046754736054096	3.9708907632397077	14	-0.8146729755366919	-0.06283550002963091	1.4302400693021806
Si	5.531033875281552	10.731949664538565	5.326105537459476	14	-1.5031316764599747	1.3561855512080834	0.44082500600800867
Si	6.799181324622192	12.163165535895264	6.690144043931832	14	-0.18385999855432114	-0.39151609106767676	1.4234225264352758
Si	7.915537829264076	13.601222643492	5.277534385151952	14	1.1074244266099245	-0.18013909493500285	0.6484957538216892
Si	9.406196081062705	14.529729525960924	6.96302974506942	14	-1.8684690302684357	2.2123438253064287	-1.459955619039792
Si	8.398291858287804	10.929695516806968	8.276823352600704	14	-0.90006838208743	0.7794853423462094	-0.6117765131919944
Si	9.731829176108029	12.330166450001796	9.643998102765046	14	-0.15801113410768042	-0.1386003173826905	0.5805141864937818
Si	5.4273265838708395	13.434237979352783	8.298907058183149	14	0.31116750714985725	0.8367451433785671	-1.5175113542944987
Si	6.779275114660091	14.86677009806208	9.613626913851444	14	-0.8180848322965284	-0.8016112462892756	1.0101363724008412
Si	5.47558898679936	10.670784787561141	10.658548562172193	14	0.12691387237102142	1.4951707630572002	0.11198552066117763
Si	6.622609179766536	12.152765556813023	12.185460491052815	14	1.1598839740095659	0.28303627251052105	-0.6342533730112608
Si	8.287532081061947	13.717913658788195	11.133778856328611	14	-0.9153723722845475	-1.4339738284480996	-1.5718123273244302
Si	9.780904077402347	15.04148974664371	12.23118789908004	14	0.6550806116571204	-0.7785923974685219	0.250844234128543
Si	7.99027142895036	10.881010614728233	13.593292659441792	14	0.6599821668394508	0.4709915276187741	-0.7178996566127024
Si	9.320298753830327	12.287640285535822	14.956534917515663	14	1.0404864709314654	-0.15855826531980793	0.4374226623378567
Si	5.368859201467872	13.55299274049811	13.555283985889668	14	-0.38258561384867446	-0.1313911951755273	-0.08988687043450491
Si	6.867853686499608	14.842541396793923	14.90552627011074	14	-0.5751539461223372	0.5413511102572864	-0.05249014355295109
Si	10.942045491967129	-0.006288737351291999	-0.044297410903416	14	-2.279661276130142	0.21780115988559595	1.0921212077444031
Si	12.251159108911404	1.19510384625522	1.328646077658108	14	0.03188684818047647	1.2131709031012308	0.1988950511349511
Si	13.558095230235336	2.6079085046428916	-0.018492462805607998	14	1.4646789966234361	-1.1466394391738872	0.7174402000919919
Si	14.933199964449887	4.025734402931208	1.263418708851684	14	1.3742048857338092	-0.5026634313944861	0.0926909178966584
Si	13.593861408297853	0.110792277160488	2.815258087595052	14	0.43629806087082396	-0.5893410481683822	0.17049924975817166
Si	14.642878048382231	1.739510251275852	4.1425229180313	14	0.6770576486021501	-0.7193376758182612	-0.5861919583722649
Si	10.902899320702884	2.648224673553888	2.5951847802344643	14	-0.676604362734208	-0.5089914358084346	1.5372864966433537
Si	12.154390553544623	4.04372311675002	4.051945600211916	14	-0.4387416393670927	0.02599567456042118	0.2564911527431842
Si	10.387905356524211	-0.006987485945879999	5.596504993597716	14	0.8046616056410992	-0.11602729822445043	-1.3245468146910013
Si	12.102423158068056	1.061675364623544	6.759385154665308	14	-0.35315288569627934	1.645561398106494	0.3240932249258377
Si	13.326045696962854	2.8477905221616835	5.669418596944608	14	-0.13949274803931389	-0.5800081929667766	-0.1885905752328616
Si	14.787616507265843	4.219840262520828	6.880219911627084	14	-0.10453394322232448	-0.7093278485858606	0.3873167047482789
Si	13.662858769521588	-0.148329701660448	7.959087741670955	14	-0.5537461518951882	0.43049584749484576	2.103357241890672
Si	14.80567022095392	1.3713834916991878	9.6528868348869	14	-0.2691849568192873	0.5685138095225226	-2.141820977480087
Si	10.930491765205451	2.7129482933735156	8.142549872668596	14	-0.4196637807810619	-0.7903495478764949	0.6657033903978442
Si	12.115569381626699	4.163436625966992	9.6382618643025	14	0.1325283950586288	-1.3850467226478098	-0.23812240500445034
Si	11.137207599432287	-0.044557410380472	10.761475855151735	14	-0.4716407317121115	0.6067944824131435	0.1893302822334682
Si	12.287575285666561	1.477170778926348	12.167130527920367	14	-1.3662015490932524	-0.15918690057058413	1.1318260158718538
Si	13.583900178333142	2.877934211532864	10.997051631331788	14	0.15766686310531258	0.10629052237704965	-0.8963914443690864
Si	15.072348434576796	4.066830570273372	12.30561274938732	14	0.7040303431842276	-1.525192788548973	0.5318781298157327
Si	13.484775377705542	0.0633748725324	13.534045278607655	14	0.1631538589690406	0.25035649544931093	-0.006607997783312578
Si	14.985573609109355	1.10881651980726	14.93123371840465	14	-0.8061798433326468	0.9140737069873407	0.6663335683118125
Si	10.813752000007309	2.72893826121246	13.753078588060019	14	0.6754789899355792	0.4462122429853149	-1.5845076740637254
Si	12.271552817892983	4.017950668586844	15.140192048121095	14	0.5129635364175315	-0.4296280994492958	-3.2932048773012434
Si	10.888160600347272	5.28343312328766	-0.048116153222676	14	-1.8145326399729014	1.6175499769750763	0.8503074668318161
Si	12.089943183169368	6.6770953201770835	1.294976145379356	14	1.0737794566115308	0.013253533704299318	1.2551341701418994
Si	13.493924109304452	8.143654870446083	0.19958209857511197	14	-0.20365211019828905	0.6126879700279869	-0.8718240188140074
Si	14.967974894506128	9.49176840894876	1.454193325141524	14	-1.1359814362902771	0.6337633203372406	-0.5023885802357624
Si	13.62238010093743	5.244124452350256	2.65906340175366	14	-1.3099426793620281	1.1555048674282897	0.43333151955243715
Si	14.7460328409042	6.674934074524056	4.1484866560362725	14	0.04920452806433386	2.050768110782895	-1.4880925101108324
Si	11.001699121984164	8.181436044455783	2.724534520069824	14	0.3332005941908662	-0.8413430510225878	0.06745371940568089
Si	12.332522695262615	9.489672163164995	4.063824326319912	14	0.352834839968177	0.5337362676306038	-0.15689090351969193
Si	10.777335823252152	5.500516436662104	5.39815789253862	14	1.6542036544191074	1.3170129618819033	-1.4549656178344486
Si	12.213995433659711	6.782427608319396	6.8897911423762075	14	-0.10641085010603259	1.1514420068013915	-0.7100541858388025
Si	13.705368684020243	8.334478236637873	5.523818889793248	14	-0.990913503474754	-1.5939677989786782	-0.023440252982726006
Si	15.036436006808435	9.632135626624368	6.834476253632544	14	-0.18022754095801594	1.563940374165733	0.026589856999907405
Si	13.417825512363622	5.414667859331676	8.290262075571036	14	1.2616552645653911	1.1932111553903892	0.07571468079931666
Si	15.108098362671996	6.7864576002137635	9.509545873192463	14	-1.1953611136590971	-0.08354883870980787	-0.54620715687545
Si	10.890338095967616	8.230657195455949	8.301913302136608	14	-0.39392727363691166	-1.9172182155805713	0.3922881939953172
Si	12.051772009944084	9.458472225918277	9.779994079232653	14	1.6265871550648647	1.2932436074181985	0.16166518898867485
Si	10.587357455360795	5.4058603770464035	10.775174577599124	14	0.3312776645219274	0.9797525923905234	0.9813950144690341
Si	12.171729268670795	6.696221531708016	12.18723173749026	14	-0.3045458825083479	-0.8140587384757085	-0.12652794946246718
Si	13.556535233373	7.9959589175109596	10.913705548968025	14	0.9536062510583415	0.7833587125110124	-0.3391617018756295
Si	14.923856233243187	9.435332272460291	12.344921420324722	14	-1.2742801630189142	0.7733913085163943	-1.1052361588719464
Si	13.586240173626647	5.2564581775431	13.461407924705135	14	-1.3412386875399345	0.81932667616616	1.666333872209034
Si	14.647850538380927	6.685285303704348	15.035444758802159	14	0.7509671563561909	0.8358221165686339	-1.2429165347710878
Si	10.987204151138291	8.089769978826228	13.624768846132884	14	0.5639662955427769	1.3892787620047733	-0.30384294231381936
Si	12.240824129698428	9.72747418486734	15.035379758932894	14	-0.6851329761916712	-2.6312599286603913	0.8109078489058671
Si	10.960570454707367	11.086621451177578	0.10723353431828399	14	-0.629374957776812	0.7004657627683742	0.2711395110836639
Si	12.412992533411447	12.637420832012722	1.3589035168005	14	0.10016383550966879	-1.4501473664644913	-0.10606246533515251
Si	14.088932912547108	13.729873634732773	0.061489876323743996	14	-3.456866529571013	-0.746697578861553	-1.2204602437943826
Si	16.448753166176626	16.214753636826227	0.11119852634338799	14	-0.15836723219452092	-0.8313010849736855	0.19745188971875194
Si	13.612873870057571	10.994597886267071	2.7274432642193878	14	-0.3540617714269516	-0.2338492279623642	-0.44805135462081686
Si	15.017862294166248	12.329272701799416	3.966552021966336	14	0.24046082529312499	-0.4393173098482739	0.5638693648722073
Si	10.845423186306192	13.747439849401369	2.674874619952128	14	1.2032214968438537	-2.2360458168107455	2.148279079823235
Si	12.145794320834458	15.006406067208466	4.1052129930737635	14	-0.48619061671882935	-0.00781616017325016	1.052805150741359
Si	10.814353248798	10.679039770957667	5.335270519025699	14	-1.819505928993664	-0.36252816413566724	-0.700496101811152
Si	11.986755890712766	11.97159467120694	6.645229134270408	14	2.3837609596638933	0.8876717977863361	0.8630400945982535
Si	13.461586674345611	13.356059386595508	5.391235406462004	14	-1.3203014055863729	-0.16196857941645235	-1.4572186774264944
Si	14.691481700624388	14.93867620343538	6.271967385021887	14	1.5122076782400973	0.3494350674033452	2.047664272440412
Si	13.428550490792185	11.088620197157448	8.312362031120795	14	0.21811766295050616	-2.159812286957823	-0.2443655629428339
Si	15.088370902350372	12.276817807303367	9.459642223565028	14	-0.8756266835825064	0.5828073553288219	-1.034193690660403
Si	11.091155192058743	13.540301516024314	7.953091503731352	14	-0.017859411774812588	-0.4135828595883797	2.7294568686001472
Si	12.46234368415014	14.671169241479387	9.633094374696011	14	0.4401979134204246	0.21151943536741014	-1.406738109791771
Si	10.879743117277584	10.866938143032575	11.299236023540125	14	-0.7859375311471208	-0.2548147920744477	-1.0441145576487263
Si	12.331498947321707	12.250557860120713	12.59478091777554	14	-0.38275067881022795	0.386623277643435	-1.3916472642256938
Si	13.909192024064833	13.385910576554998	11.055389013996226	14	-1.3399009414418617	1.4000478366382136	0.7323279283377774
Si	15.043667242264055	15.227503122509964	12.280620299655311	14	-0.29040326058434135	-2.5067245858210394	-0.09345170796089021
Si	13.610696374437227	10.800215777233081	13.725794892936456	14	1.8163730371610634	1.000825628704989	-0.1995031175431661
Si	15.148333281746412	12.21534418094694	15.01139480717448	14	-0.3808778856950321	-0.3549593442942154	-1.5553917060867726
Si	10.882099362538403	13.680164984713127	13.798058497590707	14	-0.013923820861261921	-0.7858948507988064	-0.5403923450834031
Si	12.312145236248352	15.014742300441576	15.006048567927516	14	1.495999944522948	-1.5961218710158984	-0.14202168723221154
H	10.021098094293608	6.048273584943295	8.823420253215533	1	0.4043261091042506	-0.33775402171284846	-0.1710324970015704
H	14.928523223856342	14.581921170986453	0.8071878764811312	1	0.8585113496873447	1.1131255955468207	0.4857848962993101
H	0.60636753039654	13.05605736499771	3.198459941850769	1	3.010011767366193	-2.733744186721494	2.7382919578117724
H	7.756845523446214	8.4133897029211	10.171184417420914	1	-0.2726289523956256	0.2393951021379236	0.06568685582967512
H	3.4246334869417834	14.120360349336252	0.6799083824818295	1	-9.96732377613207	2.322673297030899	60.13503365906811
H	6.372427932962863	5.968916869555609	13.009556458526244	1	-0.35826295752007364	-0.6508130910467387	0.5642246916274516
H	3.477098131418221	14.095350024640195	0.30936850275873956	1	12.244526561355086	-1.517341918453901	-60.10973578249157
H	9.989199408452299	10.049399037371153	13.352357644040923	1	0.49701162767973667	0.5887774618822058	0.8502894690945751
H	14.69546456761354	-0.8018400122374356	2.0554941157289353	1	-0.8712642891858112	0.9851053765565397	0.8958548546887715
H	2.1018617724684097	4.710109901428206	14.128932207095442	1	-5.47784298589882	-11.278498014942448	9.76849917328289
H	3.3569491230771806	6.347519983060899	12.57611458031965	1	1.332527525604741	1.1287813129517346	-1.3401883910166543
H	17.211814256411163	17.116056449011435	-0.7543104828348672	1	1.078263207179337	0.9936684428252928	-0.8975368717892123
