227
config_type=divacancy dft_energy=-23084.342467002138 dft_virial="-59.297754936027694 -12.268225782295676 -4.03486540855593 -12.268225782295676 -48.813490417455576 -10.248797595619811 -4.0348654085559295 -10.248797595619811 -58.1643209340199" pbc="T T T" Lattice="16.3199774331 0.0 0.0 0.0 16.3199774331 0.0 0.0 0.0 16.3199774331" Properties=species:S:1:pos:R:3:Z:I:1:dft_force:R:3
Si	1.3699152257118472	1.5143633459722152	1.5153588645956344	14	0.2719802625233523	-0.33920515355554004	-1.0043971511052068
Si	2.6943956342499438	2.9277223516109743	0.1411188448640157	14	1.6725145522881382	-0.49857048883534244	0.7284324466672211
Si	4.338045841447177	4.390987848240154	1.5520135339103769	14	-2.580762648841087	-1.8790689261718103	0.32981239159997505
Si	2.6956849124671587	0.0408652234924824	2.7741024040332043	14	-1.496868721010626	1.8152173253196566	1.128060117909433
Si	3.9209398582120074	1.596420192505842	4.066873096418788	14	0.3076540917298749	-0.40041905745975354	-0.047721514515672456
Si	-0.020824291204635602	2.731295103226183	2.932210345405077	14	-0.16121627399977703	-0.7053956001092263	-0.1378032747334446
Si	1.21304760262489	4.155865933361482	4.252741319404364	14	1.4032200663822123	-0.5461081693206242	0.49308323586108244
Si	0.0023337567729333	0.1458026783873154	5.435368484093956	14	0.40173032117302904	0.6022577670757422	-1.1880095522171976
Si	1.4693691681891585	1.402228781029385	6.839996301806005	14	-0.5961290233241051	-1.1007680920465932	1.3965053677281136
Si	2.736713335733972	2.7818217533590603	5.638911242639578	14	-0.7873914912056647	0.910833085841826	-1.393088882978701
Si	3.911572191165408	4.301831811523129	6.818731371210676	14	1.7240351320248612	-0.6531180869662514	-0.127965711557494
Si	2.7098506528790893	-0.1700704848303351	8.426249148371026	14	-0.5913565376288463	0.7231634805346415	-1.2855863415537334
Si	4.135710761231603	1.3879651207528556	9.472424981742469	14	0.3537049020085152	-0.7419001534446886	0.9614756331117187
Si	0.2202054555048183	2.7775459192715886	8.339916467749926	14	-0.7970387925879242	-1.3734824051388477	-0.3465698276345722
Si	1.5560935282686519	4.192487962721358	9.515411802301255	14	-0.15401949309815052	-0.5312371532594199	1.803274026886505
Si	0.1348356535522722	-0.0351369114134643	10.797166509919494	14	-1.3766731468411515	-0.06253828025462178	1.893666376626951
Si	1.3657209915115402	1.5026456021752495	12.058717085475559	14	0.5830922337982943	-2.5548484783193146	0.9118119056372065
Si	2.857383248874313	2.693220595874761	10.988338725570827	14	0.97403393993745	1.4931028230482049	-1.8118841443826166
Si	4.302941569988579	4.114021511223013	12.187400107535552	14	-0.6323463841953071	-0.5896691212072331	1.0222552773273592
Si	2.6824167708140485	-0.005369272575489899	13.694941702940731	14	0.507661660136854	-0.052242031889556804	-0.44089545429378074
Si	4.0336293023875625	1.4698914074670175	15.022522907191115	14	-0.31336631641964785	-0.11685236592168594	0.26368793364481075
Si	0.1620084159783837	2.7579945863067348	13.405882262645664	14	-0.7505380388782582	0.9660488581446663	1.194560728572935
Si	1.3747132990771787	4.073776446872989	15.05465694275689	14	-0.6645091119766354	1.0024186855613528	-0.875429479804451
Si	-0.2201728155499521	5.3717532120597316	0.1241460683335917	14	2.0414154580703245	0.03424223776426413	-0.25966389670824697
Si	1.4813153916701878	6.486211831011264	1.5622461597609307	14	-2.124972781427689	1.8167800431332428	-0.9025811233168107
Si	2.625835409053491	8.063292850258883	0.2789573742639783	14	1.1097695317724316	0.2679549400341285	-0.861536512207031
Si	4.292007185108401	9.503041259406965	1.278180632560392	14	-2.4011729991129998	0.28139153643722237	0.9617286298752213
Si	2.7958895739063925	5.460027969995369	3.021154222415472	14	-0.5949540281927975	-2.1981176424595175	-0.8207718944666151
Si	3.9932373582406404	6.901016697428367	4.090439143832183	14	1.2506709884166545	2.103970193398995	0.9406630497661841
Si	0.010754865128412899	8.157442800070436	2.8549842121916478	14	-0.05351884279154234	-0.14664016371879354	-0.1405247897148213
Si	1.3651171523465158	9.66653479333176	4.275605607788137	14	-0.7236980133307004	-0.5923307294346504	-1.2186828386865642
Si	0.031187476874654098	5.544663372963426	5.633574610018954	14	-1.493065542021063	-0.009648586934919694	-0.35960070361814667
Si	1.3151127414914974	6.863007469986677	6.965121568785584	14	0.08232550679848141	0.9760576569349386	0.14288326462499312
Si	2.6446686630112883	8.167006306846234	5.522451883676977	14	-0.6110774296554461	-0.5794718603969938	-0.24348341670749105
Si	3.760742959728698	9.610655190600825	6.798266119509569	14	1.838241573461583	-0.12163333626450129	1.1841564937844236
Si	2.8153103470517817	5.591126348715462	8.308582111078376	14	-0.41321287753281044	0.6884026508273035	-0.6925272179818851
Si	4.202769548504211	6.997647283809751	9.437304390306437	14	0.2321044758921117	0.6738627931313341	1.264132781651886
Si	-0.16148617670052448	8.480888432817045	8.049649349124811	14	-0.6482571552479794	-1.7944664485018056	-0.32788817637837625
Si	1.1741570964018124	9.480323850820088	9.54734999813783	14	2.2354740029875444	-0.9658645098932116	-0.6307792955026768
Si	0.1366471710473463	5.608996724004706	10.795371312401855	14	0.09377438167856879	-0.4601486622626456	0.6618338768910212
Si	1.4733022827505355	6.767013362725183	12.538671301805596	14	0.18670389814893693	-0.6534890974639487	-1.8257907388382337
Si	2.6624737583908002	8.150066170270675	10.999240470496138	14	0.1478727516092725	0.11496080373765301	-0.6849596836930933
Si	4.048366242009652	9.584265787091503	12.259648647631886	14	-0.11330115525349742	0.39987552579507424	0.19605963618789177
Si	2.948399763018712	5.396200538254515	13.688740111516152	14	-0.10348184692531989	-0.18476271363222513	0.7243027373019991
Si	4.256413314326811	6.889396873496	15.108463908353821	14	-1.6008851007320049	0.625260160822447	-0.8921678896596791
Si	-0.0012239983074825	7.9436837356516925	13.74984210702568	14	1.0609380710900511	3.3411649903906255	-1.3317196843131502
Si	1.2906001353869812	9.452384049454622	15.184482363237201	14	-0.3695251701539183	-0.5393693022765162	-0.24344999233832915
Si	-0.2708626654571607	10.853209312424761	-0.0666997477690797	14	1.1090272536665047	-0.9971139810648233	1.963894832894136
Si	1.171121580599256	12.199068891400218	1.4353583352185781	14	1.2157121835996652	-1.1837710850969336	-2.4722622614413705
Si	2.561061418621517	13.735382607019952	0.052648247199180605	14	1.53906107353532	-1.0636004506490644	1.110594856580199
Si	3.984734649997995	15.133368193916732	1.5860896467906895	14	1.5252161856073865	-2.6869680676320398	-2.2097346676275422
Si	2.6235342922354237	10.912581390326379	2.681258052416298	14	0.8201054639676328	-0.5266346176258228	0.1931432314232478
Si	3.9075248367619992	12.32910647158716	4.100165850382312	14	0.10997980140093012	-0.7224692820982015	-0.4151386354176013
Si	-0.1499479526553228	13.53510384396095	2.4812240890187915	14	0.11462424605124562	2.998756239606181	0.42642733043624337
Si	1.1629452719052729	15.009140525695976	3.877953037653222	14	-1.2822372197637086	1.0546925991568794	-0.4810697462526905
Si	-0.1741504791886101	11.101991048414938	5.340663655049676	14	-0.2910370380457578	-0.36704765306742354	0.3091507321367331
Si	1.1876537177389863	12.474827550087308	6.619219647091029	14	-0.2365576303066082	-0.7922287687549913	1.7918413499699344
Si	2.4014030793934995	13.781927182659153	5.1721435680754855	14	2.009171740471411	-0.8085234058319617	1.8040605280039381
Si	3.831898061337014	14.998744700071091	6.704214089562614	14	-0.22341979634171555	0.6686586188528224	-0.6651691147123173
Si	2.479853210914411	10.921655297779182	8.15156760819452	14	-0.19362737055503168	1.0426004337256911	0.43333280510509714
Si	3.9126493096759924	12.205743762170355	9.696351392102034	14	0.7526409459196072	0.6140005192939224	-1.1481509919916022
Si	-0.2259827275161357	13.634084507092702	8.265562650564723	14	0.25713958550492555	-0.8296905446011448	-1.110003759467097
Si	1.1986370625514626	14.765124223116263	9.61514318439493	14	2.061692480177672	-0.07745557621158894	0.037363816733455915
Si	0.0241209266461218	10.979966577147648	10.56692426829332	14	-0.5935075243396822	0.5803735470327698	2.911584713500284
Si	1.378711693548288	12.18291211374145	12.139027694423843	14	0.28138022357381365	-0.1278860072925694	0.5518203940103973
Si	2.8572037291225496	13.77727598909072	11.102415367828197	14	-1.3757053827986476	-1.420146681146875	-0.9802465017225238
Si	4.280779040634429	14.974117854124543	12.37432912905428	14	0.5048828095068381	0.6814344411886382	0.866453494021282
Si	2.609711271349588	10.807546015566947	13.795260604221998	14	0.19164401991106947	0.20448103455350478	-1.3352986629187966
Si	3.981291134759611	12.341264854774819	14.919870249136919	14	0.5954060285080794	0.2951173821888329	0.8985444879641783
Si	-0.0586213589396952	13.413209932513126	13.49704565658696	14	-1.0411716704992846	0.9882488099209529	-0.25329681149343225
Si	1.2993639632685556	14.76163174794558	14.872428074738895	14	-0.944116815542739	1.8406694682153986	-0.3222078333945731
Si	5.339047977283799	0.0461039362485075	0.1192174351487955	14	-0.09799690794584799	0.2519652360481276	-0.5397819646804
Si	6.730554533139637	1.4031263797882056	1.421649554174774	14	0.7437112400322009	-0.12229256766858727	0.34996651487301983
Si	8.226590544454481	2.5563939050756503	-0.062097514132945494	14	-0.07474306009883272	-0.27028461856471464	0.16480450858457568
Si	9.376381914548675	4.095824736385107	1.2710977623544266	14	-0.7475583849227385	-0.6191134193335689	1.4787709677726357
Si	8.100257599144854	-0.134476614048744	2.7635270586565555	14	0.40821542012203854	1.4922523014083	-0.4646848633789828
Si	9.450082932636555	1.5629968787228532	3.9652485969428737	14	0.4803099846305867	-1.9518985696913889	-0.4643868722723777
Si	5.462655486362099	2.8798884977545587	2.870994110053519	14	-0.05193452769326709	-0.8754117391777421	-1.025358087227714
Si	6.591132965928663	4.295173260730423	4.220052404605864	14	1.409497420021354	0.6633089200131903	-0.9976899086565364
Si	5.2029883254240445	0.1758477568416525	5.373597369509671	14	0.7200897241244045	-1.6679523830080674	-0.14540423339139835
Si	6.7161439930662095	1.257291061446024	6.745454672536058	14	0.8963351371625752	0.7881378830801036	-1.6807541735076166
Si	8.052994944498597	2.8474280626401223	5.237146038191523	14	-0.296318345483874	-0.31443538201176546	1.8073625985666042
Si	9.38909517696906	4.205576584622705	6.680794921946115	14	-0.8486956409066153	-0.2992015829898881	1.6932983392540868
Si	8.029200417401137	0.1915475751322947	8.255525864443367	14	0.48686810297068844	-1.5679682677602769	-0.10241406688586238
Si	9.500054703536707	1.6154003262605374	9.375647515564186	14	-0.38085500285768276	-0.7129752185930227	1.0553762560615068
Si	5.370937213188077	2.6063330360209362	7.8885385319052475	14	-0.7159057644369275	2.143384723735801	1.5841176373866588
Si	6.646376089539707	4.036860657919316	9.527521225556614	14	-0.17722191883876282	-0.84443531939113	0.054170617990199885
Si	5.7023796348769045	-0.0711387816308829	10.943899427020497	14	-2.084588944385187	1.2467749925250342	0.27292694350223085
Si	6.987561537756096	1.2098162470931362	12.387988950165784	14	0.6038495383794459	0.5355856636873862	-0.4078462093980653
Si	8.102754555692119	2.7966892528006144	10.959729805130603	14	-0.5173601265149845	-1.123790797525327	-1.0986052782512847
Si	9.615306384169259	3.9364111968185864	12.132075384037343	14	-0.8727280194445715	0.642468311619666	1.6882330046628633
Si	8.309659229588961	-0.19959332400681298	13.744407554540457	14	0.8724513685121236	0.768888788879751	-1.3426947044827344
Si	9.806984519121018	1.0358126477014238	15.012290281340563	14	-1.2544517987899324	2.352663955037766	-0.6964921194960854
Si	5.568506859993185	2.6014044028361396	13.590298007639694	14	-0.5867637721954657	0.9633404558004222	0.5953507497436963
Si	6.788000853704149	4.074788285473841	15.09413496816756	14	0.14126989603660026	0.021154283242582353	-0.35368433316595393
Si	5.485634014587903	5.707487787813464	0.24599101984911628	14	1.7937321408223714	-0.3711205410050702	-1.6117727033207039
Si	6.879506967171541	7.226404407489515	1.2317666167406556	14	0.0645056900455991	-0.3640263472057175	1.3656263928331354
Si	8.425286269702475	8.276758155083831	-0.1829632670024841	14	-1.9390450999749043	-0.8831129709431815	-1.1045044222978322
Si	9.495223990216509	9.546240239672379	1.2132760823089535	14	2.063181921489634	0.8974026600915005	2.1177490039202005
Si	8.05638949980468	5.691820609477689	2.672706384241354	14	0.207645036760479	-0.7443074793559433	0.16038323587604905
Si	9.598284647706535	6.921873628587869	4.059790226212822	14	-0.28205411027822447	-1.7458252496131164	0.051045182363027866
Si	5.442777753848583	8.381189690678237	2.8614795632100214	14	0.9335272040606452	-0.7341572697730627	-0.29445095168985047
Si	6.892024389862729	9.666551113309193	4.237237340842919	14	-1.1030808012820663	0.49713735472989184	-0.5619418072136922
Si	5.313588812488162	5.676691990397205	5.502296711547098	14	0.3264319023250444	-0.1084255682349006	1.3699679612767373
Si	6.784508378533466	6.840600140971031	7.061115676047078	14	-0.17222137610160684	1.1664027544382691	-1.2388922407239922
Si	8.191828992521978	8.179768529198917	5.343731810807098	14	-0.4322308293648817	-0.85853243275097	1.5769967040919768
Si	9.567341970493377	9.444289340647805	6.6845158768008615	14	-0.7411715021969587	-0.08984316164406238	1.6603766211822508
Si	8.05111814709379	5.514455094734757	8.519664699198092	14	0.9011356479058236	-0.19809595160144902	-1.5109439799752444
Si	9.447814455773353	6.898748220565166	9.836034078951936	14	0.20705034009992876	0.4993305075679782	-1.3921398880050344
Si	5.544516493166528	8.622660076778384	8.190507074349897	14	-1.0252940667052424	-1.7325061527231531	-0.4020781917228451
Si	6.970327641586742	9.652630172558759	9.671985665794416	14	-0.9909070757114538	0.7223810931857204	-0.010707368105756676
Si	5.50141543276571	5.558339514052364	10.878097278010237	14	0.20441624269943706	0.8381088576403737	-0.21128083679370044
Si	6.901179897202698	6.920111071025094	12.372256491920275	14	-0.672420145936199	-1.198382676631335	0.00572893687435395
Si	8.147177534265017	8.382919608286146	11.149482182745258	14	0.9223925182506798	0.0638197191461836	0.33780827203510355
Si	8.239613886446094	5.30746882095075	13.608723262161664	14	-0.6819509762474559	0.03304410268507513	-0.203391143008294
Si	9.585701945105615	6.624327800027589	14.929499035822447	14	-0.006086063403322518	0.46489363713097887	0.16191844286270946
Si	5.480134182192948	8.353135649470738	13.618890608102486	14	0.1757921271702285	-0.761996683958562	0.4296574100499455
Si	6.968989403437228	9.705262099780507	14.85754425531991	14	-0.9934959216583108	-0.6466481575386307	0.8779069968909458
Si	5.4299012916538665	10.89890524923744	-0.0645128707930443	14	0.9672192252863977	0.8382312422536128	-0.5689889497856861
Si	6.946174074985755	12.249464981713633	1.29696492658589	14	-1.1973264665658183	0.3900528750299805	-0.07345930721248278
Si	8.303343398322351	13.646650889716188	0.0026601563215953	14	-0.3652064845476655	-0.04369850602123675	-0.6952045099517553
Si	9.625114690606553	14.878531746298876	1.4899323397548645	14	0.2715444601715872	0.7633254311880147	-0.6477195371255364
Si	8.212408484065117	10.965196997570693	2.7004013859453244	14	-7.9095434898095345	-9.118586483319268	-9.745288777115785
Si	9.707481616711407	12.479968342978735	4.371795554778828	14	0.8470151664693666	0.8604507344303323	0.47862436798269764
Si	5.3875183102601065	13.440203175187474	2.6991773876378424	14	0.18316194345990094	1.13690060644223	-0.17444486798247089
Si	6.714071355932206	14.89635316165582	4.042768489750099	14	-0.7188008290274143	0.15834203536238348	0.8000117616696115
Si	5.150960237367321	10.814122966472485	5.460240129701999	14	0.9598090426431988	1.0802601846814959	-0.47908073917702393
Si	6.565722761065327	12.24324707031162	6.7142182357291045	14	1.085728668586919	0.015287278012536449	0.657349097881087
Si	8.177336852561385	13.72678197891271	5.543145615062148	14	-1.5681037650106484	-0.20090565549530687	0.051461701424891856
Si	9.535681214273165	15.151271209160843	6.82827855800904	14	-1.164766760123059	-0.35200900093934545	0.6783318883988155
Si	8.166222947929445	10.833347899888677	8.0784377893168	14	-0.1939780693206999	0.5069278666784837	-0.333665707143281
Si	9.504102057940116	12.232247405521711	9.423595609262634	14	-0.5503350664669477	-0.4349240621877368	1.0070762428488012
Si	5.178035079928835	13.699984575967559	8.00310477348561	14	-0.12642973323923754	-1.8801503330694644	0.5097072315295638
Si	6.507558361493759	14.879119265486466	9.409282989053805	14	2.3297536068615226	0.035778216082520596	-0.15516749162359667
Si	5.543798414159471	11.040007774124023	11.060065026389303	14	-1.6726341086855248	-1.2547055668850309	-1.5956899253221133
Si	7.0520744085491405	11.915656163297003	12.369139376230553	14	-0.5287089853981182	3.204421782380678	-0.5775625575862519
Si	7.978380007674462	13.536703201749393	10.832956220430283	14	0.4237014445758225	-0.46431025333383724	-0.43412187732785057
Si	9.51180508728854	14.914860016064956	12.037941754203223	14	-1.670658214246991	-0.9924265989556613	1.1741628645155402
Si	9.391951173019853	9.831758244864465	12.713017620723404	14	3.245764641707595	-2.48899578619649	-2.980749760607056
Si	9.484387525200932	12.127032511010515	14.665702920593818	14	0.13313080503513947	1.7907972240994225	1.4962495988495341
Si	5.747945011870119	13.497796375548884	13.723387423606624	14	-1.2781080246195506	-0.14771154330569922	-0.6164872923595697
Si	6.806475068158418	15.108121188827727	15.015864356398412	14	-0.40044605406561506	-1.4050530073649459	1.5742803313212403
Si	11.202179389876738	-0.1961008488361296	-0.064463910860745	14	-3.02478739542002	-0.9338647901891806	0.8387557477389228
Si	13.192335357933551	0.0702738228269286	2.456303483478448	14	1.1438960697972889	1.258706720984245	0.3482117354920187
Si	13.809002025220668	2.867925954296096	-0.1510577111207736	14	0.36004010551736	-0.8037272659677575	-0.052407096851110314
Si	14.991009030767803	4.02145459922247	1.6034377828020752	14	-0.7076687143227691	-0.23003910698843677	-0.6349367728053562
Si	14.90576978863472	-1.1499872098233914	1.3433463024507604	14	0.6179787905557875	0.6193808142868643	-0.4669818888720031
Si	14.697755356272427	1.3386624689274607	3.9837228113971435	14	0.9940384248808622	-1.0568500136310157	-0.10489286952501714
Si	10.982740973311275	2.6943793142725108	2.538866249312501	14	1.2949281956239593	-1.8338025601263475	-1.3398068389871443
Si	12.269636473820942	3.904016041613883	4.20986873868761	14	-0.5781449129412655	0.7624252872154307	-0.14250454081133535
Si	10.803678180915302	-0.0007017590296233001	5.353572757199258	14	-0.4455643244446376	1.3978086610148968	-0.6385509755538884
Si	12.18960330448902	1.265108330636479	6.758983933828098	14	0.15833817870440325	-0.5211969869842416	0.9733667381068717
Si	13.989076656217494	2.8992929509225145	5.446825108251991	14	-0.6681215149514435	0.39075632944557304	-0.4499799407214599
Si	15.143486579925256	4.0571463898686595	7.053739046247316	14	0.23682245415458342	0.3930559260439135	-0.1851370665668387
Si	13.469481214702455	-0.1556762647343409	8.351699491456625	14	1.0343109330630016	0.39922606459120485	-1.1497741307802116
Si	15.03859808496272	1.221387111093204	9.620022857647424	14	0.039195986384593436	0.3235118980129522	-2.114771149738405
Si	10.872287366044054	2.8302920863353673	7.925813360362448	14	-0.2020749941949102	0.17534218373920257	0.40759218419243465
Si	12.238187877307357	3.8783773570664826	9.572286923655607	14	-0.9221816876144276	0.8443296469624719	-0.07515340850792834
Si	10.676627156598618	-0.1471898764691289	10.666476130635232	14	0.4215489152017945	2.970246538263719	0.18975451461129264
Si	12.17170028924491	1.0347681691457056	12.284928292675758	14	-0.28417887171479483	0.8899114876307171	-2.2417698685849916
Si	13.596140559560745	2.4323620765840905	10.803857700667066	14	-0.45337405685458737	0.763383795278782	1.6102500947501122
Si	15.12218900937506	3.986040248192643	11.9578106650067	14	-1.2605085515926049	0.7208309737882033	0.6977223933917763
Si	13.54063631631077	-0.13762636969333228	13.582905057862499	14	1.1919281738356353	0.8407164726560679	1.1970127917167603
Si	15.119985812421591	1.3925347144341238	14.704756626591228	14	-1.0721565749334534	-0.4352485356791395	0.8205937168679288
Si	10.942544868893549	2.576777556889592	13.416033288609052	14	-0.27357640470610023	-0.42525439218919187	1.6423781126096186
Si	12.2027082463678	3.963779798973895	14.893333965830697	14	-0.4345309401842862	-0.2153735222423121	-0.3284139674163465
Si	10.775199820294542	5.186374588397149	-0.0284457206658933	14	0.7036487911547176	0.5532995509010784	-1.2236836385342522
Si	12.187791786993946	6.46997345346533	1.1908850732707401	14	0.3819682914613069	0.613960410050928	1.4917997868719541
Si	13.627083236773903	7.9420843778632495	0.1864394221957344	14	-0.7025162192611925	0.8636954693443591	-1.1188414197840422
Si	14.723132921180898	9.455207405550548	1.5059422376167355	14	1.271129273449073	0.7035279492046707	0.46609922841559626
Si	13.52372881969008	5.313001293300571	2.7879580648739064	14	-0.4068270232491586	0.31403814623980253	0.39457159263014074
Si	14.806609605751204	6.772660074917035	4.13205508628659	14	0.4800027375448291	0.8799865068738815	0.7163459376677369
Si	10.968167233463516	7.965340345705416	2.613187426542838	14	0.07385140077380536	1.997582226130312	-0.6316473006587587
Si	12.052580773960713	9.641499947949386	4.158297609999014	14	0.2293449085519968	-0.8046592916463112	-1.54131978955907
Si	10.884772148780376	5.405502925391382	5.545560971722246	14	-0.17012258282876996	0.29438307450939855	-2.241043788442582
Si	12.310664897087756	6.712210878504832	6.662777666859973	14	-0.19689113164842764	-0.15708425063976703	2.6311714826373787
Si	13.352907615897822	8.345187820460819	5.528163875778561	14	1.5705208611221197	-0.538430334613598	-1.0886455875726269
Si	14.645172388982978	9.847588622974571	6.759065533715263	14	1.7241289773690467	-1.1120519019651272	-0.7338875608249792
Si	13.56911467693153	5.216713426445281	8.226590544454481	14	0.2006495734054201	1.8194455080186402	0.09933156871753686
Si	14.946488132330304	6.862044591318123	9.483114566961149	14	0.3129503115788479	-0.3380478990509414	-1.07682415953165
Si	10.868778570895937	8.079792347443748	8.142656900516048	14	-0.20241206610238166	-0.6283550002963092	0.304877812205179
Si	12.227384052246647	9.386288140850567	9.551854311909366	14	-0.4608731997418633	0.6026837992272907	0.30928288695018874
Si	10.777745736774106	5.453206219428334	10.997771672527161	14	1.6108504478423664	-0.3756204895363933	-1.2438490746707058
Si	12.2748915065544	6.739612120615007	12.179729718141994	14	0.03951120389684359	0.9208354568687982	0.6672149432155593
Si	13.724823581620738	8.168018145447085	10.895527013908788	14	-1.035634538081814	-0.2578677225315915	0.12275099574716965
Si	15.081797065228137	9.570100046679572	12.123213636291169	14	0.3529700801080168	-0.2253517248792748	1.2217835917026627
Si	13.538433119357302	5.3170976076362795	13.522129461901637	14	1.2825331539860576	0.2753499531559384	0.029930237031843786
Si	14.983501841148575	6.824932962635255	14.991433350181062	14	-2.264914187345368	-2.1386490048466205	0.8927463883567125
Si	10.879761915708416	8.092130250383171	13.711604399899926	14	0.3015474594839912	0.40149275104144744	-0.9841316989717995
Si	12.271317431496552	9.40241227855447	15.06733756522241	14	0.26982593337560024	-0.993393591666569	0.2981808541777893
Si	10.828125507110085	10.896555172487075	-0.2420905452426054	14	0.2983600602186036	-0.2162626104620193	1.3574780458525222
Si	12.062601240104636	12.16628205673712	1.3649702725496178	14	0.8291326147466727	0.521777285454999	-1.060086006786954
Si	13.604806467577719	13.720400867736368	0.1955459696034042	14	-0.9118599853066932	-1.6639432584823604	-1.5009822324123308
Si	16.433646075921544	16.496477989038976	-0.0804085288128837	14	-0.3104388559021273	-0.8202463605391768	0.0674259514682233
Si	13.41175745452158	11.050860559117034	2.819553541184388	14	0.45386128131275544	-1.5823170923309593	-0.2924498604191792
Si	14.898262599015492	12.472069473901115	3.882000392056631	14	-0.35975419860575947	-1.9399586136951534	0.637173634433885
Si	11.056344071534555	13.609473981123585	2.8151308273000177	14	-1.6308027393477798	-0.7723908914363247	-0.5212697492648019
Si	12.182618354147653	15.060646374474837	4.041364971690852	14	0.4428286683840001	0.22210184775460762	0.44872909798320787
Si	10.867766732295086	10.92421753423618	5.617026152901792	14	-0.31575487326206547	-0.06970497922400257	-0.8727444745186205
Si	12.248502103045078	12.305018184895903	6.732561890363908	14	1.04136630317202	1.141361474172687	-0.3313280581862023
Si	13.725965980041055	13.809981223866652	5.185803389186989	14	-0.7584526723852699	0.2959419356650043	2.8522420600480745
Si	15.14094066344569	15.122074769533025	6.7548060196052235	14	-2.440708371399853	-0.8380612921919509	0.8851780827363245
Si	13.374711105748442	10.937501995866722	8.219181274699855	14	-0.7126268338221426	-0.04365119768334602	0.2850736163662064
Si	14.754353038010416	12.143091368804686	9.511103328258915	14	-0.7504465075288609	2.041251164440367	0.6178173251416822
Si	10.706247915639695	13.482471916739202	7.964181627307666	14	0.7721080698511085	1.2873238945290895	0.520960445294788
Si	11.979010315692298	14.757388553812975	9.58124659126638	14	0.9451118333016364	-0.8968313604893637	-1.3095225607527161
Si	10.941679910089595	10.93822007487378	10.946673823184126	14	-1.0814454642340843	-0.846049459311119	-0.12328218610631227
Si	12.216253827637273	12.132271223766539	12.475806748733294	14	-0.41965658168616554	-1.758464803366964	0.4334083956015095
Si	13.202878063355332	13.48919574744164	11.128135652262763	14	2.5292333273462755	0.9467570835959991	-2.43370339495511
Si	14.71688236982402	14.988283594536474	12.118921482226265	14	2.2394453322650456	-1.0839029266990818	-0.18049699279556744
Si	13.591211926375948	10.67158428357179	13.685867795487928	14	0.8142999081547383	0.7694924844089217	-0.2746629538143948
Si	14.866634482750145	12.251162259366675	15.012453481114894	14	-0.8953694300043276	0.6224360587387963	-0.7014497247743949
Si	10.841687408356993	13.612917496361971	13.465972419554339	14	-0.3178873480145962	0.21091651116983542	0.22110245911666604
Si	12.248387863203048	14.816842231601758	14.870420717514625	14	1.0593164749646338	-1.220381567971586	-0.17166601735245485
H	8.80211781262824	11.586655210232168	3.454735222869356	1	7.292124428881944	7.490059686400882	9.007276906246757
H	12.069987661890858	0.596021895834245	0.6933656652294566	1	1.2692775633975022	1.384442255787043	0.9325848939608108
H	14.622038820971559	3.8466170489839264	-0.9178485868194904	1	0.620123349503323	0.6116024493618204	-0.6053577487602447
H	14.130611660506052	-0.8178658770733467	3.3673254237376726	1	0.6152426202740859	-0.3271083601347753	0.34954871025849577
H	8.515124481476203	10.874276771293149	13.766501539989388	1	15.26935663712342	-0.07622324543164195	5.775558727124195
H	14.885534648615419	3.8320808450842643	4.490691486372191	1	-0.2082716151269991	-0.05698674964735807	0.07915610527033487
H	7.200032955955368	10.036399337891336	1.8658434359534033	1	-0.558621738913785	-0.5692231774803516	-0.5595211115547728
H	10.217177359915528	3.531964620078272	3.3472404275107563	1	-1.8327154967969885	2.277930922249682	1.8848927368324777
H	10.538044436227707	13.011970231338415	15.591499336423228	1	-0.295954019860009	-0.12420392736358535	-0.2346316153112853
H	8.124469917664602	10.944025090846733	13.183587850029408	1	-1.3336084182813313	3.0177657067906956	-14.127504338945116
H	11.108680607164764	0.45603892139957314	7.6782719426571875	1	0.27069085320529807	0.10702405872488789	0.048271216833120106
H	7.896089785463543	10.81179247369504	13.806785772285252	1	-15.178502773978007	-2.9878064162687346	10.078636438530964
H	4.014360305032302	14.76163174794558	14.872428074738895	1	-0.12939498900496432	-0.07361177375796756	-0.10443418433590274
