72
config_type=vacancy dft_energy=-6859.749974242643 dft_virial="-35.233470698411246 -8.62171205284029 -23.421428907255343 -8.62171205284029 -23.643045423252758 -15.469306862642519 -23.421428907255347 -15.469306862642519 -19.761793605651107" pbc="T T T" Lattice="10.847191078766892 -0.059552448728751 0.043693490615557204 -0.0539443219541127 10.879451367021774 -0.0452880643793325 0.0419253578026635 -0.0484012798228938 10.938168562826643" Properties=species:S:1:pos:R:3:Z:I:1:dft_force:R:3
Si	7.6373227702396695	9.543597738791044	11.423285630505598	14	-1.0569973379658602	0.2392200098656215	1.4507310073721646
Si	0.48605971026447814	0.16581831552771936	1.9477067678081095	14	2.2280527645914696	-2.5119423869577475	1.1015849322068043
Si	2.977390301209354	2.8997280504491547	2.0468567135932236	14	2.0394210516734854	-1.9163000738707465	0.720654338852709
Si	4.68602924155338	3.961971261465011	3.3671410103739747	14	-0.6486839587311239	0.9141660096683341	-1.8922363278478846
Si	3.5870880543454957	0.27633529428603154	4.448523445531363	14	-1.5600988857068996	-1.0012989691944285	1.8705295140720026
Si	4.939763893412025	1.2039292255077192	5.974095555097473	14	-0.41954319594154704	-0.1342111834906657	1.8477433502827219
Si	1.9137477703599806	1.3261223892954719	3.432330873966903	14	-0.08444075514536725	0.0030146209878736227	-1.7364312021048913
Si	2.1886229991453034	4.138480814418424	5.858569228283979	14	0.27048285078489803	-0.21768108926714502	0.7409701846503911
Si	0.9262163062693104	0.17983646297620112	7.4642062966965215	14	-0.8497765335832057	-1.9404098426788388	-1.4587849947875287
Si	2.146923268106494	1.5751080316726143	8.689038540182437	14	1.5355592280892782	-0.23829184084504806	0.10908428541792256
Si	3.6097917474582966	2.773891231373973	7.187624765509553	14	0.40284823776622947	0.2608072672441168	0.5109935555212339
Si	4.949805369147582	3.9528550724100677	8.867268497210237	14	-0.7317951953154426	1.39831568298403	-0.7292181764530583
Si	3.530934108747294	0.02483521518478605	9.926158764345937	14	-1.3962387441064144	-0.5424957663458163	-0.17118367799439507
Si	4.423478874743577	1.2496067130035111	11.574648646729868	14	1.0452669270532164	1.3079652422603023	1.189614436158034
Si	0.9486086778377549	2.7024922927988344	10.265110909321715	14	-1.6106409027587745	-0.5385195519682073	-1.8550388616286422
Si	1.9096062175503927	4.123738057939873	11.559114027089715	14	-0.416904984772543	2.513843205120933	1.900177443739694
Si	-0.43678629621976434	4.999812070174821	2.4779936627641836	14	-0.24456688048940148	0.09163085117316133	0.6192244910833994
Si	1.5242986200432027	6.522125608593732	3.0598254258203093	14	0.8096999436264615	0.3386348823955312	-0.8323004736116271
Si	3.1713729114327616	8.100199330518157	1.9554409929344483	14	-0.008066071610368554	0.8941671811566263	-0.5626452616292847
Si	4.747350907839082	9.791402094890126	3.2644949344931824	14	-0.4412065580375186	-2.8947576005115114	-0.986726458460893
Si	3.179683135653362	5.530306151245781	4.2924927756298645	14	0.8623708358834189	-0.44136545234630375	0.7135848276644299
Si	4.642469174456833	6.529504037669378	5.869299516495725	14	0.4720112279887448	-0.543916302035198	0.7105619791395318
Si	0.7137203692252544	8.05690611045963	4.568868205446004	14	0.858152937605716	0.03276925152635129	1.8956301868704801
Si	2.229575341528847	9.614961965556361	5.910575112608251	14	-0.3124052372509765	-0.21698380550432086	-0.012566791473287766
Si	0.9548817527193282	5.125806177138267	7.565918407944245	14	-1.2502354431754215	0.14610228848581855	-0.9759378434270195
Si	2.183261109271602	6.39551753649403	9.061562428978002	14	0.10690373099590496	2.7937280738405486	-1.979127346363353
Si	3.6199655619688054	8.111129211636388	7.273586393049782	14	-0.2804409988003636	0.9907587229344813	-0.47885731012470306
Si	4.888107296674105	9.433854182545367	8.769312854631869	14	0.8538622770474529	0.10686619285823079	-0.34493229065616987
Si	3.5329560716695236	5.329458195885683	10.52624460039309	14	1.8569736183820538	-0.005217544026176497	-1.3195195324585158
Si	4.899673922553789	6.927170124217855	11.53633223240481	14	-1.814007877377059	-1.0516934048009268	1.589949675584351
Si	0.4751092190091641	7.91869995490259	10.018735161145692	14	0.8830877741110441	0.8379893012429869	0.646409816075453
Si	1.9053171395490542	9.68629581948808	11.2987884703408	14	-0.043780010059885445	-1.2826326557619474	0.3898988658213036
Si	6.01682687773448	0.12106069099225497	1.880729246009262	14	1.9682741965859438	0.1600227669101643	-0.4502923300178579
Si	7.580250046425197	1.4125179144584972	3.5608448413747364	14	-0.21268080364052103	-0.6760883418964543	-1.302908906537699
Si	8.944691019533842	2.8034808797605466	2.060013574260455	14	0.3390295470621739	0.1369280704824662	1.6647004489991442
Si	11.638098580855383	2.8081040589314377	4.600006868345959	14	-2.190768137901874	-0.32889039323216995	1.1211093917869448
Si	8.81269827793524	-0.3387135012832415	4.687916696212543	14	1.0143887234898343	0.5622027744036873	-0.8340624520875246
Si	10.241514471850012	1.0804311146194077	5.998874363591295	14	0.059499747987270805	0.9066357564066844	0.06890665102209657
Si	5.976767279709838	2.7000841609923167	4.7386935655202445	14	0.3566555024739171	0.6430097864000892	-0.1974122946968217
Si	7.680832939109595	3.7839886260822064	5.760672161884689	14	0.2902549078073688	1.1334566108658917	2.7369449557345464
Si	6.444411290118797	0.056493470488039196	7.43177244939252	14	-1.5787635676679825	-1.3617941603534545	0.08804775879900298
Si	7.492879336354937	1.3731775017436412	8.949328300377474	14	1.561684743468367	-0.6054094279771797	0.26198380503861657
Si	8.991292708966188	2.46767015357381	7.5233704070528695	14	-1.2429198772080041	-0.6788659069738102	-2.1291971074686917
Si	10.233798687372643	3.678019979154853	8.852264317413951	14	1.3713908109609072	1.7988028747347673	0.5238706794066635
Si	9.049239736490595	0.00644771867474856	10.32939067265083	14	0.7214963758450574	1.0795387325286623	-1.5928411406273892
Si	10.43000176868071	1.5829854430144759	11.75535724392789	14	-1.8157667705265723	-0.673842738509837	-1.7768569481641114
Si	5.995372809775331	2.513366081718571	10.249993916143502	14	-11.76618835739452	-6.758002752563849	-7.748166521727249
Si	7.756985226142464	4.0351025362991635	11.687633418217834	14	11.947178745301024	10.475232005269126	5.315409293529954
Si	6.034631866685913	5.286079281046653	1.7190926188212392	14	-0.6030946618574503	0.5457029631221689	1.9754038716387141
Si	7.097723347554336	6.922700978703056	3.2112198996222325	14	-0.36128452049231163	-0.04953285821371677	-0.7285157504795938
Si	8.663697834267094	7.909218207100441	1.6671073446340503	14	-1.0335172328506719	2.3034931084531265	2.286500673392268
Si	10.311769005445028	9.202465258260718	3.196034567568429	14	-2.368287533626178	0.9728064942576112	-0.8505519789477622
Si	8.85139218319213	5.922638551266038	4.271475859525683	14	1.4329978368685712	-0.8283371147606189	-0.06816900090574608
Si	10.388760884378007	6.369855746337818	6.003549610476922	14	-0.4295656215900162	1.5863187606512377	1.0373188691770427
Si	5.696139653190298	8.247207099353613	4.7124557762697705	14	1.379670284312848	0.03998274461255874	0.2358649745333603
Si	7.454018380513271	9.322545340625453	6.07116496178128	14	-1.064220858362816	0.047513512095272464	-0.7502040522971708
Si	6.311421668731824	5.351322297098373	7.37784548334332	14	-0.8298892910423923	-0.8280499222963582	-1.1274247977848244
Si	7.41070455031766	6.73408025835335	8.852773062376679	14	1.3571129488970608	0.48021408240214525	-0.8770014535971896
Si	8.877752548521045	8.104067527825384	7.303920175859451	14	0.4846307271210956	-2.074019130414058	0.5629373391936535
Si	10.190415433557385	9.516735136963746	8.56491236248513	14	0.4450837848603019	0.11805152944300301	1.4260653655938562
Si	8.838275458055008	5.22979625090567	9.995616011059063	14	-0.0010454114231722089	-0.00607655031363797	0.046035640757251355
Si	9.9987021079012	6.418940414916616	11.688957890711418	14	1.5314778555040753	-0.956998824528277	-2.0468721148912743
Si	6.257573888998783	8.114950764949164	10.307015656987296	14	0.007975568703099341	1.220659761567226	-2.02623693781283
H	9.568422106535262	7.318606525647039	3.7027694995591367	1	-0.07621347523142541	-0.3148914960955598	0.3344216121074045
H	4.729813850669725	8.992114944961386	6.297277690972731	1	-0.30254479123767664	-0.18016326332501223	0.1321568703398674
H	2.909264035454154	3.2109855949059223	10.84801006052992	1	0.7229937875835117	-0.6614356126769303	-0.437757163140008
H	12.620926594714945	1.9217217239229143	5.51610359730761	1	0.07521280104082377	0.10738709879609282	0.041791517205282916
H	6.6106537405728	2.8439407483422166	6.840726870316321	1	0.6963872183990234	0.3379982767182625	-0.5844353792175396
H	1.3497188267671751	5.564606843071861	9.844635909486911	1	-1.7746378271622918	-1.3845574413053856	1.3292231410472868
H	6.863595444525785	3.4028909202601945	11.306947915137478	1	-10.303657262155538	0.08654443351831238	3.8592367988582272
H	6.931307338051214	2.950049327252921	10.834124251856391	1	9.01751041964201	-3.641743657389985	-2.1559803115886744
H	4.903621306177175	4.138480814418424	5.858569228283979	1	0.11927588979645752	-0.12606335073111644	-0.03488038610472488
