68
config_type=vacancy dft_energy=-6820.541911040898 dft_virial="-3.011916282092239 2.837899749767163 -2.7937996696573832 2.8378997497671627 2.218114840116207 -0.11799751164508573 -2.7937996696573837 -0.11799751164508573 -1.7663869925052231" pbc="T T T" Lattice="10.909248443500001 -0.0002945497079745 0.000610917912836 -0.0002945497079745 10.907535691494372 0.0010145601052455 0.000610917912836 0.0010145601052455 10.909390263729767" Properties=species:S:1:pos:R:3:Z:I:1:dft_force:R:3
Si	6.831991020631291	9.650301536472902	9.569279639207872	14	0.16934456635889314	-0.7632500978021342	-0.0017792048815424707
Si	1.2631382402790912	1.163570620660111	1.1655866497724698	14	1.8194143976442665	0.9712489186546657	2.0633726975043887
Si	2.7014179187695087	2.6839347572139554	0.02433744235260415	14	0.12194726822409138	0.00545408571563012	-0.12924740755958783
Si	4.094746039048484	4.038779412683641	1.4453477805569612	14	0.03554013172987488	0.22298219421622634	-0.7511286217702962
Si	2.6817430892016567	0.00579826554772025	2.7242367937387777	14	-0.37329492477431936	-0.23463341508500937	-0.1589436740072981
Si	4.072832631700026	1.293085218181343	4.076239589988931	14	0.24086603149158034	0.4353662923028023	0.4139086186324425
Si	0.05505897689434451	2.6071576485182915	2.642861436824178	14	0.47244394501412573	-0.6027331644494376	0.8774462548175753
Si	1.4178477470805866	4.052793433234161	4.028249806085975	14	0.1564898110897488	-0.1968764763481028	0.03015469452629271
Si	0.027193483595112453	0.008435030896514201	5.409435932847335	14	0.39374652493290524	0.5842073221756426	0.3473583856362616
Si	1.3646618881439907	1.4339574342571029	6.797612706011289	14	-0.43261083873119954	-0.7231475396816566	0.7383713113927853
Si	2.736795520546935	2.6839533029363096	5.474759421602168	14	0.2771044754264074	0.2582906693567559	-0.7868559299674778
Si	4.131724027572572	4.017423467930645	6.835603072790934	14	0.15114294046596885	0.7064808636648607	-0.12971072073827852
Si	2.6662345016143765	-0.0001418202297655	8.245850346480934	14	0.3669036711694953	0.6487392374955072	-0.7564168711927767
Si	4.073878828625757	1.3784359052287538	9.550657552114817	14	0.31242477765140964	-0.14380346321907414	-0.08728491185051505
Si	0.0258832828570481	2.7419370493383566	8.290196441403761	14	0.2355610698845188	0.11473737468533213	-0.6066319885569101
Si	1.458703973426338	4.122026796631145	9.558949671856723	14	0.12780810280136892	-0.016451988722563527	-0.4299353465350535
Si	0.15679317325420375	5.4333173686150005	0.039386750580412404	14	-0.8564074142038675	0.36438887305585843	-0.3903187273200838
Si	1.4217783492947793	6.841318428050484	1.3606396482428724	14	0.31984627315801706	0.31342159518403107	0.38827649836429023
Si	2.815670477718284	8.200100231283429	-0.0072917416596354	14	-0.09606729340307685	0.1877950752468078	0.6949669398201737
Si	4.180173090835	9.583815121833991	1.3871785769313747	14	-0.2675947281787757	-0.1845099739792546	0.04893687600050644
Si	2.8172839555630778	5.482155892046862	2.7464436598703665	14	-0.6563440528114413	0.02201946018281218	-0.11505079242385818
Si	4.1297810904247845	6.854152067919417	4.094020574026992	14	0.34995957288865537	-0.04370776200038928	-0.3170627945384248
Si	-0.020474477478760803	8.205438126546833	2.7042226865443326	14	0.06016952092316937	-0.5982820669191972	-0.004959147941501615
Si	1.3048344787549924	9.510967524427677	4.091231079199989	14	0.6792407741294878	0.2096085898934761	-0.3618874446898864
Si	0.023575976811247852	5.379382044310336	5.393344791393172	14	-0.022488686903739202	0.43017188822450714	0.353025873093464
Si	1.3347312741144042	6.8450570274920715	6.796414870532194	14	0.3581858243604692	-0.19606992060917233	-0.7214585805968513
Si	2.76793706115375	8.208337804783115	5.372717584436202	14	-0.6683626846304733	-0.16649655299576513	0.812260250304265
Si	4.039966338914294	9.569807646832539	6.811046354544615	14	0.3908314057209214	0.04515683695882474	0.2806227759464981
Si	2.7457127402246515	5.519995711197985	8.109621106542727	14	0.3582385320195322	-0.4535473493531654	0.40144210026664046
Si	4.124794472961261	6.847189785562776	9.540251220024563	14	0.31593973573458406	-0.6312102127543336	-0.0589770422756847
Si	0.031248451241561403	8.194028143599777	8.188986979894034	14	-0.16975825720490498	0.0072759709454870486	0.5008225199852602
Si	1.3686568549240006	9.626758287406984	9.6730473194776	14	-0.37056389670325807	-0.8739608644455824	-0.3791781279678822
Si	5.496045547165125	0.054943338860843405	0.0027556761568281003	14	-0.29996185883305587	0.2515083506327373	0.2383237225510179
Si	6.87558001371214	1.3996260294054084	1.3572621449247646	14	-0.18739655392218485	0.33645407086298157	0.1594416971078108
Si	8.350434038534237	2.7454225542160544	0.0633543694107819	14	-0.2967436063038265	0.09532604373927817	-0.07345467922290652
Si	9.739952649256741	4.096508973596954	1.434858538178536	14	-1.0843528701301077	0.4836606490838037	-0.41460770216899073
Si	8.237285495527942	-0.00366441655217165	2.65155174413427	14	-0.26657939868784924	0.14710579089227235	0.7268962112384325
Si	9.560720242879102	1.3438110415939293	4.106879305167345	14	-0.27933439507057184	0.26833494940044633	-0.5118847006251973
Si	5.431490069500715	2.7146693828538284	2.776103724538554	14	0.8082359562571692	-0.26582297950266165	0.11449106279566196
Si	6.867575898129144	4.122285345819256	4.104446542764444	14	-0.5312201839643069	-0.16916098943903457	-0.13570705256592783
Si	5.4808064180144	-0.0238868903918876	5.460837038738574	14	-0.03037118159424918	-0.007041743250821559	0.11477774103885845
Si	6.884716509283571	1.2948176068341708	6.8556629988288424	14	0.22504190668819696	-0.05054098860974684	-0.2632557308404938
Si	8.171737276255174	2.7184668922370103	5.457163894787648	14	0.2660597783026473	-0.1389445883850583	0.23262358205624958
Si	9.552101936608738	4.089884877942061	6.8274036816608	14	0.016429362995746224	-0.2809644758435457	0.12991126695325003
Si	8.282275236108937	0.04283080031402536	8.341167722906327	14	0.5375163066722854	0.20358371879677312	-0.8574898495436499
Si	9.775455707391268	1.3127415020268414	9.724288059416718	14	-1.4696679693866512	-0.03137237000591484	-0.912412515839993
Si	5.526943811531651	2.626830296236455	8.159504735975476	14	-0.28999368350684174	0.6860572885542644	0.5419321800596398
Si	6.858555040591214	4.070919149523036	9.560851153860424	14	0.23519571581852575	-0.6086618762071669	-0.15201994449067135
Si	5.491852032063445	5.394740084269096	0.0033207752262014007	14	-0.3835806316075718	0.3334703031389497	0.23444083929653026
Si	6.8823361112732	6.829789534295394	1.3342381760847581	14	0.16054881505866658	-0.15596453427284254	-0.1667266669219184
Si	8.28437308458462	8.25103551226613	-0.06909917964112901	14	-0.5506292009155727	-0.43256635860916104	0.22152746282608654
Si	9.671803665155041	9.657452548827617	1.264456077491066	14	-0.8485750560671005	-1.08869829523169	0.7188080281223107
Si	8.249861677133609	5.441909492689102	2.738136267180641	14	-0.06643556169890226	0.07926871968335736	-0.45773182326170636
Si	9.52454844781499	6.809373966758226	4.124549014871282	14	0.4476458913118295	0.17525245216352942	-0.008313154831634783
Si	5.549768141125141	8.19790419957175	2.7389850067095454	14	-0.12643050457083357	-0.11594039486462941	-0.12761269879703768
Si	6.884359776859469	9.543878545132026	4.128703256678567	14	0.13682599760125627	0.1912316146177177	-0.23366410837931356
Si	5.450457979769428	5.487024689627196	5.435222123393236	14	0.45846227428316044	-0.1437805803817248	0.70553264002279
Si	6.85753829863628	6.917738804322045	6.833069945302353	14	-0.6372325127457165	-0.8369035234662882	0.1774540896491722
Si	8.239839350588566	8.214464438708985	5.538443250315943	14	0.37679959843621325	0.30865373747834846	-0.43780524280949473
Si	9.646545482233806	9.609098396026647	6.846405410599688	14	-0.734681775258373	-0.10388422490792307	0.5322925919933407
Si	8.167920130224791	5.449706332551671	8.176748984990116	14	0.010434059610224934	0.11435736531901425	-0.16990095355017318
Si	9.565282490578173	6.748730545585655	9.538920291714456	14	0.5879526512955023	0.2781758550133131	0.17780427419377637
Si	5.482992631402477	8.248910390669336	8.223967485028117	14	-0.15615659584025762	0.12341871179881213	-0.3188512553991198
H	2.277566343618425	8.764060375119227	8.742300788173822	1	0.18368207806616688	-0.27915853146667374	-0.23357540524576842
H	8.642285889368658	8.664244024635735	2.2146221619491184	1	0.5700197059085335	0.5515630263678505	-0.5504199129425126
H	10.800664330042467	0.32345485265039764	10.713862712952071	1	-7.514488786489738	1.7829689797311676	-6.839319100524173
H	0.37445122542438275	0.23728597196972417	0.2402925608407528	1	6.924842805230386	-1.331209319907101	6.238969864927576
H	12.275723448735302	1.3438110415939293	4.106879305167345	1	0.008481819340636498	-0.06844050962755373	-0.16461347545928867
