70
config_type=vacancy dft_energy=-6837.900918252501 dft_virial="-13.639029843121419 -6.306218099507753 0.013115598240609809 -6.306218099507753 -12.38947102892514 -7.2111943781098296 0.01311559824060981 -7.2111943781098296 -11.620420041180294" pbc="T T T" Lattice="10.845638746027966 -0.0353245986417995 0.033968880241362 -0.034912460248066504 10.938803714506031 -0.0101841566240865 0.0372334501496155 -0.013329423313101501 10.946167976857206" Properties=species:S:1:pos:R:3:Z:I:1:dft_force:R:3
Si	7.10907818809895	8.108501862579551	11.158610134780483	14	-0.8326743123251766	1.9243226938012041	-0.23240606654616505
Si	0.25660387138648794	-0.9877753419840422	1.9113481988222458	14	-1.2491293536666939	-0.18136499795164945	-1.1903574855955568
Si	2.965001693895067	1.4305670710382943	1.619195221826846	14	0.2676782891016805	0.006589485825007512	0.47414395985180763
Si	4.279553976246962	2.7037656038779647	3.031700870047152	14	0.10641522098507683	0.620606974414043	0.8938131399540419
Si	2.9896367240930974	-0.9572011806173757	4.40479849580354	14	0.4016195065337307	-1.0204470189556993	0.6642756556135659
Si	4.625239392289398	0.1984424674329988	5.756002896254944	14	-1.355776231241116	0.6275075639827884	-0.048464821063727265
Si	1.5249608626745157	0.41858293672131974	3.2016038382888605	14	-1.5860374817292133	2.892307851362474	2.3092788667550552
Si	1.1729686446332455	2.0503744093503102	5.50737715651135	14	-0.20439644518847191	1.3328296304798584	0.9858381415727817
Si	0.37338003152657245	-0.9034333888560243	7.003569674728582	14	-0.8681658501645007	-0.6305124147704455	-0.5007749545368374
Si	1.6616346306341414	0.16679566166790613	8.471896214655862	14	1.2648416353886507	0.6382470709050468	1.6766339772320795
Si	3.0410846105276197	1.5839389513924282	7.123650534041573	14	-0.9162375492247773	-2.194406251929884	-1.7907841114622893
Si	4.228748158046887	2.876399531265515	8.417808473352007	14	0.5229291406384253	1.8262422249324517	0.9145151657708102
Si	3.1684321204669557	-1.2559418644641813	9.991168482922141	14	-0.7830298681405654	0.9015593660625839	-0.9789393517777607
Si	4.528970370961691	0.22120769081314529	11.244299129711177	14	-0.6563782485121992	0.8589409813863415	-1.2456467915105531
Si	0.18329204316442965	1.52187524759512	9.904834166032842	14	0.34163741918840007	0.06297279705372683	0.7339675222004358
Si	1.7461089018780418	2.841992482837131	11.371632540179146	14	-1.6262541969259057	1.1196939983082033	-1.3171682566432406
Si	0.08702302183672295	4.346481997665041	1.6715595739000644	14	0.15521479996148735	-1.6485461942726538	-0.76213423809319
Si	1.5403726694506892	5.539562995912457	2.848489085412028	14	0.5049848823880478	0.5468818149114568	1.3455023514923363
Si	2.781633730500213	7.073676584652006	1.6715237829342926	14	0.1422541151531529	0.6228903730488664	-0.9982444960740925
Si	4.182599503695995	8.516347509569407	2.8975129473465686	14	-0.5029328832320377	-0.3404333705669748	1.518693805631235
Si	2.7107014592146026	4.099590492899288	4.329102772346152	14	-0.08386945554323033	-0.6638480807988253	0.8942610265008115
Si	4.052371363299409	5.639417621265641	5.724536129893428	14	1.2136848670547284	-0.3690577432067153	-0.5977251655068532
Si	0.5784112903856975	6.863708341665848	4.529729573265936	14	-1.5859878593965346	0.5900370463785463	-0.12985187442035462
Si	1.6013084155388335	8.52989818612546	5.815989639462781	14	1.2663799277016952	-0.46910176520846525	-0.4603353245088883
Si	0.3052145103525749	4.095861725010724	7.033570096068183	14	0.4416662716687611	0.22579318366274423	0.29436944765120177
Si	1.5497054349193011	5.696357794084015	8.516693488905199	14	0.8012680037290358	-0.5253549785079851	-0.13622050229836144
Si	3.023071993572047	7.095348556714041	7.146844164436258	14	-1.6208204229423049	0.043325438639283266	0.23726725537496907
Si	4.383336931237254	8.41078259831358	8.426350583849484	14	0.13708002280688691	-0.023714589920385803	0.9713435353304471
Si	3.138994593407216	4.270896900829129	9.97657010718623	14	-1.8624737268829143	-0.09292231737547171	-0.5499123767523154
Si	4.308689991534445	5.7551905497894005	11.272323455910298	14	-0.37499365405934115	0.5271136145469663	0.2189409308740176
Si	0.14463780013115565	7.233769574548149	9.719673400625247	14	0.3955347286830682	-0.13419421419555272	0.7397923613032312
Si	1.4918466273127895	8.590673415154992	11.223537115839514	14	0.17546096880499343	-0.698394223211931	0.3711326252000748
Si	5.582351637779704	-1.1540243779928918	1.6504331429223666	14	2.951035496422105	-0.73560145963139	-0.058394686920671166
Si	7.273949814212955	0.17627050642488376	2.9841704675025333	14	-0.7851376602820228	-0.61051898557991	-1.2521300906858386
Si	8.070869288932847	1.934032079098366	1.421610652997644	14	-0.14928171732471365	0.12684882340642165	1.8676385632500279
Si	9.587624259273195	2.8410792709225965	3.1612457283699165	14	1.219320987027025	-0.7741091611217796	-1.291790932912315
Si	8.706545039978304	-0.9818101810221173	4.426596278533134	14	-0.8241223018093002	0.03514083907365589	0.6634156208839765
Si	10.015279663530242	0.5946994335359137	5.707211133310557	14	-0.2926992576352336	-0.2665295192446384	0.7051706283937133
Si	5.92868671407963	1.5253502249991213	4.244025477557737	14	-0.24373307103407746	0.5364989202971029	0.826083026726445
Si	7.082840156464243	2.783364711753892	5.908502778533917	14	-0.6408480010469088	1.2963286766918443	-0.9763497344993075
Si	5.79317886394438	-1.1112682733672543	7.239849700430431	14	0.8053066959659245	0.779949426856496	0.5225954111678701
Si	7.178447587212537	0.5505171131530158	8.660515688846651	14	-1.3453542558258957	-3.403676016928854	0.7990468258429599
Si	8.440140951418734	1.5716116751209304	7.2798661693124656	14	2.5684930771428083	1.5375693182285701	-1.2996682853921844
Si	9.774673269268916	3.1000236545555997	8.699610269216386	14	-0.5406471416206298	-0.7803510335075032	-0.250427972177211
Si	8.458430134927996	-1.0872720576795105	9.919340352917523	14	-1.002423313550929	-0.34822793345553565	0.2572997653663708
Si	9.378599596293741	0.2426085191950915	11.563491639059622	14	2.5346051376916607	-0.41431536749408987	-0.8735646571157477
Si	5.724078439361441	1.8585554397344892	9.824343537736786	14	-1.3496564863580993	-1.8275617161827518	0.0848670444074478
Si	6.7329346601849265	3.35406250672846	11.072844135044646	14	1.060485813664237	-0.055384179701309766	1.4421671697718157
Si	5.4509174502940905	4.349653294147344	1.768640941693313	14	-8.48785295349129	-12.799580891637165	-8.425515476562172
Si	6.985704559934977	6.068841966891579	3.2154994096059846	14	0.8383690534987726	-1.7061849762292012	2.3553569307500895
Si	8.3471961516089	7.000926566135089	1.8021217633105178	14	1.426741566293055	2.011225796511677	-0.29399046672701196
Si	9.948814755517754	8.414423515649796	3.348960667243934	14	-0.008875198454619154	-1.4252942911083437	-0.8622417663963474
Si	8.429504527136261	4.239658979733608	4.48533576081257	14	-1.575750746453833	1.4019630529911922	0.8283592262663722
Si	9.834909464662434	5.591202852072482	5.913837801583318	14	-0.30727356814249296	0.7541864373275482	-0.5687940600024189
Si	5.583290879487528	7.33318386256487	4.490052576271372	14	-1.4535923904829575	-0.5814816934257536	-0.17284332647855066
Si	7.077318586562941	8.533238676264137	5.79717552178887	14	0.19907682828108553	1.2868433549447538	-0.7236401634609969
Si	5.523652284764922	4.2358575453387814	7.04862073946248	14	0.1964147058326042	-0.08717898231132494	-0.8303747157268361
Si	6.92522867352826	5.584405822300047	8.295868652968336	14	0.3870667933111605	1.3731026528830619	-0.24957436521092183
Si	8.36619139326111	7.245428752791912	7.089375803729073	14	1.0651492844939219	-1.5879300723553744	0.9117247451668534
Si	9.83101909514054	8.746373877433717	8.403189490696409	14	-0.9487288642660207	-1.1716807194394694	0.024375878208727893
Si	8.195357859909342	4.514379587248823	9.85221168517618	14	2.4145962257684292	0.45963598386180804	0.0805540152328994
Si	9.773264406707183	5.862624183288391	11.365660871768899	14	-0.3585416653367777	-1.0235259175765763	-1.6276415653566576
Si	5.617457152327994	6.886964877394313	9.73508195367726	14	0.6345050842221034	0.6888878184012155	0.3006138911422454
H	4.564676739905054	3.531641010266086	0.8446743842316224	1	-1.2035184595083308	-1.1531443356338615	-0.9841815784150105
H	5.98232869517342	5.14707926526164	2.2977029977283654	1	8.662680144834866	12.856040564693892	8.887970934518053
H	8.765082791359754	3.916488250310919	2.4482246157174195	1	-0.503962868023289	0.753400193320647	-0.5119407507211765
H	0.7252909064638166	1.6158850997803378	6.988078693997823	1	-0.287601527116976	0.11407660061805407	0.21757207440157073
H	2.2330167922572506	-0.4668432580527337	2.4363712985987145	1	2.3185016786489587	-2.858028332571068	-2.4875631663121034
H	3.6184178336412893	4.923310893533747	3.507686008417715	1	1.1925529524284315	1.2856377636601366	-1.1995389026938057
H	6.994552520503593	2.7037656038779647	3.031700870047152	1	-0.1947923383755908	-0.06259458746113304	-0.13944878213833933
