220
config_type=vacancy dft_energy=-23097.68597721517 dft_virial="52.94673180991721 24.769071962579293 32.458683916885946 24.769071962579297 3.205695748761082 -4.443337778346057 32.458683916885946 -4.443337778346057 -17.73683052890467" pbc="T T T" Lattice="16.702241951267187 -0.23483126224179598 0.3711687293277479 0.401744411284524 16.340713751168433 -0.0730307682147912 -0.14535979946664 0.09227841062692559 16.183808707859097" Properties=species:S:1:pos:R:3:Z:I:1:dft_force:R:3
Si	12.632675490098254	14.874310727730627	15.126367961610367	14	0.47118513184938116	0.32936424794267327	-0.07202308778064806
Si	1.4017346206980783	1.151719107220043	1.0599653285130315	14	1.1596458896569202	1.3901254269866983	1.1340335668997332
Si	2.928562209052103	2.8052486458379033	-0.06101435812554896	14	-0.6839926909821855	-1.0063689317752285	-0.18494191967303944
Si	4.248980552965791	4.015821763819009	1.4558519069592792	14	0.6506701375909384	-0.36146012698567775	-0.034833591987898184
Si	2.7738860160012564	-0.08254932887641703	2.5741950675799474	14	-0.3400178799472388	0.7179161116867514	1.6744853045160315
Si	4.253765730732142	1.3341439847483836	4.1599936228555245	14	-0.6094262658188471	-0.52425814497841	-0.3143520781993927
Si	-0.0007819354729929599	2.4656497258311	2.5010039023450554	14	0.3708019810559038	0.8749548537623517	0.0888591996380417
Si	1.3951934297220796	3.866816273749653	3.997026908828201	14	0.4549396028840256	0.3459309079625154	-0.8826594279647074
Si	-0.1763214367530343	-0.07525126446181607	5.31196000881489	14	1.1035376866974567	0.9722418795293067	0.6814475538257709
Si	1.3924082023001154	1.3590255724915696	6.63596055284417	14	-1.6619776484651072	-0.4944775462761987	0.8758837941145212
Si	2.797155279531968	2.697112650650772	5.474539096710302	14	0.5638053443497355	0.22464030003718982	-0.8350968077578201
Si	4.211410892611689	4.040624823854437	6.79740182437824	14	-0.2583366921419865	0.34617773407324953	0.5820121124533001
Si	2.6431524198050873	-0.01892851917422488	8.038323395204312	14	-0.14409194123599475	-0.203980697458204	0.9349752505769526
Si	4.046943798125504	1.2662776664203899	9.505040529473149	14	0.008580292674398169	0.6864450112365428	-0.4307724984272937
Si	-0.030717700151657198	2.7249432044406094	8.15135985351599	14	0.18706256734109758	-0.20392310469903266	-1.0389294095495836
Si	1.332416375177711	4.052143334860449	9.476376245339244	14	0.48937570198942887	0.8136653593617258	-0.09243149336985546
Si	0.00187631097472456	0.13527817843236753	10.81729032097773	14	-1.2454056218315233	-0.4600766713136814	-0.232005231226754
Si	1.3390294106522969	1.423463404514902	12.164962791890266	14	0.42171192327909185	0.1746808954508605	1.0482661214091695
Si	2.7306406402587844	2.799803501165929	10.844452553850479	14	0.6319064680750296	-0.7255975459412257	0.2216683593976307
Si	4.318185183930254	3.9673400936911523	12.23507132689509	14	-1.4996964226417249	1.2032052988803366	-0.4194809751927993
Si	2.693826182540992	0.07581599563675544	13.746844986591709	14	0.20708607846387883	0.7411997843554803	-1.1983698211047342
Si	4.283818451571296	1.3652543234388297	14.947996450444165	14	-0.6872968184291078	1.1436248181860134	-0.5119237814260634
Si	-0.21366720959991176	2.615181518622662	13.560487040466306	14	1.3692603930926324	0.25209687664051916	0.22741169446177742
Si	1.3000947048250424	4.219248626166839	14.682260358193927	14	0.04000434189724798	-0.23081712345831357	0.9521623183105464
Si	-0.09081144621391743	5.413833837008906	0.08504717830403342	14	2.047993373921391	-1.3030346335878542	0.5899424297027649
Si	1.5168011037954119	6.6931755065560745	1.3995492112992005	14	0.4963307989909615	-0.1419589522623999	-1.3579426445838727
Si	3.055610015390532	8.043444404231499	0.05800357239406752	14	-0.06002708168843317	-0.5069983149642558	-0.2095111450018425
Si	4.426951071581741	9.498816790932768	1.3152355152016713	14	-0.1112540411975955	-0.2662011890952554	0.3478396965521933
Si	2.886272532221067	5.385946475941117	2.7125976462997015	14	-0.3572386291605266	-0.42415910132280876	1.1201742807820068
Si	4.260734647095076	6.703143513034442	4.186694714295483	14	0.33356800514111534	-0.2915067789877489	-0.6627124235789159
Si	0.34684853115491565	8.10436185582407	2.6889775142875187	14	-1.3791959153812807	1.5371342872084008	0.5491482442511674
Si	1.65470244182735	9.629261338332295	4.073031705124034	14	-0.6162849463708739	-0.3105157319511997	-0.26508481516524723
Si	0.11894107361415135	5.358904540833444	5.271473127657699	14	0.10827001636303164	0.43399177939865113	0.7416895799189686
Si	1.5275527165490652	6.814953602463264	6.709808343380102	14	0.29273319622545957	0.038431082551849384	0.06096502090922319
Si	3.0299832498247925	8.264788950366459	5.37199193519232	14	-1.1721687152292335	-1.0642717662481551	0.26681131238772665
Si	4.26100698786879	9.4952746900722	6.8111993097115215	14	1.097784838543625	0.8559055344453745	0.7596425799274346
Si	2.868157693763397	5.475598385363886	8.288679752350061	14	-1.154382837066577	-1.0964018409919176	-1.9858518152176683
Si	4.236766988206008	6.854997721012884	9.355415171753195	14	0.8310087502987847	-0.0005180777220098379	1.6015988395688778
Si	0.2224439340435699	8.327826650068491	8.090931946995186	14	-0.4447613682531554	-0.9683291714531054	-0.8465891343178181
Si	1.5806274221796088	9.666710700921323	9.420200530653412	14	0.701832305246033	-0.9011631587327492	-0.2355423008156817
Si	-0.09574198377973414	5.461282951319862	10.697837981862005	14	0.7616570409457705	-0.06403929154052425	0.529381586549869
Si	1.3365465984453149	6.819640202894344	12.054987243378852	14	0.9930542057643095	-0.153645654384601	0.20866962223055804
Si	2.853508099260828	8.166351962488566	10.741126798464089	14	0.04029744790374487	0.39712341466038775	0.7305584936564515
Si	4.212294747024539	9.50492357331266	12.329441581992501	14	-0.22622512935652908	0.1406908831185029	-1.119079247026156
Si	2.95441453292736	5.586093553388339	13.482193245029444	14	-1.3214818000388526	-1.081733170919409	-0.9053239784723448
Si	4.376716729848821	6.737456779720032	14.853173407925427	14	-0.2570583385768089	0.9031303114131944	0.8918830111902067
Si	0.0444099249404976	8.134653501391083	13.537284609027303	14	-0.04953105843999266	0.22082349418942998	-0.25083292126513435
Si	1.4601492104561549	9.429171068163026	14.909975673471028	14	0.5052216811880335	0.19538986325199317	-0.45310280524331176
Si	0.3953318720850646	10.840524497660294	0.00034418527230031993	14	-0.935243931082908	-0.17973234607335542	-0.5247319996889132
Si	1.4328516425976956	12.297751474906482	1.3628383433235567	14	1.5854127031364176	0.39824030281146006	0.6740078034713904
Si	3.0235991142643095	13.522641697733905	0.11266888180728046	14	0.0785974040842667	1.0423986019580593	0.035458370580694176
Si	4.5939728227734955	14.906283200404118	1.3657522225220604	14	0.5417979683619281	-0.6603938008012065	-0.37288020548617945
Si	3.0077899829705927	10.915416539629176	2.6075342565288824	14	-0.03851207236943405	0.04824550577991863	0.2729559969923485
Si	4.5485904908986345	12.098125687774589	4.011851937571506	14	-0.9095143659231222	0.7188751339711665	-0.4928130126919349
Si	0.2165276231250484	13.878250245309552	2.6001760432317433	14	-0.14622878686756982	-0.19361451502843094	-0.06384285909406494
Si	1.7778840116604246	14.98128050291744	4.1234381394931034	14	0.15160882474997966	-0.13102789799379036	-1.7318980863149382
Si	0.13417879052375772	10.919800724845272	5.457475192894753	14	0.4129125724314171	0.2924997398623901	-1.3244246871882943
Si	1.6616997618292613	12.290007306279724	6.610833357163955	14	-0.29973071646477456	-1.0440839614954165	1.065102747487627
Si	3.101119328239639	13.44036972203808	5.332953639622917	14	0.3708037808296279	0.6195710760805553	-0.8975885510061473
Si	4.294621859196024	14.786956171460348	6.77725361953033	14	1.8681741244882146	0.3696370132353447	0.2647222893151063
Si	2.9880995779508877	10.988584313631968	8.178403459425956	14	0.542768817730816	0.48045910873915537	-0.42421952229783233
Si	4.417768342180951	12.380531374499293	9.689577301099487	14	-1.6577486944345277	-1.7720484669943704	0.5516543006067156
Si	0.3464792838482245	13.640712283353547	7.938641659618344	14	-0.6579761904686712	-0.10285038345869153	0.729942971042808
Si	1.5577908964427118	15.028380419549217	9.358477752355752	14	0.7922822477456504	0.1166690461123594	-0.16482199210075268
Si	0.33252307229713435	10.928629244160005	10.765253183570966	14	-0.9875335284208875	1.1127412153014586	0.7364077582597882
Si	1.621567090758127	12.334413889615638	12.192709805565467	14	-0.7118693861948271	-0.38928899963936453	0.4619862312349554
Si	2.8570334920984672	13.727959908277095	10.866533876951067	14	1.1456907013107522	0.6549271166695075	-0.2091313927460566
Si	4.388634562602793	15.060658649042274	12.213611542247394	14	0.35205296684032	-0.09488458495580873	-0.4438203437059811
Si	2.816870746586064	10.886550088417852	13.607451622112372	14	-0.042964198341802456	-0.3403906902186603	-0.28673017952397784
Si	4.148247882737703	12.29955092897574	14.854105715604765	14	0.9558847645930566	0.007561877857087515	0.13037175191608857
Si	0.2357518743050847	13.712606906009288	13.585946725802772	14	-0.03988118595241289	1.0273092990551744	-0.693810713757703
Si	1.59428957252718	15.315972276590525	15.020036432899374	14	-0.3987622371914501	-1.710555083941857	-0.00895464560901173
Si	5.710476430069879	-0.08514909724388935	0.08142487893341648	14	-0.32799359169650233	-1.469681596244848	0.19256344717355442
Si	6.894679275464984	1.2477467981918322	1.515357530614502	14	1.0734500980200197	0.07421829750299049	0.1540431472670959
Si	8.406726946737606	2.580602594372529	0.25769285001308373	14	0.5335223516679675	0.16707453747173442	-0.382421834439781
Si	9.92187562706552	4.057184145377585	1.4451270270423096	14	0.056537320437396184	-1.349473166548773	0.07658937082923105
Si	8.263908437558195	-0.06216219930064759	2.9393789830951724	14	0.6499304305903317	-0.4450279918748547	0.31055712674685404
Si	9.74760259392336	1.255106682291264	4.352473388581454	14	0.3583177220633928	-0.05446089578084459	-1.3095845243909316
Si	5.687367563559269	2.660086001041804	2.8493745343886387	14	-0.6427128237356121	0.5228916025007512	0.1426701199939529
Si	7.214500908732861	3.8944212692299733	4.201720239313914	14	-1.0493405863224592	1.2143680097382916	-0.8065305420983149
Si	5.5555262254430255	-0.02388578957672512	5.662176877391929	14	-0.9822514496511755	-0.8720569609560127	-0.052016545952979824
Si	6.947314560092543	1.2151344082402307	7.071022432647824	14	0.647692540519675	-0.6664754933254847	-0.6359155926007366
Si	8.279351663149805	2.5330281698896195	5.644429615438657	14	0.7364926047353532	-0.03633897415284489	0.9096290372204008
Si	9.609858311306937	3.979174386330488	6.993346834059271	14	1.0715137986034162	0.1016990424963292	-0.3519357244377212
Si	8.33463182780674	-0.27590626580602445	8.33114319261954	14	0.4869202964086875	1.2661413291279855	-0.31927188822949604
Si	9.775777332985498	1.2729491799752208	9.627430139019474	14	-0.05760304359259756	-0.9976713966982312	-0.4781677396778393
Si	5.552037590255827	2.623117829513082	8.121663013565186	14	-0.36849724224692304	1.0441677795288533	1.4373355486541932
Si	6.948347115909443	4.0644504645486235	9.630409179507394	14	-0.5310977993510677	0.2444007870857199	-1.4730787977043598
Si	5.52679343841512	0.028002646425987196	10.829691015594296	14	-0.525267303816568	-0.2695410549061278	0.853550659082651
Si	7.01676814059862	1.382480295076773	12.150856208132831	14	0.07341508420097623	-0.14267783330991335	0.38720768988270465
Si	8.439581603021654	2.7447054539589013	10.749977038208625	14	-0.8686250495746791	-0.886402443089779	0.7201298333673989
Si	9.694684943708332	4.008938058373002	12.137311013945752	14	0.9467766239964323	0.8721448927579619	1.0559722382747172
Si	8.275619090827869	-0.025431281697491117	13.721462158160705	14	-0.30589005636972133	-0.7269448051289834	-0.8247936174083907
Si	9.662486912725326	1.2669142420939161	15.076803611596828	14	-0.055273879283075415	0.746854930507146	0.4006980223869896
Si	5.697454197000419	2.7847512433108146	13.575278653163755	14	0.4394294100402323	-1.0522227953863452	0.580375861027558
Si	7.0687401167159685	4.143694946490041	15.011510328799622	14	0.41190829869336726	-1.144888259340334	-0.9944670281377308
Si	5.767734824641393	5.19974558523123	0.0807999988759392	14	-0.29115453755888865	1.4362518277617509	1.0127223901318465
Si	7.249512570776809	6.627917310607017	1.5224667943700256	14	-1.2626160866235305	0.1313078913631545	-0.6123503838994514
Si	8.48188965867791	8.058284470195437	0.0900412063569735	14	0.6328459499590118	-0.724108361739796	0.21822513515288836
Si	9.867658092666755	9.372223442817958	1.4426107987894732	14	0.8019714581446283	-0.07225140193307722	1.108599678851764
Si	8.63492178227272	5.317440240335012	2.8327918216333927	14	-0.5029053724051121	-0.029457153652936538	0.8864037286424391
Si	9.926122806493614	6.696077690138529	4.249376533109166	14	-0.9224208004092015	-0.6021613506262365	0.7529289097154639
Si	5.651510475555204	7.951032329421155	2.7385401934987645	14	0.6110846287503425	0.8743876679287271	0.16673000935883456
Si	7.009040679994791	9.501356410417701	4.12941292849187	14	0.15595193585677383	-1.290513093568201	-0.341723036995561
Si	5.743930904377011	5.329637097071868	5.5444721974743905	14	0.018628429376068876	-0.6214857782124696	-0.5316086779781812
Si	7.0446270980274335	6.803406687818276	6.763982436919255	14	0.03659865579017985	-0.13296599718411795	0.05539060746461014
Si	8.432290221816224	8.10337274086678	5.456556251633757	14	0.5058305189278446	0.37151006346107257	-0.21258824384899572
Si	9.955782888793978	9.346671863355391	6.84186187338752	14	-0.08847970449278786	-0.03152663632512373	-0.23306581217131508
Si	8.2729959312283	5.46453767418608	8.165102202373612	14	0.3027651349636133	-0.3324122932997088	1.0042467414439782
Si	9.786533958146029	6.856097108921493	9.53288612048362	14	-1.354996929218579	-1.1970665278179513	1.0840217117648727
Si	5.727431731736402	8.11001919238722	8.103623361210687	14	-0.1565314629959352	1.042424055900729	0.5158087215648072
Si	7.076975501216785	9.42448613853424	9.6932463829343	14	-0.24237629875663533	0.47856574678139835	-1.3213599296466778
Si	5.538465663232062	5.444524804323881	10.880734025636892	14	-0.15061483543321041	0.24356260675135166	-0.3396062459854831
Si	6.914083973292635	6.8171256454438005	12.188430880893812	14	0.4175194789440584	-0.013327324426987567	0.5362340964491276
Si	8.436849841273057	8.184536974642532	11.063356057835774	14	0.7365370848573918	-0.34720771886450097	-0.2927974738584632
Si	9.826609821939211	9.61355078437385	12.421621415284156	14	-0.12746614579378923	-0.35606286269762294	-0.1796814381880165
Si	8.353739122826285	5.447373522232968	13.493036751909198	14	0.0056086091453710196	-0.18021957053152346	0.2098567015568704
Si	9.775820773845108	6.723746176105972	14.896617609140732	14	-0.28534872463546224	0.47980913331422187	0.29227322548368506
Si	5.6808547762222465	8.260376361511385	13.585223268410026	14	0.2030625557483791	-0.42817825315926433	0.5075441606237233
Si	6.993659274088009	9.591516243737459	15.095909235814082	14	0.5203410660231643	-0.12172641027709064	-1.706612551043942
Si	5.805235982101493	10.947101634308316	0.0024544085680056798	14	-0.5599188615477997	0.1852519949746493	1.0711661851641323
Si	7.309382429331845	12.175986745417633	1.4271625607909841	14	-0.503684931538181	0.1301393239951472	0.3553205845916962
Si	8.946437857343485	13.249687739579116	0.14569061832059854	14	-0.6849851376357627	1.863594985913031	0.1944406111677945
Si	10.162736814781743	14.806705054560299	1.6300547664051446	14	-0.6056331141400326	-0.11524928175457361	-0.3062898632470043
Si	8.507678492066043	10.775942976639787	2.8973031689576048	14	0.1602346259885445	-0.4432539292039525	-0.8017976514249864
Si	9.802473412018578	12.050833628879149	4.347703248035739	14	2.2435603863299427	-0.43819373682336915	-0.9249363698544344
Si	5.950904879992287	13.594462805088765	2.861253938689878	14	0.3990867106828528	0.1295266295973559	-0.4479541668397153
Si	7.363075331810695	14.913628047282915	4.34169671379341	14	-0.7617460011898476	0.4704575090437793	-1.3464294920707816
Si	5.744557455236782	10.853586829984778	5.4905671031043655	14	0.14605755125324796	-0.32581535126927286	0.7761225936979876
Si	7.21245417592428	12.186217067855958	6.81554673727718	14	0.3476589478481869	-0.5291352746601987	0.8038383377175878
Si	8.735632732071004	13.58940361574641	5.56387689530204	14	-0.7677958120081562	-0.23322136404318403	1.0165111709316166
Si	10.190986739947052	14.881998089079433	6.818704553610421	14	-0.025063134660803472	-0.4214661256104857	0.9137749445491395
Si	8.63740292367741	10.636514525312304	8.231402978953327	14	-1.0037782860546474	1.3159665220166032	0.3960885447690281
Si	9.903254535513156	12.229804958068437	9.628088435122805	14	0.9926132612019041	-1.0390595074787832	-1.2331085393063193
Si	5.748470474206331	13.384315975919614	8.291351365216121	14	0.7553130956788372	1.5449967272774139	-2.3823309108848267
Si	7.122631844667652	14.877344904694207	9.40497116775527	14	0.4416418461682197	-0.2099603171012724	0.7726693421424967
Si	5.699019738748698	10.859977648754432	10.998470450797994	14	-0.4978444086929326	-0.5463256848307089	-0.2943159686605427
Si	7.095521406665977	12.220974767951413	12.213238953336118	14	0.8556625649926207	-0.042777021874495676	0.4219114410519354
Si	8.506562396134505	13.524730200599803	10.80628808788017	14	-0.5341533009135319	0.9184574415581932	1.1194469150869368
Si	9.982136453357052	14.776356601715332	12.302735478145665	14	-0.04463207436298252	0.20295405510386885	0.0653906644967941
Si	8.485224580054178	11.022819052609803	13.778389733878262	14	-0.32727162532260473	-0.9396842299708038	-0.3174170928515412
Si	10.17602804702033	12.02408241337041	15.046029104167218	14	-0.5755470681257878	1.557899562216045	-1.5538660121897967
Si	5.71093757150267	13.531849489169085	13.506655461397159	14	-0.2236740786578782	0.9932645221794978	0.5529509090196665
Si	7.30354965852796	14.787666262434753	14.914587087798935	14	0.007732599250345348	0.1051700346785291	0.13786369570846807
Si	11.121224295244133	-0.08781235609848503	0.40608682644330324	14	-0.11566194415845736	-0.6954564782731298	-0.5714458980296196
Si	12.724270542587458	1.1094093807614944	1.5694815000848736	14	-1.169073618644839	1.372861997425096	0.3672669683512322
Si	13.995104486860095	2.549475547659155	0.16270773967195173	14	0.02048708141200392	-0.1251290110577746	0.9340630224093639
Si	15.227082253013236	3.80654876424895	1.8344657313033874	14	0.2281002364665131	-0.22221960437827043	-0.7296709480999364
Si	13.852394579829708	-0.21458113845402957	3.0648495520692736	14	0.13450351816556652	0.3449559448251152	0.41250813756455773
Si	15.306208107991868	1.1594298598009458	4.361417193254384	14	-0.5729515373050983	-0.47487466798379374	-0.1895331424432279
Si	11.24137335891592	2.6297826598587415	2.8587310272278708	14	-0.8630277532927167	-1.2187144632820022	-0.36828538316854287
Si	12.432770678983477	3.7896552822672587	4.388532643662937	14	0.22487632750557943	1.067202826313124	0.39263503610300526
Si	11.185343004029555	-0.1980986738363468	5.54904852495415	14	-0.7826197768420018	0.1398339337152975	-0.3590972811964617
Si	12.429293739412326	1.1598926720360294	6.877777439471829	14	0.7554920446091196	0.9118995803286236	1.119502450961852
Si	13.898189599870872	2.5524345385195617	5.645485562487656	14	0.5607719542930248	-0.32560529196461674	0.6527406487052536
Si	15.370699405688569	3.8832837011467016	7.049960298945796	14	0.49775570555938753	-0.8930322952683128	-0.700843458139904
Si	13.907853520331964	-0.030478775423798236	8.32062047977999	14	-0.32913824778503226	-0.6790245441720634	0.5223339297568111
Si	15.20221904409527	1.238828055553293	9.861818638653698	14	0.5328875457644229	-0.45411402096572606	-0.34142581722055193
Si	11.154042193877737	2.662911327718794	8.311979090322042	14	0.01851684340517445	-0.2667421496546146	-0.444042744316174
Si	12.610666011496255	3.95528692595147	9.718204827582952	14	0.09793520141816443	-0.24719660701084892	-0.2898985526099963
Si	10.988577630422798	-0.12005716954568832	11.133193922869177	14	0.1739226764919488	-0.46188441546427755	-0.7717190616161701
Si	12.313104477174285	1.2251776008217705	12.46309239899176	14	0.3872411142518666	0.29159831033714617	0.6192661429895856
Si	13.837624687562064	2.4988051265278357	11.224907602321164	14	0.004107340748936556	1.2259032737571363	-0.012276513682643049
Si	15.367959289928509	3.9147799951667666	12.581236499912285	14	-0.9658945918254574	-0.6204025715410911	-0.8483922504788379
Si	13.670821811470656	-0.22617650636550637	13.77373822029533	14	0.7410056659038091	0.30715144063978594	0.7070223384452838
Si	15.19904953214598	0.9541383820944395	15.39374812331664	14	-1.3874075115527698	1.3211562981053222	-2.5279791421711075
Si	11.006754288565299	2.7484764547335705	13.750006144529534	14	-0.27886028324953654	-0.4981881654742364	-0.5958325748806921
Si	12.472271786787964	4.069726858189034	14.986493406070727	14	0.7832170446078722	-0.03489606984717779	-0.17830409706801315
Si	11.325142373466022	5.364754019660257	0.14585936935216326	14	-0.22004110684050895	0.01060863766146299	-0.10397601336785234
Si	12.627444208119748	6.580611885293235	1.6641274375605832	14	0.6861557618880262	-0.21755510510645776	-0.09755544916237857
Si	14.105317289297076	7.934897391680358	0.3836796968956353	14	0.32489361001199973	0.23039880462272547	0.18096210574798224
Si	15.601905026955162	9.400064021421551	1.6404488274681557	14	0.03593428217545358	-1.4812731674702038	0.4096300422691841
Si	13.841307135815219	5.176767041299451	3.201907134943388	14	0.8934917517890233	0.6507087041707407	-0.7810064082536089
Si	15.49191277042082	6.569698204717188	4.360777275976272	14	-0.15888428147440273	-0.29903214714929033	-0.4297594829311553
Si	11.27674925585968	7.900841428547846	2.9535691069672434	14	0.18681317012504323	1.954608771809357	-1.1367869635870795
Si	12.804154941806985	9.349303376966423	4.110257180205836	14	-0.45140253329509783	-0.12735353138076674	1.0287216072075316
Si	11.212212846501078	5.348099462406424	5.688177902671239	14	-0.31248622706856116	-0.2931366026501908	0.6219498627227563
Si	12.657989815635254	6.756026076401322	7.07762377250636	14	-0.20038552088904094	-0.5809021662865922	-0.7272443388987806
Si	14.14074331030962	7.978134413411366	5.62266741557598	14	-0.7707734090794196	0.2233256938869981	0.07881080582583899
Si	15.41766732893922	9.313763741397977	7.046759041752944	14	0.43126846464355023	-0.10407063004363382	0.5948154456160416
Si	14.021810590706933	5.21746110194094	8.239203954858036	14	-0.5729697921528714	1.0966329833601989	1.313464836540099
Si	15.427406435503485	6.635948857228121	9.632384067817389	14	-0.5216644139314445	0.3465178913071052	0.12391210690974852
Si	11.182061548326653	8.093140747626162	8.359124118615723	14	1.666958136580766	0.8351875677756214	-0.6164572104273239
Si	12.60750652436072	9.514559090134775	9.727507854748817	14	0.20058632421454448	-0.8020892147682911	0.23130820457446186
Si	11.16330178018399	5.42768144641097	10.83389976656966	14	0.19698163455569687	0.1530242182287212	0.8017004636438848
Si	12.596307136592618	6.8361343631280755	12.2911601598617	14	0.14029159046228387	-0.8341930642377882	-0.04562709212187983
Si	14.151075551687798	8.121980466000801	11.069382641705616	14	-0.8956190843309139	-0.27296859540841717	-0.8474404272893191
Si	15.57297675605901	9.377479786830856	12.405433011869993	14	0.1253719805105286	-0.1236495970565614	0.7220885014002876
Si	14.034294825438135	5.434767318934395	13.697172034429142	14	-1.2581459629139211	-0.1337285870220739	0.43330015206753125
Si	15.318640547851999	6.59005024744481	15.302692739967986	14	-0.7773819210837961	1.226177096473732	-1.2603550566049924
Si	11.186545981680313	8.11987859671656	13.659199710722495	14	0.38030710031395926	0.39497062817582773	0.15063926093375185
Si	12.719537159692182	9.329024849539682	15.071014281652554	14	-0.12673312366701503	0.5362623786076492	-0.18828589925242403
Si	11.495079674658573	10.673957204692158	0.22963172550685135	14	0.48651817553661636	-1.7029986054059418	0.6001317200865117
Si	12.79081525630191	11.999369576658788	1.6194535258578362	14	0.37308615102232334	0.2656954526787823	-0.6986785874603394
Si	14.147762350741335	13.424513808280167	0.2916017825438361	14	0.6067201774693911	-0.0202644236912791	-0.22803287350712523
Si	15.531641107337116	15.144654892704187	1.3430276405387758	14	1.670256350485452	-0.9227396174688998	-0.22111017243262648
Si	14.23297660927464	10.782465788790565	2.9049587850628473	14	-0.22103972414685447	-0.8988710183398371	0.07808292590970507
Si	15.53674874994596	12.083766812870952	4.239231421587771	14	1.0766423823855156	0.5087888327092068	0.826063743436544
Si	11.46664429043877	13.292254769590743	2.915511572343667	14	-1.1292297137195684	0.7525779538392636	1.0701449421309694
Si	12.8848229473018	14.684997132349402	4.241241396745912	14	-0.09534661258183935	-0.3059257947336714	-0.007670121391065749
Si	11.43539527515803	10.714133316622902	5.618707614142233	14	0.0025340814035379466	0.07520508772486333	-0.48865527827872335
Si	12.93894524596988	12.008844696460804	7.009206089421769	14	-1.0430447207250126	-0.019343710876134075	0.43560026288693576
Si	14.23225816428877	13.372640409498088	5.680834726594734	14	0.26420832536160865	0.6053333232597032	-0.14201037436880287
Si	15.65463220570882	14.75985575827243	7.037345741635759	14	-0.7462131826192371	-0.07434968098485005	-0.04270503092553153
Si	14.216180033825927	10.679698081369944	8.522309707743393	14	-0.31567902565512107	0.4109526188458682	-0.7075013353664276
Si	15.640741155447145	12.081426018858853	9.775194222985338	14	0.22143695991881732	0.026816628489144467	-0.32703251252783094
Si	11.488772396003554	13.481381235115183	8.266397932974348	14	0.21405865898158838	0.16260467087265698	0.38860302873994895
Si	12.959095121620082	14.91356956920267	9.701297979182918	14	-1.2844208595121103	0.40934156425226337	-1.012384804003311
Si	11.26999253138792	10.908334008710336	11.059479796516664	14	0.3087807500811638	0.175419316898807	0.2644597794619192
Si	12.905206735272984	12.125005555059868	12.4184669405555	14	0.05648949787844143	-0.41354866388762174	-0.6543334484510853
Si	14.211516824626946	13.515662756557214	10.988883387242366	14	0.5502453348912745	-0.6444028112625455	0.5233608292216781
Si	15.59006070950207	14.837536369267859	12.350446908416577	14	0.3593993860715791	-0.05404360538738456	0.9130640339281184
Si	14.284601058515104	10.758304316835542	13.811870941022077	14	-0.7816602403365226	-0.2414471012939338	0.01131286340865155
Si	15.576219783309178	12.11335505067273	15.261993666919619	14	-0.5020833900342607	0.1526372668780389	0.010490623927268192
Si	11.562966042614079	13.497011590563579	13.636709041060191	14	-1.7424244486061564	-0.09462875997645401	0.3970347115268426
H	0.6286460458450709	0.28121941709687404	0.06065012322573599	1	0.7445522485824214	0.29054390004535346	0.5589901783061622
H	2.476616872080514	14.41178921224612	14.127278314632589	1	0.4723421292434478	-0.6535942556715427	-0.6225797835261925
H	14.741408430158508	14.289197435622375	2.2300582485461162	1	-1.328501431783921	-1.409447026357079	1.377308209855228
H	15.96196125023403	0.07311597913171991	16.322784371765255	1	-0.391659044523477	0.08934436721195366	-0.2449618022665762
H	6.926406140201445	4.040624823854437	6.79740182437824	1	-0.12523751170228486	0.10228885405677117	-0.03723243325159635
