222
config_type=divacancy dft_energy=-23013.224468026838 dft_virial="-54.14902928388338 -9.175865046723251 -12.028302270350403 -9.175865046723251 -49.25182007260085 -18.548721614415232 -12.028302270350405 -18.548721614415232 -53.479258112589704" pbc="T T T" Lattice="16.249967316 0.0 0.0 0.0 16.249967316 0.0 0.0 0.0 16.249967316" Properties=species:S:1:pos:R:3:Z:I:1:dft_force:R:3
Si	1.4000321840772958	1.5601593620091598	1.1726788913591402	14	1.0407014153362297	-0.9996040965673866	0.5067666583749104
Si	2.82286307229894	2.842151783503032	-0.092413564126092	14	0.22764283683005873	-0.7964425532641819	-0.6397046305110389
Si	4.200161552101151	3.955274544649032	1.369823494836852	14	0.7977093368554189	0.022840671222067475	-0.043184542067739154
Si	2.8699067276787598	0.266483214015084	2.652709664533104	14	-1.1890243674870602	-1.1415116267233836	-0.22446572198595177
Si	4.15601039090358	1.541033150478228	4.037466879333359	14	-0.06608923381227831	-1.3406475904268325	1.606308076073261
Si	0.081071086939524	2.871564224344992	2.416890138843312	14	-0.511515747011756	-0.10789694898107816	1.9732374582959575
Si	1.524588183554436	4.2497727023169	3.775972405284288	14	0.25773942437611613	-2.2081392967763906	0.39260443994969546
Si	-0.0698748594588	-0.018134963524656	5.172315846780852	14	0.05558395458468528	0.5291895249824539	0.7785404611410549
Si	1.274306186953404	1.33038482416092	6.63339915806436	14	0.6826238345097386	-0.1818972167529201	-1.028532888077033
Si	2.771301926005272	2.761616945484936	5.412084114528432	14	-0.6771723198994287	0.8745912994700827	-0.07044931421418542
Si	3.979665745590348	4.166377870051187	6.941222288931348	14	0.396138424212239	-0.3177539076484806	0.04545585650755796
Si	2.553081114918708	0.052454894496047996	8.099552459150459	14	0.13933513928318883	0.36578009814459056	1.6849026519416754
Si	4.26659141848896	1.29122240292936	9.56911825337292	14	-1.3684587224538103	0.21069179656485448	-1.169436915826576
Si	0.174313399398732	2.7792156600881635	7.973550212582195	14	-1.846213799727766	-0.6084836986084807	-0.25331532345173735
Si	1.387552209178608	3.923018359526772	9.436778519551416	14	0.6301419184938121	0.998340912523598	1.574831062080816
Si	0.047303654856875994	-0.008433733037004001	10.750913376396335	14	0.7612898871060534	0.5953142400481503	0.0021630709058405788
Si	1.3613410118979	1.154300178324744	12.197745466343711	14	1.2388061086957673	1.1060828238538714	0.12984930331503447
Si	2.75534445810096	2.55928860243342	10.816319494843237	14	-0.1881894828029185	0.3230861229719357	0.21691258588695275
Si	4.1172217189202875	4.0848355340595	11.969417175586596	14	0.7112384369492627	-0.12814003249820002	0.23676049051636788
Si	2.7269557651999077	-0.09915730056223199	13.648282548839134	14	-0.34790448840626104	0.2624754003758289	-0.46079735213491896
Si	4.138834175450567	1.2033425796844321	14.861911357834595	14	-0.706398331184084	2.1280629929119748	-0.010061506449335478
Si	0.18784962217296	2.348965275462432	13.83460467408439	14	-0.3405285014638202	1.3014181796730773	-1.056956200280738
Si	1.445710842202572	4.103636746244112	14.776079030471482	14	0.3455362432958727	0.0618368827232854	-0.12924972155437595
Si	-0.08019358870446	5.220854499153744	-0.026909945875295996	14	0.25042977195093513	0.7660196924529977	-1.2335145168363704
Si	1.3288248272985839	6.55377431821596	1.2141975578515198	14	0.5688889337887323	0.5128689197417499	0.079557711921342
Si	2.547686125769796	8.19957100798044	0.022278705190236	14	1.2656656746437582	-0.9209133613599986	-0.11461550429315712
Si	4.050889352336376	9.424867293508788	1.378257227873856	14	-0.427704398448761	1.0120220210426378	0.15915167642769812
Si	2.972980270364148	5.478318981308448	2.542404886392096	14	-0.8836498177340285	-0.12334517818665588	-0.3594628923729867
Si	4.13447918420988	6.78346760622762	3.971540761932348	14	0.526169504673408	-0.49894895553846824	0.6013907903617882
Si	-0.114546019610484	7.759456893193896	2.55189486730464	14	0.020441572847837305	1.6531453874693345	-0.11672920997685085
Si	1.1569489229972518	9.147805350770987	4.019981914501344	14	0.6998481832704747	0.229036375913579	-0.6917533152805204
Si	0.173500901032932	5.223779493270624	5.227354486080144	14	-2.206552667683327	1.1340302244628166	1.064822239897199
Si	1.3965871910063041	6.640126644533184	6.600200474837772	14	-0.38334948923929046	0.4115763689965361	1.1527558416199872
Si	2.8013156156379235	7.961362737095196	5.305614328674	14	-0.813303347732649	1.6508758728032398	0.9100648395721659
Si	4.139061674992992	9.436356020401199	6.732491458757328	14	0.2922218033772821	0.39246097227283117	-0.6218081948196161
Si	2.635208449733772	5.6013637338252	8.374111906921595	14	0.028088554291021715	-0.8381960181107267	-1.3636679819107784
Si	4.044113115965604	6.9255898203733555	9.604673181860328	14	0.732218913472203	0.48499890940294077	-0.9525384710188841
Si	-0.07702484507784	8.011851385546008	8.047942562954844	14	0.9331466804732632	-0.3605435279390449	0.3123227047701998
Si	1.538156906263296	9.347923698267529	9.247563900123911	14	-0.09256184840958696	-0.1493760768899631	0.8681252267004422
Si	0.019402460975303997	5.166173359135404	11.04648403190706	14	0.7143024231592833	-1.4252662660603543	0.589703316907991
Si	1.27082869394778	6.667036590408479	12.320188970069772	14	0.6106305715508045	0.8620795296506463	0.3377280535491149
Si	2.713760791739316	8.14025862727704	11.022125330900375	14	-0.5788607086623946	0.17144695917917824	0.019064231727833975
Si	4.187177828215668	9.329138736050231	12.47282491306896	14	-0.9744995671109288	1.6818335235210147	-1.4747585008100126
Si	3.006763952414112	5.447785292721684	13.454387938824624	14	-2.3845914266823014	-0.8263298528371793	-0.6806872779826032
Si	3.9936569674494242	6.87625491960198	14.793856494715188	14	-0.3133431764717665	-0.02588614547378287	2.841556289227007
Si	-0.074327350503384	8.237059682578453	13.742743608847045	14	0.49972003002398063	-1.1550505531182194	-0.38826312861662543
Si	1.4565820703369758	9.616389408295165	14.934792461246856	14	-1.1625664081900764	-0.17705711098774135	-0.31355837798706293
Si	0.061262376781319995	10.765717096621211	0.092072314812456	14	-1.183916352547522	1.2026424839257563	-0.31713247149260076
Si	1.45063458229932	12.302671505303124	1.3180185990334439	14	-1.768233718030867	-0.7838485080745007	0.7015649102927376
Si	2.692002085503192	13.659543776189125	0.07983608942350799	14	1.4852858915433589	1.8015740120488228	-1.0136479880470994
Si	4.29259136619456	15.069439690427231	1.4072796695002319	14	-1.817323574797922	-0.2745768217861699	-0.2155835815469682
Si	2.4041664144348838	10.771095835802809	2.720780777619828	14	1.51666417509151	-0.9601144899552322	0.47527524619267286
Si	3.97043576415486	12.019125825606238	4.0633043273658	14	-0.8650635544852102	0.6076074659153743	0.5299677985628627
Si	0.044784909922896	13.76095982220828	2.646290927443284	14	0.46804889757986456	-1.4947974385647147	0.46317536744552384
Si	1.482663267879156	14.959281161992067	3.989643225522372	14	0.9727386170771595	0.3072591699527001	0.4559477332800556
Si	-0.111328526081916	10.648571082240169	5.198673293767404	14	-0.5188901912910047	0.9127115353887262	1.7077638920063039
Si	1.208445069421656	12.104096904701603	6.691720290761484	14	0.742810067617489	-0.16684673754036927	0.05330389838677795
Si	2.78581314681846	13.553983988504386	5.615403705586224	14	-0.42836105874752683	-0.1306239773479951	-1.1784548106264634
Si	4.042065620083788	15.011719806520798	7.057490805077328	14	0.6809886115261246	-1.4498907701535404	-0.8936331625816315
Si	2.8424767828493516	10.888973098713072	8.096172465948731	14	-0.5088567098896589	-0.1941433913927854	-0.7007730098541319
Si	4.2166065190249435	12.080079453008556	9.58878071382528	14	0.14195046761484342	0.4881729389206636	-0.7658451144017597
Si	-0.088659821676096	13.59694890208789	8.018757621655308	14	-0.68795810671745	-0.8176078922596409	0.16829426983561266
Si	1.2378412602963	14.806173969940716	9.5444183030526	14	2.0623761370822993	-0.8202031659697985	-0.8588527924738604
Si	0.376625492482932	10.820105737227863	10.646946085508567	14	-1.797391080803474	0.8428479189664706	0.6518898699548166
Si	1.5342406641401398	12.276184058578043	12.28879403321526	14	-0.0011315434513971697	-0.16433193942673244	-1.3969226581215737
Si	2.946834072952704	13.545420255728857	10.882944360838836	14	-0.663600483356495	0.9240876479882536	0.14721017776827036
Si	4.268833913978567	15.134699559168286	12.245146621004483	14	-1.3992927030056863	-1.7227099843428568	-0.27988435449855154
Si	2.771984424632544	10.939331747425355	13.62888008786383	14	1.6752520081224997	-0.4202924160318381	0.22997637201862517
Si	4.2718401579320275	12.37930635116538	14.875138831229819	14	-1.4961516397368366	-0.8709696405161221	0.9642143744987405
Si	0.402869189698272	13.752753588713698	13.674347496414	14	-1.0588130525429487	0.27958096407077404	-0.4074957677429291
Si	1.114032759315696	15.422730229844387	15.171928234289243	14	0.8707125299841074	-2.062102828586768	-0.13315677319887295
Si	5.534885117535444	0.143763460844652	0.0029249941168800002	14	0.7944664017151162	-1.7756431293424697	-0.357765705751157
Si	7.033099604136011	1.378777226827968	1.197525091385304	14	-0.5984571591914993	0.3847283730224858	0.1557030528617835
Si	8.115022428035292	2.943990328672404	-0.08393108118714	14	0.14533275666349824	0.1906603150155808	-0.4890571420402626
Si	9.431448530271767	4.16762911753452	1.3826284690818598	14	0.2825590753631016	-0.16463353008078582	0.050883974059454586
Si	8.064192530270844	0.004679990587008	2.677182115311	14	-0.7873830065581081	-0.48244040249886144	1.5898118643391908
Si	9.202713990331752	1.337161060531692	4.231393989282504	14	0.6795637049576986	0.4827525346847274	-0.5200872979280656
Si	5.628241179765864	2.488633744543452	2.682934603740864	14	-0.02492763741043167	1.3766973152311608	-1.1328040643356383
Si	6.590840493663755	4.107699238073112	3.9803157442829877	14	0.35077564171727044	0.6751120932063941	0.4032171913796707
Si	5.361904215456623	0.024309951104735997	5.614769956860901	14	0.05168050248763647	1.1544399156046843	-0.3066012241012743
Si	6.978662213627412	1.4252846332863598	6.7602301529657405	14	-1.5648754851706708	0.22324650384313757	0.5754905038087446
Si	8.00343390247632	3.020885174011716	5.413757861161979	14	0.6368157365733205	-1.1345341611055657	0.4045364255194387
Si	9.389588614465751	4.134349184471351	6.9324310566133915	14	1.6942085105374194	-0.9511061082450295	-1.789319095650869
Si	8.201261004581303	0.070394858412912	8.213302230362459	14	-0.46016794555254675	0.4075536176126324	0.12387971098271469
Si	9.59178695777874	1.434368365016004	9.461900969021952	14	0.06845413648575051	0.5737904889710627	1.1213888709352449
Si	5.5775412817399435	2.7684419317576556	8.288312079493116	14	-0.5698117034881335	-0.17339894233823466	-1.4887540555097065
Si	6.931082309326164	4.554768338870904	8.974385699574635	14	-0.881505258786493	-1.3215936431202793	1.6009234102012748
Si	5.6106587151299525	-0.08714857471570799	10.768853340313198	14	-0.3849098930580883	0.37467303722591877	0.23147532642027144
Si	6.763415146559676	1.3230073389994559	12.073433216376312	14	0.7136534761764778	2.0688182985724626	0.6436538482827864
Si	8.104427449345259	3.000458965095504	10.684337260302682	14	-0.0010394978809358682	-1.2761053906856874	-0.176148739478133
Si	9.45683097921936	4.02763564910718	12.255822849531096	14	0.4047655110034639	1.2965734459183222	-0.2582364190345008
Si	8.02309636292868	0.171095905870164	13.688826217292556	14	-0.3329041457474531	-0.9837666020163387	-0.1685416101674109
Si	9.482375927840112	1.452763328017716	14.919111242786915	14	1.053177446791716	0.052347447207682876	0.34204725337643166
Si	5.33226427507224	2.70594455746032	13.499936597211372	14	0.7481104012349743	0.32621644369921593	-0.41442361102806813
Si	6.6052704646403635	4.32029756046834	14.851722628327463	14	-0.3894414661848493	-0.8762571186070067	0.46327486922141364
Si	5.2919156062266115	5.680647324359963	0.156860934501348	14	-0.25609263141856126	-1.717134028235052	-1.4950866879132312
Si	6.784962603220691	6.74235518891814	1.41967839456234	14	0.9216723516505064	1.4748060662584355	-0.11545676995390956
Si	8.205485996083464	8.120888666236368	-0.053007393384792	14	-0.4906190885222525	-0.6201637158568495	0.6266662983220359
Si	9.318836256771887	9.5423870571381	1.375137234149184	14	0.9833279714487213	1.0330374645979323	0.46872432694746746
Si	8.119019919995027	5.456592775006956	2.789404389595296	14	-0.00012881237653941877	0.10681734185714799	0.3765509725517549
Si	9.396121101326782	6.874857422412803	4.23531023140566	14	1.0262569456476378	-1.0230407500026646	-0.8384233038210277
Si	5.438084062234032	8.126413655123807	2.750306968233	14	1.2492319407689676	1.393179128775438	-0.28596039059112544
Si	6.903766114267968	9.56830575500712	4.135226682706415	14	-1.443721660048377	-0.02898047072658109	-0.5450416748338268
Si	5.356086727157496	5.478936480066456	5.478595230752819	14	0.4241123072059821	-0.37197311952923123	0.36542220028402594
Si	7.025413369595544	6.44904327886434	6.96302974506942	14	-2.0782861368033756	2.037597109559372	-1.8787174560745459
Si	8.073893760758496	8.164032329460348	5.450125288015188	14	-0.12038840706848558	-0.029483893148266084	1.9170608639349784
Si	9.479207184213491	9.583726973990004	6.790487592108132	14	-0.3341159076848389	-0.7037066410244209	-1.003028551743292
Si	9.284597575637076	6.562435550795388	9.225236445031728	14	1.9768948556138686	1.299486251135518	3.3305062161754195
Si	8.33241449078874	8.306447043017773	10.528987572761725	14	-0.026188250348900273	-0.8996166388826801	0.3840760836027643
Si	5.651299883387268	8.129419899077266	8.00010265917654	14	-1.8617597309355094	-1.8400588307018637	-0.5497467975696979
Si	6.826302520072596	9.436161020793408	9.28450007583318	14	0.8050351872441169	2.1173052311419434	0.30065837126428396
Si	5.580287526216348	5.556627573804252	10.610318659178303	14	-0.4410618048079943	-0.41258809894001436	0.7995443347224087
Si	6.825603771478008	7.08482325010284	11.8653198849603	14	0.7155524945659393	-1.4728204016196849	0.8596166678644764
Si	9.473747195195315	9.713840462289216	11.963648437189416	14	-0.01357569320091387	-0.3137424691279856	1.7727856028896571
Si	8.00644014642978	5.57000129690532	13.52427904825074	14	-0.16117230809880248	-0.4624585432822666	-1.9758342746693072
Si	9.433398526349688	6.810150052560491	14.688085457455344	14	1.735534657679756	0.5113594238082909	1.0647332796531215
Si	5.503880179896515	7.87400291280438	13.568771458761947	14	1.6395162152777614	1.7431392158851577	-0.0675095123911281
Si	6.872663676825144	9.411948569492568	14.85872636424066	14	-1.2863255343332762	0.6495643051927427	0.5857294165251702
Si	5.506967673686556	10.988504148523571	0.19306586168139597	14	-0.4712319259662079	-1.4367017711927768	-1.3648105811150524
Si	6.9070811076004315	12.240125381103839	1.482435768336732	14	-0.4453997737041481	0.21013900892102266	1.3209603798799268
Si	8.152624852404514	13.512595321750535	0.037423674728747996	14	1.415421760900039	-0.43208016259312104	-0.15002296698851236
Si	9.422998547267447	14.96519615009509	1.415160903648492	14	0.9968740969384535	-1.00945605793313	-0.25885348431133626
Si	8.298728308542673	11.014260346719432	2.999110217808276	14	0.2928591803861468	0.22291457414630647	-0.9946858292004754
Si	9.86299891228278	12.57450095856517	4.183895334817836	14	-0.810856426799464	-2.6995338306631993	-0.28969106441066034
Si	5.1971457968397	13.488561620090172	2.7891606400855555	14	1.5787607394521304	0.12643179012349365	-0.15919127144962836
Si	6.53386810825386	14.914431252199908	4.193612815272804	14	1.124812554779554	-0.40893198717476387	-1.2121496600680681
Si	5.531147625052763	10.980330414963625	5.423491591584264	14	-0.436229669469308	-1.3104144771882753	0.18222554690230303
Si	6.95311726500666	12.3495689109771	6.658050358482732	14	-1.0460241175700002	-0.06398092744975689	0.717373094243136
Si	8.226269704280629	13.581446433268429	5.271619397048927	14	-1.139522619647717	1.7654489538586144	0.3145454253194678
Si	9.28697007086521	14.887700055965087	6.872143677871032	14	1.7783882984927917	-0.28686593388488163	-0.4301608324716304
Si	8.243868418883855	10.997782879861006	7.986582686369628	14	-1.0213389353912585	-0.7605854042483329	1.7051421359113492
Si	9.71130546738792	11.733890149308492	9.66694305661524	14	-0.8821871159173963	2.067906327515406	-0.47979499223496114
Si	5.60168873317152	13.56945395738922	8.229032198724349	14	-0.853253696418174	-0.4214959504321994	-0.5534764429471046
Si	6.946633528047576	14.849610132576382	9.545913300045672	14	1.252396200086474	-0.6671642924407523	-0.10875261283162344
Si	5.524810137799523	10.623481132704264	10.818155741149944	14	0.038194797972927776	0.22782384264459718	1.0414974295433475
Si	6.851896218595296	12.276492807957046	12.057833247752951	14	0.20747174426190101	-1.2869449136048996	-0.058559751882224655
Si	8.469027966014352	13.473839149701876	10.86963563760703	14	-0.6200819547076687	0.145884515865202	-0.23222480362109463
Si	9.379123635514247	15.137234554069584	12.304589001446411	14	0.8997624205543324	-1.4308728183214692	0.6062764046911336
Si	8.07737125376412	10.992387890712095	13.665718763769203	14	-0.34561286223441307	-1.1629186496189365	-2.2688690615488203
Si	9.620484400058794	12.149873062630775	14.735340362410271	14	0.07483202034290984	0.8836747574556341	2.3735580424219496
Si	5.480041477843943	13.542462761677344	13.345318158199632	14	0.37867856220417745	0.7429807890107469	0.7649308293499151
Si	6.788537596030212	14.692099199382396	14.95500742058796	14	-0.6071408102997674	2.0247269276583073	-0.8281298836718148
Si	10.8947905870122	0.027998693685467996	0.16056592704939598	14	-1.1812578296464888	-0.4511212543730736	-1.7683884985711396
Si	11.94847096771627	1.4861570108520958	1.4746520339923679	14	1.20395606163382	0.5025181639438978	0.15823790559691747
Si	13.546037754486864	2.7436444816334395	0.083264832527184	14	-0.1646594982445193	-1.9962275107371257	1.0073161269751707
Si	14.752662827569129	4.128856695518543	1.359732265133616	14	-0.0554091194229152	0.49414458813723955	0.9052208771490069
Si	13.396261805735291	0.037797423977016	2.5591748526622076	14	1.5179952363157507	-0.1844372116986944	1.0742741372751272
Si	14.937441205919363	1.5055757217947159	3.9067846421780876	14	-0.5691802400215051	-0.24270899978506244	-0.6392960818756673
Si	10.585114959871188	2.75997569878602	2.89769417178912	14	0.0024366365119043347	-0.1449051818487576	-0.008210567729360876
Si	11.937875989026239	4.039774374692231	4.354487491701204	14	0.4425687296361331	0.2006716849111734	-1.5425390077018843
Si	10.748930880383783	0.003282493397832	5.399035390773684	14	-0.19730713648922762	-0.5862361813837714	0.750083210347124
Si	12.0765694600683	1.3098123655388638	6.859744952808923	14	0.900031872391884	0.3019575507825548	-0.48861774014104925
Si	13.497109102898388	2.7355682478773877	5.384881669241448	14	0.37720891840318077	-0.8968107916468026	0.9073438388118532
Si	14.868898843780476	4.098453006670308	6.768875135577852	14	0.43462170020208735	-0.025843465125468416	-0.36413870450820807
Si	13.486319124600564	-0.10261854360054	8.220468465948816	14	-0.5634091370199008	0.138210280705624	0.02647261459730865
Si	15.15333827167974	1.205698824945252	9.293843807039881	14	-1.040341203480877	1.072464079129743	-0.8151697130845446
Si	10.9094155575966	2.89095043535298	8.159336088906024	14	-0.024546856712517738	-1.003414474651846	-0.09640950752118857
Si	12.402787553937	4.0200469143706075	9.556540778670335	14	-0.9063256811050745	-0.5393924422243975	0.7615292570113591
Si	10.857155662708344	0.044622410249736004	11.025326574461626	14	0.42239789417850737	1.6113785528751248	0.17520257272031853
Si	12.615174626757119	1.416119651720136	12.325340209708944	14	-2.423517447008279	-0.700496616032216	-0.0021481584949837196
Si	13.795556002624044	2.44716382795302	10.720217188136413	14	0.07134920107623724	1.064912742804468	-0.1421931799570654
Si	14.849691382412963	3.6582088921452356	12.437968733176138	14	0.6060617173969012	1.2466747194175483	-0.07375832676121599
Si	13.680327484386286	0.18498962792534399	13.958039425816727	14	0.9967092890874321	-1.2279066790225954	-0.5138865632274645
Si	15.55511871356784	0.9286043822728199	15.471658881432862	14	-2.102977489634886	-0.06338237413122641	-0.8995351348440315
Si	10.986326652903227	2.7661506863660996	13.534792777104192	14	-0.556310829452036	-0.840043357283253	-0.2371122177241641
Si	12.362747634470376	3.931387092694512	14.940658699447932	14	-1.468808191767594	2.582280115201039	-0.747167062693012
Si	10.84571568571788	5.456170275856739	0.016217467381368	14	-0.545373604530658	-0.052213235509971145	-0.8903514037509945
Si	11.725017667153955	7.022407125642084	1.476667029939552	14	2.137590223675783	-1.4533113686714654	-0.15509755755888863
Si	13.304319490661364	7.961817736180043	-0.014511220813188	14	-0.3543749320549457	0.9398870901805634	0.5833678562886141
Si	14.712736657873716	9.32109500222881	1.3057498737098638	14	0.5463765927160477	0.7206270851363153	0.6366079912634525
Si	13.296064507264836	5.372011695127176	2.7901193881572	14	-0.8059605280488381	0.4202805889473655	-0.25897509759297926
Si	14.780011522561956	6.6647940949188715	3.9848494851641516	14	0.48630014580546777	-0.8576978519640497	0.9337732588397832
Si	10.652373574592112	8.379441896201243	2.930259106290384	14	-0.04677200532094176	0.3521468121845054	0.5711862163922846
Si	12.103771905355282	9.640569359661372	4.450508548571448	14	0.5560789157521586	-0.7333262885335908	-1.3202083315737834
Si	10.840320696568966	5.5594388181499195	5.671596092564951	14	-1.634146976037696	-0.45121458549619503	-0.7224168315496705
Si	12.220739170095852	6.8126850474617875	6.865854940519739	14	0.7226652003235968	0.6476573163767889	1.415370595904168
Si	13.650346294688267	8.053711301352024	5.469397749251964	14	-1.3470175038574994	0.2579883073711065	-0.21300861956883993
Si	14.717465398362672	9.451257240429973	6.8923911371467685	14	1.2186157328377083	0.7644580030815399	-0.44946391988370615
Si	13.649290046812727	5.436686565044855	8.346698212059504	14	0.19397241288899555	0.5400280194595382	-1.686592896579141
Si	15.126964574725871	6.553335569098428	9.726629186566907	14	-0.5297806220955559	1.2121360332098712	-1.4178360287956582
Si	10.527313826128175	8.080442497586844	8.147473612765344	14	1.8832868244495131	-0.06658545713906688	-0.7896826031564486
Si	12.111799389209388	9.118636659438767	9.506084630154156	14	0.4876995984312243	1.1519431152282884	0.7676657140789566
Si	10.89462808733904	5.424515339525171	10.781382065113837	14	-0.8036578461241134	-0.4424725702971596	-0.0377335416784932
Si	12.22046292065148	6.796126330766784	12.131445599694432	14	0.020369839009405172	-0.26408748341156174	-0.4645154275383851
Si	13.707838679052276	8.001386406594504	10.834681957910314	14	0.3477368523393874	0.724976366895878	0.31371187297467573
Si	15.157937012430168	9.541688308543511	12.11186438907865	14	-0.6387687481745049	-0.08981025149596449	-0.6374106903444027
Si	13.502812841426303	5.4851764675158	13.510369076228242	14	0.23102615432084161	-1.9929431808011688	-0.03855372427562045
Si	14.72299038725011	6.692272789650228	14.985914858422992	14	1.5621935652112242	0.4333762567850077	-0.1666436202200776
Si	10.85928440842674	8.218762219380634	13.259567080673099	14	-1.2200925757336014	0.3396005895537788	1.2238147649055797
Si	12.10289440712022	9.470497201732115	14.850406380974869	14	0.8906455381996196	0.09685148052572203	-0.4826453195928772
Si	10.878443119892305	10.872820631200968	0.033101183422692	14	-1.5844210278144364	-1.3212030922221487	-0.9663548196777636
Si	12.250964109303611	12.125465611722143	1.20883506863724	14	0.6536634184046548	-0.15766146378414028	1.6392557623088306
Si	13.547191502166301	13.471840403722009	-0.046507406458392	14	2.39363246143007	-0.14990315348059344	0.06679808754904314
Si	15.126070826523492	14.955608669378652	1.1257977356524798	14	-1.9770578636911655	0.9562187511741441	-0.3120856488596821
Si	13.41007427795389	10.858065660878038	2.866364234803872	14	0.7778195232092853	-0.4446261281133156	-0.8849525967997476
Si	14.875480080543456	12.341411427384466	4.017349419796152	14	0.1796955792672773	-0.7299977355861271	0.04531033194643758
Si	11.015950343320295	13.527090292596407	2.5555673599180557	14	-0.37821704879921086	1.2760729947586535	-0.7176502593966481
Si	12.17780675644698	14.763631555507429	4.13326043666118	14	-0.001757607596853227	1.6792444204636254	-0.8722163694858621
Si	10.862908151138207	11.100693922873235	5.728584727942163	14	-0.2937212719999925	-0.5083586867891462	-0.8678611741840632
Si	12.122410617866736	12.2610065891049	7.164350590147344	14	0.6056361994664167	0.9199394266647265	-0.5623673251441768
Si	13.456224185131331	13.505380336262231	5.53993885737072	14	0.2643451081646406	-0.7738062849150662	0.2483636317156641
Si	14.788965254553071	14.99148859721238	6.648446627798975	14	0.5528357235013237	-0.044646986773839374	0.45808226491684256
Si	13.37469809910696	10.7436658909734	8.318585768602823	14	-0.2589822966878757	-1.0436826119549412	-0.3982166486425147
Si	14.6920016995785	12.164433033345912	9.440109762851195	14	2.273496022682959	1.0779742149413523	1.4023438336891059
Si	10.618736142247991	13.514967816978672	8.409699335343635	14	0.4053884898225358	0.46030421413451456	-0.34630834622351314
Si	12.056841999746675	14.796797738799384	9.828256482161173	14	0.4350783285069457	0.5628895166346988	-1.7487532243517008
Si	11.259212354040816	10.8188219898099	11.049067776710304	14	-0.07736558752538376	-0.939500395940413	-0.9622695904345805
Si	12.400480058578127	12.30902524252368	12.34534391947494	14	0.09192395717965823	0.4133571165412707	0.40387616567322465
Si	13.663687517854704	13.760813572502435	11.0422590404049	14	0.9217903653847012	-1.1400538100068598	-0.13880780558202643
Si	15.252836821555606	15.118173342407916	12.273746563480644	14	-2.385618069036636	-1.3895415289684925	1.8959708583254
Si	13.74877234672128	10.798038281612735	13.522052802728448	14	-0.262720169602307	0.13987764250574003	0.45524145064861093
Si	15.059299710822048	12.411075037268159	14.696161691211396	14	-0.1991336497086608	-1.5296672831376268	1.3167242267544508
Si	10.95134047327188	13.665101265011195	13.678864987327849	14	-1.694823518929999	-0.5065941372079285	-2.5375120293666202
Si	12.263947833189095	14.774275284099406	14.982096116103731	14	0.27036740815602345	3.1548326169604497	0.9886252197398224
H	14.2701915479767	14.007449076437757	2.100885149432718	1	-0.10573876317534588	-0.05676023526865302	0.044777084703038865
H	8.064186030283917	5.407928997885731	7.935778788552885	1	-13.920119755153568	3.401846418383036	-9.867609626942896
H	12.586987433450785	3.79526111648838	0.86421388678317	1	-0.05874667123899943	-0.12061492144719065	-0.10396521472550771
H	8.33579773398393	5.649895886211166	8.437382779663174	1	4.7171812198224785	7.298484572112393	11.913330657982337
H	0.5122850946270948	0.5230864479020401	0.2148359428946412	1	1.3377034177247311	0.43463584128134825	1.4173107519787518
H	8.528055972289721	5.0003489426625505	7.885278765124951	1	9.895111454999858	-10.602451324952181	-3.0720903339895727
H	6.074531907129219	3.737399857866299	9.956866848483653	1	-0.9899516529744868	-0.9645910414281422	0.804135814603129
H	15.909826250134952	0.3895750914370524	13.94578207547027	1	-0.004229725362175605	-0.26533626926555764	-0.2958162086148491
