229
config_type=divacancy dft_energy=-23116.10533552064 dft_virial="-21.59834932037116 -15.839329494088057 -7.796141466663132 -15.839329494088059 -28.390104769510934 -29.074545241129677 -7.796141466663132 -29.074545241129677 -5.414774618664212" pbc="T T T" Lattice="16.3999889955 0.0 0.0 0.0 16.3999889955 0.0 0.0 0.0 16.3999889955" Properties=species:S:1:pos:R:3:Z:I:1:dft_force:R:3
Si	1.0609972880638725	1.0580452900446824	0.832627441301535	14	0.584300653298764	-0.0805316466166141	2.438833264289869
Si	2.622981439962279	2.47213434118167	0.010561592913102	14	0.38589668327996113	1.8880798789873332	-0.22256233271744616
Si	4.134060026018653	3.987509724354865	1.302519926000601	14	-1.4108421081037914	0.21642484720772065	0.19569582478509082
Si	2.7080317828929417	0.11660392175800499	2.5145283127350373	14	-0.6910262066959827	-0.4988846779054645	-0.2205234461985687
Si	3.933848960361589	1.2684571488569474	4.170615601489622	14	0.6648909211166774	-0.37578504027688275	-0.8149915354858582
Si	-0.187845473954457	2.5171523109743177	2.517267110897286	14	1.7436639784809997	-0.36847461652010577	0.4805213294879029
Si	1.3860450699546825	3.8853705928908915	3.908166577594636	14	-0.1964614999494309	0.33742646289506156	-0.6975010212237115
Si	0.171576684870921	-0.116210322022113	5.360139603311229	14	-0.754372328242195	0.8704150530985663	0.2540185207567978
Si	1.2087447889243321	1.321379913345426	7.01904769017304	14	0.7584827543175157	-0.1908909431627981	-0.8043998671195082
Si	2.610714248193645	2.576028271468162	5.467329931385817	14	-0.466980346208811	0.6643466181204021	0.4197478559250308
Si	3.9851317259505175	4.141407221088637	6.613656362193276	14	0.22426723265523635	-1.5640889840532375	0.020978162528152208
Si	2.6569950171389456	0.13756310769425398	8.557678257741854	14	0.4077593060382443	0.05798202451678739	-1.8489905934735258
Si	4.066295271489247	1.483805404356858	9.873432974861824	14	-0.2873886395964677	0.277722826255903	-2.684774914793954
Si	-0.158719093498449	2.709179782122627	8.275664046975237	14	-0.9935671412756789	0.14377595239214855	-0.12312277757646306
Si	1.1552316248320156	4.057160477618754	9.606391954048098	14	1.2981017109206183	0.12742526521919886	-1.3384536662571505
Si	-0.015317589721797	0.047707567987909504	11.146678920505456	14	0.9517550552278349	0.9936658717199727	-0.8040098304424417
Si	1.3854054703838579	1.4400010337498774	12.643341916234787	14	0.2983634026555198	-1.7243542061950918	-1.9389373706619903
Si	2.5354874986712863	2.6503530215957682	10.96896863975022	14	-0.9406638210977802	0.8781669356388128	0.9256894466027057
Si	3.951396948586774	3.941064955519609	12.251513379154302	14	0.4401439202087014	0.8934267028244236	0.3677109982400218
Si	2.6494346222120204	-0.097514334567243	13.944648243049722	14	-0.09667201737437568	-0.4307634995586732	-0.27074124686957296
Si	4.096143251461057	1.233738372153474	15.195803403516416	14	1.256111447274088	-0.07632403276019177	-0.26466289678221083
Si	-0.015399589666774498	2.8497440878030575	13.565906897187643	14	-1.664422512514036	0.14491700893323026	0.7795025687518542
Si	1.32544711061631	3.9961525185554936	15.014911524896052	14	0.8226372313763824	0.7480391816176063	0.1492786319983295
Si	-0.039999573160024504	5.410110369780517	-0.0725699513050875	14	1.0080650899549302	1.151780364261523	-0.302481799157333
Si	1.5447313634751403	7.084795246055999	1.0734940796784436	14	-2.879225810383029	-1.0592128594202317	0.8861659014003254
Si	2.9140648446434088	8.448569130954793	-0.0214675855951095	14	0.46322833221511894	0.6705180422203536	-1.3016958590476533
Si	4.330367894294788	9.673418709072706	1.4930713981393153	14	-0.3538817940545413	0.15218758055754503	-0.9130928303077042
Si	2.546098291551375	5.573454260175698	2.449666356257835	14	1.138844619174794	-1.397710444791667	0.8107836645189038
Si	3.875514199504596	6.8650353935163	3.9186625705517564	14	1.0147700184088122	-0.33250870974921437	0.1862153881381088
Si	-0.0185483875539105	8.367766385173963	2.6209478413268372	14	0.9720598452726404	-2.0614001455027715	0.3219761768052277
Si	1.4111370531177974	9.529640005549158	4.022982900552131	14	0.4275041093443214	0.7523704656399277	0.7319774866826412
Si	-0.20444226281790298	5.085374187680622	5.209817304178476	14	-6.286084341477161	-12.99934523348086	-4.81570546146949
Si	1.220191981243191	6.896424972453687	6.6483587389077545	14	-0.45919118264142245	-0.07645798734737147	2.314306406098073
Si	2.756903750099532	8.10407096211532	5.582195454310299	14	0.17095562095249792	1.3778918507629017	-1.8883799269781945
Si	4.212189573593215	9.48659003443597	6.82585581980605	14	0.4724848255887161	-0.011882106126532331	-0.04961256247864136
Si	2.5743390726016258	5.329635623779598	7.8575955275019504	14	-1.3930534017252827	0.41427217292471136	1.6959787165503413
Si	3.997202117851206	6.412756496998401	9.413003283813163	14	-0.3476651185009553	1.3072440472180007	0.9393666984637654
Si	-0.2837690095891365	8.27331884854888	8.154451728309496	14	0.6564584669981878	-0.8601296033758459	-1.8738485539297816
Si	1.2713927468871418	9.38425410310405	9.291676165224453	14	1.891409717487457	1.3956998404313112	0.700683792499523
Si	-0.0981539341380675	5.688090183254243	10.583208098598067	14	0.6840142882668748	-0.8183637972237644	3.087291222863352
Si	1.4768518090227658	6.973849320501442	12.254350577250523	14	-0.6607033618817523	-1.4082584043675745	-0.41709396101357393
Si	2.7293845685650826	8.283634441627049	10.827584334620013	14	0.052928002788972306	-1.190201933723688	-1.0619809114079033
Si	4.003909713350366	9.645538727780355	12.205462210054938	14	1.7105509701733448	-0.9911832124228377	-0.8838295379959068
Si	2.718593375806044	5.424230760305642	13.645315643903855	14	0.009964061557701867	0.3536467950282797	0.28101126996037246
Si	4.174764798705484	6.800583436763985	15.14247063930305	14	-1.0627031348923328	-0.2636910189711949	-0.4990248031454126
Si	0.192339070939224	8.288308438490766	13.66279803217306	14	-0.3361331969190271	-0.6338134568909836	-0.22781844332342488
Si	1.4626658185416586	9.843584994890014	14.76049849560886	14	0.6232626690992238	-0.09904823291125654	1.55652967730147
Si	0.0041655972048569995	10.953847849896368	-0.025190383097088	14	0.788994575372777	0.8299337711644307	-0.641078372083594
Si	1.3856350702297948	12.396800881665436	1.3928674653768105	14	-1.4275620060007144	-0.16204982634456905	-0.4450092228060177
Si	2.285699266280826	13.81418633059052	-0.221039051681349	14	1.7474319333276767	-1.0162854278845075	0.5267523742494855
Si	3.7528586818072514	14.807976463750833	1.2857755372361954	14	1.388539569225231	1.2535822509706582	-0.1816887001114561
Si	2.8391168949339733	11.13246013004636	2.737322163238905	14	-0.11866011007228205	-1.1904947826196528	0.03803410389041852
Si	4.127352430519494	12.336694921996928	4.266358737245351	14	-0.1756843978573143	-0.942536614212976	0.5003489223852888
Si	-0.080130346232013	13.823189924549048	2.7204137745845443	14	0.7736376204060645	-1.1302350158997463	0.11058478248276096
Si	1.522968578078112	15.03864230897254	3.9073793781228523	14	-0.12747617310453782	-0.4183340051094814	0.814691487494997
Si	0.0079867946408085	10.962818643876906	5.428429157488491	14	-0.7699362571871793	-0.8760041218435042	-1.0187940553453758
Si	1.347619895738226	12.143978651310809	6.763076661931276	14	0.3123712986607506	0.2353615521116753	1.468863470531977
Si	2.63547823157685	13.494337345211282	5.532864287411835	14	0.38651092034094453	2.635697913553499	-0.5242239492776518
Si	3.8879289911741894	15.137567042593396	6.9433617409588075	14	0.03361925894519225	0.4684651595311966	-0.9534663829289254
Si	2.8765744697996953	10.916505074953616	8.07487898170333	14	-0.7260809137414135	0.1977966749421838	1.2872310776270321
Si	4.171911200620267	12.583285156533266	9.661282717216038	14	-0.6065394287653848	-2.0965070459862014	-0.3287196718389121
Si	0.092266338088683	13.58196248641424	8.156714926790874	14	-0.749372556836635	0.1858770306779773	0.201324745662491
Si	1.2374283696774615	15.130613447259304	9.58120157095101	14	-0.22359206039816545	-0.6069019546155257	0.7632884072714045
Si	0.1401051059885565	10.66312524497314	10.907649080896046	14	-0.3010877458527487	0.9901642833844632	-1.196853640297443
Si	1.4579918216779408	12.324099730448385	11.869524835471115	14	-1.3671243187926534	-2.377715005503565	2.6167730357340173
Si	2.650828621276638	13.868929493857497	11.014281809344785	14	1.6729413557712824	1.7121329712768318	-1.6498787981600862
Si	4.116692437672419	15.176746616303646	12.395095282809905	14	-0.4905051885565699	-0.6513951892912202	-0.2768262818307674
Si	2.9161968432128234	11.181020497462034	13.416978597119508	14	-1.652097662051374	0.11065265966321287	0.2970140865835061
Si	3.9376865577865363	12.476144028425665	15.000577934513984	14	0.3671093595951071	0.04374375747487136	0.1391844725114281
Si	-0.11078192566460249	13.245828311962471	13.439331782120375	14	-0.5691725267055447	0.7429923589846876	-1.2047646742570066
Si	0.019597986849622502	15.796961400135466	15.866710553333325	14	0.892252993245776	-0.2942900004968092	0.17249699859192671
Si	5.5273866910873375	-0.3203737850270925	0.0612867588761835	14	-0.8855840602663759	-0.022532138583649705	-0.4239181887543109
Si	6.6225287562398405	1.2959107304354145	1.4008542600176188	14	0.9943212464660784	-0.22410885256751523	-0.7924051465799534
Si	8.076486180624888	2.6333626329964304	-0.1310523120630405	14	-1.1788697870251352	-0.11906865870765358	0.6327220226825807
Si	9.361162918598385	4.012011307914142	1.197723996319356	14	0.6536870725736001	-0.2209116831019111	1.53017173400144
Si	8.096034967507526	0.20108026507382548	2.881904466223233	14	1.2160286866645753	-0.104074229591082	-0.6983841959011824
Si	9.791400229906333	1.5517177587872235	4.1915911874148675	14	-1.505742376802053	-0.752255280121585	0.6627612745799988
Si	5.288209251576966	2.5626458804478345	2.764513344993444	14	0.4293041401789571	1.2872799286281151	0.5773638111450043
Si	6.783429048274692	4.081891661023968	4.0926500538050155	14	0.10931825600205602	-1.5417085406834765	-0.5448835518566377
Si	5.491634715077147	0.06555075601501349	5.470019529581079	14	-1.4581859272479338	-1.6911039008633406	-0.5415136041135197
Si	6.778574651532023	1.439853433848918	6.705939100270954	14	-0.05270868750516368	0.056852795060178346	1.4019856787180092
Si	8.23246647596109	2.8840856647596342	5.6171766308377	14	0.03383934556059693	-0.5515496566201857	-1.5881043932960803
Si	9.68926109844236	4.185047591805663	6.7782958517191	14	1.3211789238321394	0.12576690228770335	0.34543674151998294
Si	7.998094233226399	-0.1530938972729925	8.117715752959576	14	1.744068413347859	1.0757201269071786	-0.8620875000771386
Si	9.400490092209594	1.3398299009653636	9.339580533080307	14	0.3574679717550838	0.1401995448918226	0.7545373932037485
Si	5.1883333185943705	2.7216437737592067	8.101069764129145	14	1.276654835892603	-0.09142773385286965	0.3040067217227128
Si	6.861148596124366	3.9296997631457278	9.421449278145843	14	0.21650326591998517	0.4377643622349044	-0.4363937059887334
Si	5.406043172509634	-8.19999449775e-05	10.787699561382958	14	0.05063611950659231	-1.0223979736726274	1.2090861880791115
Si	6.627137153147577	1.2514667602576095	12.2139738043436	14	1.3447438754228926	1.4177378125724285	0.7673569243300068
Si	8.242027669545466	2.7045385852369006	10.934659862771634	14	-1.3168849208369602	-1.2823171811391654	-1.0965813041432637
Si	9.631188737409294	4.057832877167569	12.071523499928688	14	-0.08768703272258621	0.2345621954676413	1.671609780325978
Si	8.169014918537501	-0.014333590382067	13.468179362763461	14	-0.5037813479876866	0.1909349090637726	1.839734871431525
Si	9.556027587842918	1.48616700277221	14.998724735757492	14	0.5764662382777407	-2.0885381621569343	-0.5838221705986844
Si	5.355547606392489	2.7520001533898775	13.69843520826028	14	-1.4875934585681918	-2.640383752999469	-1.1843575542204594
Si	6.7761638531496855	3.941310955354542	14.778702483393864	14	1.8454614943110905	2.172202700606149	1.0319910247326318
Si	5.510871902168869	5.277336058872949	-0.0975963345122205	14	0.8977484737570606	0.6006104598971234	0.5073549272721604
Si	7.054094466656424	6.72250308915641	1.3746962775697964	14	-1.4275638057744384	0.6905127569635491	-0.7393611869410424
Si	8.402763961690363	8.18079011063627	-0.128805513570657	14	-0.9991089016827261	0.3244791478343919	2.0605007728617837
Si	9.73306546904934	9.459349652714446	1.456483022690355	14	-0.6167829694713867	0.46837079996594716	-0.5039106745852899
Si	8.224643681210237	5.329750423702568	2.777895736013772	14	0.09108217729784175	0.3598349313128122	-0.15576167406308286
Si	9.478488439872194	6.80074743665394	4.155626011547736	14	2.4035116765122067	-2.542141304495547	-2.363863175591267
Si	5.623277426744026	8.186038107114829	2.825488504078713	14	0.27833217821677814	-0.278034701331237	-0.2545150011941184
Si	7.095848838638966	9.576330774219345	4.232853559727546	14	-0.4415690838876595	0.26393373131341685	-1.8078503372458365
Si	5.2808128565399945	5.360664402959085	5.19471291431362	14	-0.09066385846225365	1.2636864377683081	-0.2768900452427071
Si	6.657493532778247	6.797861038590732	6.424170889339269	14	0.9226434581299263	-0.06237115840881217	2.0426588446031477
Si	8.436547939021091	8.11609215404902	5.423787960602764	14	-2.8490279212873575	1.1642250282321038	1.5077393543042121
Si	9.93726173203231	9.117393482169273	6.800862236576908	14	-0.5288550241803026	1.351873036254599	1.351283224694157
Si	8.234746074431463	5.510281502565031	8.027811013286245	14	-0.6245880738917602	0.17727385516622984	-0.1658920861349983
Si	7.935036275538701	8.238304872043487	10.673703237875237	14	0.3261218270234345	-1.8483041083530465	-0.47665053042842004
Si	5.371455595718124	7.888033907077599	8.248882864945585	14	0.24922032400833746	0.35425614698915486	-1.9558999809011353
Si	6.773064255229536	9.491592031079598	9.128397874785255	14	-0.15836877485771303	0.09535329745567174	0.9623238407568356
Si	5.447436744734275	5.135295754182924	10.815103942994439	14	-0.37214564069621314	0.6441701262310721	0.31560857736934905
Si	6.671482723391408	6.688473111990747	12.212251805499076	14	-0.7095862446705355	1.0936772406841566	-1.99509108218562
Si	9.461317651393905	9.129627873959917	12.010581140821412	14	0.7982348707828573	2.8157303076177156	1.5935224835372286
Si	8.129244945223412	5.445878745779702	13.293995079642256	14	1.211091136007763	-1.1691499804728473	2.5608345257256837
Si	9.511534417698126	6.661642729994109	15.059831094754726	14	0.2929039176187174	-1.3370153899410595	-1.4873350624835169
Si	5.252375275621799	8.007557026876801	13.510638934272809	14	0.7470832446595751	1.282437251757616	0.4145449671991791
Si	7.041745274942812	9.335874135567325	14.780637682095334	14	3.9701902778438964	-5.602321507310597	-4.382500183188271
Si	5.4625903345661175	11.04936138580616	-0.1934050702239315	14	-2.4623581066376277	1.4109439238744692	2.9491012538897574
Si	6.712745095704087	12.247560981806386	1.398787861404186	14	0.4743288223243262	0.11106197963018044	-0.19710684738478806
Si	8.091508570544768	13.564808097924947	0.035669976065212494	14	0.8169604879400276	-0.5604580223334348	-0.39844264880015573
Si	9.247379794947607	15.030114314694881	1.4222562456567462	14	1.4012631981230477	0.7404893879555233	-0.08098956047413247
Si	8.337377205565303	11.05562618160244	2.6583726162145678	14	0.06272031451128827	-1.169627177620267	0.6603740032902413
Si	9.903969754371445	12.343910917154949	3.957251744658168	14	-0.9845361338386589	-0.35214989751088954	1.0397200244355291
Si	5.150646143882712	13.505112137981325	2.6989133890114436	14	-1.2277860941830805	-1.511087190541577	-3.000986159250345
Si	6.903050568007869	15.057321896438415	4.069755669167297	14	3.464859838900822	2.7622279199002224	3.555680277677072
Si	5.615454631993172	10.943860256598109	5.374259993836355	14	0.45775573454118373	-0.5180021315134256	1.5687236585033364
Si	7.221669554212443	12.244428583908247	6.791153443091572	14	-2.207896327323637	0.32388136584745747	-0.41661033610285403
Si	8.310202423799758	13.688693614796954	5.307200438833755	14	1.0026914798358204	-0.49734124338177965	-0.007559049641235351
Si	9.69439429499795	15.001824333677641	6.862788595023916	14	-1.3346183484510854	-0.5210152098381071	0.13000176986051926
Si	8.419180350674857	10.73189039883127	8.092836969653403	14	0.33626586595354674	-0.6872073439639668	-0.371500550371388
Si	9.558684386060188	12.069899901018134	9.599503958669986	14	1.1250316129528304	0.28745497411372756	-0.22143850258200942
Si	5.272399662185304	13.64518444399189	7.971608250998667	14	2.158472998196558	-0.011206933869461446	0.5584376477728624
Si	6.683979515005979	15.059699894842762	9.455561255256486	14	-0.35743274761219784	-2.1132110030301394	0.04051059253478515
Si	5.566467864863615	10.768609974192195	10.691513625924351	14	-1.3032405791239983	0.8500133323831913	0.43847013064528506
Si	6.658182332316058	12.111309873231772	12.265141770009562	14	0.6021639217315568	0.5949565992981176	-1.0685984222809004
Si	8.077191380151696	13.499257341909933	10.769151173829048	14	0.03378458101727778	1.0507917181651507	0.5874818819113832
Si	9.448378060076456	14.995936737628258	12.217909801702522	14	0.643180507793347	-1.1060550559164135	-0.6059552736366471
Si	8.21427888816508	10.918538673589058	13.396888610600023	14	1.2937614280296763	-0.8457720370470749	1.1526866788868753
Si	9.65988871815142	12.118033868719927	15.106177463656008	14	-1.5114111498119154	1.1119670554895622	-1.468359276778696
Si	5.439417150115476	13.58261848597406	13.587341682804764	14	-0.8468930389666596	0.11485101754048266	-0.3727264533880346
Si	6.854769000405117	14.742638907592761	14.89578200483274	14	0.6537341238009589	2.1418634007178694	0.3822395430725825
Si	10.913093877242552	-0.155931095369214	0.019942386618528	14	-0.5232477005875917	0.8254207099959748	-0.016614996799860917
Si	12.284149357255346	1.378976674697622	1.4216330460749174	14	-0.7907925493231565	-0.015007284643172324	-0.7628124956766451
Si	13.606693669819453	2.578668669696438	-0.16285189072531497	14	0.7909437303159813	-0.48897589511214584	0.24626818087974342
Si	15.103274665603806	3.888863790546933	1.1404716347360655	14	-1.3705626579372874	1.2571828268609935	0.058166886989306034
Si	13.665110430621423	0.028568780830161	2.6876465965715353	14	-0.041724925577491086	0.017979225282731486	0.34018448757198444
Si	14.96280875985735	1.330203107425005	4.085827658382888	14	1.29684881129811	-0.7670867011608592	0.1517738897115332
Si	10.925689068791096	2.940485226915159	2.7287449689942584	14	-0.16772091334921962	-1.0350946059645827	-1.0111277906122904
Si	12.466845234665216	3.9971857178622106	4.051879681162203	14	0.3105782098104793	1.1204334481982776	-0.2056431741582117
Si	11.031829797569971	0.0721107516132135	5.726400557547731	14	-0.2398584153166143	0.4729908191157212	-1.5721457996844534
Si	12.49894001312941	1.29527113086459	7.029281283306233	14	-1.1815501643213897	0.4611927881331577	-0.04408931402989926
Si	13.678181221850837	2.5394562960081974	5.548099877188655	14	-0.18241272336960976	1.1728071206802262	-0.650506872403109
Si	14.787460077517462	4.100030048852991	6.85960699715879	14	1.2475265266101134	-0.16810220826819758	0.6925812111936082
Si	13.684626417526069	-0.17418428312120549	8.227021679614584	14	1.0806813317329362	-0.6949237452507951	1.4034789766879514
Si	14.965203158250691	1.3565578897407735	9.768833845048524	14	0.6846017858325286	-1.269012996660059	-1.7698722834513971
Si	11.070090971896473	2.7027181864584	8.294589634276043	14	-1.071962456481782	0.5189585826925207	-0.7096088703973529
Si	12.183207424988042	4.276395530510598	9.644931928187523	14	1.418824104570191	-1.6068981447442348	-1.1017474260630375
Si	10.721378005885155	0.1012043320912305	10.886296295223904	14	-0.15642604767780913	-1.6321530838619214	-1.0494801973413435
Si	12.18099342647365	1.1657768177561219	12.247478981861407	14	1.0081869603471052	1.4077159011450233	1.0501954788414083
Si	13.583290885522874	2.6832513995207417	10.866550708473323	14	-1.560817252533349	0.7963708194257498	1.104532961566886
Si	14.875560818401288	4.135978824731127	12.152211445786548	14	0.9557513242269411	0.6275656709630237	0.1782855851097081
Si	13.601806473098794	-0.2372258408199075	13.677344822412067	14	0.9287896853977402	0.7800859525489959	-0.7370916722749478
Si	15.24516737039287	1.1426692332614625	14.983784345782592	14	-2.177360594988898	1.2760891927221703	-1.211231004137179
Si	11.005409415298221	2.7933281256585376	13.666881629432938	14	-1.2845658698521667	-1.305652790135361	-1.9386599483979463
Si	12.293415351037805	4.012962507275882	14.946802370597739	14	1.142557295257088	1.388365505395057	0.9300814087105826
Si	10.887313094541625	5.2212644964973345	0.035341976285302494	14	0.3740976238552696	1.2339459483090913	-0.9958353703891136
Si	12.303255344435103	6.7721786558237795	1.1726976131122229	14	-0.04233684864368633	-0.3002125416017703	0.7843125925847874
Si	13.668193628552578	8.224528881287268	-0.152060697966276	14	-0.0869630094644325	0.44116362057867214	0.9504800440995734
Si	15.115197457603534	9.680224704505838	1.3433722985883914	14	-2.201413285258883	-0.014049805021949177	-0.5058351469174208
Si	13.77259595849793	5.4291179570263015	2.4834995335555514	14	-0.5277702748457321	-0.7523864064929127	0.2958768867004046
Si	15.01750272315734	6.764093461248997	3.922450968009717	14	0.43452734063683796	0.8587041825863557	-0.2658872571356654
Si	11.006081814847036	8.016101421143459	2.8300969009864483	14	0.011034155591947495	0.25812329040041426	-0.8774274857487381
Si	12.3524717114106	9.415578082085455	4.142260020516403	14	-1.1368376143618864	2.088500109798196	-0.6762027560832009
Si	11.238633658803225	5.625967024939288	5.289882050454507	14	-2.2938221529019214	-2.173681086165234	-0.5778703188930736
Si	12.14988264734919	6.966879325178355	6.741281076556256	14	1.3465143385463465	1.4812986214128734	0.4309576180103444
Si	13.767347962019372	8.259231258001744	5.353268007922114	14	0.5393412772285265	-1.2434603235462993	1.0387633161459022
Si	14.899718002191658	9.705021487867034	6.789333044313072	14	0.34324795956094084	0.008194369765843944	0.05625218485739176
Si	13.432148586940347	5.58714825098694	8.076240180789958	14	0.4954435105449783	-0.34564371549825484	1.1283064297991032
Si	14.841776841070558	6.965977325783602	9.491739630980558	14	-0.19596270551732217	-1.4515236791423662	-2.0287915880589296
Si	9.730343070876087	6.953496934158027	9.271258178925054	14	-2.2517406150165256	-0.8854249088470587	1.369617005400537
Si	11.955936377488406	9.22979900674443	9.523752409499775	14	1.1203054071533345	-0.752619862855982	-1.6034736895683297
Si	10.853988316902768	5.539211083153093	10.868863106921687	14	-0.5073019625025654	1.0753694281415105	-0.4617291207029406
Si	12.220041800271938	6.8158190265408045	12.185569023403396	14	0.923368252719676	-0.10360423153855892	1.2837855393875017
Si	13.685528416920821	8.155255327770275	10.888001894079437	14	-2.042573226795987	0.37355923440123057	0.8748638366340186
Si	15.151556233206557	9.322229344723068	12.184880223865585	14	-0.3372187175851936	1.5774201651382054	1.1676895926510034
Si	13.682576418901633	5.528698690206978	13.69315441180373	14	-0.17342773871782033	0.18008047373370348	-0.5855319556365829
Si	15.156148230125297	7.0091584968087535	14.979553148621752	14	-0.30088771385884117	-1.5737866790997719	-0.07036960994926085
Si	10.749553186979425	8.005064228549486	13.59744407602599	14	0.3067215518302572	-0.15881974673086696	-0.1586513393323973
Si	12.115459070447633	9.378546906933616	14.905605598241044	14	1.3887452576508426	1.0718974075171823	-0.5145619925950675
Si	10.99410982288032	10.82366473725009	-0.0382611743265015	14	0.37821524902548675	-0.5175280196923903	0.7987064114985722
Si	12.275047363362845	12.361458905380132	1.2709499471842634	14	0.020610237356839017	-1.2557887735564093	0.7489128432053925
Si	13.64219964599471	13.643396845191381	0.0477731679438915	14	1.6817641036773705	-0.33028470364728624	0.18352446931004182
Si	15.058273095800153	15.107751862599578	1.311507119970135	14	-0.6712415512574432	-0.5384195359712535	-0.5082195899913261
Si	13.631539653147636	11.019398605911382	2.786735330082346	14	-0.3358868850293569	-0.7738736478744541	-0.8041324721662128
Si	15.005612731135603	12.350274112885202	4.06836167010268	14	0.4007664137885056	0.3219301540199971	0.3037807215650718
Si	11.035290195248022	13.83553911626266	2.5581194834850765	14	-0.7683316303568749	0.33828006986135073	0.6680358971442826
Si	12.270192966620177	15.197984602052816	4.116954837496347	14	0.26644364432694545	-1.0333989620059452	0.17626135389115552
Si	10.954881049203086	10.91707907456846	5.802726106332787	14	0.4586378807765265	-0.2754080601361737	-2.9370841647339168
Si	12.530985591626617	12.199017014379706	6.830792216493696	14	-0.08932276992726441	-0.4590711120229716	1.9008513304441046
Si	13.661404033108441	13.654056838038457	5.48842031723403	14	0.035478682312723345	0.6081756801911271	-1.1111823541458528
Si	15.150326234031894	14.972041953661815	6.700264704078511	14	-0.26727051179790506	0.002547708261734731	1.0454440762097748
Si	13.692695212111856	10.697434021951725	8.58477103956242	14	-0.5224218615587601	0.877341096609981	-1.8746731074059528
Si	15.10078186727649	12.265600969701437	9.682619102899181	14	0.6704496508188376	-1.001260659725158	-0.6046823193926417
Si	11.023006603490392	13.499060542041986	8.137280939831207	14	-0.7008061771127619	-0.08965984183473583	0.7749733096198814
Si	12.155278243728707	14.892830006813549	9.677223506519663	14	0.6443069090341038	0.5125914974777059	-0.43844750491846773
Si	11.144645321870016	10.741090792657747	10.965426242127192	14	-2.227921895330674	0.9292859087245289	0.7778043536878966
Si	12.336416122184005	12.330922125870513	12.305534942905478	14	0.851381931745106	-2.2254857730398334	-0.07388276825871118
Si	13.718377594878808	13.536682116797664	10.979431832729349	14	-0.6509321332230614	1.1509969484704738	-0.9962104946553233
Si	15.08685827661931	14.958987562421397	12.121559866353959	14	-0.9979516471781276	-1.0279258501109458	2.3950432269192348
Si	13.769299560709836	10.821631138614647	13.610252467431478	14	-1.5797177048522895	-1.0455878009971709	-0.4775776710068653
Si	14.869984822142818	12.231931792293675	15.001381533974763	14	1.1297909860109567	-0.1584219967378401	0.6947334834571042
Si	10.973855836470879	13.547948909237572	13.552672106068275	14	-1.494509474768858	1.0939821737751263	1.5979851510414096
Si	12.374611696554526	14.808107663662797	15.095845470588845	14	-1.9481918071513313	1.29184775433989	-1.120368399233678
H	10.614179477816071	7.849749772766503	8.447299771806541	1	0.08390416546505233	-0.024770028654306595	-0.19734570306902985
H	5.962148759359143	14.474187487725422	3.400439318282952	1	-3.8222326797590602	-1.5918733765848856	-2.8068358258731956
H	13.182184874667634	5.995450577013406	5.915084070939857	1	-0.08461121942809306	0.23688827445077923	0.06729611064955583
H	1.3405695404690605	14.70484513295263	-1.0595491690355698	1	0.7314810062453205	-0.2077208843674234	0.43520456977816496
H	7.720109499755976	15.836055693902937	4.932734570102805	1	2.119643137209554	1.8072916360597684	2.0612515356152668
H	7.890792385226642	8.436318339175156	13.868139014387914	1	0.5842595156136415	-0.7790649666263652	-0.7251635433631847
H	8.980791413830158	10.109761736283678	5.82206825335408	1	0.41790283074729245	0.012144358869187436	0.07505956316374295
H	0.24821219344799295	6.06304149165946	5.554213793086177	1	6.511106193543862	13.447456494855635	4.881042904086157
H	12.835303787427115	10.066157445542443	10.449615428239625	1	0.8335780558452087	0.8869207779223208	1.1330706879573376
H	6.297102134603235	10.244295766010463	-1.0867813507625976	1	-3.2218608184356463	4.2170991781694225	1.9946385676492742
H	3.51127372391234	0.864413899972613	13.107099165050638	1	0.48792302748354527	0.552250282819926	-0.36009024207110285
H	-0.78359147420499	16.786910655873033	16.69536099730345	1	-1.5987307715842527	1.3192534230578805	0.8121345232541097
H	-1.0965377042160205	4.2316153605583855	4.36556883067473	1	-0.9595321346002187	-0.8559597847676299	-1.0182245555169631
H	0.7551276533044001	14.075152795480314	14.289872931401694	1	0.27736852794278666	0.15198292057406124	-0.19728116832549414
H	9.398978013224209	15.059699894842762	9.455561255256486	1	-0.20862025700841116	-0.052928002788972306	-0.07963587352307451
