221
config_type=divacancy dft_energy=-23003.8175081579 dft_virial="-21.435471918253114 5.475603699840491 11.098873097125658 5.475603699840491 -22.90414696310829 1.4447292560803624 11.098873097125658 1.4447292560803624 -22.7325354768888" pbc="T T T" Lattice="16.3199774331 0.0 0.0 0.0 16.3199774331 0.0 0.0 0.0 16.3199774331" Properties=species:S:1:pos:R:3:Z:I:1:dft_force:R:3
Si	0.8361214038300123	0.7265327553667459	0.9448777334441907	14	1.0804748719757284	0.3499318049511978	1.329313643954556
Si	2.2598925550710898	2.4894819975999405	0.0228806083612062	14	1.3715805585335343	-0.5255552676124245	-0.128434166946825
Si	3.8106331307416847	3.7797883733931257	1.3885689599178805	14	1.678432722514055	-1.0799207987792365	-1.3706773292345662
Si	2.167048203454183	-0.045581696970648296	2.8044902020136364	14	1.5798362328075484	-0.45098318601738174	-1.3272063660341624
Si	3.9139222679157744	0.9953391036673359	4.057554389304488	14	-1.280072091973612	1.0878760557503067	0.32588579955504493
Si	-0.1484465147314776	2.3667557673030286	2.3709010415710354	14	0.12656548760014136	-0.6892305467403912	1.805103111211258
Si	1.232011416402152	3.8504538756784488	3.7309263609584242	14	-0.558709927826266	0.6192496879155368	0.26311817670586596
Si	0.1244398279273875	-0.0568914413317866	5.344923169159715	14	0.003863342854054503	0.11764683746561169	0.4730944346601232
Si	1.3507229322505216	1.503706400708401	6.711704959204407	14	0.5336095121383204	-1.3495585272454016	-0.638004872783889
Si	2.5936524135554175	2.7806303950064444	5.207541599127879	14	1.3300803475610241	-0.8252818703086869	0.7216876660808764
Si	4.061667023617629	4.08283403434836	6.650194964259053	14	0.13465469915839123	-0.04551293504566525	-0.2606532580354399
Si	2.573644121222437	0.0333417138958233	8.114521259421384	14	1.439347952788273	0.5933532580204733	-0.9456126846180011
Si	3.9390223932078823	1.3410778255875593	9.563180376247937	14	-0.17991823698800213	-1.4852005308467298	0.27388493734451796
Si	0.0228642883837731	2.7774153594521236	7.98720911546577	14	-0.1933080392742693	1.094618265231331	0.637989189041436
Si	1.339217348160186	4.070137091905408	9.475819537048555	14	-0.08689718916823672	0.18200083229732208	-1.7215555580541104
Si	0.0196492528294524	-0.0691314244066116	10.933585201282778	14	-1.5959588629386008	0.26654057499751505	-2.2106430391371505
Si	1.2046754542017097	1.1239242058627308	12.292288602498086	14	1.8067522181636013	0.7948379264338775	2.424469270197798
Si	2.7373334948764296	2.8815368154753016	10.739018430325359	14	0.40505861700996076	-0.28024225235911615	0.6821484371360432
Si	3.9302096053940083	4.313941234778488	12.109390615405335	14	-0.25808266693635584	-1.3009679791315192	1.9591179763198325
Si	2.867925954296096	-0.1759130367513849	13.709760242449986	14	0.09796888289785838	0.9545483040476438	-2.546940272575603
Si	4.069565892695249	1.2063237719224527	14.99401190661549	14	-0.39193569545592494	1.5808186521503769	1.035622710997341
Si	-0.0216402900762906	2.621151575530191	13.634117147047567	14	-0.245184202876769	1.0738751017294403	-0.023905880156204824
Si	1.0739034750302794	4.084025392700975	15.15631408218767	14	0.20912445076169217	0.4236333102848385	-0.36244923120233874
Si	-0.1142398420317	5.608866164185241	0.3829482704676915	14	0.29044002739041946	-1.1083785637942314	-0.7622226841162031
Si	1.3424160637370735	6.891273670900806	1.6472079622776492	14	0.7839577800506069	-0.4302335947521907	-0.8946965717420446
Si	2.7527069136184097	7.985120158354334	-0.0006854390521902	14	-0.03171612678721865	0.35835397464840685	0.19353198254765416
Si	4.207241222320881	9.25269280558321	1.3917676754947679	14	-0.3127153125525864	1.011070454963651	-0.7165598536303732
Si	2.7727968058385564	5.218981903308482	2.6305518825316567	14	-1.214754961088974	2.6352808802705714	1.8057867681158857
Si	3.9567622086776617	6.927879380283249	4.178877101542152	14	-0.897532243799636	-2.199047354143283	1.272885081272202
Si	0.0079641489873528	8.310067229024787	2.9398317748663345	14	-0.03359997565529114	0.024502633701011193	-0.16241620885269012
Si	1.6240825542549466	9.68096165338262	3.989271603724397	14	-0.9611629867047888	0.08390750790196853	0.1373263346965571
Si	0.19698212761751702	5.549281926576993	5.245795626231065	14	0.3437868632360439	0.13564611736984034	-0.9334798957227545
Si	1.3403434266030698	6.825340962071082	6.885382159047457	14	-0.06867370888009115	0.3346769228656952	-0.5742903118452994
Si	2.5837461872535257	8.362225876900975	5.645373953703086	14	0.9939211824782633	-0.6439114730358652	-0.7380028720004081
Si	3.9567622086776617	9.735356138167143	6.951347507832048	14	1.4669330846576099	-0.29433062396086757	-0.7066646976952513
Si	2.7646531370994394	5.419146426525454	8.10934782657509	14	-0.3279128589894496	0.04321282422626078	-0.15879172168287736
Si	4.143397470602594	6.852236284880831	9.289412754807685	14	0.15943321246025433	1.0011372466697912	1.2069660546321173
Si	-0.1412494046834805	8.28501606366498	8.01795595294973	14	1.2894239733545865	-1.5441909428700795	1.6781658417818233
Si	1.3040967567241548	9.572466443407372	9.414750181493893	14	0.3865070636829643	-0.863344256357627	0.8691948065136239
Si	0.029424919311879297	5.366334979551942	10.7525966515497	14	-1.1493555548340912	0.5081267730892689	0.43506058788023666
Si	1.1985554626642971	6.726001259435803	12.165955657188459	14	0.26023699608410794	0.0737426430187631	1.850865186362446
Si	2.611212709273433	8.051705666281382	10.953919893164421	14	1.2542905904863588	1.3453360009781228	-1.7009885152666497
Si	4.204222026495757	9.588492661246676	12.172875327620092	14	-1.1202308450990501	-1.8560017405710376	0.0400097412184203
Si	2.5230521911798265	5.3663186595745085	13.761853610416441	14	0.39628806254187166	0.5018337357076744	-0.7760310623485904
Si	4.194723799629693	6.658142793268972	14.917471212454252	14	-1.18051786553535	0.12694883940337542	0.21811894850316624
Si	-0.1824410277246249	8.026572901034408	13.711767599674257	14	0.8247283113332591	0.8234404446783968	-0.06992120918142701
Si	1.4589243826319744	9.481482569217839	14.970413219247227	14	-1.0118245601540505	-0.7778971705899538	0.429075568915996
Si	0.1380017291742936	10.982512493627212	0.07291765917109079	14	-0.007507370424300376	0.13501336835055192	-1.059597239665594
Si	1.656640909233981	12.408176762250529	1.2392738063598816	14	-1.5190285635439185	0.28059963599861676	-0.08599216009554458
Si	2.9598074272444492	13.69814041851762	-0.2582310029239413	14	-0.940470731088237	-1.404448797614711	-0.6954179116933277
Si	3.7491720957286296	14.832395170095502	1.4266434672693027	14	1.5273311768437405	1.8396297132239308	1.7870760633695717
Si	2.946506645636473	10.980749936064438	2.465638510570181	14	-0.1734501073341056	-1.5094704795162677	0.5068242511340818
Si	4.0560692713580755	11.991217658812257	4.177065584047079	14	-0.7919207503376375	2.006769042549733	-0.17451068827866667
Si	-0.1306740593068317	13.6201309263874	2.6630123176460923	14	0.6226898268338948	-1.4625712044819785	-1.5674974983761578
Si	1.2151528797137598	14.615502670009603	4.043062249343895	14	0.9137201800058202	1.7930256010803947	1.1647279364327248
Si	0.14967051303896012	10.910345553418043	5.361308426502547	14	0.1887404706730262	-0.025697426343284	0.6681711372841224
Si	1.4890021010411778	12.309979458035565	6.894178626883898	14	-0.299600104314511	0.04186916458595139	-0.9969728273827471
Si	2.814363788360662	13.698319938269382	5.390341666356032	14	-1.2922043666477947	-2.8667711191016996	-0.6346428954672634
Si	4.013718929919181	14.790322268272972	6.823072485207881	14	-0.3838958491198219	1.5968122127943578	1.7053879335799553
Si	2.777235839700359	11.07726628260379	8.372735942367893	14	-0.03199252060913456	-0.4513277141302816	0.24626149600591105
Si	4.227412714428192	12.249742421329994	9.816401146099919	14	0.9649242566776334	-0.49559623420099513	-1.2144556844297087
Si	0.14420332059887161	13.646144970415762	8.217043357656118	14	0.2783609745963638	0.42468180703439495	0.21517914668010896
Si	1.4285855445838416	15.117684695603522	9.547170478386068	14	-0.5915719962546747	-1.6006609003480878	0.10026153751183442
Si	-0.0520444080341559	10.909660114365854	10.763824796023673	14	1.5468240118284429	0.3899819125231444	0.972661741028087
Si	1.3685280276300336	12.30878809968295	12.336956380732481	14	0.6383653417497737	-0.40379029075553163	-1.3761859223829835
Si	2.7841065501996947	13.63349698790511	10.763906395910837	14	-0.9751536563043746	0.5539670098421889	1.8871697077040008
Si	4.1760047855139275	15.028316499179867	12.094588395873513	14	-1.9288879484076595	-2.6288181499378465	1.8883786414255344
Si	2.7865545468146595	10.755403687668192	13.581044580435128	14	-0.09522371374753627	1.1433499670272895	-0.20081103881952542
Si	4.28304751749763	12.211618954046273	14.717943168357172	14	-0.5654002009798234	-0.5805252422466585	1.2991676911863517
Si	0.15327722805167518	13.813473699037337	13.62744227627743	14	0.26134385692443174	-1.1382326961085987	1.7076422787246612
Si	1.447092398992977	15.318322498166054	15.173254218763228	14	-1.6958421908578416	-1.2805773141690209	1.1558290838091603
Si	5.35179387965905	-0.0326725948210662	0.2045872371013416	14	-0.8508859655288495	-0.47034309485703274	-0.2243533646834613
Si	6.68719235309989	1.3959619096950748	1.3572672432011947	14	0.9546879150665278	-0.05123133038820659	0.9965105426461844
Si	8.216031519055266	2.7859507076496346	0.1902256569602136	14	-0.6757952358899575	-0.33777150522902544	-0.9833991910660894
Si	9.638823471650356	4.173524148944096	1.3702579452379422	14	-0.7593613010054103	0.7660919405124939	-0.727859861512424
Si	8.141432902208566	0.0022195169309016	2.7798307161122224	14	-0.4545685923863282	0.028641084824321542	-0.806828018983856
Si	9.401596279682815	1.510854550824099	4.01287029109266	14	1.1567932483042158	-0.8455172405098484	0.6027038538487878
Si	5.224302215951672	2.4593553192584374	2.869019392784114	14	0.5804648212716351	1.0380066398501824	-1.0151801097073758
Si	6.726327658984464	4.0799453983427005	3.8822288717406943	14	0.6980237269352977	-0.7358400582050996	0.8289379820739375
Si	5.227011332205567	-0.2613481186136634	5.458934531507351	14	1.7661634640270836	0.8980631770482466	-0.36678565743530045
Si	6.428945030198515	1.2571441816491262	6.919441951950336	14	0.6957701531221878	0.7257790659768282	-1.5207833429249193
Si	8.057841977796226	2.684309888196288	5.531003551851921	14	-1.6465813555869964	-0.545998126012922	-0.7155031293437923
Si	9.580071552891196	3.8339870184484504	6.732871969935137	14	-0.9180468360385655	1.8480272003100664	0.8865852486780414
Si	7.906898506517485	0.0896782759948845	8.191502592973317	14	1.7178786203357668	-1.2376303422328634	-0.46560557619412785
Si	9.336561169611912	1.3437869418414539	9.508475811892188	14	1.2041334679009104	0.13697769281514505	0.15989369742309284
Si	5.166333656109301	2.6654929542159236	8.286680701363155	14	1.3103946796773105	1.623066026328922	-1.066319137414589
Si	6.719359028620531	4.18006845989477	9.543645363260518	14	-0.3004269717854706	-1.6699413900837337	-0.21492100770596606
Si	5.347860765097672	0.0260466839832276	10.959550285378839	14	1.8439165171242136	1.5175836023539948	-2.2064241124173196
Si	6.651174162905039	1.1903954739477471	12.454900857641494	14	1.1391531518132119	1.222878882569046	-0.2551778321456526
Si	8.042762318648043	2.6858602860524323	10.859133464232976	14	-0.10244800547608833	0.18520185842090642	1.3366027275371757
Si	9.742487968305408	3.912486109901662	12.21703718655406	14	-1.6296647681330818	0.08367996508113543	0.08905048987386073
Si	8.132195794981431	-0.1987283652028587	13.87829664940161	14	-0.706258977275732	0.30250879576319456	-1.4399678462809606
Si	9.367112167366674	1.2222194299422922	15.145347057352627	14	0.6322042020711028	1.0402206186413618	0.13706511039603006
Si	5.170250450693246	2.714240726808593	13.566307640813037	14	1.3009360974255495	0.7404251103225197	0.30893501640037263
Si	6.931273935589334	4.132593645541881	15.01468931802323	14	-1.5075087261569946	-0.9865660214889159	-0.016204391280233266
Si	5.336191981233006	5.285192051754569	0.08802995827414141	14	0.903749433574286	-0.15941161517556507	0.2926216102545651
Si	6.8268913599272265	6.823774244237504	1.4414130468462583	14	-0.2663459423247798	-0.9973806046865227	-0.012116333821197822
Si	8.066361006016306	8.155174323207236	-0.0909349142572332	14	-0.9515059151223124	2.089724727262183	0.7767661413596207
Si	9.28095900649734	9.852696775911133	1.348372855500155	14	1.0896010103095939	-1.9748176596257205	-0.7438904460730152
Si	8.37030426573036	5.450546063106738	2.7892636630685543	14	-1.5316699170714903	0.15331860978787815	-0.3731581419712875
Si	9.707791696282637	6.719505908417429	4.188293728521051	14	-0.5829253690630167	1.2421135785796056	-0.19047776653785028
Si	5.395661978999223	7.989347032509506	2.9404682539862255	14	1.5433206237192092	1.3416683192389314	-1.3292398532318677
Si	6.696054100846064	9.499842543830077	4.223773359460611	14	1.7327252108964297	-0.8676099771942847	-0.3028705502817394
Si	5.626312220061225	5.49820039721139	5.327167033712501	14	-1.7704602952381152	0.03829275708562541	0.5511403366532182
Si	6.914382758946076	6.783969819278174	6.784965337901593	14	-1.257432224077048	-0.13826247414362303	0.7755885751229928
Si	8.267847447405357	8.061203893147447	5.614186476828432	14	0.5394788313631544	1.1748683758153888	-1.5830002350145227
Si	9.611079510014086	9.406606512754776	7.002837036633477	14	-0.5122562253439586	0.6816992650366135	-0.6601325765006794
Si	8.116561256600521	5.417400188940112	8.193330430445824	14	1.2900011864989598	-0.22171489640392533	-0.17651075110720987
Si	9.414293222125766	6.811044661839686	9.702634583413777	14	1.5057454621284372	-0.9024628524720841	-1.5598415180643528
Si	5.658054576168604	8.472842683942527	8.018380272362991	14	-1.0730682888799776	-1.642373741730574	0.5053209258533913
Si	6.984770821615036	9.58529394566979	9.585277625692356	14	0.21684265182224474	0.44206247899859596	0.12809349549190535
Si	5.383927915224824	5.506180866176176	10.842503407228648	14	0.3770700787158928	1.2000929758902976	-0.3893604763672646
Si	6.8683604225847334	6.76557720471107	12.216580227185935	14	0.40555432611568526	0.05632031914837569	-0.9775427273678561
Si	8.337892790548224	8.290401656217902	11.004038543861471	14	-1.950481119328391	-1.0376471993264258	-0.32821496386456706
Si	8.179866449063516	5.375082487456083	13.517445628378336	14	0.8241145884933397	-0.3693423645656557	-0.20658291315272584
Si	9.325692064641467	6.893215748215345	14.898637958496456	14	1.062495646692997	-0.7261508478061216	-0.4784582745790161
Si	5.473426671467944	8.01984907033197	13.468599935921068	14	-1.0630229803941593	0.5930629802298286	0.41515303360739414
Si	6.669321977810647	9.547757997573658	14.676066106263837	14	1.2491671489148999	0.48918826841159	1.4532429772699496
Si	5.504630468320031	10.819165839499314	0.09467218908941309	14	-0.508494955371114	-0.2578535814523307	-1.3205258630808216
Si	6.4886435076487965	12.368241777471733	1.5140532664009863	14	2.1678819581156397	-1.3114778863486884	-0.6434671860365435
Si	7.958208515567152	13.533912485608335	0.0478828137887154	14	1.1130556614821128	-0.13761249871868958	0.5628170114646706
Si	9.60430671937935	14.907156986716533	1.5411607489173655	14	-0.48966340867475344	0.2028198434061571	-0.9915609077943675
Si	8.103113595195646	10.994931996453802	2.893825758482426	14	-1.573230806129556	0.593158625347738	0.1829876225191949
Si	9.542486644862768	12.383011357048689	4.166033279302304	14	-0.35109034500845654	-0.31296033888959646	-0.3082372184164845
Si	5.218100624527095	13.521509302759176	2.9152702088295195	14	-0.6013689359665669	1.1979034225996594	-0.41697980393735934
Si	6.747951629083322	14.879576224854594	3.998557670883831	14	0.506324685370377	-0.10623292961787832	1.867919842172052
Si	5.4852096951746425	10.938285354783511	5.464581243699205	14	0.06962681762227006	-0.7048852357031768	2.004310037421543
Si	6.815973295024483	12.210003276280396	6.977116752198913	14	-0.38930519760288146	-0.33672120870574496	-0.20406271571791668
Si	8.228695821543353	13.529816171272627	5.803155495526297	14	0.2650871291600353	1.4595110749299385	-2.159530493814735
Si	9.773544885360597	14.974117854124543	6.897050942912124	14	-2.0762279669945976	1.0322735892073163	-0.10119279185879204
Si	8.351177252178767	11.012345412374918	8.263946972798847	14	-0.46163656091141536	-1.0731927303774729	-0.04530390418313721
Si	9.633829558555828	12.337086940551945	9.631397881918296	14	0.04094793754974234	-0.5086273672951016	-0.3381497148216192
Si	5.373809529216302	13.59707079827443	8.191600512837914	14	0.5009104517872092	-0.7590738514306178	1.1218526983349995
Si	6.738796121743352	14.954191161678727	9.564469654465153	14	-0.005327330223346819	-0.21473357412812724	0.41844944773835596
Si	5.73510118963027	10.878031998100505	11.103084486902954	14	0.542855721090637	0.8913093975932816	-0.08421552631932228
Si	7.288599841487058	12.30968569844177	12.671793357727394	14	0.2382129079117195	-0.5595414232868019	-1.2901467110600802
Si	8.260634017379928	13.58463497547041	10.907375317525219	14	-0.48336420064039065	1.1961432438974862	1.0260849387017197
Si	9.639802670296342	15.086562498638601	12.262814723253907	14	-1.2265859022196355	-0.9602749269272097	0.6017283764903236
Si	9.931636506755037	9.32187318992212	12.128762428618423	14	-0.02393724764111063	1.482753352803013	-0.15657774289169787
Si	9.015171854021874	12.213724231135142	14.561646744480374	14	0.7900988651077806	1.3971769404377363	0.5305578672338368
Si	5.582786840247148	13.595912079876681	13.40364642573733	14	-0.41099889874163087	0.8233918507878462	0.8107386701758014
Si	6.601169752050021	14.88502709731725	15.154714724399225	14	-0.07339065870043483	0.2167205243195377	-0.7323927201918451
Si	10.917118344052781	0.1074017714872311	0.1383444487003887	14	-0.6716351874819578	-1.0092040896117556	-0.0718238271183366
Si	12.21703718655406	1.543853545193827	1.3632403549417091	14	1.4975644621102582	-1.4226709923501968	0.1448511886370345
Si	13.609017021755461	2.8442946269729674	-0.013920940750434301	14	-0.965906676020462	0.03585843456850921	-0.29942861158965717
Si	14.90276691278703	3.9670274744830816	1.457896224053689	14	-0.1848020515436234	1.3659943180044485	0.003883397475551658
Si	13.782547341801612	-0.229295682935055	2.475561056849506	14	-0.9631085421005449	1.116772194222387	0.6382203314097173
Si	14.74935912491589	1.0440379163277063	4.237906459917676	14	0.3451117538075162	1.4475970870974362	-1.1856953003185322
Si	10.88694270577898	2.869590591994272	2.631449481290477	14	0.12723371787284785	-1.1213366774972457	1.6916368909962072
Si	12.216759746937699	4.125771894974846	4.060965264588005	14	1.1710227735880432	-1.1211150482186492	-1.6425490911134082
Si	11.029073389243846	-0.0316117962879147	5.374282808561862	14	-0.9387799722297077	0.6441814390944807	-0.644012003253883
Si	12.263369602486632	1.4433551241607971	6.660509189996771	14	-0.13889470894184744	0.5038795642109162	0.553430163051342
Si	13.616132531916293	2.9678368561415343	5.438224480144747	14	1.236942571559724	-1.0630569189843853	-0.5142575737251619
Si	15.236053491925798	4.346287430050893	6.593352482859566	14	-0.7477360483003607	-2.2677300618919944	0.3389902091507756
Si	13.767255522946797	0.27420826083094624	7.9256338406106845	14	0.42263906385753724	-1.7807136061443336	1.0977074482734888
Si	15.099471600788183	1.533441399591509	9.46078883783267	14	-1.0788237081391292	-0.8226292609498902	1.0020317342106706
Si	10.867603532520755	2.667973590785755	8.16793654555992	14	0.9217163175514808	-0.2758148089978211	1.002433340861678
Si	12.466324841844663	4.207649221756708	9.479785291564797	14	-1.4658064263063209	-1.7882819117647213	0.07075707552100716
Si	10.88601246706529	0.0792171704602674	10.937208236272927	14	1.010966582308717	0.724333076344777	-1.0808353409416132
Si	12.228020531366537	1.496362410863506	12.441697995898117	14	1.2430137225521896	-1.8691267190093295	-1.7662791637664905
Si	13.546772627825616	2.7996594886934387	11.028632749853152	14	0.9243622420364453	0.024387448182668556	-0.9029531622566362
Si	15.004244532466045	4.152618257852295	12.28977532597339	14	-0.5447038315947594	-0.09242455138549105	0.6223571258054678
Si	13.706006647640372	0.025149085224407102	13.637201622782422	14	-0.971480575244011	0.8110549161301795	1.1650508672609357
Si	15.025297303354744	1.4178143594779955	15.157962399908413	14	-0.5334531889348554	-0.5349426302468172	-0.974780846032953
Si	10.827603267832226	2.508804850880731	13.744554434337356	14	-1.0149849628135765	1.8206798956828432	1.624817720383539
Si	12.132254903789107	4.205870344216501	14.998809979980823	14	-0.8742061478931246	-0.8544806278769487	0.2477347393543559
Si	10.732980038675112	5.702314354967172	0.015993577884438	14	0.9530760891413271	-0.7752818422582991	-0.4838138869608845
Si	12.242414751462531	6.887977035459319	1.3724121822591115	14	-0.20343922267778078	0.09483907639164212	0.6200611287545754
Si	13.389252205641334	8.563663358357728	0.2779618556405592	14	0.9030086981315515	-0.21832232293398993	-1.4243378399292483
Si	15.103355755417262	9.749521878579074	1.525624130401054	14	-0.9189441517952973	-0.42227396690207625	-0.1535086144710371
Si	13.658662393106951	5.420092985216574	2.8172197844114546	14	-0.23676794672179627	0.2539886959350841	-0.40494086038629795
Si	14.884439578129658	6.862191471115022	4.164450241491292	14	0.7583027769451054	0.36378183508977147	-0.17022928369955612
Si	10.830279744131255	8.306476833989505	2.6706174271299172	14	-0.4361898173368457	-0.3870274553997623	0.170488194005295
Si	12.172108288680736	9.471413143141618	4.202084109452021	14	0.13402117880750672	0.8404639901136293	-1.2572866995159275
Si	10.949595099144648	5.180597316385831	5.406743243676297	14	-1.70429110005038	1.5388911234736584	1.389099298853427
Si	12.219354623349561	6.534388404393775	6.756291137551636	14	1.026591446449789	0.7783070047779855	0.7829923300028913
Si	13.51741298842347	8.157899759438562	5.531395231310316	14	0.2357179073090478	-0.14471543427613068	0.5337871755159428
Si	14.970853858637922	9.637028274132714	6.805495869512432	14	-1.1730794007336298	1.3390519624651487	-1.6319286263674726
Si	13.870365140369124	5.288439727263755	8.084002901621487	14	-1.4199109107890178	1.3524803313312181	-0.5200096505473971
Si	14.958646515517962	6.743398355379487	9.41630057935004	14	0.2293361667939083	1.7907709988251568	1.1730876282706544
Si	11.071195250998677	8.045145035353276	8.170661981791248	14	-0.8815973043569542	-0.8090522821963161	0.584423809243599
Si	12.413741874555216	9.614163985748942	9.215874936494137	14	0.765155543954896	0.7265079743350902	0.9953442892729654
Si	10.962944840684925	5.34684892649682	10.847529960278042	14	0.20078969864536816	1.473570650152104	0.2145834215774306
Si	12.334361504320617	6.971616919803957	12.157257109216616	14	-0.4162897192694316	-0.9917120887871921	0.9148815482789313
Si	13.687809872802466	8.405490137076123	10.895102694495527	14	0.2529016326057255	-0.7015363710236839	-1.0007065865286662
Si	15.084620421324063	9.737135015707352	12.29520987845861	14	-0.009855560913191617	-2.3865920037319084	-0.23253359337004442
Si	13.489261027351372	5.5332883486925555	13.762326889762	14	1.2247467905841336	0.3828743489761271	-1.2894972498562105
Si	14.801501452814643	6.804239231250084	15.336111273568134	14	-0.850268643141482	1.3502447552553491	-0.9637001534347107
Si	10.921720577688916	8.147014334490686	13.729703254873234	14	1.0042030326535356	-0.5928678333360293	0.047142244487043086
Si	11.966607132843142	9.902423747149786	14.909866102970428	14	1.8857082914400287	-1.7209240945874822	0.12546865407056618
Si	10.577189534098741	11.182415897205253	-0.17478695830850102	14	-0.8803289781025252	-0.06502582465186506	0.04034809867855179
Si	12.233308204054863	12.392901263373147	1.0010184558140547	14	-0.4822120883464322	-1.4230571723692829	2.2111089234211616
Si	13.607189184282953	13.739723721017157	-0.0635826320793576	14	2.1035179359731813	0.3263280296701104	-1.2096256059752784
Si	15.386327844129783	15.035007689927438	1.0755844327058888	14	-1.0031691912043041	0.21152097803060224	0.1373924121032849
Si	13.482814636265298	11.020081081678208	2.762939539468964	14	-0.007156671658632178	-0.41741020696795217	-0.28003450704924815
Si	15.061739812962855	12.241647712523177	4.047484963228265	14	-1.1566628932644842	-0.46670780904487535	0.3545178855107459
Si	11.09210114209048	13.508779720361359	2.699128427705543	14	-0.3948695837367459	0.6906374555715762	1.0590159127527083
Si	12.512608297844935	14.876622308939202	4.227461674360492	14	-1.0535746825636791	0.6349624838585578	-2.4087711295551015
Si	10.648556795413686	10.769226708554028	5.374788727862288	14	1.2425470669365826	0.4265777400974721	1.158410473550589
Si	12.120814599608503	12.330297829939775	6.75367994116234	14	-0.29872721405832076	0.05968461045978945	-0.8115809642786819
Si	13.781388623403862	13.599012875588969	5.501986631975869	14	-0.00979051194859187	-1.0856821315806242	0.5040893664050403
Si	15.22232839090456	14.874125352391939	6.732741410115673	14	-1.0205395787472245	1.3791678903332913	1.0207588940310333
Si	13.737112524627863	11.344783352687164	7.995695503730983	14	-0.10367365138220293	-2.3468383446033747	0.5364169020373901
Si	15.088667775727473	12.396964937753989	9.56424117478109	14	-0.5606097175473235	0.003504930772425861	-0.47544442492273853
Si	10.944209506591728	13.683093399324301	8.32992864156087	14	1.2584028163354037	0.09110506013519107	-0.17488555543434428
Si	12.487263372891332	15.078745229448145	9.465505311310835	14	-0.2287808080447563	0.6144121532556782	0.44271116887086936
Si	11.019640442287516	10.848786598540391	10.732718919036182	14	0.5999183183449394	-0.06682636970756477	0.1810238122756658
Si	12.14031697264106	12.42224458279786	12.151789916776528	14	1.0889867732486105	-1.262362832749496	0.14247394465802557
Si	13.742498117180784	13.605687746359106	10.939721512797624	14	-0.5267819419606672	1.4844847351256008	0.4003300972156764
Si	15.080426187123756	15.040262722660897	12.427923934944578	14	-1.0393577556959201	-0.5446673218992133	-2.04824971312181
Si	13.643403214207002	10.914768267302414	13.476825204547351	14	-1.9645214112606557	1.4034650927192225	0.6417851689361027
Si	14.990764231106304	12.257788170204512	14.797209298749738	14	0.4698173038190624	0.8579863299809704	1.3404624708437818
Si	10.919517380735448	13.688984911177648	13.666104302816445	14	-1.541337530185779	-0.6702763583202596	-0.25193181167896567
Si	12.174360445566505	15.05527710189935	15.003085814068296	14	0.828290577754324	0.6497504532179214	0.04862500092517249
H	15.967397376639822	0.4782667306634554	16.184655444220223	1	-1.2246254344130225	0.7102218219056762	-1.3162686268917207
H	0.2582342669194279	0.17145115492117535	13.22667585444828	1	0.31137602379132123	0.3087645521176468	0.11565088840558074
H	3.680739166356155	3.7479807373760137	9.730654352668667	1	-0.09346970569813125	-0.018872170160418915	0.16134020127620816
H	9.121555258917278	10.257675383915766	12.94591838667343	1	-0.2566834714211313	0.5626745722299343	0.26228822390852213
H	2.270771452027994	14.39399814430111	14.179835976439769	1	0.46443083817335223	-0.25857323383144015	-0.5987006428653173
H	7.6306290325367385	10.538460595652252	13.724524926033713	1	-1.105090891421358	-1.1025845779552779	0.9030752897593433
H	14.931756088701444	4.125771894974846	4.060965264588005	1	-0.13193575528233464	-0.038137719434820486	-0.106019013655242
