225
config_type=divacancy dft_energy=-23040.72397257329 dft_virial="-11.068495910852125 10.432654762661935 0.7370897386663324 10.432654762661937 -18.26524572189648 -29.236542985891504 0.7370897386663324 -29.236542985891504 -18.593291155039186" pbc="T T T" Lattice="16.3999889955 0.0 0.0 0.0 16.3999889955 0.0 0.0 0.0 16.3999889955" Properties=species:S:1:pos:R:3:Z:I:1:dft_force:R:3
Si	0.9554797588668255	1.179552808512342	0.9302565757917465	14	2.3855707606987453	2.2279375790731266	3.239094937396599
Si	2.4562919518120165	2.6661134110204436	-0.18066227877442798	14	1.0457672641485174	-0.15334252106735552	1.085001045781317
Si	4.008780510082029	3.632876362316173	1.5445181636181988	14	-0.716870443153047	1.462558348955378	-2.1725611126877773
Si	2.4649839459796317	-0.0429843711572055	2.5535930865223184	14	-0.6139393269873029	-0.6032409577501667	-0.4449680851208953
Si	3.777261865432555	1.337550302494989	3.84842141768403	14	2.106297557934793	0.2995466253238519	1.03650948522226
Si	-0.20606586172845748	2.706063784213482	2.8098265145880106	14	0.28422180917364137	-0.821377132658978	-1.4356455611272598
Si	1.250171161126965	4.172173600444195	3.8810737957740704	14	0.7378866580399376	-0.9320179652377183	1.7361419527563744
Si	-0.1818922779490905	-0.387433340029692	5.256048873156791	14	-0.03873190187430671	1.6667115675805635	0.9532658367139539
Si	0.978784143229431	1.2044643917965063	6.725291087285645	14	1.7479009029380719	0.3392478339038545	-0.413587744688488
Si	2.6847109985413407	2.6710990076750756	5.421213162330472	14	-2.3384223455589344	-0.49191184027722296	-1.0613810725367125
Si	3.8856165927258237	3.9929545207013715	6.791776642673401	14	0.8937930853325446	-0.7356783356804623	1.3636517839472615
Si	2.830769300535264	0.153930296711763	7.9719690507565675	14	-2.4094432164857884	-0.713466042598639	0.49315316992579045
Si	4.189262388977506	1.4046426574755795	9.286362568789912	14	0.4698815814520661	0.6734740420069277	0.8359311314342083
Si	-0.0452147696605935	2.8412160935253974	8.129687744926292	14	-0.6146911181829142	-1.2227027618546158	-0.23891893343263218
Si	1.391440666334202	4.075036465623849	9.454183656180861	14	0.4475487035307279	0.7578883147674974	1.0545596730118278
Si	0.158653493542467	-0.212576657359671	11.03012419871444	14	-0.23405414505638	0.8505100699310438	-0.30609883012171735
Si	1.4989917941666908	1.446315029513145	12.174646630732394	14	-0.13909962603586326	-0.6203071835337136	1.110806458548047
Si	2.9301204338700026	2.725809370964064	10.83776872778622	14	-0.46428788471755195	0.3826540052501904	-0.5357453293277674
Si	4.2551411447724306	4.034676092705924	12.374644496532515	14	-1.3340673605809776	1.9874865239802182	-1.7323727123570374
Si	2.8742128713843433	0.17931747967679698	13.823124324593067	14	0.046628794754609515	0.45778967313140967	-1.8038849215105721
Si	4.239856355028624	1.3874390690193	15.277409748758025	14	-0.2698413600075211	-0.21592733832827202	-0.12579904110420523
Si	0.013021591262427	2.6027930535088184	13.671736026175607	14	0.6179461375182217	0.2402217124983512	0.4917447184314133
Si	1.3810922732780413	4.30255351295842	14.943128773062748	14	0.09329127098891297	-0.6119840013913304	-0.6672033732416186
Si	0.0449195698586745	5.533159487213754	0.02886398063208	14	-1.2260063750804742	-0.7362820312096331	-0.61316053918583
Si	1.368054282026619	6.567588793104917	1.560983752569681	14	-0.347486426681205	1.1192144871659955	-0.9246777166592276
Si	2.651501020825453	7.937348673987067	0.17818588043610747	14	0.11025928054923023	0.4761759043863207	-1.4520114178215984
Si	4.012716507440949	9.50269482362955	1.1278108432315395	14	1.040132943949945	0.3296630103808744	1.2471886833710462
Si	2.8452176908402995	5.315252833430545	2.631739034085876	14	0.8229876730315187	-0.7046710626300086	1.2336530994131263
Si	4.192247186974687	6.643192742374172	4.070592068606069	14	-0.3216966976569277	0.7084156204182722	0.011201534548289135
Si	-0.11135592527944499	7.940858271632104	2.708130182826915	14	-0.9427420455280558	-0.2779673383718491	-0.015790957544753455
Si	1.1605124212885665	9.429714872599577	3.755630279947491	14	0.8959191323217751	-0.24543180031909928	2.6375506520471976
Si	0.13357791036834749	5.496751511643744	5.480941922252081	14	-0.7798738363600837	-1.555086772995803	0.8284466438472572
Si	1.447659828610776	6.833334214787999	6.872530188487244	14	-0.3395162572992779	0.5186631626912356	-0.3381422586161908
Si	2.658323416247581	8.017380620285108	5.273268861602066	14	0.3252916171155587	0.9620754719829093	-0.27361419995430636
Si	3.94058935583874	9.60904875226537	6.697640705839231	14	0.8956445382735833	-1.9869800162321491	-0.7192870250434543
Si	2.82703010304429	5.504147906680714	8.168424518933662	14	-0.7525365590436093	0.033269074400588086	0.9043433589032404
Si	3.9057721792012936	7.0800556492363	9.616937146972203	14	1.5335936180720249	-0.8195688742873178	0.0644568390445163
Si	0.170625485509182	8.412472755175697	8.093607769136192	14	-0.6407873229613531	-0.6022860492342638	1.7236420100214107
Si	1.5189833807522053	9.906724952522689	9.667990312715196	14	0.1751604065930681	-1.3854095056084825	-1.2206949857101121
Si	-0.08088474572580599	5.401008375888015	10.95522544897199	14	0.44279575823590217	0.2782447606358931	-1.167351492301404
Si	1.222520779680552	6.848045004916962	12.289971353348749	14	0.7904025126460901	-0.7985117788258371	0.7076373468378633
Si	2.6491394224101015	8.235549673892242	11.118011739741323	14	-0.7253319507616545	0.9326198609931649	-0.7047402253631204
Si	4.066524871335185	9.59989755840588	12.37349649730283	14	0.6366265032217576	-0.7401538587112441	-0.2730441859048296
Si	3.0586143476497454	5.5929210471133555	13.722772791929602	14	-1.4559824899885672	0.14008281671028786	-0.2395354844884037
Si	4.353655878668398	7.030888482227791	15.170416220551383	14	0.051991606231374374	-1.3146807122459971	-0.21604663761512688
Si	-0.120671119028889	8.251474063206874	13.591605679943592	14	-0.31000022533451	-0.39057095275199033	0.5942289764925157
Si	1.327808709031662	9.31417695012628	15.110080661036939	14	0.9136852129734663	0.17191901411595742	-0.9173215272277517
Si	0.0911347388479935	10.792275158312703	-0.09470993644901249	14	-2.4164746753153294	-0.24072564914110023	-0.9798955458463237
Si	1.3382391020328	12.10092868019762	1.1036208594631771	14	0.6763562510708138	2.5076275580094753	1.5757060092212625
Si	2.7566413502756038	13.797310741914151	-0.0252395830640745	14	-0.8247635354761451	-1.0652665268965205	-0.8289251265473367
Si	4.097996450217549	14.91552759158332	1.487315002001895	14	-1.2337559436259324	1.2343046175012518	-0.46977025259170374
Si	2.5484762899557225	10.711275612663929	2.5271891042395636	14	1.0994187759745795	1.6479728377862606	0.4190017211611238
Si	3.9075105780348163	12.306240142432284	3.96453333977217	14	-0.4769024987497944	-0.5695077988392919	0.025654488884437533
Si	-0.24181783773864748	13.472049760166398	2.576061071446153	14	0.7761143661609632	-1.1097674748881754	-0.2724407474861908
Si	1.1413900341198135	14.777702084065139	3.9111677755808127	14	1.1338823859069083	0.5065920803236724	-0.6648639245108159
Si	-0.030159579762724497	10.710340813291186	5.407207571728314	14	1.0453926541033718	1.6229259010889743	-1.374861288922043
Si	1.125203244981255	12.508107606977894	6.685603113916534	14	0.06323299291212581	-1.7942340205808645	-0.011589771451631497
Si	2.5727646736580576	13.729103187681865	5.424804759920485	14	0.7381921053519711	-0.27980850689160713	-1.0690702201071476
Si	4.019456902918099	15.040856307486932	6.756533066322072	14	0.23204199803283213	-0.05815326013110925	-0.09283310002086258
Si	2.681857400456124	11.039865792177766	7.7591955935289505	14	-0.9912528893770138	1.447941615210336	2.757138674029522
Si	4.301815513453622	12.167020635849486	9.27816257429216	14	-1.085362286078798	0.28315145802886366	0.7116567557848508
Si	-0.2741914160157645	13.604594471228028	8.152090129894145	14	0.6928856300635138	-0.021494697586969955	1.4361806081443826
Si	1.4600910202693649	14.976519150657586	9.535445601653565	14	-0.20617359318575829	-0.07299907936017627	-1.2287708275206972
Si	0.1670010879411765	11.140282924797212	11.068500172963908	14	-1.1874835040686953	-0.13599347369859235	-1.2149030567554147
Si	1.388718268160949	12.47124043171601	12.407444474523516	14	0.9302760413833179	0.0766785881838402	0.2431666565320488
Si	2.8217001066207525	13.623848058308745	10.871208305348045	14	0.6229603071135744	-0.4168630757558246	-0.00561400846654333
Si	4.088746856424087	15.20216659924667	12.236851788992324	14	0.12250596941015955	-0.28350138546293585	-0.8395471339564644
Si	2.746473357098394	10.897694287575778	13.724232390950203	14	-1.050171053340867	0.23345944839582974	0.5325157639351294
Si	4.1175452371001855	12.34018811965297	14.924285185706918	14	0.4511744762532007	1.1120547301809793	0.3607024222478301
Si	-0.0702411528677265	13.860893499249702	13.608743668443891	14	0.5124310605057287	0.5929843044070321	-0.29322736266799204
Si	1.2815771400533476	15.371086485900321	14.949524768770992	14	-0.09390987892894061	-0.9922070265613208	1.1395439598218744
Si	5.570141462398606	-0.204540662751876	0.2451962354717205	14	-1.2009131584874249	0.5809299342240498	-1.5031514739709397
Si	7.048961270100833	1.1751412114725523	1.162267220111085	14	-0.26967243838798743	0.8118941249066759	2.2854632323955877
Si	8.27299084876897	2.6034818530466293	-0.149830299462888	14	0.260429057651523	0.4158166358905243	0.01724928848234145
Si	9.51181321751105	4.052207680942113	1.2579283559218364	14	1.1808407963635608	0.09530110401767272	0.18721014878647407
Si	8.053066996339314	-0.2352250421624565	2.8490388882762505	14	-0.4323807248050463	1.164383151209293	-0.40618578958231366
Si	9.494658829021756	1.1879168029000469	4.011666908145237	14	0.8357784077781915	0.35246717190739585	-0.4997557683879306
Si	5.651616607728251	2.583949466152989	2.6082542498443195	14	0.32587371536004023	-0.6827973841188488	1.3041353237754096
Si	6.828430618078344	4.164531205572293	4.188770389307641	14	-0.5718207651852971	-0.7461087957432391	-0.02323559299924222
Si	5.307282438778732	0.138711106923939	5.526353491780622	14	0.14651675066342643	0.2072418874462798	-0.8473794920932316
Si	7.067854057423648	1.4171722490681415	6.725438687186604	14	-2.278149980422959	0.24742954915285437	0.4268430781665114
Si	8.293458035035354	2.662915413166321	5.307528438613664	14	0.156562830480841	1.4304853527497228	0.35964826906656944
Si	9.624185942108214	4.145507218337513	6.820591423338494	14	-0.2776454359857666	-0.34543494174625883	-0.4802073975283128
Si	8.351973195771299	0.044345570243832	8.019529018843517	14	-0.13352469837018613	-0.8718325034615638	0.5245430234478823
Si	9.490050432114021	1.2819707397892395	9.607835153079701	14	0.825649024148404	1.2366474086689707	-0.3991036799779658
Si	5.618751029781269	2.893318858564101	8.134082941977086	14	0.02022045779030457	-0.1183695751711053	-0.39732524642801936
Si	6.889635377009549	4.424733430974896	9.543973595931224	14	-0.7976530296489077	-0.7312313519187342	0.19295811184019715
Si	5.453061940959732	-0.117620721075726	10.520953740371151	14	0.31049542021917054	0.600814091438479	1.7466827132373857
Si	6.721633889739648	1.3101459208835085	12.211989405675148	14	-0.2705234742489564	-0.054814936983428986	-0.4481937938555531
Si	8.079536578578052	2.801511720167292	10.82942113338751	14	-0.32578346956330306	-0.4313731086300803	0.05143007682945404
Si	9.264173383679	4.165334805033072	12.2872325551865	14	1.154782901054392	0.4203988597920923	0.19586011841504827
Si	8.057609793291068	-0.1493546997820185	13.61807526218233	14	0.883556743721439	1.1784494113052912	-0.7121270109479059
Si	9.546876393983426	1.1482452295199324	14.93845477619903	14	0.12039920571083022	0.2988855941460418	0.13792103135710737
Si	5.383509587629817	2.741881360179654	13.70652040283506	14	1.933128729522712	-1.5730994226476964	0.9708413984614221
Si	6.865281393351233	4.044876885861124	15.055796697461833	14	-1.2532937729537377	-0.09687744868945551	0.7101662860307609
Si	5.496767911632739	5.296146846250788	0.310812591442716	14	-0.34709253334615825	0.20643173215990115	-1.1106930728034288
Si	6.853703001120409	6.810029830425393	1.5763833422364555	14	-0.2878198139586566	-0.6768866700983603	-0.36164524656872843
Si	8.149941731335733	7.997930233336444	0.0609259591182825	14	-1.1230711451462176	1.0151749674967354	-0.0662540416632998
Si	9.359752519544774	9.534379602368858	1.2402491677846874	14	1.3785472255090072	0.20912162254584005	0.615001707705588
Si	8.28348684172609	5.429642756674157	2.825619703990677	14	-0.7185072087998534	-0.5884676436911279	-0.9187808866074678
Si	9.52088241142556	6.882501381796508	4.022950100574141	14	0.16169398536826052	0.41409810909453737	1.4074742172449293
Si	5.441286748860963	8.255295260642827	2.7318937668813943	14	-1.0838152520076647	-0.7039416400506825	-0.49931970892563354
Si	6.71036709729974	9.500530025082144	4.1392260225522355	14	-0.4211038568708768	0.8796378649924694	0.4236986163599703
Si	5.265167267038288	5.354875206843674	5.759298935472703	14	1.7346522543338807	0.6813681066713784	-2.324272267429499
Si	6.650949937169043	6.800599836752981	6.973865720490438	14	-0.8306701357281212	0.6621521797296557	0.6083299465103359
Si	7.883933909828723	8.048540599376556	5.484861519622006	14	1.1945758980943237	0.2682814704097872	-0.21763969447149065
Si	9.473289643360621	9.401588891472294	6.776737852764528	14	5.549168789916645	-10.109786407926688	-7.229636542291597
Si	8.295704833527736	5.711181367759907	8.195632100677196	14	0.11191095860689333	-0.34602783863308495	0.7202779290338394
Si	9.12724987555557	7.315641491156657	10.156267185078217	14	2.393087901323262	-3.1150231648464692	-1.2134750648606045
Si	5.392759181423278	8.517039085011007	8.40561755977558	14	-0.86318767604363	-1.7844615063695137	-1.8319163972634864
Si	7.146262404811134	9.365902515418087	9.50492522213294	14	-0.9521052397724392	1.5883321932274457	0.4034786727907298
Si	5.4687731304174205	5.76412053223738	11.058971779357524	14	0.09262458337939858	-0.9446498056756057	-0.7772788197604583
Si	7.297437503371652	6.9281261511819885	12.181747825967443	14	-0.9940973031926937	1.9925109779968517	-0.8149331713950909
Si	9.407246887675742	9.148373061381774	12.207299008822433	14	-1.2061499858035023	1.038518289808892	-1.365932097255701
Si	8.04357140271092	5.5528066740303625	13.795949542827524	14	1.186817073569713	-0.902186201539636	0.14754005058084538
Si	9.503892022826221	6.774343454371184	15.152031832887426	14	1.4061236156202557	0.5926032665985861	-1.3899194814505542
Si	5.7580689362980415	8.456178725848705	13.621289660025448	14	-1.3926086005048972	-1.6698102637124064	-0.6090290300468841
Si	6.753056268655026	9.622595143175653	15.194786604198695	14	2.0271046858583803	0.06112468654960439	0.09102561298079848
Si	5.528239490515103	11.090443358239888	0.036047175812109	14	-2.4759111741117246	-1.2153164904908942	-1.2387806547530977
Si	6.80697943247223	12.22568339648639	1.3616746863073694	14	1.6786756919668087	1.104881603448298	1.0733755359657355
Si	8.148613332227098	13.569400094843687	-0.2095754593734945	14	0.749060681761301	-2.0115410140239276	0.9240403396503627
Si	9.200328226519519	14.964596358657857	1.313147118869685	14	2.3148684497210574	-0.9533838504481488	-0.12205371198434549
Si	8.112730156304943	10.754145183898165	2.790425327606334	14	-0.3933909410671288	0.6781907347167393	-0.885966383627482
Si	9.414676082690702	12.101076280098582	4.124056032731398	14	1.238039147978767	0.6636652752105628	0.10818774099278691
Si	5.431249955595717	13.585537684015257	2.6519930204953184	14	0.13573199228753327	-0.6461372789115173	1.3813818691244708
Si	6.522669223246242	15.008154729429904	4.203579579370578	14	0.2676528351590111	-0.06089020174440689	-0.6002425347258101
Si	5.251489676216042	10.97651263468815	5.392152381830445	14	0.3659927285545668	-0.29691047103910406	-0.7398209005722849
Si	6.525014421672599	12.369790099789848	6.726357086570352	14	1.9124429016694604	-0.5769362363302638	-1.0431771326490002
Si	8.07258298324396	13.674884824062742	5.320533629887096	14	0.0363374314896528	-0.6604580784342101	0.8269417759033745
Si	9.577150773669121	15.0293107152341	6.605357967761553	14	0.1368085140850793	-0.5119615766742696	0.20694081101329048
Si	8.005621828175334	11.158421312626235	8.216771686492397	14	-8.949268913566238	10.40423401717962	9.417606803384084
Si	9.588991565723871	12.342976117782205	9.68958909822227	14	0.8109358739538568	-1.1165973590606166	-0.9506232546659057
Si	5.539686682833962	13.803214737952528	8.077748979777542	14	-0.968841849853943	0.08495394776726879	1.0508431402715537
Si	7.05250366772386	14.998331136021601	9.3611137186314	14	0.01940130363530539	-0.06112674343386051	0.7593808414058434
Si	5.458260737471305	10.594655290916927	10.772709971441072	14	0.6937958013468462	1.5843719197028214	-0.28114393899489204
Si	6.720518690487953	12.174154631062528	12.182485825472243	14	-0.022276056493762957	0.48963486940569984	-0.33251153796506655
Si	8.285356440471578	13.63623005000035	11.039570592375847	14	-1.3753318011956301	0.002182097085209675	-0.7894242070717736
Si	9.623759542394332	14.923989985905	12.405361675921087	14	-0.7878396348629664	0.8367567133525077	-0.5387666351894734
Si	8.078913378996223	10.762640378197835	13.483693752353204	14	0.2301758897914686	-0.09158457127739868	0.8156008874467333
Si	9.598651159242221	12.060305907455767	14.793249273632874	14	-1.3099748181785302	0.6892865968363704	0.8104995573810274
Si	5.5219254947518355	13.837293915085178	13.467703763082591	14	-0.10793448711875232	-1.0828631717076138	1.0934646102741803
Si	6.906002566027058	15.048170702578926	15.128202648876966	14	-1.9616695412395475	-0.44685784753120417	-1.2409946335442774
Si	10.858563913832514	-0.33093537794019445	-0.0890355402565695	14	-0.12829198482262077	1.0578303760895882	0.33993277636114194
Si	12.358834907140855	1.071411281076015	1.172730413090214	14	-0.6820988148033645	1.3541374087100537	0.0853308718072025
Si	13.915259462769786	2.616109844573164	-0.133200710621451	14	-1.239482052284434	-1.2830553454765798	0.1900681894603507
Si	14.94534277157714	4.0572588775527265	1.3066363232384715	14	0.8041206450817401	0.7134403315454376	0.3980389852648925
Si	13.681805619418844	-0.126640715023251	2.667113810349169	14	-1.3139793147146608	-1.0644622851523782	-1.2699054273166823
Si	14.90973839546791	1.081480874319252	3.987804924156784	14	1.0511879254949856	2.0725726265609428	1.2901747361080698
Si	10.894102689985761	2.519727109246611	2.5975450570302585	14	0.12225297264665701	0.3269204123358725	-0.8731643360174006
Si	12.268766167577567	4.089894855653772	3.7880038582246076	14	-0.7213336248782921	0.20619236225459536	0.49300995935945824
Si	11.001014218247427	-0.0358667759331585	5.273744461282935	14	0.4258254346807968	-1.2402708673966556	-0.08158965645585503
Si	12.277277761866232	1.2825939393710684	6.695279107423879	14	0.5693892708840332	0.8084948665629081	-0.9239750335752309
Si	13.575648490650972	2.7384701624685897	5.139674551244722	14	-0.08475854376293754	-1.1923156394073817	0.9660190333229525
Si	14.774832085990926	3.969223736624883	6.721551889794671	14	1.3796736267497642	0.959205347114028	0.1967114113865493
Si	13.661289233185473	0.0026731982062665	8.014789422023819	14	0.5440965365181404	0.22100321445130836	1.4952404400113763
Si	15.307684128443718	1.214222385248829	9.589893565118624	14	-1.8096164294902461	0.774009145124826	-0.4043042547090293
Si	11.004753415738401	2.6235226395991305	8.033288609610743	14	-1.0530676605945457	0.8826110911846886	1.8848274307573456
Si	12.141764652796416	4.107114844099047	9.685226701149466	14	0.019985715874575045	-0.6726847126736423	-0.475679166838468
Si	10.875127902717969	0.06714155494757701	11.10005375179125	14	-0.7489758352857361	-1.434272847996833	-1.4960061151757165
Si	12.009039541855834	1.3666274829840104	12.471142031782037	14	2.015956116079686	1.7786454090248065	0.15869967611241606
Si	13.536190117127797	2.6989953889564213	10.950551452108273	14	0.5202716461795203	-0.9826111472854641	0.2861174851261865
Si	15.018863922243966	4.012585307528985	12.309880939989286	14	-0.2365638009593765	-0.6598204443148133	-0.3191371623107202
Si	13.719361594218539	0.154717496183547	13.674392824392877	14	-0.005888088293671116	-0.290588380167392	-0.0473595028865956
Si	15.42469804992661	0.8296590432933495	15.410692459324453	14	-4.1746689984026135	4.457610654237354	-5.340373954856995
Si	10.63783646194208	2.851859686383477	13.724527590752121	14	1.0253701714227188	-0.3354400269247152	0.0001493812191006034
Si	12.435324455815866	4.014405706307485	14.918823989371417	14	-1.0699425961422737	0.00808998288984593	0.42718606361621914
Si	11.133690129221023	5.617947430320489	-0.068617553957172	14	-0.6792106921972422	-2.134542178318748	0.4324113209583561
Si	12.321934931900978	6.853178201472553	1.4735554112346705	14	-2.187609020795008	1.815358736112265	0.13792565934668363
Si	13.556312903625278	8.151712930147248	0.089051940245565	14	-0.05148998358341349	1.3043803501124196	-0.8161009674315022
Si	15.004858331641811	9.425450875460745	1.35890308816713	14	0.48615025036530307	0.28288509151769636	-0.43518271538294373
Si	13.692318012364959	5.61371623315965	2.6449738252052444	14	0.5447444550588179	-2.2480230538341237	0.5201544037769215
Si	15.020913920868404	6.5907291775775665	4.241725953774111	14	-0.6831645379585659	1.8743401492669938	-0.25542928624596306
Si	10.771348772354445	8.467461918277609	2.8884480618324373	14	0.42903777366778983	-1.3927896063194358	-1.5170629535266649
Si	12.408198874017309	9.442588863961042	4.181390394259666	14	-0.8285870261977373	-0.06963427382769849	-0.48676731564213865
Si	10.907763880819013	5.48204072151478	5.334490020522267	14	0.0665510043277769	-0.5629496804991903	-0.31238698240320345
Si	12.032475126130404	6.769685857496462	6.892997374753627	14	1.6218072131641774	-0.3665722556937282	-0.21389565090429102
Si	13.607644869181192	8.136313340480473	5.549444676286285	14	0.7041743250821558	-1.3456692162276138	0.7388989022044798
Si	15.012385926590746	9.601160357558532	6.812801428565632	14	-0.64118250184906	-1.2013795569924997	0.250410745771566
Si	13.570712093963325	5.314219634123829	8.308152425175322	14	-0.354883239576739	1.1887376892438635	-0.8267702831785205
Si	14.949541168759987	6.903870567457644	9.473027243536691	14	1.1740332808074048	-0.2778737501381957	0.05756139168641117
Si	10.504865351166565	7.993567836263641	8.140085337949438	14	0.7616734960198194	0.019820908023553557	2.448817380469068
Si	12.063110305573998	9.280573372674498	9.49708602739309	14	0.26068565396247384	0.8786539029864486	-0.8939437521043053
Si	10.889067893364144	5.611403834711284	11.08627776103503	14	-0.9579776443236573	-0.44492437633045273	-0.7138766481182667
Si	12.316982135224338	6.9448213399794065	12.380253292768975	14	0.566348167511362	0.2737581818522347	-0.5873409853398389
Si	13.695975209910955	8.348053598401375	10.855103516154463	14	-0.11972274790109926	-0.8422000004257933	0.48005647364602017
Si	15.09240147289979	9.804323421234788	12.207971408371249	14	0.16809809449968535	-1.811873345740272	-0.12964361488942264
Si	13.67962442088244	5.410651569417369	13.552901705914215	14	0.20090411283211476	0.8418667851763021	0.942380291009511
Si	14.88072681493487	6.918105757905738	15.120593053983054	14	1.0893197313875695	-0.957172631247919	-1.1659217006328695
Si	10.884738296269331	8.335442006863834	13.61807526218233	14	1.1870705845542797	-0.9618381589618596	2.611562176581673
Si	12.478587626785993	9.843994994614901	15.113869058494899	14	-1.226183781347564	-2.4949121566486827	0.13515837869060823
Si	10.857399514613833	10.920736272114455	-0.056186362298582995	14	-0.3142276367018975	-0.21361822864024704	0.5690185174968677
Si	12.08807108882515	12.159165041120641	1.498171794716916	14	0.6755347829210264	0.4969226674356595	-1.1205167520106507
Si	13.645758443606734	13.418241396272162	-0.07908074693630099	14	-0.9328957405940167	1.0431107981317402	0.0695373431571289
Si	15.020405521209543	15.07293468596213	1.123005646455858	14	0.7167840540142901	-0.39885556831457153	-0.4989237587063308
Si	13.531434120319105	10.711390412586896	2.6824806000379526	14	0.30335700340831145	0.43843207828654684	-0.499517684035285
Si	14.913411993002903	11.928794395700852	4.0327080940264635	14	0.38024487956521164	1.4912976500029291	0.08915359119719868
Si	10.762049978593996	13.644479244465085	2.7281873693684116	14	-0.4236705913119807	-0.4785132962328672	-0.021037812171579642
Si	12.46399163658	14.719580523065087	3.962319341257777	14	-1.7705775376407136	1.739420883371159	0.09095027959491815
Si	11.00099781825843	10.690890426342522	5.473283127391183	14	-1.0853810551476348	1.6365046796162719	0.3415335465334661
Si	12.247446181883419	12.242870584953673	6.84487980704083	14	-1.1419330308853561	0.03435742328260677	-0.8647848466685059
Si	13.59234367944839	13.412009400453872	5.413439567546604	14	0.9037985416859009	-0.48425508863382194	-0.18587497379372117
Si	14.847976036910856	14.888123209971841	6.728849884897667	14	-0.18174140777051914	-0.26177220307076843	-0.046828569637985026
Si	13.406548204118371	10.760623179551388	8.004457428956654	14	1.1018284158806222	-0.6395758181344995	2.5215215540490235
Si	14.86498282549919	12.04203631971478	9.621578343857932	14	0.409820818283939	0.7013839044781992	-1.1043473277627713
Si	10.866813108297249	13.620879660300561	8.063202189538535	14	-0.3648100201072986	0.8793290752435196	1.088642759356775
Si	12.159509440889547	15.2053317971228	9.472945243591713	14	0.3408146654859527	-1.1356790743046277	0.030000942428147867
Si	10.921457871630254	10.650103653710714	11.027877400222057	14	-0.9049681374960363	0.597534132381566	-1.2614840289510691
Si	12.33446452349354	12.120362667157288	12.160181840438362	14	-0.7708705968605211	0.6409199919958728	1.1877526987957148
Si	13.51956052828636	13.555886503911394	10.780139166456031	14	0.004071088163922469	1.0146928852492076	-0.25808395248901594
Si	14.847648037130947	15.022225919988044	12.193916617802104	14	0.03476520058638225	0.04719315237238202	0.10077601568639603
Si	13.774547557188395	10.933118263806056	13.638673648360678	14	-0.1639352178758336	1.409149035250474	-0.4729327121354858
Si	15.135795843781883	12.410839272245584	14.832264847453168	14	-0.10117736522687117	-1.6164796258302987	1.6695780929019968
Si	10.866944308209213	13.516920130058086	13.635984050165415	14	2.2088388945340025	-0.0139477321407393	-0.35533421144989297
Si	12.365509702662022	15.060241094479613	14.85284683364252	14	-0.26600758486464837	-2.032401677038949	0.6264156155533215
H	16.226900231643693	-0.0521716449924846	16.187340178188748	1	-11.655137433517217	-46.76917324843161	-32.31004671685168
H	8.65397571312563	10.371730240501096	7.605555576622408	1	-12.968712056254484	-10.434250643350222	17.914383806331077
H	10.222787180442864	10.140875795405941	13.105783885933198	1	0.48610654157486055	0.45473828533745797	0.5601348343946921
H	10.117605851020226	6.334610549434844	9.233899003993306	1	0.9191058743199345	-0.8357930630785163	0.232317620523152
H	6.2945535763133345	6.192004445124473	13.068372231036662	1	-0.8974857067933413	-0.7617352025475029	0.7611788153562229
H	2.1325610890375453	14.519472777338695	14.060235365490005	1	0.783352284747712	-0.5975603576558316	-0.7406644802278255
H	8.149597331566829	8.430137183322751	10.298491169644992	1	-1.8529902049095481	2.0801959538351817	-0.031256927377040195
H	8.946653196737124	10.447047189962928	7.237308583718551	1	15.78194247816942	10.645289539133296	-20.768971999983787
H	14.131860677428952	14.259590351721505	1.980269151226433	1	-0.9857337546967838	-0.9240197708078014	0.8012656897342477
H	-0.08880594041063249	0.250395031983294	0.012967471298741848	1	13.35617608533761	42.95831385305623	34.52923276763609
H	17.628410491221132	11.928794395700852	4.0327080940264635	1	0.012801790499549298	-0.06874081472894703	-0.002540252056306302
