219
config_type=vacancy dft_energy=-23081.15541483222 dft_virial="-11.562582701576398 -16.846966373266817 -179.3297905987329 -16.84696637326682 -65.48005930343886 -22.554420036799527 -179.3297905987329 -22.554420036799527 -25.58775205378194" pbc="T T T" Lattice="16.51412570135774 -0.2557585064193126 -0.39395499929429156 0.1817618427508092 16.08027296981084 -0.08787413575636739 -0.6806074019092061 -0.0450687426853488 16.383314006129517" Properties=species:S:1:pos:R:3:Z:I:1:dft_force:R:3
Si	11.74973346119241	14.493423686483844	14.704856886222514	14	0.3739024769614704	0.4872321714840214	-0.4901488333591974
Si	1.3846892086870384	1.3261890555166498	0.8831210216714034	14	0.14960439104239223	0.3633270065586373	1.575231897400227
Si	2.9609420508269455	2.6465842664366166	-0.13746627351035567	14	-0.24661399454530336	-0.05050447891420073	-0.3440542581893393
Si	4.292693659738814	3.8017863450306772	1.2848523615749303	14	-0.788128112879887	1.7929304701835491	-0.08794414325460101
Si	2.643911200979692	0.18104153586624863	2.4987330179805096	14	-0.5541986664315343	-2.1255916464782483	-1.1517901344617396
Si	3.942275924960175	1.1546635005106507	4.0003399290078026	14	1.5169745075036518	0.5532373301523309	1.1073395801343595
Si	-0.09595115492750635	2.5889316303115937	2.3797601281072427	14	0.21062906159504288	-0.39488012526855854	0.4800022233237651
Si	1.3050193022626153	3.843729352336236	3.8747818482128418	14	-0.7982466978673299	0.8697123700145698	-0.043166801441030134
Si	-0.18062025546358135	0.023348846787831178	5.2548138433503935	14	-0.6109578732580593	-1.3247913268069473	-0.38682485230053465
Si	1.0848019931083288	1.1727719495053028	6.712858708661877	14	0.6498527832096633	1.309421516313634	0.4563755652053283
Si	2.571018126758176	2.5279467488054737	5.269282760082003	14	-0.495003337314169	-0.43104966358080565	0.8622967880501988
Si	3.954991984800685	3.8353681754032976	6.605060487979363	14	0.30892498908962407	0.1976874029660775	0.47162607641178655
Si	2.450548452395433	-0.1525761972860228	8.103564792747012	14	-0.8925296441782239	-1.4221619134968073	-1.4018316695093325
Si	3.6403467384885366	1.1892464913696101	9.349456151435264	14	1.1622730450730474	1.2957720323900321	1.3089219505499294
Si	-0.3209512357120746	2.624889151739256	8.136589872156106	14	0.6812369803000509	-0.834922743927646	0.1775183672821759
Si	1.0615208816009265	3.972492468351488	9.467594740903246	14	0.288800433527761	-0.4170844479238893	-0.18016711998299245
Si	-0.5749800143604356	0.0859577229442338	10.910992264841992	14	1.2449703337008222	-2.269666361308598	1.0823252964746388
Si	0.8213233168001367	1.2671602367429142	12.299618380193957	14	0.007418667290755267	0.7237502067686994	-0.4967527173739977
Si	2.345913964932949	2.5171074518568455	10.868697364494206	14	-0.8248974900633248	-0.19119356225897952	-0.5086325095057419
Si	3.6095387504534786	3.856471845456914	12.196943259623879	14	1.603024774579432	0.39716043857699784	0.027011261161879675
Si	2.195285569979258	0.02272601262388776	13.576464762038198	14	0.2912635524244629	-1.48263302507403	-0.03641353620712918
Si	3.5748004640735362	1.2818323593158094	14.858098871752752	14	1.1108424540225292	0.031081577994206102	0.039466209553741
Si	-0.537317546361979	2.4192332757971635	13.830458847006339	14	-0.485697992939489	0.39096304631331297	0.2902343389648076
Si	0.7976655310503494	3.8942549152961337	15.073065870633796	14	-0.12710464838577643	0.8236733868204021	-0.7700964370486246
Si	0.011168060870709599	5.288626964924479	0.04668447693557867	14	-1.0622531914613067	-0.6994123809187096	-0.7838176548106589
Si	1.3662800811304827	6.561987457946649	1.3058651672279709	14	0.07596947733654336	1.0902679550296404	0.8703253215228931
Si	2.85709230136943	7.7507267607530475	-0.1135838048791459	14	-0.6698919780748974	0.8138458509552003	-0.15579149888479657
Si	4.051101739409196	9.200800340014062	1.2652785176110002	14	-0.27539314772531687	0.3791593588990451	-0.34617387741526934
Si	2.769143822012592	5.247718159705468	2.597981724608894	14	0.06820139683277995	-0.9573852616578951	-0.12805158647518694
Si	4.142489849347812	6.508891258490475	3.961634998522745	14	-0.6629142553465476	0.9671742309432949	-0.7115500549140646
Si	-0.0499341183161535	7.973418885763003	2.8188962115275946	14	0.08955751184299393	-0.6190668823272744	-0.5212520086380927
Si	1.3366351574227884	9.272976411511038	4.123441366827208	14	0.0630190769494895	0.6209062510733082	-0.32321982044858333
Si	-0.1805343473030374	5.32813811045464	5.399848295388667	14	2.1727367191811435	-1.2654653855393185	0.08352904119884272
Si	1.334464324289044	6.596392024164479	6.686357693214089	14	-0.3120424542903036	0.7109386460689334	0.15384260105212433
Si	2.805867908565107	7.940841520036743	5.3097884577784615	14	-0.34421006717174024	-0.36364942316578386	0.46467252207344617
Si	4.073272653149569	9.404415897143235	6.629017300211043	14	-0.6738046861510988	0.052685547557282345	0.127948485151849
Si	2.6090291836388397	5.18681588219987	8.036311919681205	14	-0.3603272979816205	-0.0081450045436971	0.40804135629186455
Si	3.78829215550524	6.620426484156651	9.499673178466349	14	-0.14176483381072874	0.6604408520285651	-1.2279277620862208
Si	-0.07253292077923584	8.115140917380305	8.077186031219997	14	-0.5960169231321467	-2.1984894242888107	-0.2990928252348458
Si	1.1420019593104853	9.417571410266529	9.376912069129098	14	1.064492367084624	1.379912739544538	-0.11564008976323613
Si	-0.43167198593309336	5.169389742249539	10.85233846823063	14	-0.4806462852064621	-0.5412282114229832	0.31275619312717673
Si	0.939415648027828	6.433158258730979	12.125571751091996	14	-0.14501651070912003	1.8835786449033498	0.3482461883033087
Si	2.2985636997531547	7.990760769632803	10.721254179800683	14	0.1798693859869193	-1.0766943187129825	0.8300929225837479
Si	3.6110784890232277	9.23046013244185	12.194641912169308	14	0.33908405449496104	0.04907520146673042	0.12979351032958727
Si	2.2195364524528007	5.1810550792033965	13.524036002906248	14	0.10040757629401882	-0.49699980059526394	0.9470882419612341
Si	3.6326959559600964	6.414539317013094	14.973706474644711	14	-0.5622894206529763	0.5760198943941631	-0.879335760117352
Si	-0.5276082721405055	7.827726905880568	13.594490607032327	14	0.3061206845169386	-0.5929629642328749	-0.04912148136249308
Si	0.8457327989546832	9.19458191085469	14.886660030973584	14	-0.10229193938315535	-0.28511423983026474	0.4736533929567234
Si	0.11827571210885232	10.626646165921679	-0.11020034501772383	14	0.021742552139832227	-1.618169870467764	0.6781490828105531
Si	1.428578366244919	11.94838121373013	1.1557588295575858	14	0.18007456019146714	0.8455714908321035	0.7574833656795742
Si	2.765829749511609	13.358274555056747	-0.2124393164650409	14	1.2677366999791375	-2.0331203009759307	1.2700146992927885
Si	4.169271718397379	14.601368942287289	1.1038422152288803	14	0.08621533203733343	0.9254796444085815	0.9194442317800661
Si	2.6966092491533455	10.565395299533876	2.638399862064798	14	-0.5241067068750532	-0.18227748322977	-0.4979446818004184
Si	4.082596992728606	11.934165065240121	3.8064931209804778	14	1.2105889991387382	0.5648785237103653	0.08394813136602688
Si	-0.03893622168652128	13.559116269848356	2.248978170319208	14	-0.17489866807147703	-0.5308877400464117	0.3871596102132179
Si	1.396769217723522	14.78176616694946	3.6081807406848805	14	-0.1486032026307266	0.5463665654052992	0.8880559209211663
Si	-0.00413185210616046	10.774981473820851	5.396583785287998	14	-0.6606069454322466	-0.4955890351060987	-0.03797702535231123
Si	1.3680990212219992	12.167042263514562	6.631186481264777	14	-0.4169870030322557	0.598017500181754	-0.628803915285207
Si	2.69220810800548	13.37111452089804	5.008721657072283	14	-0.017967912419322836	-0.06465404282257164	0.7628569757986836
Si	4.08670736779463	14.449975634288755	6.620215017915312	14	-1.6223044649330944	1.5841621175086975	-0.5705048734824454
Si	2.655751658414659	10.843653483615643	7.925796027381484	14	-0.13559238126864925	-1.483762511641171	0.6515389140786164
Si	3.870436877785332	12.00501782064872	9.467662476183675	14	0.645438195374969	0.9328093514552598	-0.4059711022880813
Si	-0.06217768327367256	13.498749266266149	7.9585171240686545	14	-0.676985143432122	-0.5259684442373724	0.14406931550917743
Si	1.1239942871964714	14.766107752610319	9.44799446365915	14	-0.09698594933396576	0.5874690263847825	0.34684030791425174
Si	-0.24722220900526576	10.666381994333262	10.759242107561198	14	-0.03611888753744021	0.7668984962514244	0.5541683273887564
Si	1.0764110787352026	12.07254163483624	12.242154081190126	14	-1.4531596734575765	0.6570665334064028	-0.8476918813896296
Si	2.446535550050026	13.393055795516961	10.781634400022973	14	-0.4105258153627236	-0.6970693326404587	-0.13995169033896032
Si	3.80290810735778	14.701118229158842	12.031636133777251	14	0.3873802110496866	0.8501637420444198	0.6651449463223081
Si	2.1523959208277064	10.57920999258134	13.50683784999736	14	0.717459483381893	-0.8288199683397426	0.3448952667395597
Si	3.473430486711721	11.883507335879386	14.862582616901141	14	0.47965589543714104	0.22998511377671366	0.44506758689678505
Si	-0.374566188291533	13.457115197922546	13.729658837248133	14	-0.8788359372431154	-0.7115335998400157	-0.9227481021164564
Si	0.994609989097286	14.790958340127657	15.044195772451008	14	-0.5478302956640595	1.5814349460956165	-1.907174963979009
Si	5.428764651811748	-0.13832535511579486	-0.05758490084459376	14	0.18311514934307424	-0.19133034506201138	-1.0044796835859835
Si	6.775522103458625	1.0960311809394254	1.3308214878659796	14	0.20617924961746256	1.058608135448933	-0.0069255292903508655
Si	8.205850022434621	2.424252294868941	-0.16960914219386544	14	0.4084789584173537	-0.5551597456002056	0.4172148029636209
Si	9.64132251856319	3.7960453669943286	1.1360412546327456	14	-0.6863696778506624	0.7083734542910217	-0.5132918665669143
Si	8.103540011546853	-0.20031635334828546	2.722722025798676	14	-0.11793325859827618	-0.3382713281032622	-0.10412282348163279
Si	9.467540222262901	1.1446138978070228	4.030924886241448	14	-0.0063809691835435035	0.7206810783480385	-0.22917290160607887
Si	5.403033505648834	2.540927141447658	2.734382406512503	14	0.9654549328157118	-1.2435472269061203	0.4219651771531264
Si	6.827962427150647	3.8115303129323705	4.068666654080407	14	0.17019148845134993	0.07870127673920069	-0.2189920958698885
Si	5.332241877200623	-0.17720044984192912	5.583415861590908	14	-0.667124183197758	0.027156785723000055	-1.5486361268580835
Si	6.745949871271391	1.0970769475860467	6.839191614981743	14	-0.9001308599467096	1.079655717820729	0.5735824865506626
Si	8.106512103485672	2.448461875342222	5.529021127246513	14	0.09881631921137918	0.2552223122676911	-0.8943543576239331
Si	9.354361176986318	3.9695154201726393	6.758680799831995	14	0.32019825747634534	0.5073590410406726	0.20107766244122477
Si	8.083391243739284	-0.28196545162523956	8.059117232145594	14	0.30301736039551985	-0.3978188986494878	0.4941499874584118
Si	9.410797882223642	1.1873945096778844	9.337224151037816	14	-0.5493624173243357	0.5023582411929847	-0.4909137371919415
Si	5.192115754873426	2.5377766248677105	8.197606143182426	14	0.06536778165944476	-0.38588485619548846	-1.3934077000383993
Si	6.490141802451764	3.9879939350896345	9.40762754068357	14	-0.02206471163644679	0.332172152062807	0.5033715137996551
Si	5.088690589978599	-0.10847887764682453	10.633213183963258	14	0.3418533920352925	-0.31170435394070417	0.8876954519552815
Si	6.609737526488974	1.1803401280332202	12.002516571512881	14	-1.0768195315420739	0.34405940039997956	-0.4188932205166135
Si	7.938145325459671	2.587178773420496	10.602857865851067	14	-0.21587925865878527	-0.3604843925166816	-0.10520988681099142
Si	9.22959609459638	3.9472883357119106	11.913064699346526	14	-0.36933953634980354	0.39500919475562996	0.8148853488361362
Si	7.723302232579412	-0.27581640982630745	13.376729940853595	14	-0.7586110524729911	-0.6040241164306839	0.19572256428042037
Si	8.934861716570294	0.98984704242713	14.803872649569422	14	-0.18257753122063128	1.4746947373980728	-0.047623041181910776
Si	5.157346078973284	2.4536956648153594	13.441156105021502	14	-1.4910433676867663	-0.6091688981763002	-1.0880874006076229
Si	6.328662545989372	3.7399275131990235	14.783557021680796	14	0.9219299764035853	1.6005328593031443	0.725046043850054
Si	5.6590216511896	5.145256157456739	-0.15480980946016476	14	0.04785341221859604	-1.2172041960169473	-0.028323553317283253
Si	6.964653875136096	6.493264233671534	1.1114186541568498	14	0.18773079761380407	0.5938798203900396	0.8536535032954569
Si	8.34257120786026	7.8460930793568515	-0.2960659545145157	14	0.00017020717219380283	0.472728052152002	0.7420374504687846
Si	9.727440493268437	9.213468489534268	1.098134278792741	14	-0.6146620646927965	0.8462980851955773	-0.6351213781673428
Si	8.220614661488101	5.100696255414612	2.5865592434165734	14	-0.5983162626199552	-0.6903536055442319	-0.9003023526715636
Si	9.483960245486863	6.4532921578184546	3.84593653123021	14	0.9230581774180661	1.2197529327208096	0.1565070374953938
Si	5.413332572434041	7.8428087442960575	2.467234460501079	14	0.6647258561551239	-1.012943248078847	0.0007664464959361424
Si	6.750390662339507	9.130838055731102	3.780078013693233	14	1.0938160803714447	0.6585094377120699	0.33322913345991984
Si	5.4104381282557155	5.234681596342929	5.2904706862161515	14	-0.1552469387779892	-1.4380983956026812	0.36426006067931904
Si	6.557693701999463	6.639508008277464	6.6013416558758164	14	1.0017913358632367	0.8988144540227939	0.5644941434650032
Si	8.162456488879878	7.823486016493717	5.190678445264326	14	-0.8585540300356591	0.11338137373948602	0.24119487586202726
Si	9.525490232789807	9.133078276225284	6.561217588661775	14	-0.5059421048987389	1.129726708377953	-0.17538512119804905
Si	7.835623848330567	5.44008635612343	8.134610680303576	14	0.6180757212263572	-1.0864642618190132	-0.7957442410592298
Si	9.255870775082736	6.679803891812593	9.463715657038687	14	0.6951857408829182	0.5091315610483828	-0.48024827810290316
Si	5.213675399009929	7.986500055285825	8.023551253680411	14	0.14628663673727316	-0.5139716668135614	0.5434730434780045
Si	6.566788402457046	9.279351788271404	9.429489515461988	14	0.37540605935269294	0.35690232858465126	0.07339451535841506
Si	5.118056312164525	5.366861213819812	10.826366118386188	14	-0.18698980506053742	-1.443667666836654	0.5175390754452669
Si	6.389989408057658	6.661920125699364	12.234006022578537	14	0.4995811903366926	0.1957559886495823	-0.10980162380224387
Si	7.913380646102877	8.01021731591599	10.916237618875204	14	-1.004336730130183	-0.763557601998424	-0.9061035376054137
Si	9.239744822100636	9.315332438819212	12.148986681080245	14	0.21194829573481083	1.0734922641472702	0.6888466807160931
Si	7.760857315377188	5.208697681938413	13.425905754444948	14	0.1482748724813437	-0.6188401108380372	-0.09252456738244481
Si	9.111336903287631	6.630200189498533	14.69590096048581	14	0.20240538122854926	-0.32075284489390127	-0.3727218253984584
Si	4.9708708519526335	7.890932182920746	13.648708568815604	14	-0.5980311270399506	-0.14278787661761566	-0.7199470277791363
Si	6.253402041112867	9.275515658487116	14.920357506946937	14	0.5937898317038345	0.5430536962002884	0.4461734192949807
Si	5.431977947432093	10.578200571694952	-0.055481802991278174	14	0.259144019212513	-0.05508001794193625	-0.7068688434576711
Si	6.869903782376195	11.972532971403044	1.09012169074201	14	0.7890069166783137	0.5105657235959613	0.029565397186914776
Si	8.465305883917344	13.338993129254666	-0.2324096596314814	14	-1.8751029962154817	-1.092886111577147	-0.8948256412291161
Si	9.6361597685305	14.546610750340593	1.1697238618860042	14	0.6497213997278037	1.1512651147553654	0.8983819941079451
Si	8.173147098627565	10.571123060930141	2.428349453294882	14	0.5415750535306713	-0.35900832095238455	0.2613006623550532
Si	9.59121988808597	11.898227368772584	3.854633080405272	14	-0.5668107093584567	-0.69066728039329	0.0019776942122579026
Si	5.629510545962754	13.402133975174438	2.485428817656275	14	-1.1266940896528383	-1.132193169711571	0.09673552367578334
Si	6.8265730278618495	14.56250706420124	4.039358754694846	14	0.7354430795436688	0.6457968645671298	0.025197089247983185
Si	5.472468776408458	10.543029440352269	5.159761419948578	14	-0.1615618305548049	0.3675780720949701	-0.1446565559642993
Si	6.791005397316655	11.80992699637352	6.600277716349081	14	0.21651637855711794	1.107969500937796	-0.08619836274222047
Si	8.29839624046057	13.240836447513196	5.30084409660183	14	-0.8690027449462088	-0.8052375332328126	-0.29098870126573906
Si	9.710729703962635	14.552834135739996	6.513545167879941	14	-0.6142481167362528	0.5280762363788297	0.2559193389199833
Si	8.12367886687436	10.592950342028336	8.032014859573998	14	-0.7421428657869106	-1.8537165421624902	-0.746004923088305
Si	9.463299332876051	11.870543464037308	9.25211724929897	14	-0.5697906204245082	1.67057131088717	0.5388604805336589
Si	5.432346361274425	13.324084759240275	7.9427711494889595	14	0.08703577174499269	-2.364679501530414	0.8602941541163354
Si	6.750403878979592	14.490240128303686	9.375542494800428	14	-0.5217492604070094	1.9779387243738487	-1.1696919694743346
Si	5.064393449264764	10.571959013415434	10.832088923542422	14	0.44067845300476016	-0.471978832061711	0.042779078758751796
Si	6.417283421910469	11.893908831625243	12.20941976786287	14	0.37413156244549556	0.04708285195414767	0.3605694961027785
Si	7.8338825559995415	13.163153993341357	10.724682245822388	14	1.247222107740208	-1.5699763010153125	0.5585330357802399
Si	9.28613027255432	14.512163230042491	11.919033664424317	14	-0.09800256437755231	0.27770611407132206	-0.10437864846098754
Si	7.872189335202077	10.615896081293617	13.70167425395095	14	-1.0951944499335762	-0.506273263263974	-1.274604122289253
Si	9.258234901577705	11.99220263600758	14.861624410495075	14	-0.41206822144428046	-0.3052112845652022	0.41607683174892335
Si	4.891323199448985	13.2522721453456	13.528248806932922	14	0.5674491148094494	-0.26425949035747964	-0.3958208927052007
Si	6.353281842305248	14.607453552965813	14.730829236066954	14	0.34528118964811394	0.10766889193918104	0.4066100219601381
Si	10.858651065950598	-0.25999113540611113	-0.1953997632371565	14	0.25661225180376324	-0.2952364243651557	0.5471142428323983
Si	12.083546139785913	1.17947774226776	1.1381641774461868	14	0.951548595470627	0.19828518495301195	-0.20699454711448156
Si	13.60074538195193	2.4179975199493398	-0.34158736712273047	14	-0.415480849535713	-1.017943533705471	0.26913764848139654
Si	14.902463828353644	3.7146226036788077	0.9372448148940835	14	0.8489514658859701	1.526979963857008	0.6557933220518654
Si	13.64320053406073	-0.25756257779073494	2.1788969362754953	14	-1.1383491671796016	-0.6722414541164488	-0.2991689299523222
Si	14.99417739805432	1.003455225473289	3.4119400687223997	14	0.7165323428034476	1.4583162822876656	1.167145289654728
Si	10.863415664700765	2.5564203477857514	2.611622949255262	14	-0.24982453375857228	-0.9646614897139141	0.1067342951553072
Si	12.211441913795676	3.893709728892682	3.8844547766740853	14	0.34982664674360375	0.4606569697844388	-0.07882031891552353
Si	10.885394937159926	-0.26264437590290984	5.182411436891985	14	0.5425705855106325	0.11155666029377695	-0.12285949639167991
Si	12.220802599134942	1.1807101939555633	6.466320460780942	14	0.19242794992318257	0.38153223199900976	-0.14163550721312526
Si	13.701150544587636	2.4881497934335024	4.955030708812343	14	-0.5137675210511417	-1.139502307915688	0.12657962867940217
Si	15.03558017519646	3.7456800557954457	6.338520507411787	14	-0.7175430443047978	0.3664267311326078	0.7442038638115414
Si	13.451519602927117	-0.16224416950723475	7.934376930955813	14	-0.6083816257272708	-1.2367335406971958	-1.020760950915289
Si	14.75907319592578	1.0952150534142582	9.220769031100492	14	-0.7283216320279227	2.4206969444720765	-0.44840796692872137
Si	10.822473817881544	2.502813655606346	7.926570852906389	14	-0.22603923844188242	0.09320873850813621	-0.31202059989508235
Si	12.168534091764007	3.9223634045941007	9.186010919760424	14	-0.25715064125780224	0.04442921415322283	0.7461753873710308
Si	10.578613591697565	-0.17889548393266108	10.733861202360503	14	-0.45812957325473325	-1.4590763010203014	-0.5403753757882901
Si	11.77692008984454	1.1207314291758128	12.052518425109465	14	0.929724539292146	1.4085486821582194	0.6144496913933523
Si	13.29198649671705	2.480110772102604	10.682650026196264	14	-0.5684544169896273	-1.150755521680912	-0.9521078108777592
Si	14.620389339447716	3.601529466562768	12.066518151118103	14	0.8203936848740213	1.2319003769163814	0.5937978021303268
Si	13.047789246210934	-0.2533910757643234	13.41709190758914	14	0.7424025474242456	-0.6556873925126753	0.41241403510984037
Si	14.479632122556524	0.8769918048325969	15.011710923205333	14	-1.272714359878944	1.567402881700376	-2.7292375533163384
Si	10.245764075750158	2.4273549011285853	13.338451247011236	14	0.6752882139208243	-0.16214727123620265	0.5766899244405936
Si	11.702391456412666	3.751232696710601	14.671422090970824	14	-0.6984073358490637	0.5899313739498881	-0.3426244665208049
Si	10.997620732270473	5.255210342552904	-0.2942618831430934	14	-0.026850052858306387	-1.2142795637152786	0.021172280979823384
Si	12.255045261511746	6.513475780519501	1.1453903754119388	14	0.6968235349718525	0.4692768574807673	0.0697872545942473
Si	13.752749959554333	7.761668486662325	-0.2520941929561123	14	0.33475328469370363	0.13259961467599687	0.24182993887610385
Si	15.182653293967642	9.13068606437014	1.0633761674526732	14	-0.14445420997560363	0.08900883796767434	-0.3175199370643471
Si	13.65347647172579	5.1756808629293705	2.4617445986263204	14	-0.16504747803732966	-0.7243225348129644	-0.4109801296727938
Si	15.023605899280646	6.404403806148921	3.867132717764412	14	-0.3611564794473683	1.1241859764130337	-1.6928388827333765
Si	10.938249932934571	7.9142661609884835	2.527945096725463	14	-0.005660288362305996	-0.8451886532499333	0.23472880309238686
Si	12.377274401085629	9.170403719901609	3.87060869410642	14	-0.4635011264895867	0.210701309654539	-0.3449122360346727
Si	10.849586102933205	5.270766327931395	5.272942117305171	14	-0.24888659453778228	-1.0537194357932034	0.36001053780617825
Si	12.331726555197246	6.476003301722248	6.57416659178376	14	-0.7741739529758475	0.7698688942277914	0.17345139288676567
Si	13.657263039109766	7.768888076308035	5.13775571420925	14	-0.08598727499543632	-0.3382345612971841	0.18799742123550345
Si	15.006553129412678	9.076828256029144	6.413655454207498	14	0.29056549733004267	1.3710293135528944	-0.42975125539413095
Si	13.693560889019581	5.154559019995639	7.85111540258865	14	-0.3988162304031732	-1.249132953214142	-0.8326509152667633
Si	14.923235430325159	6.482643011284287	9.161442837924874	14	1.0783130866225479	0.606770314023134	-0.16501122545231556
Si	10.890714634793605	7.9265923299465255	7.9175703210094035	14	-0.7182287580936814	-1.6175103819531462	0.18195532373315546
Si	12.038644257181621	9.241648018272686	9.319023185562578	14	1.0723532644904448	0.8341483270052176	0.09330592628923781
Si	10.712038877502335	5.281121565436958	10.647316991012556	14	-0.5472885637731042	-1.0967977912112203	-1.1643522979454513
Si	12.034248072273787	6.590859208209448	11.854199436493827	14	0.3470480532241197	0.32245054573679505	1.2988920686960317
Si	13.494286998157897	7.766253008691351	10.471365513658533	14	-0.36819256626648555	0.5306553121254703	-0.02033127242960295
Si	14.912338310576164	9.037683872261304	11.777987333531296	14	-0.5414482980383879	0.6254679061323148	0.28566265659505236
Si	13.125142936460694	5.116473619514505	13.329591141915138	14	0.305520331424684	-0.8587178094445527	-0.48216169468215736
Si	14.42711415110401	6.395024947929541	14.700868765077264	14	1.066302168119476	0.23989081124364814	0.08513495358180723
Si	10.647556542614073	7.905189633411016	13.319794307453112	14	-0.5054286551663054	-0.7440475406080763	-0.1780531571887667
Si	11.9293442957696	9.154799824202813	14.700936500357694	14	0.7882152733502401	0.2849707721534005	-0.1978766363176404
Si	11.281149051585608	10.541577262023074	-0.34801230628340946	14	-1.21690980445779	-0.5862063565620577	0.3820359115312268
Si	12.464274586516462	11.801116453677736	1.090742872825943	14	0.12150323833530181	1.0512614591071419	0.09096724889003112
Si	13.810544674560255	13.136221785010838	-0.5027362075830303	14	0.2737499543152102	-0.4924090920461396	0.7434482159579497
Si	15.191184635141656	14.860367177607115	0.3790201959997332	14	-0.021627880842553626	-1.3321894252551416	1.3350253544232649
Si	13.726169644266042	10.468500806920396	2.468718028350472	14	1.0243214175626303	-0.05388933906817568	-0.3191122225891148
Si	15.191863640025955	11.938994095110695	3.589005048003471	14	0.04302899019587019	-0.006572516529894535	-0.08204988430816154
Si	10.937252076608253	13.118511487298708	2.4484850044623685	14	0.7661611032456059	-0.0513912531391198	-0.7200349595810853
Si	12.403651510532633	14.478019692466313	3.598104704701085	14	0.16030687404804062	0.5151847143036072	0.2808279501510459
Si	10.96215883484595	10.514317941850482	5.170656887617561	14	-0.5371319264269233	-0.1793219976642598	0.27122924265933707
Si	12.290475769416071	11.832834737798557	6.549132623385259	14	-0.12643179012349365	0.783543832094063	-1.0615677347829553
Si	13.698279229529454	13.160054691241733	5.020654630987835	14	-0.03768854733539062	-0.3738489979708113	0.06311189385154684
Si	15.015300893068062	14.580585775755702	6.279884883680541	14	0.24766197707379572	0.5564519831341119	0.20286560908085574
Si	13.588635635475258	10.44248219883566	7.732904121600206	14	0.2434595054280137	-0.6325898678691251	1.2690633903243338
Si	15.016606036276327	11.850508689750457	8.959461187926044	14	-0.22630174829506955	0.15114139780277677	0.3933973688304292
Si	10.892837557607047	13.18338206098943	7.880659549415706	14	0.20831095303839733	-0.44854963483186155	0.34893550163964043
Si	12.136781113962966	14.58014962663294	9.226934593699527	14	0.7629806459645827	0.12890647899413618	0.061176622877071374
Si	10.621592453169683	10.652027071122378	10.729165990970774	14	0.41453905365694277	-1.5114039507170192	-0.16671329717425362
Si	12.128094477267968	11.844936223875177	11.89738315588724	14	0.008330381237279777	0.7245176817067635	1.0779747291624164
Si	13.558161367602311	13.1347943878818	10.475294159923408	14	-0.5449414017263412	-0.6178872592063902	-0.8167499144143076
Si	14.703074291891227	14.493344386643342	11.841404076812815	14	0.8608955356507181	0.8236690159413579	1.1815239390471242
Si	13.415297748697784	10.34633609846692	13.204943357205943	14	0.11601675669263782	0.18236335814746293	0.057861696787804465
Si	14.673794477865846	11.703128284097332	14.691161142935801	14	-0.5550144781496172	1.176279655525618	-1.5204017908954093
Si	10.472414584465175	13.179692966326073	13.350045544524644	14	1.282885909635982	-0.5029423963217222	-1.0447791883739845
H	14.379395472081884	13.91418295777643	1.3635425845531504	1	-0.5105376985479717	-0.7076743707544735	0.5880652657085247
H	15.215990616498711	-0.02292756638516388	15.948023964973517	1	-0.29879586257036866	0.003987013019953626	-0.17625286924359904
H	0.6121369458756916	0.399720758530797	-0.07627818616294865	1	1.2919261730521545	0.09716155582733187	0.34456385126379263
H	1.8581389939246442	13.808370537266489	14.116172868175314	1	-0.0207279939805018	0.08710904824661692	-0.09544045792602475
