226
config_type=interstitial dft_energy=-23357.627596370156 dft_virial="-43.4843928102357 -25.054215920666174 -22.182452657794393 -25.054215920666177 -21.043441068300943 -16.689347119811803 -22.182452657794396 -16.689347119811803 -32.55876745711591" pbc="T T T" Lattice="16.3852778749 0.0 0.0 0.0 16.3852778749 0.0 0.0 0.0 16.3852778749" Properties=species:S:1:pos:R:3:Z:I:1:dft_force:R:3
Si	0.5159396297248513	-3.014415955923228	-0.2815154591686569	14	-0.9196172671681121	0.11404086225410402	0.2123203346746363
Si	0.15615169814779703	0.07537227822454001	0.0177452559385167	14	-1.2854457020927212	-0.9460711126965836	0.18630666237697405
Si	1.3364651898662185	1.5062822097616821	1.3346791945778544	14	0.8372519082371683	0.18726954131936951	0.29413650550919634
Si	2.73720982483567	2.825444546192007	-0.10516071340110822	14	0.15974328776186417	-0.23546645320873735	0.820337120556978
Si	4.084636765600197	4.113474854660021	1.3928797015894994	14	0.23620667443040794	-0.3376709750110077	-0.45863736655546256
Si	2.642732312608997	0.025266098483095804	2.682515767289254	14	-0.024247322942720487	-0.36863968148165926	0.26283406956798955
Si	4.012148296281639	1.2872110445742693	4.140281169263357	14	-0.0008826604564068355	0.12217532526598852	-0.1862989490610136
Si	0.0802550910312602	2.933784003500845	2.728542012839848	14	-1.4583286235932023	-1.44047306847637	-0.2591766722500789
Si	1.5167851728794932	4.094533473436637	4.011312647110019	14	-0.622710138565924	0.8552118502299987	0.8406627365548767
Si	0.20225987008776564	-0.0296737382314439	5.448743919241371	14	-0.5369324086540798	-0.2782648152573903	-0.33679345676524114
Si	1.3870956984996596	1.3753310689854814	6.8793261452210155	14	-0.3626708604809355	0.5084617881124841	-0.6551405184110799
Si	2.6666056624727257	2.6880867617667197	5.439928639744675	14	0.832262421252889	0.5925333325338781	0.5533057215538468
Si	4.118161044132242	4.154732984349018	6.776229976832145	14	0.10987130075641988	-0.823947980868594	0.37618253315937766
Si	2.7773701409070495	0.18107370579551993	8.173943335394739	14	0.8156669648534612	-1.506679544691247	0.13942307108513788
Si	4.037135845040861	1.3977952849519693	9.673458425394088	14	0.3033449192133067	0.6075956388309016	-0.46641650281210256
Si	0.0724556987628078	2.8119430772230887	8.156443858624346	14	-0.8854534481161123	0.04772794227897282	0.11155923139909708
Si	1.3408728296145669	4.131072643097663	9.622123349812027	14	0.6764547244045754	0.7635380615979909	-0.30785155261846225
Si	-0.059576870353136406	0.14632053142285703	10.935092051205638	14	0.047722285847268495	-0.6301501460308366	-0.11882106126532334
Si	1.4671869367521708	1.5162116881538719	12.159924342910164	14	-0.39834417546639406	-1.019644319874749	0.8069030952592045
Si	2.8657195592085105	2.9044052002711496	11.02247473811248	14	-0.3510255531543888	0.1328760084979128	-0.8134794684470791
Si	4.278114126747016	4.088372608955674	12.426430887545413	14	-0.4439823233411505	0.1375921869866604	0.4567062093494993
Si	2.743239607093633	0.09005348720045041	13.648657920067828	14	0.8794306339036655	-0.04834089378729612	-1.6951281949104366
Si	4.111590547704407	1.4549799047353704	14.956940431989219	14	-0.11720152202416204	0.042658236808704834	-0.1921343296956217
Si	0.14428875696636942	2.8317037223402184	13.532945087715284	14	-0.8625117324549632	-0.024820422318581493	0.4862332970671439
Si	1.367875767552402	4.202692692688851	15.01245375342938	14	-1.0314300095517757	-0.7195618762021782	0.6030522386196678
Si	-0.0252169426494711	5.5139573251834735	0.028051595721828804	14	-0.7119182371959099	-1.1633498239811255	0.2739810966834915
Si	1.163076179394027	6.897120556993157	1.398843942735963	14	1.0253004944685427	-0.15196132328937198	0.43113116761945436
Si	2.6451573337344816	8.160474636981572	0.0612317834185013	14	-0.5346682933091574	-0.31229699371699826	-0.7366430143965819
Si	4.126124289179444	9.347882954019827	1.320342076437317	14	0.07287900874172536	1.5913105616303052	0.3874666001884436
Si	2.738963049568284	5.488838694201252	2.651498436272068	14	-0.10186333612628667	1.2312437166176156	0.3403408107754494
Si	4.095287196218882	6.9008072445150095	4.130122296980919	14	-0.2955503563247458	-0.7710855412652855	-0.7900019344372109
Si	-0.17481452964730812	8.270665630690276	2.7550206218856865	14	0.6821345531673145	-0.26329969674146836	0.633871049650155
Si	1.3744298787023619	9.548684534376724	4.045033548976564	14	0.06725137341698524	0.3211253980547908	0.5182286458921306
Si	0.0009995019503689	5.4778769433029435	5.331556411880086	14	0.008848201848757599	-0.7176266052277026	0.04065097488526523
Si	1.3648281058676706	6.604512264703193	6.846375351414593	14	-0.8184884958317916	1.5292268527962856	-0.5300572730280039
Si	2.630263116146198	8.094671361035974	5.479695709147058	14	-0.31535943726382665	0.28219397840764054	-0.11435890798220633
Si	3.9680555135202833	9.483454743156749	6.791714064423926	14	0.7658564272651683	0.541432100074871	0.24738764013613593
Si	2.825526472581381	5.555494004596346	8.180907078491572	14	-0.3256595422868719	-1.771467140081485	0.620067299407344
Si	4.046098592038431	6.917618539614657	9.543097154621384	14	1.0759430417384352	0.00868570799252424	0.45324858691496417
Si	-0.0395049049563839	8.12164152841806	8.078286083161073	14	-0.4927482208378671	0.3321870644736638	-0.002073082219635396
Si	1.2442488459862815	9.552649771622452	9.477736281178409	14	0.47934761990925534	-0.3757626716605975	0.24390610642212343
Si	-0.14727087753960122	5.537781519213579	10.87359810334114	14	0.280135037267266	-0.6374114616759987	0.23521139956097864
Si	1.318031752256956	6.719733538719489	12.327807900016388	14	-0.26106694888145177	0.4829443391416105	-0.19079375538169646
Si	2.606783012951466	8.145924510228662	10.932028004243032	14	-0.524817617496074	0.05556724240010432	-0.5562339534029634
Si	4.027271907760172	9.441590358186378	12.184502259722514	14	0.5092290059400163	-0.26994934643096735	0.6895334229471046
Si	2.7033742260240015	5.426672949943881	13.746822119816354	14	1.0602994085285262	0.44811177559584037	-1.4347420747177597
Si	4.000383666767461	6.810163887311063	15.044110110283686	14	0.6054971026685967	0.5862968594693269	0.09872684474623802
Si	-0.05680775839227831	8.250970526684645	13.59178462056405	14	-0.20300984808931605	-0.9070422481577998	0.28975611337526014
Si	1.331025277611752	9.519223804757655	14.95677657921047	14	0.9101579135847551	0.09055124404923116	0.11408637081827065
Si	0.1414213333382619	10.816544565780738	0.1007203030970103	14	-0.21717252463481973	1.0002805543771178	-0.646722462482383
Si	1.557944990901242	12.224891969684142	1.5698079320826697	14	0.38045031088029146	-0.29247300036706053	0.2853181284821525
Si	2.890182779075736	13.62468625853685	-0.0462392541629678	14	0.6266773540749125	-0.11581261093021805	-0.2848388744504769
Si	4.140739957043855	15.17684724634825	1.337923479597085	14	-0.5334657873509241	-0.5757872093626897	-0.11295148492995728
Si	3.028851385731015	10.908089113267804	2.857428608603811	14	-0.785713073652672	-1.701532818262925	-0.6247587952850181
Si	4.246556081559958	12.344438957059413	4.132170456715282	14	-0.39367144865755693	0.9114591499872821	0.3688970491242061
Si	-0.0619199650892471	13.38308533627145	2.822544352008149	14	0.024146535614170683	1.214528189599737	-0.38884445552951097
Si	1.424077270663309	14.797265899098317	4.057175039881864	14	-0.8253916565058573	1.3215141959658867	-0.6757235020515253
Si	0.08074664936750721	10.987033382069072	5.517431004092953	14	0.29995465973815943	-0.6327991558421852	0.24614476782437636
Si	1.5996127525371127	12.34345584038692	7.007196853756735	14	-1.3965565327239846	-0.10502348167528067	-1.4696278601436572
Si	2.7553319421653093	13.719540632154645	5.507141049587515	14	0.9289907458337758	-1.1876071742345946	-0.0944341273037188
Si	4.1473923798610635	14.94915742499864	6.851077926164688	14	-0.18476528473754528	1.022201284115636	0.7582832365446722
Si	2.7837440140003857	10.894014159573263	8.257868728669978	14	-0.28358957437541693	-1.158151820355382	-0.06060120950642224
Si	4.002743146781446	12.226235562469883	9.625105470385257	14	0.19052404643361293	0.7077617883353585	0.9421044114086592
Si	0.20150614730552022	13.673956789106674	8.304779779225816	14	-0.7604033699916662	1.034215287945092	-0.5826425474778004
Si	1.407691992788409	15.262525864356105	9.539394081821657	14	-0.18109837432995007	-0.6005166145529379	0.7050513291068584
Si	-0.023906120419479104	10.94485767681908	10.885788750080064	14	0.7356245995792713	-0.2590530020841798	0.08560803696071448
Si	1.4127714289296278	12.267493692158881	12.230446578883733	14	0.44803412821517186	-0.7756114579603421	0.3000366779978722
Si	2.6616081527208815	13.764174129085873	10.986066650674452	14	-0.35426668852096743	-0.6465404282257166	-1.5576627634160594
Si	4.096892953450622	14.848813983292752	12.300002083462683	14	0.5881357139942969	1.6089737980691905	1.3993934903342362
Si	2.8643923517006438	10.828473048073663	13.638417121396015	14	-1.3712789678794808	0.17530464560152842	-0.5334912412935936
Si	4.268020795576078	12.024663874052864	14.982878326865185	14	-0.7637926010246854	1.846910826380058	0.17986630066053513
Si	-0.1092078770362085	13.481511700465973	13.442055951343214	14	0.11549996452328805	1.6119501095877937	0.3972697105531041
Si	1.3189820983737004	15.192052784216159	14.834919267654838	14	-0.1695348281525841	-1.0426798808800837	0.26894918646142973
Si	5.396032480317818	0.05926555007351331	-0.15411992369130942	14	0.33536006554925857	-0.4328373531099047	0.6250341606648059
Si	6.607527155832175	1.426862767902042	1.2795918903624406	14	1.1444817675892187	-0.2504043180082657	0.21064217423217566
Si	8.031538885383984	2.8634420055838996	0.030689625459687706	14	0.5026917135530077	-0.7133081767319819	-0.18062863338795904
Si	9.499512315474151	4.059944151842722	1.3750033634279835	14	1.0270658153813563	0.3061124569799141	0.015561357839664234
Si	8.040698255716054	0.08431863994423541	2.7366691106657983	14	-0.020705368253684495	0.02726682903070239	0.1495185161246993
Si	9.579505242059412	1.2594707691320637	4.137856148137872	14	-0.4238107165519288	0.6838119422781791	-0.43562905926652146
Si	5.370176511831226	2.657380751029157	2.7733393625498244	14	-0.20537475076278824	0.6149135187931071	0.29675697605149126
Si	6.831644986605056	3.9877342322480382	4.138249394806869	14	-0.3606790251894168	1.147644998464597	-1.228662069765655
Si	5.4162191426596955	0.029280491562446304	5.528032278878013	14	0.26361028626414224	-0.656513488652039	-0.4029353982365825
Si	6.871952770177311	1.3782804190029634	6.759140132008625	14	0.18947169302607633	0.2620830497039743	0.7131130298381827
Si	8.247562388886665	2.8092067358179804	5.434570653879583	14	0.6227489622562583	-0.9978454605284055	0.7762292945687738
Si	9.573786780081072	4.127123791129812	6.926663213001602	14	-1.0478850836007234	-0.9913652466795042	0.4394461222248133
Si	8.210285881721267	0.07484794933254321	8.290803137198527	14	0.16184336658736115	0.2545713084006297	-0.8619401757422942
Si	9.70201796473004	1.4081671658467811	9.584191431531632	14	-1.201024487347787	0.6714084159927208	-0.4707763261034777
Si	5.482022418605293	2.643027247610745	8.258786304230972	14	-0.5503733759362179	0.3551467778720542	-1.0229412482267748
Si	6.716571180089634	4.1205860652577275	9.523909994229877	14	0.43342767889141065	-0.1851473509881193	0.3742212940211687
Si	5.334866238010817	0.0289036301713236	10.989261779860058	14	0.8494731431554281	-0.8127927262160677	-0.2763876512631501
Si	6.83533167412691	1.3869973868324104	12.235198309467455	14	0.8797561358371961	-1.8003529941322847	-0.25270391460660613
Si	8.127474687341524	2.7761084745106825	10.91057967550479	14	1.0053484600736615	0.2425999849194882	-0.5517574019300536
Si	9.560350852223653	4.220863965852116	12.214028530453083	14	-0.6579126841672636	-0.5121862912792506	0.36553558602864444
Si	8.194326621071115	-0.03127949546318411	13.737433355594035	14	-0.054586622830999826	0.008482847782764556	-1.555137166660078
Si	9.444359470147237	1.4975160860986108	14.964625127312548	14	-0.6409549590282269	-0.8168311613424243	1.8693321503244091
Si	5.718248969727727	2.5956737945522836	13.676136031064035	14	-1.515797969709152	2.169786375826274	0.917863259118707
Si	6.849930956713445	4.2693807736396945	15.025070417393053	14	-0.39652409001026123	-0.9423491806351372	-0.24420486886032458
Si	5.409583105120361	5.4839067255609075	0.0005243288919968	14	-0.145536645315386	0.19169389935428033	0.02204619967814172
Si	6.819159404864383	6.854240284794544	1.2803128425889363	14	0.720722730254225	0.020949623259098563	0.6347961333443441
Si	8.271976452920267	8.249839942511278	-0.10370242367024211	14	-0.27298145093501797	0.13794057175754046	0.8990533097070356
Si	9.468675222513587	9.883075285247685	1.2696132561366267	14	-0.06002399636204899	-1.884043243634701	0.36713429931671254
Si	8.230980487677266	5.4519390484269765	2.739667616516905	14	-0.7049289444936194	0.3772973644261939	0.26477499697416934
Si	9.58468298986788	6.872673722403806	4.159320862153991	14	-0.8227110220990709	0.07351047220835373	-0.2935796040968523
Si	5.473059671607723	8.192229305503128	2.7572981755102974	14	0.8974054883073528	-0.14369804790094806	0.36191881217479216
Si	6.830924034378561	9.60758960833699	4.2251896792110895	14	-0.5032136479329978	0.5728522926397406	-0.7431869916574227
Si	5.476353112460578	5.4953108789618375	5.368210278486239	14	0.3178557234191584	-0.0034506804501707373	0.6241407015660545
Si	6.785749823277461	7.0252534299748755	6.763793550925096	14	0.28335354690702735	-2.7190878579545217	0.07543314476676045
Si	8.168831128697772	8.313676985111888	5.587904084232897	14	1.8670451521421378	0.20284966822787084	-0.8868223045885593
Si	9.767182214838517	9.586305132377495	6.905280425374857	14	-1.7379134443219566	0.5402478489644108	-0.19797819497778626
Si	8.067324332262766	5.486888846134139	8.216626984258856	14	0.3776033259592915	0.22072990595577663	-0.7333008345909214
Si	9.481308271755138	6.7783272924001325	9.571230676732586	14	0.20634714279486827	0.300641401969171	-0.2814666127125706
Si	5.50481434012928	8.221182091508076	8.107943436114644	14	-1.3994166302821174	0.7849731095415333	1.1760785950895825
Si	6.8764423363150335	9.557467043317672	9.515864822793299	14	-1.3084524667184703	-0.6086906725867526	0.7022279983548039
Si	5.455314415669207	5.450808464253609	10.955295098825392	14	-0.3393452787954881	0.523617939753693	-0.29834771891306694
Si	6.8947283064234215	6.747637666940444	12.28029059417918	14	-0.11449080568512991	-0.08773485528154096	0.40858668773026796
Si	8.104895774429911	8.137649944901836	10.872139813610273	14	0.15613294167131225	0.19615528130580126	0.49587211380184704
Si	9.714634628693712	9.336429644785271	12.067937392920475	14	-0.6449216603161513	1.5414331753036885	0.5134492182125073
Si	8.335223625517381	5.477287073299447	13.748100171490597	14	-0.6922618799128458	0.38910490849844187	-0.884805272464903
Si	9.667969357305997	6.809328238139443	15.067115040420047	14	-0.008628115233352922	0.3136475953416721	-0.16968703758753687
Si	5.48749510141551	8.122722956757801	13.577267264366888	14	-0.1329351439202762	0.438434906502399	0.0943315402014449
Si	6.9502416278635835	9.548143820206853	14.865445040335779	14	-0.3050197372188512	-0.06700866107476325	-0.44644647067998044
Si	5.510909663498742	10.730276077769389	-0.05118760808118761	14	0.46387702208739234	-0.6997250273256397	0.7027159941445679
Si	6.732645137684911	12.185305138338382	1.326715949530653	14	-0.02928437537542259	0.48647703785149393	0.17849847263021634
Si	8.145105246334916	13.508072235901187	0.0136325511919168	14	0.7162729182766447	0.19297919490382234	-0.001604626830304416
Si	9.359532886588878	15.011077390087888	1.4907817368920269	14	0.3995464243140953	-0.14831909549285022	-0.7882168160134322
Si	8.145809813283536	11.056064557756025	2.7920349646050853	14	-0.33397346845010273	-0.5301061240290866	0.39002664975571505
Si	9.503182617718128	12.393594790684112	4.162008047725474	14	-0.015996131749301274	-0.08114254124068128	0.022296111115260107
Si	5.476959367741949	13.721818185779256	2.6363748247935352	14	-0.2530936941731406	-0.4090718553041799	0.0389938975064298
Si	6.745622277761832	15.030084312422773	4.072265880804648	14	-0.25422112385602547	0.8679239091538749	0.07541771813483956
Si	5.395688389482445	11.018312877532257	5.602650834320308	14	0.7000549001382147	-0.8174086315973293	-0.0187659835106968
Si	6.782456382424607	12.336311859233462	7.018273301600168	14	0.751804308248431	-0.6285468047531922	-0.9769701422130592
Si	8.13619165517097	13.824111475552257	5.447482252845004	14	-0.17093839454685295	-1.126052341764929	0.0960420965709394
Si	9.438034752887527	15.053629956729004	6.840247257489379	14	0.6949173174874947	0.12813231918223958	1.0256229110756891
Si	8.189755128544018	10.863193451890579	8.314004690669385	14	1.0686315895395304	1.5194306844159895	-1.5078105739215801
Si	9.444130076256988	12.55376088191126	9.424779063086731	14	0.2379491125058723	-0.8885053501311281	0.31954622516715575
Si	5.410648148182229	13.567747417921572	8.354705720910637	14	-0.2683935706017457	0.3170293701692628	-0.32501085241459854
Si	6.737249400767758	15.10902858122404	9.413899238577798	14	-0.36901763396372106	0.3261922753092065	1.728528652792884
Si	5.41299124291834	10.819690539132718	10.921590582236721	14	0.7843025652740387	0.537265881014103	0.10731356518393656
Si	6.727516545710067	12.320762230530182	12.305818857108273	14	0.573901560720893	-0.8376020927817723	-0.19939615956184792
Si	7.969569764461112	13.706743730134349	10.887427277867555	14	0.00492469513021163	-0.023845716291713358	-0.8754572477419087
Si	9.455042671321673	15.035901086068362	12.07701483686317	14	-0.20586326077361636	-0.19100972822858892	2.030362790520072
Si	8.333945573843138	10.933568220363274	13.467977460941306	14	-0.5731014327452629	-1.0549203990882445	-0.5259473611737472
Si	9.60675395916537	12.214847794346827	14.89772403774933	14	-0.3077067993889379	1.1676937064195156	0.16562032030265866
Si	5.525099314138406	13.641612250581622	13.790832976188335	14	-0.5592146358006111	-0.18758784415800386	-0.504535710288618
Si	6.871919999621561	14.985794906326918	15.118171566278235	14	-0.07943095642905872	0.3161531374761564	-0.19088991472067005
Si	10.707795476525027	0.0215957962391182	0.0648365445509793	14	0.7306266279474354	0.37053072944462817	0.21666216022877036
Si	12.347355536521144	1.3235044350671727	1.478148687650479	14	-0.858794685493625	-1.1673067550688334	-0.4032387886643599
Si	13.713592776286056	2.5075701554189465	0.06116624230700171	14	0.4432518723196964	0.6390888507868634	-0.4709696732235528
Si	14.835951540160957	4.086226137554062	1.4417078296567012	14	0.8440265136452265	0.6327125095928962	-0.4656330870210535
Si	13.743102661738751	-0.09673868057340962	2.799768815762038	14	-0.3674654576819476	-0.2644255837611612	0.22243249189877864
Si	15.144732101713448	1.3194572714320725	4.117833338574744	14	0.8399893640715299	-0.17797062470798994	-0.8743791832811706
Si	10.914757921362886	2.665425922465733	2.7333756698129434	14	-0.5433498875331695	-0.13088931541703436	-0.07246223256932936
Si	12.227529999422002	3.8581102989797045	4.1947949887531495	14	0.08454797023721741	1.0975464970804476	0.48211798589171484
Si	10.860096634372223	-0.0863012585670983	5.55139768512762	14	0.7897144848624184	0.13846739123763882	-0.6333249468801554
Si	12.470654752529768	1.275626653116715	6.775558180439274	14	-2.0326189354385016	-0.8998961180309802	0.3410059557217717
Si	13.735598204472046	2.4779291877432525	5.476910211908325	14	0.505959074193852	2.213653546356512	-0.8857367839223926
Si	15.00830827812703	4.087192868948681	6.694074193567396	14	-0.08332978053653126	0.31474185776592706	1.003010039784987
Si	13.697731827303153	0.024856466536223303	8.21741347759685	14	1.1410763385926825	-0.9172539071578318	0.30183028106920745
Si	14.992725878868	1.4548979783459959	9.52659717980136	14	0.5625092501578488	-0.03949989103343494	-0.33635816863454004
Si	11.09232517769318	2.62334852888299	8.073239417575605	14	-1.098771114544434	0.5671452101606079	0.16672075337968204
Si	12.217977382420935	4.062188934911584	9.481373812866636	14	0.18759710013715636	0.3856616842536996	0.5372759083248516
Si	10.860833971876593	0.045551072492222004	10.97508851449827	14	0.7312586056351278	-0.48391004629985807	-0.48421806471721185
Si	12.078407585482536	1.4756745106913691	12.328037293906638	14	1.6308641887649313	-0.7639047012166439	-0.10612597163656017
Si	13.52945502352793	2.667113606086848	10.814643873547249	14	-0.360630174188334	0.5527573047890592	0.8838925300762505
Si	14.924481196519041	4.004103124845063	12.184829965280011	14	0.5627990137274296	0.50588991146074	0.2021948077028291
Si	13.671777547149311	0.10362049728086761	13.633501538033546	14	-1.0356214254446812	-0.11104063945602323	0.8895330209275913
Si	15.232589961678661	1.383441781533557	14.973735341810992	14	-0.6902664450738789	0.07628340929613343	-0.4274290330689731
Si	10.68660931223278	2.7709307267022143	13.625112275761596	14	-13.094244987958055	-7.7439077428749545	-10.581534354730648
Si	12.534377098185255	4.099449056799107	15.153924242601265	14	15.315429044686748	8.840888596784971	10.8940807456637
Si	11.01267634194329	5.497850597032447	0.0358509879902812	14	-0.44688921501610995	-1.0704223643950135	0.26066405667778453
Si	12.238639217821182	6.8861588060948495	1.4008101760809508	14	-0.3135342095970535	-0.11926920492262515	1.071020660603012
Si	13.646888310057339	8.10525625054316	0.0754378193360396	14	0.09832112432671866	1.653587360473868	-0.3827632772262967
Si	14.971097312073132	9.697790563038316	1.4639426517329406	14	-0.4600504460394159	-1.0115273403790415	-1.0223442375714364
Si	13.4523786764044	5.422691327420281	2.8564946477649418	14	0.38960678825693484	0.008435539444873833	-0.15997545857227352
Si	14.894725531898224	6.862531235399244	4.125960436400694	14	0.5538983613301409	-0.6606869068077033	-0.7135089800574855
Si	10.77258286524238	8.331668020218526	2.6515639773835677	14	-0.28845153453581696	-0.301527919083558	-0.17674292191761926
Si	12.10306742868426	9.498021255187533	4.128057751968682	14	0.860407796971486	1.055173138741215	-0.31612999752827503
Si	10.803501884592317	5.375075709915821	5.5483991792765135	14	1.0514134114315627	0.2290608014141204	-1.2909365546144298
Si	12.150322570075472	6.712851722012032	6.850356973938193	14	0.8128081528479885	0.9093379880981599	0.18742303630698234
Si	13.530012122975677	8.134831677107353	5.3906908797306015	14	-0.7449132317693702	0.3926532909507783	1.3145315881374287
Si	14.904835248347037	9.564873188917128	6.716915270925007	14	1.0078164640704717	-0.342122072541248	-0.04523834099747344
Si	13.583477284681475	5.5110735162774915	8.294915841945127	14	0.3219705203735234	-0.8252402184025005	-1.519193628505472
Si	14.865035408388904	6.941835980313759	9.555566351084183	14	1.8810427637260878	-1.0473343528411476	-1.1987143492176342
Si	10.915413332477884	8.190181145768767	8.285314069110434	14	0.19660393918416713	-0.9346564335172542	-0.4774506584040501
Si	12.311209613529115	9.656925680018313	9.376376952244277	14	0.07523028455700077	-0.13065405928024085	1.438948403021522
Si	10.926014607262944	5.504634102072656	10.894980890967883	14	0.37523405240677504	-0.22932356837783957	-0.4602579342387519
Si	12.308620739624882	6.819503495699756	12.268067176884504	14	1.105523608446739	-0.6511707317967712	-0.5417149216600873
Si	13.667697612958463	8.20002869777158	10.86293128744458	14	-1.8229139290955199	1.384372578832867	0.6292430600738884
Si	15.028085308522035	9.557893060542419	12.130266989956594	14	-0.6936641607544546	0.32691269901991205	1.1723682330020768
Si	13.772841941081696	5.498424081758069	13.627488141053457	14	-0.677248424616905	-0.7731308555474633	-0.3197130899024334
Si	14.996101246110229	6.8042815725539745	15.096969016708115	14	0.5514892356451622	0.816012778519021	-0.8416132741917356
Si	10.988016498741565	8.034209685677594	13.58436208968672	14	-0.39591422382832214	1.6459095257668417	0.9162540042988263
Si	12.26284027324241	9.576392039263181	15.042373270828948	14	0.3345563380261803	-1.0239272671170516	-0.5077848160816891
Si	10.955884968828887	11.005499590234084	-0.07547058989178941	14	0.1136048027918069	0.029792425786683847	0.36494628868926654
Si	12.160694450970285	12.322171364427424	1.4580603369758516	14	0.6405456390612593	-0.27374404077297393	-0.7210690581408489
Si	13.489081698844176	13.565011076516464	-0.0353430443761593	14	1.005755980266905	0.5935178087609628	0.21513595211073044
Si	15.095264947809126	14.868902333967382	1.3614035827918163	14	-0.14200008994752228	0.09302413314614959	-0.48376812128618596
Si	13.594406265024034	10.978021479237876	2.741863243752142	14	-1.5896208312139037	-0.49919501031760644	0.7225664698793032
Si	14.94106309772844	12.128595691613356	4.161385407166228	14	0.2812776364715398	0.8664563222371343	0.9289565501330178
Si	10.8678796413628	13.697797368414653	2.769030034468726	14	-0.549470403747782	0.40100372680955526	0.4479765354560006
Si	12.26367592241403	14.858825388074317	4.2377899578968865	14	0.5759139648549729	1.2056182812232958	-0.4222053183900283
Si	10.929095039503427	11.086803339049338	5.52016734549806	14	0.23906960020439288	-0.5046454964857883	-0.24534361140661823
Si	12.360693152711313	12.4242188750323	6.859663811771136	14	0.6935343199357871	-0.8543908963012754	-0.5707804959727653
Si	13.834499741724944	13.734795325856178	5.585364366162287	14	-0.7286332499927246	-0.8984149042560429	-1.0174979611534891
Si	15.158462964572614	15.087105079427426	6.830481631875939	14	0.6765459986434407	-0.003805235873819157	1.0062025812610147
Si	13.733156798068688	10.991899809597918	8.135880334891347	14	0.10780438918955283	0.06754627919720624	-0.10494017786290787
Si	15.16637705378619	12.308440501568258	9.518355385030285	14	-0.9608079170600762	0.1480355025760379	-0.3065112354150691
Si	11.042022374617236	13.748690041494092	8.098226966334828	14	-1.9312757339184807	0.47515723245847796	0.4386732479655767
Si	12.247634735374502	15.127888036058051	9.483585825379748	14	0.1468623072184543	-0.1269290418924103	0.8059520434012817
Si	10.78003816667546	11.008481710807317	10.662441027367302	14	0.6787386372604629	-0.21807164016527553	0.60801909987713
Si	12.21365166906196	12.424890671425171	12.058745252032656	14	-1.0086613292786724	-1.4162830811822886	0.9096197812412483
Si	13.601943492846488	13.588917196935942	10.723951360509679	14	0.9979267074565221	1.6603329123918085	-0.19068551184771823
Si	14.870491705921246	15.062199457057575	12.236459975863822	14	0.522315674909038	-0.43542722749888985	-0.6815730237653942
Si	13.446348894146439	10.916330908038878	13.463946682584082	14	0.8181611941245369	-0.24673329383215822	-0.14637276876549812
Si	14.964330192310797	12.223384524119652	14.887434083243893	14	-1.3300947457508168	-0.3254870211198899	0.2826632051285675
Si	10.86671628663368	13.705187128736233	13.551509607547546	14	0.04556564270472828	0.422668631568719	-0.18006299021752648
Si	12.132839478582955	15.070015234603904	15.101278344789213	14	0.5176910277696877	0.22685042217038912	-0.9507590090268097
H	11.659322971804006	3.7032006048948247	14.58916631597594	1	-9.65624162967884	4.528544621804388	0.4177814745761815
H	11.56738026206458	3.217937492407361	14.19833319840931	1	8.03114031637849	-4.467746465630442	-1.2877856650445882
H	-0.0901534373954873	9.23713813791895	0.3370681052757179	1	0.11042588817397582	-0.583433419474278	-0.1396092191103166
H	14.002940398278914	13.089071187139817	13.90377178099666	1	-0.25184156588222845	0.025370638857093182	-0.18967609589902812
H	2.4418438902793604	13.103688493532017	2.486505242182975	1	0.5248561840758763	0.6835064949661456	0.27737829814300324
H	6.7422714884364146	9.441590358186378	12.184502259722514	1	-0.06674435144785205	-0.06200451879015906	-0.03702957304183666
H	14.962634316050748	15.127888036058051	9.483585825379748	1	-0.05922335416535488	0.10427400447445752	-0.02917536050984831
H	9.460621858438074	15.030084312422773	4.072265880804648	1	-0.059470437386621125	-0.04573096477681381	0.1669439253214709
H	6.717742727457689	12.226235562469883	9.625105470385257	1	0.007931088581060779	0.06173866650005576	-0.07123478688949066
