222
config_type=interstitial dft_energy=-23321.06494508603 dft_virial="-34.857086526535596 -1.5604672351586237 -1.1015062836413814 -1.5604672351586237 -35.052643801529904 -1.5564762703628214 -1.1015062836413814 -1.5564762703628214 -35.07658959030472" pbc="T T T" Lattice="16.3199774331 0.0 0.0 0.0 16.3199774331 0.0 0.0 0.0 16.3199774331" Properties=species:S:1:pos:R:3:Z:I:1:dft_force:R:3
Si	-1.3599926794325223	-1.3599926794325223	-1.3599926794325223	14	-0.1502908761628718	-0.4101424635594895	-0.32086005998575146
Si	0.0	0.0	0.0	14	0.6722967328808319	0.6118546747937268	0.6330431537370672
Si	1.3599926794325223	1.3599926794325223	1.3599926794325223	14	0.29191249940726827	0.3432973247830877	0.34547685076297724
Si	2.7200016788424777	2.7200016788424777	0.0	14	-0.008701648845509159	-0.002961913328810587	-0.09390062294978806
Si	4.079994358275	4.079994358275	1.3599926794325223	14	-0.010588583039965835	-0.008495446198833283	0.06511401356434614
Si	2.7200016788424777	0.0	2.7200016788424777	14	-0.02933991125033779	-0.08842905371798093	-0.030315645719333987
Si	4.079994358275	1.3599926794325223	4.079994358275	14	-0.009920609877791363	0.06084160785385608	-0.008179457354987084
Si	0.0	2.7200016788424777	2.7200016788424777	14	-0.0710393828851594	0.0006484327617413455	-0.00790871996477549
Si	1.3599926794325223	4.079994358275	4.079994358275	14	0.05167150361901595	-0.004701008967358748	-0.008312126389506725
Si	0.0	0.0	5.439987037707522	14	-0.011306692755883191	-0.01237395857427666	0.004577853022523655
Si	1.3599926794325223	1.3599926794325223	6.799996037117478	14	0.0015439487447489215	0.0011058323981956888	-0.010369781977221233
Si	2.7200016788424777	2.7200016788424777	5.439987037707522	14	-0.006347801924913592	0.007102421336377054	0.011168367289659226
Si	4.079994358275	4.079994358275	6.799996037117478	14	0.003616259632788273	-0.0007240232581536991	-0.004369336381059645
Si	2.7200016788424777	0.0	8.15998871655	14	-0.0037689832888050685	0.037286683573851474	0.012612814258518417
Si	4.079994358275	1.3599926794325223	9.519981395982523	14	0.00422946825164359	-0.0011425992042738064	-0.004058232637321728
Si	0.0	2.7200016788424777	8.15998871655	14	0.04414613545747453	0.0006219503769438203	0.011993177876362728
Si	1.3599926794325223	4.079994358275	9.519981395982523	14	0.005209316489152023	0.004941150204260578	-0.002367473778792351
Si	0.0	0.0	10.879990395392477	14	0.14498411478208614	0.15201814471694727	-0.0036771948288757826
Si	1.3599926794325223	1.3599926794325223	12.239983074825	14	-0.0035614950894691188	-0.005308046933445709	0.0006738867044108115
Si	2.7200016788424777	2.7200016788424777	10.879990395392477	14	0.005696540947320084	0.003321868073631318	-0.011108717646231791
Si	4.079994358275	4.079994358275	12.239983074825	14	0.0076878620177747705	0.011425477821674034	0.006024613986170979
Si	2.7200016788424777	0.0	13.599975754257523	14	-0.007887894011682292	0.12417564520506372	-0.08532932914401042
Si	4.079994358275	1.3599926794325223	14.959984753667477	14	0.006787203824126899	-0.002132217641998802	0.07117745124085136
Si	0.0	2.7200016788424777	13.599975754257523	14	0.12989943986877736	0.01933959710762184	-0.10666024732208694
Si	1.3599926794325223	4.079994358275	14.959984753667477	14	-0.01643373387479048	0.004002696762406529	0.06529244827356442
Si	0.0	5.439987037707522	0.0	14	0.011319805393015947	-0.022584332021648713	0.006355258130342022
Si	1.3599926794325223	6.799996037117478	1.3599926794325223	14	-0.013621201765080491	-0.06607046474344122	-0.003351692895345036
Si	2.7200016788424777	8.15998871655	0.0	14	-0.22620687450875604	0.22303593031741742	0.25523979578386813
Si	4.079994358275	9.519981395982523	1.3599926794325223	14	0.056603140733591975	0.014890556461637597	-0.0025387093931142136
Si	2.7200016788424777	5.439987037707522	2.7200016788424777	14	-0.007653666317016801	-0.010410919662343603	-0.01242743756493574
Si	4.079994358275	6.799996037117478	4.079994358275	14	0.08358097752630973	-0.091885390599856	-0.08502928115314913
Si	0.0	8.15998871655	2.7200016788424777	14	0.23147249820441929	0.21125923950901118	-0.28104443721900235
Si	1.3599926794325223	9.519981395982523	4.079994358275	14	-0.0002607100794630152	0.0030537017887398736	0.008053730304831842
Si	0.0	5.439987037707522	5.439987037707522	14	-0.009224868778159293	-0.019343453765602057	0.011650192426654977
Si	1.3599926794325223	6.799996037117478	6.799996037117478	14	0.02949674867486682	-0.05937273538445548	-0.00017432094070603978
Si	2.7200016788424777	8.15998871655	5.439987037707522	14	-0.20687550493815868	0.2121125893647683	0.26854038071552616
Si	4.079994358275	9.519981395982523	6.799996037117478	14	0.05598530412516039	-0.0072659436347384705	0.009294288621803292
Si	2.7200016788424777	5.439987037707522	8.15998871655	14	-0.0078056186414375535	-0.030511821055261283	-0.0030475311359715184
Si	4.079994358275	6.799996037117478	9.519981395982523	14	0.002880666400693908	0.010364125545516906	0.008030076135886481
Si	0.0	8.15998871655	8.15998871655	14	0.21847196126362256	0.2309911872884876	-0.23726288449592478
Si	1.3599926794325223	9.519981395982523	9.519981395982523	14	0.07351612864005805	0.009782541522099411	0.039824878745901654
Si	0.0	5.439987037707522	10.879990395392477	14	0.028126349539227897	-0.013690621608724491	0.00042088994090824056
Si	1.3599926794325223	6.799996037117478	12.239983074825	14	9.46166757814493e-05	0.0146735551726171	0.008506759062241935
Si	2.7200016788424777	8.15998871655	10.879990395392477	14	0.0028968643642108406	-0.010363611324452878	0.018225022951337645
Si	4.079994358275	9.519981395982523	12.239983074825	14	-0.011965409938905129	-0.0075094273085564945	-0.047001090804966957
Si	2.7200016788424777	5.439987037707522	13.599975754257523	14	0.006925015069286836	-0.015847007640732685	-0.03329221434846942
Si	4.079994358275	6.799996037117478	14.959984753667477	14	0.07744194935339214	-0.08390802212303256	-0.08637859722516285
Si	0.0	8.15998871655	13.599975754257523	14	-0.0010628949393492158	-0.01397935673617712	-0.035126440883863054
Si	1.3599926794325223	9.519981395982523	14.959984753667477	14	-0.0001650649615535067	-0.007650323880100609	-0.12714604318143077
Si	0.0	10.879990395392477	0.0	14	0.4540284031585651	-0.27387182470738525	0.4989376426750595
Si	1.3599926794325223	12.239983074825	1.3599926794325223	14	0.0035594382052130005	0.033350835549768795	-0.019269663042913807
Si	2.7200016788424777	13.599975754257523	0.0	14	-0.02754168018942622	-0.06912468075324513	0.11761007065953358
Si	4.079994358275	14.959984753667477	1.3599926794325223	14	0.005522991338210089	0.07631657655476334	-0.018133234491408357
Si	2.7200016788424777	10.879990395392477	2.7200016788424777	14	-0.20228376794690625	-0.20416427437806253	-0.26581063819712497
Si	4.079994358275	12.239983074825	4.079994358275	14	0.08805598633602744	0.07284224193564724	0.09138145395710698
Si	0.0	13.599975754257523	2.7200016788424777	14	0.09500954067436794	-0.09350390139888921	-0.026708642065698247
Si	1.3599926794325223	14.959984753667477	4.079994358275	14	-0.012765023693471182	0.09202628717140011	0.004037663794760543
Si	0.0	10.879990395392477	5.439987037707522	14	0.25778981804039103	-0.21696657909867587	0.2675546189357814
Si	1.3599926794325223	12.239983074825	6.799996037117478	14	-0.01733824872641857	0.05532838671586256	0.015116042398214586
Si	2.7200016788424777	13.599975754257523	5.439987037707522	14	-0.0006227217085398647	-0.030869204694761863	-0.0014035663942688363
Si	4.079994358275	14.959984753667477	6.799996037117478	14	-0.012739312640269701	-0.0031010101266305983	-0.002846727810467953
Si	2.7200016788424777	10.879990395392477	8.15998871655	14	-0.2258361211215907	-0.23175609112123166	-0.24379554889335703
Si	4.079994358275	12.239983074825	9.519981395982523	14	0.07463584500698255	0.039761372444494	0.08008453140144035
Si	0.0	13.599975754257523	8.15998871655	14	0.009201985940809976	0.025239512485765635	-0.026833340673725423
Si	1.3599926794325223	14.959984753667477	9.519981395982523	14	-0.014886185582593348	-0.08882037594770748	0.008889082423347953
Si	0.0	10.879990395392477	10.879990395392477	14	-0.11002376730190466	0.033143347350432846	0.058508586886353714
Si	1.3599926794325223	12.239983074825	12.239983074825	14	0.5627434778525143	-0.1680939807311731	-0.18718520906486866
Si	2.7200016788424777	13.599975754257523	10.879990395392477	14	0.04709082238064013	0.047255373121129596	-0.013156603033729734
Si	4.079994358275	14.959984753667477	12.239983074825	14	-0.01375207102587603	-0.09244100645954	0.009306629927340002
Si	2.7200016788424777	10.879990395392477	13.599975754257523	14	0.027528310441761454	0.0042176411671709085	0.022005833324615396
Si	4.079994358275	12.239983074825	14.959984753667477	14	-0.0117478944288206	0.010177206188742143	-0.08697843609635339
Si	0.0	13.599975754257523	13.599975754257523	14	0.6952788148955076	-1.0820735852637964	-1.0523971163270514
Si	1.3599926794325223	14.959984753667477	14.959984753667477	14	0.8501683700339963	0.2639149622445798	0.26389876428106285
Si	5.439987037707522	0.0	0.0	14	0.0021702700007369936	-0.006509781560082921	-0.008450708966262705
Si	6.799996037117478	1.3599926794325223	1.3599926794325223	14	-0.00981082368062104	0.0002933631170288958	0.0005697569389448143
Si	8.15998871655	2.7200016788424777	0.0	14	0.010410148330747557	-0.003103067010886716	0.04892864846348197
Si	9.519981395982523	4.079994358275	1.3599926794325223	14	-0.0017408954122722642	0.0022610300185382207	-0.003343208247788547
Si	8.15998871655	0.0	2.7200016788424777	14	0.011266583512888883	0.04110580341639943	-0.001727782775139509
Si	9.519981395982523	1.3599926794325223	4.079994358275	14	-0.0041371655706502735	-0.0022183496702237624	0.005915342010064686
Si	5.439987037707522	2.7200016788424777	2.7200016788424777	14	0.009757601800493974	0.004385277234044563	-0.005162779482857343
Si	6.799996037117478	4.079994358275	4.079994358275	14	-0.01002088298527714	0.0005283621432904302	0.0028940361483586778
Si	5.439987037707522	0.0	5.439987037707522	14	0.00363425737002931	-0.016501096834178358	0.0019000468315894302
Si	6.799996037117478	1.3599926794325223	6.799996037117478	14	-0.0005864691235257768	0.024770028654306595	0.0007402212216706319
Si	8.15998871655	2.7200016788424777	5.439987037707522	14	0.012154900401000044	0.006049039486712386	-0.02682279914191282
Si	9.519981395982523	4.079994358275	6.799996037117478	14	0.0020679400089951	0.0007255659213457879	-0.03176497778830146
Si	8.15998871655	0.0	8.15998871655	14	0.008793437305438445	-0.03282504451179851	0.0064604163379360785
Si	9.519981395982523	1.3599926794325223	9.519981395982523	14	0.017810046552665743	0.01203174445616495	0.01839060213395518
Si	5.439987037707522	2.7200016788424777	8.15998871655	14	-0.025610780093995016	0.008684422439864167	0.008109780400811072
Si	6.799996037117478	4.079994358275	9.519981395982523	14	-0.03284767023861582	0.0013701420251069113	0.0016149112515850086
Si	5.439987037707522	0.0	10.879990395392477	14	-0.012850127279568083	0.04330589823885014	0.0055998673872825165
Si	6.799996037117478	1.3599926794325223	12.239983074825	14	-0.07239898337845371	-0.08297059712330658	0.09064663205660865
Si	8.15998871655	2.7200016788424777	10.879990395392477	14	0.2231310612142629	0.23043274321295146	-0.23629049246384481
Si	9.519981395982523	4.079994358275	12.239983074825	14	0.01410071290728811	-0.013436596403093862	-0.004820822475277649
Si	8.15998871655	0.0	13.599975754257523	14	-0.019511346943007726	-0.0017794619920744853	-0.00033372947055522066
Si	9.519981395982523	1.3599926794325223	14.959984753667477	14	0.008711676156257736	-0.01470235155220276	-0.10387985402887881
Si	5.439987037707522	2.7200016788424777	13.599975754257523	14	-0.013858000565066133	-0.010414262099259794	-0.03263581116023561
Si	6.799996037117478	4.079994358275	14.959984753667477	14	-0.00020260309922766863	-0.007025802397836641	-0.012011689834667796
Si	5.439987037707522	5.439987037707522	0.0	14	0.00460484962838521	0.000681342909839241	-0.022055455657294252
Si	6.799996037117478	6.799996037117478	1.3599926794325223	14	-0.0056086091453710196	-0.002169241558608934	0.028413027782424407
Si	8.15998871655	8.15998871655	0.0	14	0.002350247373147359	0.004793825869416094	-0.014658128540696211
Si	9.519981395982523	9.519981395982523	1.3599926794325223	14	0.01394027593531087	0.019091485444227545	0.06778667754464007
Si	8.15998871655	5.439987037707522	2.7200016788424777	14	0.00130483594997515	-0.005791157623101534	0.004933436888300134
Si	9.519981395982523	6.799996037117478	4.079994358275	14	0.007436407917464289	0.010999188559593483	0.004220983604087101
Si	5.439987037707522	8.15998871655	2.7200016788424777	14	0.016118773473072338	0.006192250053044634	-0.005150181066788617
Si	6.799996037117478	9.519981395982523	4.079994358275	14	0.003177629065171011	0.004475780141313776	0.0024160676693431495
Si	5.439987037707522	5.439987037707522	5.439987037707522	14	0.003690821687072567	0.014672012509425014	-0.0015094959334589371
Si	6.799996037117478	6.799996037117478	6.799996037117478	14	-0.09108937639273816	0.08956779626427452	-0.0834555075866865
Si	8.15998871655	8.15998871655	5.439987037707522	14	-0.01763084051185142	-0.0032609328775438087	0.006004302254141809
Si	9.519981395982523	9.519981395982523	6.799996037117478	14	0.0006281210297121757	-0.007170041406296949	-0.008005650635345075
Si	8.15998871655	5.439987037707522	8.15998871655	14	0.22639507941819087	-0.226900815834664	0.22797270964263375
Si	9.519981395982523	6.799996037117478	9.519981395982523	14	-0.002773451308843733	0.03206862532661094	-0.002550793588118909
Si	5.439987037707522	8.15998871655	8.15998871655	14	0.02967981137366137	0.005654117709537641	-0.0200821323240806
Si	6.799996037117478	9.519981395982523	9.519981395982523	14	-0.010159208451501105	-0.01226597215083044	0.0019609820276769397
Si	5.439987037707522	5.439987037707522	10.879990395392477	14	-0.031074121788777668	-0.00916701890845596	-0.009169075792712079
Si	6.799996037117478	6.799996037117478	12.239983074825	14	0.000686485120479537	0.00039337911398265607	-0.021889362253612685
Si	8.15998871655	8.15998871655	10.879990395392477	14	0.009962776005041791	0.031030670108867165	-0.004994372084387644
Si	9.519981395982523	9.519981395982523	12.239983074825	14	-0.005650775272621448	-0.007289083582619804	0.002402440811146365
Si	8.15998871655	5.439987037707522	13.599975754257523	14	0.0061639678945230045	-0.0033709761852461465	0.03773662700487739
Si	9.519981395982523	6.799996037117478	14.959984753667477	14	0.007091622694032432	-0.000499051542640742	-0.008441710097642188
Si	5.439987037707522	8.15998871655	13.599975754257523	14	0.004780970342815352	-0.015500165533044709	0.01047879684279551
Si	6.799996037117478	9.519981395982523	14.959984753667477	14	-0.005100301623577744	0.01819339835589982	-0.004636474223823031
Si	5.439987037707522	10.879990395392477	0.0	14	0.01530347597605338	-0.018375432612566307	0.05473266161318424
Si	6.799996037117478	12.239983074825	1.3599926794325223	14	0.010902514999555914	0.0035054449934898914	-0.005075619012504322
Si	8.15998871655	13.599975754257523	0.0	14	-0.014395875798041111	0.0016707042370322218	-0.00121124771632176
Si	9.519981395982523	14.959984753667477	1.3599926794325223	14	0.002197523717130563	-0.08516812084043714	-0.006705185564414175
Si	8.15998871655	10.879990395392477	2.7200016788424777	14	-0.017638039606747837	-0.004086000574779328	0.002222720549268014
Si	9.519981395982523	12.239983074825	4.079994358275	14	-0.008286929557369274	-0.05129663646333835	-0.0037594701991205213
Si	5.439987037707522	13.599975754257523	2.7200016788424777	14	-0.009927808972687777	-0.04242683732989151	0.006209219348157611
Si	6.799996037117478	14.959984753667477	4.079994358275	14	-0.0012436436433556257	-0.004165961950235932	-0.010037595169858101
Si	5.439987037707522	10.879990395392477	5.439987037707522	14	0.015327130144998747	-0.00391605051311754	0.0017504085019568122
Si	6.799996037117478	12.239983074825	6.799996037117478	14	-0.002777307966823955	-0.026260498408396435	-0.0009839620060206698
Si	8.15998871655	13.599975754257523	5.439987037707522	14	-0.00718881047513403	0.012888179638306274	0.0014308201106624059
Si	9.519981395982523	14.959984753667477	6.799996037117478	14	0.006025642428299038	-0.005094388081341403	-0.004395047434261126
Si	8.15998871655	10.879990395392477	8.15998871655	14	0.0019036463790376376	-0.0012984081866747798	0.006446789479739293
Si	9.519981395982523	12.239983074825	9.519981395982523	14	-0.0008484647556488661	-4.57656746986358e-05	-0.00573485041659029
Si	5.439987037707522	13.599975754257523	8.15998871655	14	0.0008260961393635778	0.005297248291101087	0.00490541184031052
Si	6.799996037117478	14.959984753667477	9.519981395982523	14	-0.004470380820141465	0.0010053021801778989	0.005482624984683764
Si	5.439987037707522	10.879990395392477	10.879990395392477	14	0.0028081612306657317	0.01049319503258834	0.00019951777284349094
Si	6.799996037117478	12.239983074825	12.239983074825	14	-0.012008604508283617	0.0018771639942401124	0.0020178034552522125
Si	8.15998871655	13.599975754257523	10.879990395392477	14	0.012833672205519136	-0.040349384231211864	0.0016640193631998368
Si	9.519981395982523	14.959984753667477	12.239983074825	14	0.011661505290063627	0.09537103808238076	0.015652889189061506
Si	8.15998871655	10.879990395392477	13.599975754257523	14	0.015999988407281496	-0.003657911538974672	-0.04150406763049037
Si	9.519981395982523	12.239983074825	14.959984753667477	14	0.010848521787832804	0.014593336686628482	0.08655008995001671
Si	5.439987037707522	13.599975754257523	13.599975754257523	14	0.0013901966466040663	0.001984636196622302	0.0009147992729086866
Si	6.799996037117478	14.959984753667477	14.959984753667477	14	0.002957285339234321	0.0003314154757670874	0.0013441738613734157
Si	10.879990395392477	0.0	0.0	14	9.15313493972716e-05	0.12999431365509084	0.15133217381753175
Si	12.239983074825	1.3599926794325223	1.3599926794325223	14	0.002617899436974774	-0.0003825804716380341	-0.00925469359987301
Si	13.599975754257523	2.7200016788424777	0.0	14	-0.10115396816845781	0.022687690455518664	0.12895584421628303
Si	14.959984753667477	4.079994358275	1.3599926794325223	14	0.06477925565166286	0.0032277656189138985	-0.012873010116917402
Si	13.599975754257523	0.0	2.7200016788424777	14	-0.10313886147561212	0.11208347977387528	-0.0033290671685277324
Si	14.959984753667477	1.3599926794325223	4.079994358275	14	0.09038232242969743	0.002798391030449169	0.004717464041407695
Si	10.879990395392477	2.7200016788424777	2.7200016788424777	14	-0.01482859282342203	0.001620824793821349	0.011114374077936117
Si	12.239983074825	4.079994358275	4.079994358275	14	0.009067002911502201	0.01201888892956421	0.00894179008241099
Si	10.879990395392477	0.0	5.439987037707522	14	0.005530704654170532	0.046500496599134127	-0.012568334136479856
Si	12.239983074825	1.3599926794325223	6.799996037117478	14	0.09091839788894832	-0.08358354863162987	-0.0694537822342241
Si	13.599975754257523	2.7200016788424777	5.439987037707522	14	-0.043980556274856995	-0.008590319985146748	-0.01242589490174365
Si	14.959984753667477	4.079994358275	6.799996037117478	14	-0.004778913458559235	-0.002283398634823509	-0.0045865947806121585
Si	13.599975754257523	0.0	8.15998871655	14	-0.00694121303280377	-0.0010412976546599721	-0.021639707927026307
Si	14.959984753667477	1.3599926794325223	9.519981395982523	14	-0.09202140207129184	-0.018804807201031035	0.008232165014050118
Si	10.879990395392477	2.7200016788424777	8.15998871655	14	-0.23297788036936604	0.22545842575006092	0.21872701491138125
Si	12.239983074825	4.079994358275	9.519981395982523	14	-0.007999737093108734	-0.010644118914881033	0.013749242810023867
Si	10.879990395392477	0.0	10.879990395392477	14	-0.0067386099335761	-0.10529036240751204	-0.014390733587400813
Si	12.239983074825	1.3599926794325223	12.239983074825	14	-0.23832295121942182	0.24813120379472275	-0.23711530305054826
Si	13.599975754257523	2.7200016788424777	10.879990395392477	14	0.1061593960057221	0.007502999545256124	-0.011875164142167934
Si	14.959984753667477	4.079994358275	12.239983074825	14	-0.07662408075105305	-0.008380003569958633	0.014262435431925423
Si	13.599975754257523	0.0	13.599975754257523	14	-0.7047114289835349	0.866122592766579	-0.6974002338951618
Si	14.959984753667477	1.3599926794325223	14.959984753667477	14	-0.03179325994682308	0.6730405536499507	-0.014118710644529147
Si	10.879990395392477	2.7200016788424777	13.599975754257523	14	-0.007187782033005969	0.005632520424848397	0.1039438745513505
Si	12.239983074825	4.079994358275	14.959984753667477	14	0.013985270278413462	-0.009711064794199295	-0.0764757279740805
Si	10.879990395392477	5.439987037707522	0.0	14	0.0011528836255543986	-0.0120065476240275	0.037149900770819595
Si	12.239983074825	6.799996037117478	1.3599926794325223	14	0.013036018194214788	0.012235375997520679	-0.006387139836311858
Si	13.599975754257523	8.15998871655	0.0	14	-0.03800736439508898	-0.0032958999098978226	0.006412593778981323
Si	14.959984753667477	9.519981395982523	1.3599926794325223	14	-0.12781273079094518	-0.022606700637933998	-0.004230753804303664
Si	13.599975754257523	5.439987037707522	2.7200016788424777	14	-0.032488743935923145	-0.011385882799743754	0.006950469011956302
Si	14.959984753667477	6.799996037117478	4.079994358275	14	-0.08223706077546832	-0.08423789493560756	0.08325264737692681
Si	10.879990395392477	8.15998871655	2.7200016788424777	14	0.002322222325157745	-0.011325204714188259	0.002576761751852405
Si	12.239983074825	9.519981395982523	4.079994358275	14	-0.04656605978479791	-0.00852372835735491	-0.005736393079782379
Si	10.879990395392477	5.439987037707522	5.439987037707522	14	-0.007110391762869512	-0.01225260240316567	-0.029808109529136755
Si	12.239983074825	6.799996037117478	6.799996037117478	14	-0.01908814300731135	-0.00027253716393569634	0.0002213721680647496
Si	13.599975754257523	8.15998871655	5.439987037707522	14	-0.004452125972368414	-0.009880243524265036	0.01025948155898688
Si	14.959984753667477	9.519981395982523	6.799996037117478	14	-0.05816225899972977	0.02555293022429168	-0.0017617213653654637
Si	13.599975754257523	5.439987037707522	8.15998871655	14	0.03569131272269959	-0.0042636639524015595	0.014779998932871232
Si	14.959984753667477	6.799996037117478	9.519981395982523	14	-0.08839820045413917	-0.08665344838388667	0.09213658758963447
Si	10.879990395392477	8.15998871655	8.15998871655	14	-0.0033735472905662947	0.029667470068124657	0.011876449694828007
Si	12.239983074825	9.519981395982523	9.519981395982523	14	0.007767823393231376	0.001966381348849251	-0.0060744934293818515
Si	10.879990395392477	5.439987037707522	10.879990395392477	14	-0.22701908667939083	-0.22044219927045203	-0.22885665565170066
Si	12.239983074825	6.799996037117478	12.239983074825	14	0.08656268836608545	0.07595405070462247	0.08394915980815493
Si	13.599975754257523	8.15998871655	10.879990395392477	14	-0.03627058275132895	0.005689598962955684	0.019196900762353617
Si	14.959984753667477	9.519981395982523	12.239983074825	14	0.08699206295455018	0.007929288807336675	0.01876109841058852
Si	13.599975754257523	5.439987037707522	13.599975754257523	14	0.00523965553192977	0.021020328655402636	0.0021034212624131436
Si	14.959984753667477	6.799996037117478	14.959984753667477	14	0.0013423740876493122	0.003197426576136151	0.002673949532954002
Si	10.879990395392477	8.15998871655	13.599975754257523	14	0.009394304618757052	0.014892356235361701	-0.032387956607373335
Si	12.239983074825	9.519981395982523	14.959984753667477	14	0.0022857126296116424	-0.012860411700848675	0.08621867447424963
Si	10.879990395392477	10.879990395392477	0.0	14	0.0009358823365339006	-0.0060701225503376	-0.08909008489579101
Si	12.239983074825	12.239983074825	1.3599926794325223	14	-0.271940924611954	-0.25680637025543435	0.8007915779132123
Si	13.599975754257523	13.599975754257523	0.0	14	1.210897788887688	1.1899041997276147	3.021120742122957
Si	14.959984753667477	14.959984753667477	1.3599926794325223	14	0.25469189324014463	0.2584742462766144	0.9855010696653106
Si	13.599975754257523	10.879990395392477	2.7200016788424777	14	0.030362439836160684	0.014756087653393856	0.012141273542803258
Si	14.959984753667477	12.239983074825	4.079994358275	14	-0.17156780112922518	0.0901802335515338	-0.09625704097570378
Si	10.879990395392477	13.599975754257523	2.7200016788424777	14	-0.0022024088172388446	0.047160242224284124	0.029519888622748156
Si	12.239983074825	14.959984753667477	4.079994358275	14	0.009318457011812683	-0.09649743932313762	-0.007424066611927578
Si	10.879990395392477	10.879990395392477	5.439987037707522	14	0.008058101183876095	0.005829467092371739	0.001493812191006034
Si	12.239983074825	12.239983074825	6.799996037117478	14	0.00391502207098948	0.0017349818700359235	-0.005149409735192572
Si	13.599975754257523	13.599975754257523	5.439987037707522	14	0.0029346596124170173	0.003189456149643692	-0.003071956636512925
Si	14.959984753667477	14.959984753667477	6.799996037117478	14	0.001235158995799137	-0.0032362502664703874	0.008866713807062665
Si	13.599975754257523	10.879990395392477	8.15998871655	14	-0.06170189969397762	-0.01150981007617489	0.001710556369494517
Si	14.959984753667477	12.239983074825	9.519981395982523	14	0.08336089091090504	0.018288786363277316	0.012608957600538196
Si	10.879990395392477	13.599975754257523	8.15998871655	14	0.0015295505549560923	-0.028743414816063434	0.009801824812000521
Si	12.239983074825	14.959984753667477	9.519981395982523	14	-0.0024196672167913573	0.0882981844571854	-0.006196106711024855
Si	10.879990395392477	10.879990395392477	10.879990395392477	14	-0.012317137146701388	-0.007033001492733055	-0.0007435636585868244
Si	12.239983074825	12.239983074825	12.239983074825	14	0.018439710245570007	0.010119099208506795	0.016491069523429776
Si	13.599975754257523	13.599975754257523	10.879990395392477	14	-0.07679840169175908	-0.12957085260886245	0.020539531960534943
Si	14.959984753667477	14.959984753667477	12.239983074825	14	-0.13684502378062538	0.22375841091237905	-0.6040999640376282
Si	13.599975754257523	10.879990395392477	13.599975754257523	14	-0.08812386351647937	0.03452094558096818	-0.13667790193481577
Si	14.959984753667477	12.239983074825	14.959984753667477	14	0.17910988147534757	-0.544939087731553	-0.13216586920848789
Si	10.879990395392477	13.599975754257523	13.599975754257523	14	-0.02286329694888478	-0.12317574234605813	-0.11880871995978659
Si	12.239983074825	14.959984753667477	14.959984753667477	14	-0.662887258740686	0.4437622367257458	-0.22767960363613687
H	12.814539304341489	12.814539304341489	-0.7854266579295738	1	-2.350624554297825	-2.41468184357559	-2.649927181726795
H	-0.9466288670227624	12.653335463250556	12.653335463250556	1	-0.33525979244177284	-0.1988336017177995	-0.13479328173514724
H	9.514992378881225	4.079994358275	9.519981395982523	1	-0.00878083888936972	0.007217349744187672	-0.009953777136421274
H	17.67498109543122	9.519981395982523	6.799996037117478	1	0.004059518189981802	-0.0001360114714358334	-0.09647712759110846
H	17.67498109543122	9.519981395982523	1.3599926794325223	1	-0.07274865370199386	0.07193901263667922	0.040941766896973986
