222
config_type=interstitial dft_energy=-23306.01469162524 dft_virial="-46.63442363894762 -12.192397451175434 1.2930725938398826 -12.192397451175434 -53.62659396119291 -8.772140621173032 1.2930725938398826 -8.772140621173032 -48.178927014923026" pbc="T T T" Lattice="16.3199774331 0.0 0.0 0.0 16.3199774331 0.0 0.0 0.0 16.3199774331" Properties=species:S:1:pos:R:3:Z:I:1:dft_force:R:3
Si	-4.6833112840218405	-2.106239967538453	2.079132485022074	14	9.111934005413916	12.594978500912548	-10.709962351024705
Si	0.037144268637735595	0.0506082500200431	0.011032304744775599	14	-0.2632253917977161	-0.8485891971463613	-0.9554325071672427
Si	1.4359295344287366	1.199861060858945	1.379854091968605	14	0.16883703016869592	0.9142143464483528	0.29267920301373646
Si	2.7191530400159567	2.602661041098489	-0.0508693696589727	14	-0.14288455017765322	0.7244410627682232	1.4930552575997824
Si	4.136510440125825	4.001005667498796	1.2953002888877139	14	0.05270868750516368	-0.4610344080454366	-0.18936010705518191
Si	2.711580570486998	-0.1012001800626531	2.85483733239475	14	0.321563257290812	0.01407834429100282	-0.7580649497029917
Si	4.032176824396017	1.4146972437882734	4.062662542241048	14	0.3133948556887015	-0.743712268474329	0.5031527127369103
Si	0.0671730271146396	2.655097128591039	2.651457773623458	14	-0.35981873334929526	0.24591002590864683	-0.6736460489528456
Si	1.402391980803716	4.001511586799222	3.9719724276453108	14	-0.45139327731594536	1.0080044118693745	-0.21139113721193475
Si	-0.0105100654669164	0.1088868894336432	5.5371072234119	14	0.03385605774517789	-1.004206889311516	-1.1884229859526774
Si	1.2939620507381997	1.468961168753331	6.845855173704488	14	0.8115508823464361	-0.8565467681122194	0.311180362676458
Si	2.575945238040504	2.700466665855057	5.398028375727022	14	1.6237224295171562	0.052665750046317204	0.49991671958097195
Si	4.1462371466759524	4.070235011770007	6.653524239655405	14	-1.0098226975517834	-0.14714050081409435	0.041895132749684885
Si	2.8001001280841327	0.1167204786015312	8.195925306857687	14	-0.646044719119992	0.8068231338837478	0.16280933085614077
Si	4.074070206466785	1.5803286947568054	9.631756921421823	14	0.4414400144005881	-0.8122152559611624	-1.3933814747641335
Si	0.0018767974048065	2.839855593111164	8.092113930405736	14	0.38911339314599835	0.4769302666872521	1.4837375719195658
Si	1.4762561986659266	4.303888128679699	9.546370799491845	14	-0.008952588724755612	-1.8906589547339736	-0.18508410179724366
Si	0.139372607278674	0.11298320376935131	10.680951950618391	14	-0.15785583934634348	0.46311700335475653	1.8968946564669291
Si	1.3237623295310403	1.4606379802624498	12.372142252078245	14	0.08942972790858257	0.24586734556033235	-1.112155260398997
Si	2.850284058690915	2.874388665359604	11.020538041046334	14	-1.5581291619211342	0.20669655600787637	0.0690650311098177
Si	4.358739572832348	4.11573510885349	12.249970901014056	14	-1.2623175812958614	0.6782786665186885	0.23076467290978253
Si	2.681045892709668	0.026650523148252298	13.618972207989652	14	-0.10132674644597177	-0.23605549343758325	-0.3145575095144724
Si	4.019202442336702	1.343460542292792	14.955496759873375	14	1.2391449803769627	-0.5261409654043544	-0.34017086071378766
Si	-0.14071084542818818	2.7946818955763435	13.843257657852744	14	-0.46860322788688846	0.29144378690740524	-0.674310936788636
Si	1.44595000057266	3.9793816973999383	14.985966157740974	14	0.3524604870335634	1.4577300702746718	-0.6259271055424933
Si	-0.0087801478590078	5.297905314174954	-0.0126643024880856	14	0.943995459371628	0.1822725981296617	-0.3041195932462673
Si	1.2737089587437227	6.683193958628781	1.4215353143327425	14	0.6987621483832442	-0.4735824304498873	-0.10901332291108647
Si	2.7232983142839635	8.030718175302415	0.2195852963623605	14	0.01005405024390705	0.9330443504815213	-1.3186150176068876
Si	4.273222891082904	9.478691853076779	1.3137908233194162	14	-1.4041073548281955	0.43172200762202434	0.10984250437683422
Si	2.8468405434525312	5.369713214880594	2.651506733555757	14	-1.2352055328054319	-0.22906105852465244	0.25416430242845023
Si	3.873660883588317	6.792782607092048	4.173866868470191	14	1.2198478065071232	0.6939462110080749	-0.9144030655788516
Si	0.0811592477748063	8.175443735179146	2.6635508769013847	14	-1.214475481940674	-0.12811252167127443	0.48951505589778094
Si	1.2700696037761414	9.604029279762987	3.9887820044014037	14	0.42114628010865934	0.5205475257803721	0.3662248993649762
Si	0.0443087387308665	5.355547474468662	5.39770197617836	14	0.43052644364815557	0.6462115838552696	0.0823165079298609
Si	1.453816229695414	6.795834442872037	6.806687227865049	14	0.17865479583368138	-0.8389200413688804	-0.8982668085896023
Si	2.6174795806077436	8.303947237487375	5.390292706423733	14	-0.30539100482708054	-0.6737015848277608	0.10024611087991353
Si	4.139333796221751	9.447602296066725	6.6744464507246395	14	-0.07906894479998186	0.7331074874708462	1.4723378051510931
Si	2.9089380575854764	5.43123952980338	8.115892137525764	14	-0.300414887590466	0.8447423093663556	-0.101452473496127
Si	4.084743471708032	6.985146181095997	9.45927107993139	14	0.7236555900929178	-1.8032498584964953	0.27425363384742724
Si	0.1110248064773793	8.118013734592067	8.05180358614598	14	-0.8043996100089761	0.2223234770332044	0.5009222788716818
Si	1.3412083854070243	9.491584635248929	9.416822818627896	14	0.9463595907135042	0.4296964908508118	0.41688107349306563
Si	0.0527951269960785	5.435727523597483	10.927661049474562	14	0.1489798695601283	0.44711212984736676	0.3476062401891239
Si	1.3573978030206593	6.8513550060994435	12.251260179231272	14	0.594355474874267	-0.1575138823387638	-0.9541999192767637
Si	2.7628579395817985	8.192041152228608	10.838341812983206	14	-1.1842948192506477	0.38310317734962024	0.20792682990356723
Si	4.099970010653115	9.481482569217839	12.20660872097431	14	0.5047735375307316	1.2984020160220116	-0.6785936269204066
Si	2.8051266811335274	5.531166751626252	13.431439347305899	14	-0.32942518313876074	-1.83607438878723	0.6303447787035718
Si	3.9289366471542264	6.801138435537795	14.921534886835094	14	0.8671368938153775	-0.055043508246390156	1.2891545215170348
Si	0.0971528256592443	8.04600999415723	13.698532097976013	14	-0.8831502519703237	0.9544212914448285	-0.20342970958809622
Si	1.4104050897233682	9.451274290989172	14.986765836635195	14	0.5214360997790153	0.3067027827614201	0.5955222424685501
Si	-0.0468872951652963	10.898807329372842	-0.0785154114306441	14	0.3418173965608105	-0.46867161928840445	-0.2960627776150513
Si	1.290110536063988	12.25183137844143	1.2885274982529773	14	-0.14037078050614443	-0.5101294070231321	0.770155315360456
Si	2.699503787186504	13.544732630646479	0.0420239418902325	14	-0.7939118142975602	0.8330982875924691	-0.7760642296072202
Si	3.9968603932307887	14.917259052747623	1.3248720879964913	14	0.747202029725366	0.6222162292339236	0.6597515386922335
Si	2.7082023351583464	10.805391778545777	2.595480251027925	14	0.46078989592949054	0.713935526430098	0.3737937192064281
Si	4.036697458144986	12.211031434858679	4.133866603781663	14	-0.4004499107235953	-0.4282067924283179	-0.26566768474132474
Si	-0.09891538322201911	13.627132196706201	2.648895537166461	14	0.11056009987168755	0.5894960858191871	-0.08134642989256903
Si	1.2739374384277862	14.927801758169405	4.099349851510657	14	0.08129346512297399	-0.291265866419251	1.0003342904783088
Si	-0.0582133595038677	11.057796549526103	5.353833876838188	14	0.6368553315952507	-1.3139991122256258	0.20539403405268938
Si	1.2327294954092085	12.262161924156583	6.846981252147372	14	1.267397828297942	0.04753768048528186	-0.40113433895981876
Si	2.737366134831296	13.591146646466214	5.5828358001794465	14	-0.47150292046695147	0.3282172778593552	-0.7684627567282024
Si	4.077122042246774	15.101283118283257	6.840045261738306	14	0.11967903911065675	0.006620081978317273	-0.8511441045029925
Si	2.709883292833956	10.94675542307129	8.121620449604782	14	0.6667385173997358	-0.7188435093757287	-0.09549445113774786
Si	4.138648357169561	12.328127272941172	9.516293081082642	14	0.035249853939230164	-0.7101480311829879	0.14232893431796922
Si	0.06795638603142841	13.690029389733368	8.16530902919319	14	-1.623259887670061	-0.22954905431441655	-0.19933291037097228
Si	1.3508208521151202	14.950078527365585	9.518382038194078	14	1.8359247504575973	0.03188350574356028	-0.07506984758502354
Si	0.0825627658340529	10.855983708588388	10.816473043222853	14	-0.20332403715943814	1.068977917426154	0.2678649513479233
Si	1.498027048561682	12.253006416816612	12.30488762507644	14	-1.028692553717414	-0.535928392026562	-0.4532298178461271
Si	2.7750326427468908	13.567237879526724	10.90895835533623	14	-0.6985487466416719	0.42243646075830965	-0.4846469250846125
Si	3.981927613879502	14.955823159422037	12.267008957454214	14	0.8026656565810684	1.0438011399102	-0.410062245073501
Si	2.836836397286041	10.83788485361508	13.588617049964084	14	-0.5592280055482759	-0.12687659134387927	0.9161976970923151
Si	4.056444630839037	12.229962608681076	15.099749040404546	14	0.6720897589025601	-0.4549887109956404	-1.1815283099261682
Si	0.0303877979804322	13.634051867137835	13.58143625989352	14	-0.2616968696848881	0.1304206029171714	-1.5607270067366117
Si	1.3541338075340394	14.93994382137963	14.887230294270719	14	0.13283512792332244	0.17962898763948545	1.4009873185221957
Si	5.444213911862695	0.0768834136873341	0.059110958262688196	14	-1.1312919972968591	-0.9270629310647288	-0.34393161646556825
Si	6.782696861038392	1.2573563413557565	1.4475003984288044	14	1.7108255642215366	0.10877061056886447	-1.3660958766645943
Si	8.28338406592167	2.5396006482969904	-0.0392005857943062	14	-0.5633309754181682	0.4873105901962859	0.6044172384341344
Si	9.52438778988946	4.132153006151187	1.3115713063885148	14	0.9108551973475794	-1.2770330454851968	-1.2315738465407229
Si	8.05764613806703	-0.0165810970720296	2.853042134877109	14	0.7532186732850445	-0.62298653238784	-0.02161271132116475
Si	9.458030761646475	1.4103561297910687	4.105600402867534	14	-0.09385382883296137	-0.039875015299644545	0.0721642414627242
Si	5.475336108827617	2.550959352590428	2.6378795523991183	14	-1.1586644987562196	1.9773797660772483	0.7907984628653928
Si	6.688432671384806	4.196584277057066	3.8396337306403034	14	0.41247419897433185	-0.532855149837389	0.9892253157215449
Si	5.528881954785619	0.039657545162433	5.3972939767425325	14	-1.1427223602186414	-0.6016106198666609	-0.4281957366754413
Si	6.844941254968235	1.377079695804978	6.68461379666546	14	-0.11073699191771373	0.8259840391716192	0.7431016309607937
Si	8.067682924188386	2.842776869071689	5.3567714727761455	14	0.6852443050520336	0.46293548331915413	0.07644461759970671
Si	9.667073352587053	4.061063184452604	6.807144187233176	14	-1.3196493732771832	-0.4412872907445713	-0.2077383678836004
Si	8.056797499240508	0.1263819052419264	8.225774545582826	14	0.40998536902442845	-0.008203882855528491	-0.3534002260280776
Si	9.614066065884344	1.2952350089779816	9.49302079326304	14	-0.3548217901595874	1.2464878000607738	-0.504482488408491
Si	5.478567464359371	2.8260815321576276	8.010448763330505	14	-0.24517648956080856	-1.304780414100235	0.7435266346702143
Si	6.790465170296547	4.064310859961791	9.534816255469211	14	-0.2094057296837164	1.630997114909983	-1.4585337977977502
Si	5.390733345814427	0.1103720073800553	10.880447354760605	14	-0.0498197935674453	0.21918544298996365	0.9960919667000644
Si	6.900527098105374	1.521185096539251	12.178522039811945	14	-0.9011068515262379	-0.7186079961284032	0.0492225258015749
Si	8.199140342412008	2.7751468825889227	10.656896303882002	14	0.6331159160176274	-0.9529441914384034	1.1236511865064431
Si	9.429878800574377	4.099447771375256	12.109309015518168	14	0.9845872988345298	-0.15210016297665999	0.5725843834653812
Si	7.986083037022887	-0.0927953916846066	13.479958640214505	14	0.9353272348952808	-0.06033304322153079	0.26857714752160433
Si	9.527309065849984	1.2367768498126173	14.717747328627974	14	-0.5992387752088243	0.3413911072987299	0.280831292587962
Si	5.448114386469206	2.7049872996040256	13.673154533067544	14	0.8404884156141708	-0.10203277196688444	0.09744694851786831
Si	6.795573323233107	4.029598267961587	15.12019797212822	14	0.6319326933492952	-0.5897506252458818	-0.5624424014195251
Si	5.4469719880488885	5.450333903400108	0.0047980733653314	14	-0.6843935263015967	0.21358377582895705	-0.46949154477499966
Si	6.796568841856527	6.805626429331897	1.3003268419371086	14	-0.25353566717767406	0.362626380358897	1.0888649028564354
Si	8.104174393728798	8.111828463144922	-0.0773730130103271	14	0.6261474492684301	0.9259478426873806	-0.3592551470631188
Si	9.655796248180781	9.474497618876473	1.2494737922555692	14	-0.9184276167364795	-0.42340473902187736	0.4226532049367981
Si	8.236725250440436	5.417889788263105	2.5722079632083243	14	-0.4573122188734582	1.5122650138887368	1.3950997444495887
Si	9.7267065501276	6.790057170860719	4.164597121288191	14	-1.2128032350404494	-0.04813263425636413	-0.7088956457815438
Si	5.39564565902179	8.207071851444494	2.7977174113789	14	0.6322198858135558	-1.3048068964850326	0.576106797753984
Si	6.870171940079808	9.508116772388657	4.116567427702577	14	-0.5722285424890726	0.28054589989742557	-0.12299679341577582
Si	5.404132047287002	5.52341476234553	5.401063891529579	14	-0.5246435536659001	-0.7523987477984492	-1.4865146227758577
Si	6.79727060088615	6.670072696772569	6.68608259463444	14	0.8520347353858916	1.357881966498317	1.4551767055812328
Si	8.159433837317275	8.154586804019644	5.487706651721906	14	0.950783434527351	-0.43577329827498174	-0.38152811823049754
Si	9.620969416338545	9.478855052851111	6.81775217256469	14	-1.0909688383399128	0.38880666028130473	0.29393827328901295
Si	8.238814207551872	5.434666725064331	8.05395782316715	14	-0.10291363264956715	-0.05093076817628128	1.1327426149184867
Si	9.514775323181365	6.919768351498998	9.562805016766976	14	-0.02317928579273098	-1.303078856599361	-0.6366820390966728
Si	5.5735497330200126	8.155353842959	8.190180674801235	14	-0.4740933090770007	0.07516497848186902	-1.3220572134095019
Si	6.794137165218995	9.497492467079711	9.603963999853255	14	0.7015926782301952	0.2047029209426336	0.4904396253709061
Si	5.524475560878681	5.556299516873226	10.896832612103438	14	-0.39041977175916565	-0.1424919423952666	-1.150791517155394
Si	6.7798898249198984	6.7695592792047465	12.341248534797385	14	0.5789283287323146	0.1684788751975993	0.7648981763123491
Si	8.171347420843437	8.079008988526958	10.971512828837302	14	-0.28407936993890515	1.401440604390138	0.7367085775822456
Si	9.570410126250803	9.60835407378276	12.355756994735412	14	-0.7242040068577055	-0.23589377091294597	-0.9784379862403317
Si	8.205782573227278	5.29535939769539	13.690698508808124	14	-0.8747460800103557	0.5953913732077547	-0.5242059515404108
Si	9.519116437178567	6.859939314229254	14.819273908239289	14	-0.05117013808158707	-0.6372535958093416	0.5413153718933363
Si	5.279235259991488	8.172245019602258	13.627866595690689	14	1.269086530272215	-0.4156256027652373	0.02412236722416129
Si	6.780314144333159	9.549487915181567	14.836214044814847	14	-0.40559983467985194	-0.36868827537221005	1.0085978229772647
Si	5.564067826131382	10.932671282546524	0.0393964255235034	14	-0.30273068215232335	-0.6020970729932329	-0.950991179837219
Si	6.87586761220396	12.251700818621966	1.350151733040363	14	0.07515880782910066	0.18609480329859387	0.7873040736247796
Si	8.136014669700776	13.692281546619135	-0.0140515005698991	14	0.6633366879506478	-0.5856923926085601	0.30778547521173444
Si	9.51265372611506	15.095848565798036	1.343623742067123	14	-0.3204995910198667	1.0081365666828301	-0.5738627370305588
Si	8.229707660144204	10.78208685077131	2.660972320466955	14	-0.1655187616425128	0.12304950107483886	0.3779437403036791
Si	9.426353685448827	12.181459635749905	4.2480248459261984	14	-0.002334820741226471	-1.0798032992661057	-0.10297636761937877
Si	5.339602856516524	13.505124045416345	2.6919802775898454	14	0.2148227914827364	0.01645224583309554	-0.3320718789553212
Si	6.7215785455514325	14.767849659347592	4.050210399459592	14	0.684679176102665	0.5581982778675566	0.7864658932904114
Si	5.480917541109737	10.933715761102242	5.520803565956234	14	0.11162839413220907	-0.1624295786003549	-0.8574271145738384
Si	6.645054171367627	12.327751913460212	6.978030670935166	14	1.2746185204790457	-0.17486267259699498	-0.08120887575794111
Si	8.220992792194927	13.564789882911759	5.576307809206207	14	-2.1354826886448577	-0.10777662125209522	-0.3054200583171982
Si	9.310400245786651	15.03711296701631	6.894031747087	14	1.5007297498698922	-0.24872847156059313	0.10540837614170685
Si	8.144060418575295	10.851920034207545	8.271976401695932	14	0.12375732636947562	0.13728699678515885	-1.0482473523403322
Si	9.53961432883454	12.233063404393366	9.524812109302719	14	-0.3055542700149099	0.39646058370885356	-0.1812811799182126
Si	5.373825849193735	13.850813807404268	8.25816970078753	14	0.004324342037957054	-1.117607289230371	-0.5050301338416824
Si	6.730130213726376	15.119284053391967	9.541997045539775	14	0.8567599127432598	-0.5684832133692129	1.0747675323860637
Si	5.616471273669065	11.02977514827347	10.96754707432106	14	-1.4676748485424727	-1.0495899835385136	-0.6327495335095064
Si	6.9308332961986405	12.353651717646542	12.291750043242793	14	-1.0516021305620615	0.6626149786872823	0.34167161488915804
Si	8.211706725035494	13.620849005394458	10.884462069209148	14	0.23482367687870032	0.9848703775302782	-0.5131473704479219
Si	9.641091948513557	14.937903824200493	12.264479360952082	14	-0.5030596387243209	0.5442641725850141	-0.5599227182057799
Si	8.104255993615963	10.98393233166389	13.654941438252203	14	1.6723044929834818	-0.2264994662941889	0.24518445998730107
Si	9.619516938347	12.287653728907085	15.077276431479167	14	-0.41593413540365515	0.2580641549780508	-1.0027596141268043
Si	5.336191981233006	13.648005447843136	13.617177010472009	14	0.376569741620592	-0.7784437875810174	0.3360054129846157
Si	6.6657479027527975	14.937805904335894	15.043722557876714	14	0.22179460066884993	0.7437102115900729	-1.0043043342031495
Si	10.94675542307129	0.0373237883894997	-0.2505279735755181	14	0.32015763401228703	-0.07017240617120547	1.3227408703141295
Si	12.162561101882375	1.4542079091538087	1.4169004407417418	14	-0.6382884657007013	-0.8629840445022742	-0.11872747303166993
Si	13.528314733348779	2.6029874406471505	-0.0277766015911362	14	0.43201099986000907	0.7396062132780525	0.24066574238714078
Si	14.941249419574278	4.043470248779722	1.2618932950821582	14	0.09395564460363924	-1.380587397580545	0.48013129281083644
Si	13.543231192722635	0.0151449390579168	2.755628189578935	14	-0.617169149490473	-0.13567645641261808	-0.4942944835774042
Si	14.995284864855273	1.2206037521764153	3.945827823797485	14	0.6979869601292196	1.4376152849130253	1.067238307566542
Si	10.82340903363192	2.8233887358811662	2.813433549646975	14	0.14844636520619756	-0.21286515189197566	-0.5954592503882066
Si	12.36053874812331	4.036795378009584	4.092723940672818	14	0.42451879895709754	0.38826724238513766	-0.024798053702296208
Si	10.754963048277498	-0.022031969534685	5.493173844161995	14	-0.611996856917931	-0.5325800415681332	-0.7432803227805441
Si	12.153405594542404	1.243761800153984	6.7067926459970435	14	1.407100121420848	1.2321124931052938	1.2342588518265531
Si	13.698385218179116	2.5731708418768773	5.448897745385994	14	-0.5021486961093925	0.25472711738303067	-0.5001964558398041
Si	14.940449740680057	4.10968039722581	6.78305590054192	14	0.1288982514571117	-0.515491447168301	-0.6844732305665212
Si	13.675374049998444	0.0250185254049423	8.152726326592271	14	-0.26391187691819556	0.5386085122122845	-1.0014624914927897
Si	15.029622097374515	1.3968758284313283	9.467104669099278	14	-0.5279839336978366	1.1526961919765597	-0.20768308911921718
Si	10.994213917446745	2.7699571297651966	8.193640510017053	14	-0.2035734343754925	-1.0354267927719458	-0.41065617040245506
Si	12.287637408929653	4.171810551313621	9.51655420072157	14	-0.46286837747029824	0.42012503707549653	0.03800016530019256
Si	10.986135528617359	0.0728034193290591	10.803841380689633	14	4.5251453634606195e-05	-1.435201017017406	0.5395163695008286
Si	12.306731782526379	1.405476456538572	12.16649421644375	14	0.6057652689534881	0.10050219296980027	-0.10943241307827059
Si	13.640514578201342	2.8722670682933007	10.797313389716393	14	0.9049563104115637	-0.8284965232904681	1.204196202870722
Si	14.98831623449134	4.242263893892313	12.384121115514139	14	0.5092192357397997	-1.7869768187042143	-1.6762634809554458
Si	13.726390299454316	-0.056173362324730206	13.470574653190473	14	-0.6806484542922688	0.5365639692617026	-0.32686384801882923
Si	14.854557699449652	1.2498817916913967	14.970723298818458	14	0.7603372925849385	0.2078173008169289	0.26519074470443726
Si	10.87573088128244	2.684832127474147	13.475127926894306	14	-0.14499928430347503	0.5978408652462598	-0.15453011461473193
Si	12.33310486605827	4.003731103730123	14.867891121012493	14	-0.9792527695162865	0.0742324385822513	-0.13827018745958347
Si	10.8877913446055	5.429166892669377	-0.20830819195608838	14	-0.17011332684961744	-0.367819241774	0.5751616594382977
Si	12.179697078187129	6.681072361562478	1.2842027042332058	14	1.1541658357775566	-0.0020265452133407156	-0.30756127482781753
Si	13.606226305614399	8.097124163477698	-0.0357244306010559	14	0.07554730184297503	-0.9146951431432205	0.28065388632087185
Si	14.960523312922769	9.438463108704187	1.2480865941737556	14	-0.00840982839167235	0.9959893795977907	0.8479739316432499
Si	13.748552828808464	5.457090374057411	2.5979445676203228	14	-0.9941299562302593	0.25311786256314994	1.3724711894164334
Si	15.040997121645386	6.877940249337963	4.167795836865078	14	0.533097862179611	-1.1076985064370524	-1.6870189287306894
Si	11.008102218242314	8.113591020707696	2.6192584581479514	14	-0.9391142159213269	-0.2112427844349622	0.5517296339925961
Si	12.273471668517722	9.444338300580105	4.005558941202631	14	0.4870827902649209	0.4424612574337509	0.30527093420862966
Si	11.021892599173283	5.377383604274151	5.547405129172187	14	0.51624041014806	0.35793154204430655	-0.9329170807681739
Si	12.364732982323616	6.726719338442859	6.896430783769666	14	-0.1767714611866729	1.177629485818696	-0.4672045465927279
Si	13.725460060740629	8.188254917464128	5.409011720539498	14	-1.4363988949860633	0.05159102802249531	0.8682136727234554
Si	15.08008346759766	9.544412402199873	6.728498215983066	14	-0.19996951604824095	0.18640153616328753	0.0654935087096
Si	13.744619714247087	5.439709598091159	8.20273073744729	14	-0.12740418215557364	0.5041821833070976	0.553691644462401
Si	15.152658407242656	6.813688498183849	9.56045494001661	14	-0.9073160708743955	0.3493833881864102	-0.41253256306509917
Si	10.915486346309471	8.15019673009014	8.215998879100399	14	0.8285412605230387	-0.0543446818203739	-0.3823904669548752
Si	12.339926616625304	9.523620750950103	9.492743353646677	14	0.10209859226308021	0.10128638009244544	0.22394764426394193
Si	10.8761062407634	5.537237783231365	10.915600586151502	14	0.07279004849764824	-0.3515947958722696	-0.6464936341088898
Si	12.374720808512674	6.838413263994995	12.13111250536879	14	-0.7445874727253075	0.19836900298644877	0.46739609393907894
Si	13.773212314709879	8.228222542197791	10.917558983443474	14	-0.3774642291614715	-0.26963567158190926	-1.048420130617846
Si	15.113751581042147	9.522690512236418	12.233096044348232	14	-0.11377963795357697	0.26674780608631893	1.2235967351744315
Si	13.587001372198207	5.475531948556815	13.555307976023128	14	-0.46126452197158985	0.5107217896888943	0.8317281455673621
Si	14.990519431444808	6.684793316417225	14.971882017216208	14	-0.20222668940879895	0.5164795229428338	-0.052921317915139925
Si	10.92986424642803	8.13619418945254	13.516923389100477	14	0.2417823734276811	-0.04601892857267039	-0.4165334600537816
Si	12.280277099107325	9.354154105284794	14.925435361441604	14	0.29180836964180223	0.7376565441137842	-0.6897771637314547
Si	10.999028310789509	10.7688187091182	-0.1055249740824246	14	-0.8627122786699347	-0.20562337664724656	-0.41255724567617263
Si	12.273977587818147	12.112360851298158	1.2269685433753241	14	0.1462334148571461	1.4383603912348044	0.2363354868069474
Si	13.634166106979865	13.47535640657837	-0.0622117539749772	14	0.47641270318630624	0.9048395822300289	-0.3486786482181576
Si	14.856581376651356	15.112837662305893	1.2546472251018619	14	0.1867069834753211	-1.5227160427940745	0.5358191200504556
Si	13.547082707396847	10.94980725885128	2.709524253330428	14	0.8691402990808368	-1.0756653623638595	0.2458501191546874
Si	14.904839549921032	12.296564436585557	4.053262235239583	14	-0.6512715191253211	0.7819654305380241	-0.17131943235529887
Si	9.88501033122867	12.858755019200988	2.114563156029334	14	-1.1831087683664634	-1.5040217931218098	-0.46416755698856904
Si	12.330167270120311	14.983518161126007	4.26282706545802	14	-0.2120292855523955	0.8789953457729645	-0.3286777628221937
Si	10.941679910089595	10.795550832153618	5.4051438858878535	14	-0.14490543895928962	0.12010070038316102	-0.19397729798910382
Si	12.11748532421215	12.191267942187196	6.865749226195438	14	1.479196742813652	-0.17976757021624143	-0.9452385887939198
Si	13.63791970178948	13.622056683724507	5.599971776484201	14	-1.1440397945846852	-1.6465062793116478	-1.0845120215494248
Si	14.932942551060831	14.989899272302349	6.741244118358318	14	1.3389079805672204	0.7122298551607118	1.3322770999465585
Si	13.697503939397727	10.899296928695836	8.08049410647337	14	-0.6372086014662391	-0.24361094353137042	0.3105090470773673
Si	14.898474758722124	12.327294954092084	9.46705570916698	14	1.4409173554756916	-0.6649909371136311	0.029391847577804782
Si	10.866330574280974	13.595079761027593	8.112889261678074	14	-1.3127798940828117	0.5255328989961393	0.16013486710212274
Si	12.25119489932154	15.009744364861	9.273174377261752	14	-0.11124452810791097	-0.31100115663564365	1.877366854449872
Si	10.847774759939538	10.85252387337257	10.80276426217905	14	0.9365086577898889	-0.028254904805235303	0.7566325869291373
Si	12.299453072591216	12.223042938249442	12.170900610350687	14	-0.08107877782874161	0.044139964804706174	-0.16531255899583694
Si	13.624977959685031	13.686520594585252	10.758667683154812	14	-0.8229084829876583	0.1740694866057293	0.5433257191431601
Si	15.047525112618628	15.089842814102655	12.016709463562758	14	0.6351463178889483	-1.0047925871034455	0.34712261527840405
Si	13.607401343989583	10.880316794941141	13.650861443893927	14	-0.1980550710268587	-1.0240488803986945	-1.4856216778981703
Si	14.989785032460318	12.230762287575297	14.786291233846995	14	0.3044373818638376	0.2830979790382046	1.1574766480983112
Si	11.036923298389167	13.626822117134973	13.600808073106611	14	-0.8706559656670642	-0.8282689804696349	-0.2092877159495216
Si	12.409874039903572	14.948691329283772	14.842970515472151	14	-0.1839664423145753	-0.15205079775451313	0.7868962963210041
H	11.133906396283107	13.554255337478692	2.7855476042070375	1	-7.875422865326914	-10.572475322245637	12.176665578866695
H	12.681449888374559	10.768821973113686	0.6821277287690239	1	0.4153708062280107	-1.6823158628790742	-0.6312125267491218
H	4.008958392501945	1.468961168753331	6.845855173704488	1	-0.031025785008758883	-0.05229525376968387	0.2104213162851749
H	15.048101207822015	4.003731103730123	14.867891121012493	1	0.3013001191521929	-0.29355903525429106	-0.16031047359548883
H	17.656245761338024	4.043470248779722	1.2618932950821582	1	-0.11049813623347197	-0.051657619650287145	-0.010761875538543814
