224
config_type=interstitial dft_energy=-23334.10741875442 dft_virial="-76.67677868397986 5.887293935468344 -14.097170676020983 5.887293935468343 -77.30770100794165 -3.103349180986996 -14.097170676020983 -3.103349180986996 -83.06881047861762" pbc="T T T" Lattice="16.254729908999998 0.0 0.0 0.0 16.254729908999998 0.0 0.0 0.0 16.254729908999998" Properties=species:S:1:pos:R:3:Z:I:1:dft_force:R:3
Si	0.402353329437477	-3.062342350665873	-0.40243460308702195	14	0.5519700323400298	-0.6248063607334408	-1.194820153099738
Si	-0.052307720847161995	0.08197260293108699	0.05458338303442199	14	0.2439454443335217	0.8115524250096282	0.727477281040786
Si	1.4415344672497559	1.4780751000851877	1.3151376874773717	14	-0.7015127168547386	-0.7490856214829066	-0.23874461249192613
Si	2.8013889167067867	2.6925472452361223	-0.050893559345079	14	-0.6480478672749194	0.7980839469005644	0.26520385734157004
Si	4.0327334715032634	4.07195613477368	1.348833742578729	14	-0.4948788958166738	0.5359026809733605	-0.14171855391496604
Si	2.524164498108792	0.062255615551469995	2.7335579287965293	14	0.37097115978596956	-0.343684790354834	0.4445561940486075
Si	4.007213545546134	1.3713953076924208	4.049394569659989	14	-0.12659428397972702	0.48781504106009893	-0.4143745029164533
Si	0.226330859252916	2.7809729759410824	2.738206781550504	14	-1.3745872090949154	0.3213339146962548	0.24077758546856726
Si	1.495012528650366	4.203830758525398	4.087804496434956	14	-0.3719713197555071	-0.5473780382382454	1.0557642358543173
Si	-0.09317211183838799	0.09130281789885299	5.335387526410524	14	0.27601972609183695	0.9648790052239987	0.5768822431185406
Si	1.3462329857932889	1.368274399549893	6.855627395879657	14	-0.1127938761738322	-0.1485216985920779	-1.0957850328256142
Si	2.7423517376772986	2.6857202586743427	5.499186439703516	14	-0.11680865713124343	0.664050941008585	-0.31584537616933467
Si	4.201701388907319	4.101767309426786	6.7242404140252106	14	-0.32126989417378304	-0.4457386453853437	-0.4516565585007285
Si	2.685102578937801	0.075974607594666	8.213953900725242	14	0.5197540826785745	-0.6084975825772094	-1.044228457614409
Si	4.013747946969552	1.308538267134318	9.611438049921608	14	1.3667803049008176	0.24909999627935453	-1.1038482762201305
Si	0.043595185615938	2.8055176181036727	8.059761532808468	14	-1.0076637404144548	-0.423867280868972	1.0617469408237699
Si	1.313300902997655	4.172296582501938	9.488942405327384	14	1.1590349950328531	-1.0874081145820396	-1.0642753657956034
Si	-0.07200845349686999	-0.16173456259455	10.930021740139688	14	0.6286493918554662	0.5636731895362799	-0.9043950381201753
Si	1.245860028605214	1.2220468492885288	12.231602982872953	14	0.4113765941131606	0.8775902367155035	-0.5387632927525573
Si	2.611208576771487	2.645115943361661	10.740800429269019	14	-1.0049882482183088	0.19411999433437205	1.3087028923766526
Si	3.81027123796869	3.9399514731826915	12.270939429252733	14	1.0437427758194329	0.5562174983289145	-0.5348426142498635
Si	2.7133207900598246	0.0698953386087	13.596626436441046	14	0.7452541603348218	0.678426505074597	-0.25845290610245725
Si	4.122492090060762	1.4875190981623168	14.84495718399243	14	0.2673296472202685	-0.8003182374237732	-0.4874046926510034
Si	-0.030802713177554997	2.6688641037587097	13.565010986768042	14	-0.0026163567737826853	0.1649040103604654	-0.7570264802641838
Si	1.2610419463402198	3.9531665685987085	14.962820230562588	14	0.6329009716128631	-0.33307461003017896	-0.14275496646951774
Si	-0.032330657789000995	5.243418264585401	0.022285234705238997	14	-1.2286764679554478	0.29139467879579045	-0.2610839181765648
Si	1.3950947038997428	6.431411454714575	1.2960871440240238	14	0.03395941617904784	1.30511414357079	1.3758948732607426
Si	2.502350650570914	8.031234481818174	0.083533057002351	14	1.0846061240041422	-0.21162562201713225	-1.0789599767210971
Si	3.8750951008457815	9.371745802683495	1.410699244612383	14	1.2935004608396812	0.5343872714976652	-0.9481879037066614
Si	2.9421061135289994	5.483614408450695	2.8532252503865876	14	-0.8266597256497543	-0.17302767473000527	-1.070618539730941
Si	4.112853035224725	6.90530185048156	4.209828753861819	14	0.336860305503565	0.18056307020229526	-0.45877337802689844
Si	0.05786683847603999	7.972164793328867	2.6348266993292637	14	0.18065305888850045	-0.36337714311238023	-0.4793956995787421
Si	1.2569620091330607	9.360513784316376	4.041446006734487	14	0.16660299675601925	0.37570276490663806	0.7970300508298358
Si	0.07171586835850799	5.565196897863966	5.474349212402564	14	-0.8912014111698355	-0.6770499352861897	-0.21391621974685218
Si	1.3810506172583668	6.80502642167294	6.893793501705989	14	0.10365668208708995	0.7671741187417442	-0.2984289658411836
Si	2.720326578650604	8.166896457638687	5.478884282047175	14	-0.5862886319323025	-0.01919278699384138	0.499135103563647
Si	4.234974821031042	9.392698149536196	6.780920657217893	14	-0.17182234055591986	1.0270843273396615	-0.23537877851732028
Si	2.8290219575520865	5.3568437698904035	8.02608173243702	14	-0.9775614964366932	0.56582854712616	1.0637449467680569
Si	4.095590512061366	6.734822243195969	9.425077571514922	14	-0.24982530509016834	0.047801475891129055	0.8747717910635572
Si	-0.06035381215211699	8.337489848033643	8.069611899133323	14	0.07361845863179994	-0.9333032607872603	-0.03469346674795012
Si	1.4969956056992637	9.425906562740282	9.460529137446452	14	-1.9903882734445375	1.0747809021337285	-0.2781611997129883
Si	0.038101086906695995	5.503770273537854	10.75120345641078	14	-0.946788193970373	-0.17623410017476193	0.7970117959820626
Si	1.431960431333355	6.704929794893318	12.135537529110765	14	0.7113507942517533	0.41574747315741234	-0.08072627928934932
Si	2.7669939082193427	8.241928290898631	10.818595566613492	14	1.0960873948112635	-1.7325637454823244	0.9045158800702223
Si	4.235592500767583	9.573255689365368	12.154620582023929	14	0.06016103627561289	-0.5294759461151183	-0.44055889660737335
Si	2.6131591443605666	5.337793226437055	13.706882269413793	14	-0.42735601367788095	-0.1358674895379051	-1.3512312883666902
Si	3.9754355485740387	6.733326808044342	14.830279162884603	14	0.5521482099387162	1.588422953245247	0.5818269928702494
Si	0.11706656480461798	8.00657605654622	13.473383074271009	14	-1.4442664772657163	-0.08689744627876873	0.17084712030798768
Si	1.3824160145707227	9.38333542510861	14.774899298084637	14	0.4083048945871797	0.9388684182527208	0.8329504490365607
Si	-0.014547983268554998	10.674659933269298	0.057492979688132995	14	0.4673935228337588	-0.7409629855554947	-0.44551547344355485
Si	1.294055302785399	12.02637076304192	1.477522439268282	14	2.260324507238372	-1.369167576190575	0.7498273853677693
Si	2.854444355129763	13.617448745454475	0.005380315599879	14	-0.9062639745773909	-0.886904322848272	0.18233738998372945
Si	3.9198281175553498	15.096954261771655	1.348719959469366	14	0.7951474875144233	8.716047035301989e-05	0.5010760309698268
Si	2.6780967903470216	10.693271599015103	2.8121983120962715	14	0.2930831236595317	0.8628462332571144	0.2661705929419457
Si	3.9916415142933115	12.355480279509443	3.9273865669630346	14	0.20370687474160817	-0.9331646782105043	0.31331026632366865
Si	-0.108695378901483	13.563044164449051	2.61441075856356	14	-0.8612452059742581	-0.685960872104759	2.711188136858367
Si	1.0740150240072657	14.88461872497039	3.9847169993520777	14	1.5421772531833395	0.5084882704972816	0.5447747941015955
Si	-0.09338342332720499	10.827015516706355	5.341076681878673	14	0.6419386639237156	0.9753426325454053	0.09782053012088583
Si	1.2951606244192109	12.190007129035823	6.900734271377132	14	0.8130104988366841	-1.2466821756229767	-2.6237150200984165
Si	2.548952961220017	13.535963784420659	5.300472366565991	14	-0.5070453661916146	0.05598890367260859	0.6514746364456127
Si	3.915032972232195	14.889251322994454	6.649273599684903	14	-0.17616673721537404	0.4248898094547949	0.6776939971688868
Si	2.6998618736951725	10.740979231298018	8.034956814967334	14	0.8662933141598369	0.1548386472531497	0.05478176972479907
Si	4.007684932713494	12.090804512401196	9.457034370516018	14	-0.20878249375411254	0.6868782424829877	-0.13994680523885203
Si	0.137141156242233	13.552543608927838	8.149325094607057	14	-2.098688628850347	1.0108652807591034	0.503442990527555
Si	1.4229715656936777	14.937820455962544	9.482294220794603	14	-0.28318153996110945	-0.9298574654371977	1.361747109126096
Si	-0.084800925935253	10.86415757454842	10.798244644767424	14	-0.17187813354136705	0.13030027518818846	0.6049702831884983
Si	1.2686003957479048	12.278107765142604	12.258081937894715	14	0.10234336148955833	-1.8524014217912343	-0.1320098031155549
Si	2.6634675334289217	13.457485948420006	10.982914631263574	14	1.2291035285491245	1.2707096690608246	-1.3328329729167745
Si	4.099784232377888	14.896289621045051	12.313283000665677	14	-0.28831886550129726	-0.30985727187870976	-0.6933060057833579
Si	2.8201956392114993	10.86332858332306	13.450951546996588	14	-1.2272932132932082	0.003917850286841643	0.46955247997108723
Si	4.05100378792098	12.238625026193642	14.845964977246787	14	0.058962386975359854	-0.08762378353171055	-0.05952777303526042
Si	-0.18146780470407597	13.522976255223368	13.514296229451961	14	1.2739939989967817	-0.9457391829997525	4.068066600950231
Si	1.3100011928261277	15.094629835394668	14.980115263185763	14	-0.5500843836982333	1.3273601181323074	0.5023978362149149
Si	5.353885409046965	0.12729078991737897	0.015311955574277999	14	0.19998982778027014	-0.881610674104619	-0.7457740378305557
Si	6.64264166988203	1.4353251604245179	1.371509090801784	14	0.4596840635312949	0.12972717581232746	0.5031881939903284
Si	8.059859061187922	2.7222121273200477	0.08751546583005598	14	0.5302606474588276	0.11158648511549066	-0.1520795941340988
Si	9.61888271621993	4.053181921728785	1.3925752207638478	14	-0.755172456217825	0.3778871759866359	-0.3461239979720585
Si	8.090645519635569	0.105395668729956	2.6431003568529445	14	0.20145124404424228	0.8837380066465096	0.3288315149203386
Si	9.541445182933455	1.455367242402315	4.016088628076448	14	-0.6841019629582918	-1.0420347905552585	1.0674205989337406
Si	5.350130566437986	2.8719994634314827	2.695651898648742	14	0.039855217788679405	-1.7218887733036017	0.22782975618683352
Si	6.761675057005638	4.089137384287493	3.9642197849368284	14	1.0192383423446976	1.0936867537738413	1.1217143728687755
Si	5.291239679977679	0.022837895522144998	5.38941824862804	14	0.9480500924615017	0.3081824538731653	0.43824490181924014
Si	6.770550139535952	1.357741334568861	6.78552074578214	14	-1.3591549207423224	-0.07635488602403354	-0.05468458194369748
Si	8.042872868433017	2.697716249347185	5.426527797010286	14	1.0823283818010232	0.6325392170943182	-0.15678960197007807
Si	9.509260817713633	4.064755289423994	6.916972746556223	14	-0.1865102939183298	-0.21356603520224804	-1.1687951679386668
Si	7.983380556966077	-0.043725223455209995	8.139409709362567	14	0.19700760271943035	-0.6157624977698201	-0.27488946819309984
Si	9.376167089218741	1.3422343222356747	9.325566115012023	14	-0.1731827123808102	-0.16621553118427293	1.6852469229440432
Si	5.389044389840133	2.767172710248342	8.160638386623722	14	-0.35872369959344413	-1.6192463922653102	-0.2522444580858957
Si	6.618861000025163	4.057440660964944	9.498028799346514	14	1.1424837616449315	1.1314413785159596	0.09091839788894832
Si	5.466953310293969	-0.08385815160053099	10.833013512042776	14	-0.8590505104729798	-0.2950402490292284	0.17181411301889538
Si	6.687147120372872	1.3053035758824267	12.1760605707739	14	1.5726857318016845	0.03843596765195766	-0.30453739786079137
Si	8.033932766983067	2.731704889586904	10.755153355778665	14	0.2771561546433424	-0.7857495833482182	0.572580012586337
Si	9.337724652983958	3.9767034175069407	12.303855257318459	14	0.5870108554167319	0.30161790776976327	-0.672055563201802
Si	8.178112221275896	-0.043985299133754	13.499260604286137	14	-0.3836608500935604	-0.05813860483078441	-0.02211253419540154
Si	9.463552517209527	1.296948644709201	14.977595780049867	14	-1.0567466551971458	1.346068508883833	-0.986950401734278
Si	5.458419577091744	2.753843831722962	13.426309376454544	14	-0.6133531149743092	0.2635663203631677	0.6684490737692302
Si	6.589781288217963	4.048451795325267	15.049620488276648	14	1.0359795804157779	-0.4142469760925739	-0.8135949110759539
Si	5.259494192465402	5.442750017459469	-0.013052548116926998	14	0.7957907780655243	0.9264484368932135	1.1622295933931368
Si	6.687455960241143	6.781847176822707	1.6184672023092208	14	0.3771713802655066	-0.09857900619032951	-1.1705944274417066
Si	8.150235359481963	8.139247162063478	0.127583375055741	14	-0.365249936227576	-0.3816705574652337	0.1510097572103852
Si	9.463536262479616	9.604952412687917	1.364503302211005	14	-0.41907705454700417	0.2004773093489702	0.12304821552217877
Si	8.386822953307458	5.546910326716341	2.83758820021413	14	-1.8788493537774695	-1.3100380673694054	-1.1268612114986478
Si	9.442811481845641	7.0198001679605575	4.129644171220722	14	1.3764463753519143	0.7211418204214091	-0.17379437833647343
Si	5.401381729841063	8.338530150747818	2.888286702800301	14	-0.12697377912498087	-1.091948429466889	-0.86044276400384
Si	6.811479549446813	9.699619959677932	4.0493620602001705	14	-0.24926686101463214	-0.25555295641186215	0.15019111727645004
Si	5.496423135618987	5.543643126004632	5.4239270402248465	14	0.6170933018835285	-0.6331470263920013	-0.32153420380069425
Si	6.96853274982757	6.877392479227808	6.640772375942496	14	-0.7279048558555266	0.4233304340781251	0.5913447105443737
Si	8.192822751843542	8.489796667280972	5.414954429315078	14	-0.154947919229256	-1.1997746730516632	-0.027162956375768408
Si	9.62294639869718	9.567615298086945	6.807123281831201	14	0.8604664181727854	0.81363270632416	-0.32386696765766465
Si	8.068912945747234	5.47425168402311	8.099179252837793	14	0.5126380344840006	-0.42407991127894823	0.6492606576544332
Si	9.698059505606668	6.68848000822541	9.369681451985052	14	-1.2514114667488572	0.3094384388220576	0.06436067970554275
Si	5.555639116677473	8.048952137418983	8.237246928684838	14	-0.058644341247257536	-0.19662425091619629	-1.4038821260021506
Si	6.973539206639543	9.305572797223954	9.485122543798768	14	-0.025668887074230363	0.9838002834960325	0.3666668723695097
Si	5.307786995025041	5.328755596607651	10.914368435237321	14	-0.7324485131772922	0.14335351978804825	0.05374561428077939
Si	6.805091440592576	6.627996158234021	12.133554452061865	14	-0.1655616991013593	0.1636976477442519	0.6442359465272678
Si	8.295796465817057	7.938208662548966	10.872512505721646	14	-0.02936562230353927	-0.12245634707748071	-0.9858497115467227
Si	9.612494607365692	9.288700387578412	12.157123810429917	14	-0.09146861442746	0.9026055488173523	0.10772674180888436
Si	8.018734594518152	5.311590601823747	13.678794096131043	14	-0.5576169509546711	0.07610805991329933	-0.5805450397576236
Si	9.301216529608341	6.740235068255666	14.905359760334271	14	1.6647477573370348	0.349969600199404	-0.04272688532075279
Si	5.553704803818302	8.11645803073106	13.508395762494995	14	-0.9984028761618134	-0.703708183687613	-0.16571519408897212
Si	6.861527862836624	9.370575462130045	14.918005940203475	14	-0.4148108194892825	1.5391613466428058	0.012578875668292463
Si	5.294913248937113	10.869993022585751	-0.057915602665766994	14	0.7946296669029456	-1.0365979312452733	0.9697959870382499
Si	6.682904635866623	12.344573355740504	1.351792103422167	14	-0.41017768770237556	-0.39468189304837514	-1.1009578396192201
Si	8.18489044364795	13.512882067949878	-0.078721656949287	14	-0.5137261262554872	0.08165701941524292	0.15884391512087637
Si	9.337659634064321	14.998808202581113	1.3016462616529019	14	0.7676520872207598	-0.5724460579991573	-0.402978592805961
Si	7.994433773304197	11.017618479619289	2.6753659957223093	14	1.4088443592700364	-0.12570545287055182	-0.4453192981076275
Si	9.460512882716543	12.314745926357489	3.9733711978755957	14	0.044995114434187425	0.26025242271602883	0.05286218249277652
Si	5.370091374766239	13.767772487652907	2.6561691596997807	14	0.13485087449431854	0.025420518300304056	0.0303819802365938
Si	6.79511103642845	15.10321233278662	4.0323433579854475	14	-0.7056287993617637	-0.7409107921174957	0.25159036889245
Si	5.416238552977889	10.969732045307374	5.289614206986779	14	-0.7572676499432137	0.32592128080846294	1.00340984666227
Si	6.801694202041595	12.310828536449419	6.637700231989695	14	-0.08646370081125974	-0.3184406498794921	0.687419974373943
Si	8.176584276664451	13.735653141352724	5.328024133761747	14	-0.6044727743090497	-0.7753252939382097	-0.20541151756886636
Si	9.431108076311162	14.990063157890072	6.725069405250569	14	0.8542420293032389	-0.22511569741088522	1.2469660256503212
Si	8.15384390952176	10.78239628310615	8.064182819343717	14	-0.30608546037405254	0.645157687784541	0.29560512086806495
Si	9.468510209831772	12.080482758908982	9.547947074897055	14	-0.2611301980723274	-0.020293220070864756	-0.6660751722271376
Si	5.274107194653593	13.551617089323026	8.03437164469061	14	-0.11260901370131354	-0.7878854005376651	-0.3594865465419321
Si	6.662862553888827	14.691870137709467	9.44804550487634	14	0.04639970927058432	1.5037705961320316	-0.41141541780349483
Si	5.537433819179394	10.837321015468662	10.646701797825818	14	0.35799684811943827	-0.3411085428240456	0.8131010017439533
Si	6.82306917187193	12.16078112465944	12.188284127665469	14	-0.6223710097741965	-0.2345174582350707	-0.5761744178239039
Si	8.048887118499348	13.46847414583849	10.7425721948291	14	1.029006742787536	0.008263275388423912	0.9044528879898787
Si	9.517745786726131	14.829092567601245	12.051776905889687	14	-0.4254163718243612	-0.4602489353701314	1.1343184453692052
Si	8.191164769392824	10.730755006185257	13.373822853578384	14	0.4973330158447552	-0.2647541710210761	1.5595237294467825
Si	9.57172774475392	12.195078604767431	14.798354873343325	14	-0.7429635626051019	-1.1592990475492322	0.3897751956554045
Si	5.504631774223031	13.516376834880313	13.57676315649225	14	-0.32160079542848613	0.016980865086917988	-0.3416641586837296
Si	6.755351967071036	14.885187640517204	14.913357087449501	14	0.42459824611149016	0.8322202551256385	0.3724099503231244
Si	10.765507618730698	-0.012109773782205	-0.07056178253496899	14	1.2590687326133223	-0.8624153160054575	1.043864389101076
Si	12.13283924394587	1.215414919485657	1.458260584326117	14	0.4631707394559476	-0.1002214282688401	-0.8434495576113852
Si	13.575641580128528	2.5010665269081027	0.070334216316243	14	0.026787832109558804	0.07628700884358164	0.378671105998749
Si	14.907164035354173	3.9416582198231365	1.4049450702245967	14	-0.2966849851025271	0.18249011363974627	0.55547804843884
Si	13.618082679920926	-0.12340590946912798	2.6957981912179227	14	0.01168464523794496	1.4794767361830163	0.42761620953627993
Si	14.848256894163955	1.5544723306574877	4.036260747893516	14	0.11180837150461943	-0.40519719958671674	-0.20163636362729292
Si	10.931891034079223	2.707355304183222	2.7487398465315356	14	0.15915810419099846	0.5413927621634727	-0.15308361076161664
Si	12.110050112613452	4.200839888222141	4.130115558388082	14	-0.14168384399314407	-0.4371542389424332	-0.39385579690901157
Si	10.942407844330345	-0.014986860976097997	5.444440509370004	14	-0.6073747808839008	1.1215189688644442	-0.13776342260098226
Si	12.30985325265488	1.3687457867172539	6.830838932768432	14	-0.630903737000172	-0.06965509978079168	-0.1527851054339474
Si	13.448562101699965	2.9160985456745996	5.474284193482928	14	0.7951004362870646	-0.9518568709985129	-0.047809960538685546
Si	14.834667939960031	4.166217313515971	6.856732717513469	14	0.7006195148665192	0.1154071476212307	-0.8109047635794829
Si	13.49110072987182	-0.011882207563478998	8.308637702445168	14	0.6106195157979277	-0.5050776992901053	-1.7938457836775221
Si	14.934033103893748	1.239471919750977	9.491331850624007	14	1.1376647389433783	0.7316041621901557	0.061874163750427556
Si	10.888507159952102	2.622733180276968	8.250201948422312	14	-0.43875063823571325	0.12986447283642336	-1.9362413096232827
Si	12.162179031431615	3.9225914216398796	9.540713720087549	14	1.1644767394429465	-0.18176351927627238	0.908315716622869
Si	10.729405863602809	0.05661522427304699	10.828039564690622	14	0.23210653277636784	0.9207958618468679	0.10674123713967161
Si	12.129669571613615	1.4103253858244758	12.300230452548751	14	-1.399794068543115	0.47019345652740013	-0.7769718297852325
Si	13.606444293306083	2.4734009766029845	10.867067171202132	14	-0.23754082098103282	1.849790978559688	0.19736832879584712
Si	14.910723821204243	4.081904029477989	12.152978854303122	14	-0.01636431403114648	-0.6669935710474946	-0.22979768019887484
Si	13.436582365757031	-0.021407479290153	13.40298383903513	14	0.5407612986968443	0.21787392216615611	1.9246343117660065
Si	14.922801085526629	1.249631125944102	14.819551041144662	14	-1.124188290407822	0.19574159045978945	-0.1932998117372448
Si	10.786720041261944	2.844496460425455	13.768780280907265	14	0.18008381617061966	-1.0829385050934943	-0.7758834809032138
Si	12.280350917870045	4.013325323991918	15.112623821403933	14	0.33927328784652394	-0.3861913319496501	-1.0727867528474218
Si	10.839726715495193	5.383030139773802	-0.13288241700607498	14	-0.43345878926578446	1.1207255257626467	1.6453405401594932
Si	12.25001959185985	6.733261789124705	1.384594148378529	14	-0.34514363551348604	0.7055287833648098	-1.125683388151488
Si	13.5109315003608	8.263823412086055	-0.19113936899993098	14	1.0198556647320651	-1.7721168583958864	1.1960080037576464
Si	14.869030438987657	9.376524693276739	1.4676233087537007	14	-0.49374838080740474	0.2852895892130988	-0.811480434060664
Si	13.561239889429153	5.414109183359811	2.8311188177103475	14	0.45950537171154454	-0.15033895583235854	-1.0542771085371436
Si	14.892209683837892	6.869135076434036	4.059212426525025	14	0.3956810245757847	-0.6020140262913921	0.38852075336970426
Si	10.924007490073357	8.309499203130345	2.585899962303174	14	-0.43324641596634017	-0.8923416963793211	1.0703935680154277
Si	12.113382332244797	9.66504614916149	4.093022264735745	14	0.05167458894540011	-0.06602135663182641	-0.48919315351169834
Si	10.771586887716664	5.558093580893733	5.390832410130122	14	-1.1580775154116298	-0.6051317486026037	0.6316529570904632
Si	12.20320596972193	6.7063439563954015	6.703564397580963	14	0.6896172409805416	1.2514464337812112	-0.09027279334305913
Si	13.502771625946481	8.237084381385749	5.281763172440732	14	-0.31315162912541555	-0.4419094982320471	1.052202226543784
Si	14.749606938346234	9.646076879357686	6.672826703323043	14	-0.006215132890393951	-0.6134793562455285	0.7287170680261614
Si	13.383917040851872	5.385045726282518	8.185134264596584	14	0.5055536108848646	-0.10813117667574366	-0.14866748026373028
Si	14.9556193852129	6.698639214418535	9.27576162257085	14	-0.4609333636063548	1.134624406902303	0.8087931147800453
Si	11.010466398459329	8.181509459826877	8.103259190044952	14	-0.46533869546189643	0.15380634846711025	0.3301504919495745
Si	12.304359153945637	9.519111184038486	9.575677644121807	14	0.11742880773446314	-0.9107508104715814	-0.622068133567483
Si	10.771895727584935	5.241272640237414	10.782461302025785	14	-0.050540474388682796	0.09001748258476841	1.2491576358252157
Si	12.226661544980619	6.5957467740945654	12.099224462494057	14	-0.42842250816467836	-0.39343233586278314	-0.002126046989230446
Si	13.595358567508145	7.961696747267472	10.846797523005609	14	0.7229097124395429	0.6523431558227587	-0.45454056733833864
Si	14.878035559357244	9.405084253726852	12.264291244719953	14	0.4795196268551732	-0.29869661790501095	-0.7256003741570779
Si	13.48880881295465	5.30455230377315	13.570114971959468	14	0.3144657210545432	-0.29628929199375637	-0.3835379512592573
Si	14.90927715024234	6.606117291776507	14.817177850577947	14	0.3429813359392415	1.474538157084076	0.6497129150802472
Si	10.939286936187818	7.944661790322838	13.465109416747328	14	-1.0425233005660868	0.016945640944031958	0.9544462311664338
Si	12.123817868846373	9.496208269596707	14.751915109993313	14	-0.2855945223040684	0.1426078992452053	0.18126421062309966
Si	10.88268796664468	10.803478667798123	-0.0062418162850559995	14	-0.3848209328140112	0.6951155497076782	-0.6541064198513162
Si	12.195858831803061	12.3077238830368	1.3468669202597399	14	-0.09461950399730147	-0.37996051531680325	-0.5312618358704931
Si	13.562962890799506	13.636060411200281	-0.042847468040123994	14	-0.08274665384992166	-1.4404861811135028	0.25411827964321954
Si	14.909569735380703	14.862918660541874	1.2591889071305937	14	-0.06200117635324286	0.8233226880547341	0.2785394093055821
Si	13.512898322679787	10.911637640612609	2.6810714059203686	14	-0.06131186301691116	-0.34779778753547486	0.012560106599455383
Si	14.785741202933941	12.254473387854915	4.0265079099481165	14	0.5074297464369767	0.23566622809211288	0.6458925096850392
Si	10.796976775834523	13.697779620664752	2.6082014517383216	14	-0.03652100840951138	-0.20581518110412964	0.40686841804481294
Si	12.22224025844537	14.91971268684392	4.050369853454529	14	-0.3797792523917329	-0.2392614046612759	-0.03460064984589277
Si	10.893269795815439	11.164073596099378	5.4216676327674955	14	-1.0841178711038462	-1.5513980081929866	-0.28429380012260547
Si	12.246232239791054	12.404195705046716	6.708440816553662	14	-0.9180779464129394	-0.01891150807181718	1.780805908825327
Si	13.558005198177261	13.720389949968173	5.492083122733283	14	0.947293673276314	-0.18369364804010754	-0.9488337653630828
Si	14.990014393700344	15.013161129090761	6.761008613079368	14	-0.46569710754352506	-0.3755916931568076	1.3405249487030615
Si	13.398643826149426	10.964644314845858	8.120212873340039	14	0.045475396907991086	-1.0665489942302102	-1.1230544329616368
Si	14.774427910917279	12.189438213489009	9.333986065104886	14	1.7279802360280967	1.1808194561894034	1.0173812329719547
Si	10.763605815331346	13.535134793195299	8.270325304049654	14	-0.168490702282072	0.47895964011644504	-1.4851267401240418
Si	12.0803364663398	14.947069397280767	9.560804566255072	14	-0.722181832523409	0.4480256435676153	-0.6517230052195391
Si	10.886507828173295	10.771115500549305	10.822724268010377	14	-0.9728203782263403	-0.6250462448598106	0.1347130632491586
Si	12.274840564430894	12.135196179782675	12.01452106493826	14	-0.33198446137443616	0.8412486914573385	0.7174846802140304
Si	13.441556313109187	13.604071102739368	10.678886163045638	14	1.2772346201422966	-0.7912458351910986	0.9109588128919813
Si	14.77342011766292	14.859180072662802	12.230773991647595	14	-1.7158245642955003	1.0105382361623805	-1.4543583227578296
Si	13.506168864497461	10.874056705063	13.453974926759662	14	0.5877708741493678	-0.8136738440092822	0.0659642780937191
Si	14.876832709343978	12.05153308494105	14.95009277704384	14	-1.3811769520304549	-0.4985905434568396	-0.27512395299829734
Si	10.967488892579933	13.42278210006429	13.512069331454427	14	-0.17280553123034448	1.0106099700008124	-1.0482059575446778
Si	12.269460248831015	14.859846516589073	14.859944044968527	14	-1.3157402647484302	0.6981980478760037	-0.4965210607846523
H	0.402353329437477	-3.062342350665873	1.1228523600188565	1	-1.0232286978015674	1.5827215271978186	-0.858934553623041
H	-0.511941093010964	13.71010720782774	12.190865378775017	1	-0.10688573325866392	-0.7991319294290569	-4.271911286936999
H	13.958585136581668	12.978888182871374	14.032666068141936	1	-0.49334677415639755	0.7536537043052135	-0.5823905791564259
H	2.1521961352902084	14.326766147331455	14.158389902096086	1	1.5711700652154572	-1.7919699052359421	-1.870019920997549
H	9.688540735771959	9.305572797223954	9.485122543798768	1	0.10976022900658948	-0.04274642572118592	0.009921381209387407
H	9.576529391969041	9.370575462130045	14.918005940203475	1	0.06117405177175123	-0.015086217576500869	0.04972312000740773
H	14.98984209356331	12.135196179782675	12.01452106493826	1	0.24294631280611212	-0.1923531307583663	0.20807826800692394
