227
config_type=divacancy dft_energy=-23054.229425151 dft_virial="-84.63149723858402 14.108532731780146 2.139327917720363 14.108532731780148 -69.53406707154087 -4.763254977023792 2.1393279177203635 -4.763254977023792 -131.17271398265518" pbc="T T T" Lattice="16.249967316 0.0 0.0 0.0 16.249967316 0.0 0.0 0.0 16.249967316" Properties=species:S:1:pos:R:3:Z:I:1:dft_force:R:3
Si	1.153243930449204	1.348714787293368	1.4899595032040398	14	1.3172546457819974	0.6647317696973603	0.939462343581675
Si	2.582656055433828	2.305561612761396	-0.06828236266183199	14	-0.8250527848246617	2.0342585293011597	0.6712441223627633
Si	3.8509985043822597	3.8699134663380836	1.084425318865944	14	0.7744462330292511	0.011414422068797395	1.4789355185131252
Si	2.5818760570026598	0.17320840162124398	2.9380590906020636	14	1.5468816045876144	0.06164790648225451	-1.0614993433814395
Si	4.1819290887726	1.490512002092784	4.239323973332712	14	-0.9381217692677498	-1.4025155835244918	0.7091751249298438
Si	0.16344217126432797	2.787649393125168	3.012808940255664	14	-0.6677993554548289	0.7643767561534232	-1.1982260963173381
Si	1.7120965564137598	4.142701667671775	4.231393989282504	14	-1.2534611519100791	-0.26801741789340805	-0.6805895759804376
Si	-0.031703686233516	-0.0820623349458	5.489043959737008	14	0.48975185469776655	0.19517543306829285	0.2134809316161511
Si	1.433182117401936	1.254058727677668	6.890571140807376	14	-0.14390502187922	0.37481316246586677	-0.30025522195008475
Si	2.85893799974046	2.7891768900528717	5.6342699176401	14	0.24271594176942687	-0.8592086334501688	0.5830822064875458
Si	4.242362717220804	4.177151598381696	6.941514788343036	14	0.21212287378604894	-0.4562668074502861	-0.9275087607272424
Si	2.69091333769302	-0.194300859197412	8.296989562039858	14	0.6843493032900901	1.396335931887516	-0.2483299502359702
Si	4.06403557589502	1.2458037442811398	9.76818035299392	14	-0.3636072570385334	0.09398598364641698	-1.2735875072456666
Si	0.01641246698916	2.584671051381012	8.283973338219743	14	0.07736224508846758	-0.39103915103078934	-1.078210756630806
Si	1.43917835534154	3.833156040269292	9.562699516283098	14	0.5142534599566497	0.7968235910726279	0.0871830960798372
Si	-0.125319747940992	-0.060661127990628	11.057566509616573	14	2.0357428284024817	1.4762019193367435	-2.4743661969248474
Si	1.2825286704152998	1.21411630801494	12.39523131913506	14	-0.8475553556971297	1.0949599651283786	-0.14485607373714277
Si	2.72893826121246	2.545378630410924	11.115643892803956	14	-0.1695204299627913	0.32275265061191244	-0.36300458995149076
Si	4.136201680745375	4.070551812788736	12.21193168781058	14	0.623490983251653	0.17479633807973513	-0.16717481057922018
Si	2.407790157146352	-0.27728944228022395	13.649030047335671	14	1.8098714831380047	0.034436099105403295	-0.05270534506824748
Si	3.85294850046018	1.369920994640748	14.633160567927263	14	1.1000242712774742	-1.0382542372925128	0.09218286748539713
Si	0.029071191528324	2.745253228397724	13.770628552761298	14	-1.0464732896694302	-0.7638021141143702	-0.4667792857727755
Si	1.567406847432096	4.0598430843274915	14.754271574333412	14	2.547698491534515	-2.771196449477963	-2.276280786855211
Si	0.027933693816204	5.550046337041272	0.189848368152828	14	-3.506784539361688	2.4021577324506165	1.6779362420767343
Si	1.287858659694948	7.114056941304323	1.247314991241528	14	1.1914226945296942	-0.9847294809587341	1.0820869550114611
Si	2.7031983129839157	8.197864761412259	-0.2742181984575	14	0.16949908978863404	0.14210010594447603	0.8264337254921131
Si	4.04071687279656	9.350832442417092	1.36524100405374	14	-0.7724698243696533	1.7531716688443753	-1.7436264403433255
Si	2.7688481809405556	5.330590528438692	2.550952369200312	14	-0.571088771500651	1.2710999628484232	-0.1604102324819106
Si	4.1110142314055755	6.610064204998584	4.093919265789144	14	-1.220325517875607	1.3792951600466383	-0.8102421897384806
Si	-0.01551871878678	8.283290839592473	2.76355069159554	14	-1.105610254696028	0.2508504047813114	0.8002310769534201
Si	1.3704572435621758	9.705731728598531	4.171025360703564	14	0.8920874140631585	-1.4417185118934497	-1.2108193701754233
Si	0.06720986481897599	5.1109559701956355	5.512736412083735	14	0.19090225602620672	2.9628052452461464	-0.3757307899546276
Si	1.470004543339992	6.829536263568479	6.849133724151576	14	-0.6773774941039765	-0.8793750980287504	-0.9482573235503055
Si	2.768815681005924	8.154688598253648	5.395769147343168	14	-0.42987132601258177	-0.14543714353949624	0.03654517679952077
Si	3.9638382774245637	9.62789438515489	6.798840075308556	14	0.5428132978528545	-0.48606848921612245	-0.7090349996898958
Si	2.7080733031787156	5.343964251539759	8.080101248273207	14	0.3180472707655095	0.49781175565536673	1.6666858565273623
Si	4.34540375997156	6.774757623746243	9.359038675911671	14	-1.210135713270796	-0.5782557275805639	-0.390113296005004
Si	0.224785797882228	8.151666104332872	8.236669683362868	14	-1.5116129815795472	0.4673428720589519	-1.0295693006315845
Si	1.302304880638872	9.481254680095306	9.711045467910864	14	0.23645992830444254	1.7301427927128732	-1.7472424428655817
Si	0.107184784416336	5.2855943689406875	10.82023573696639	14	0.16767591900611706	0.9496431493178654	0.29900463632236474
Si	1.630310470912332	6.830072512489908	11.890133585051831	14	-1.4263669562479095	-0.14340982699455948	1.120073750563989
Si	2.867436732646728	8.181094795142148	10.470877689639709	14	1.388401243759007	-1.0376554268634501	1.9217688148867014
Si	4.197220308016956	9.323353747685735	12.083784445556605	14	-1.4064612017487912	1.3245131332113074	0.2102680784080941
Si	2.788055642308068	5.498143941433968	13.414461769129211	14	0.39192026882400405	0.8746265236129688	0.5630070161478296
Si	4.213340275594428	6.811450049945772	14.823041436014725	14	-0.09321593760303264	-0.4932182188903902	0.22094073659202876
Si	0.060969877369632	8.05421505033882	13.530795285144455	14	0.18902226381611448	-0.7175240181254288	-1.5353867069222962
Si	1.22711628186774	9.575228241083737	14.748502835936232	14	0.36706385103094047	0.4052298526242826	1.46089330115005
Si	0.033653682311436	10.93208426200242	0.167244663616272	14	0.7283751110185817	0.035549387709027415	-0.5341363316184188
Si	1.504324474311384	12.284195292464831	1.486205760754044	14	-0.28977693932835324	-0.9154721311709693	-0.4832870674807862
Si	2.8221155738024035	13.542332761938816	0.060303628709676	14	-0.43134662624528275	0.23566802786583696	1.2239312359765826
Si	4.010101934373216	15.08934590038933	1.3262735824299718	14	0.08716047035301987	-0.10231379377837661	1.4965612168143363
Si	2.863065491438724	10.874348128128672	2.7485682217301877	14	-0.25910982351175504	-0.1670017751911742	0.027681805429374293
Si	4.165289122241016	12.309723991118267	4.076028051774228	14	-1.007039476042723	-1.0556930162369491	0.95167020875227
Si	-0.18107338580218799	13.646787551846064	2.41823888613054	14	1.1706453353270456	0.1152631657233024	0.9293635561051973
Si	1.3415810516416438	14.873578834367484	4.001505701663052	14	-1.4820861509724346	0.004435928008851481	0.2944139277732403
Si	0.003136243691988	11.008117859073984	5.36297671329948	14	-0.17940864391354874	-0.7878764016690446	2.067231155258335
Si	1.324112336776944	12.23110664924346	6.906008609757575	14	-0.5266505584788077	1.0022538777103314	-0.5599191186583317
Si	2.5970535264758037	13.527334042106148	5.33210177539908	14	0.7556103154538463	-0.37983324560345594	0.9951170035626642
Si	3.999961954768032	14.810642710952616	6.803812565307251	14	-2.230477574018901	1.530710894787075	-1.9371409393748027
Si	2.669820880116852	10.931710512754153	8.232997190749451	14	0.2575602183353018	-0.13714481466095463	0.8056013446356134
Si	4.276113899336136	12.318986472488389	9.416482310373732	14	-0.6055603518594723	0.08315905914327343	-0.48445640618038954
Si	-0.021791206170756	13.791493510795044	8.266862122635997	14	-2.168926598207216	-3.270106324215565	-2.471894336270057
Si	1.221688792784196	14.854387622967288	9.550642040534626	14	1.6342899294934965	1.8920262685432283	2.732231605461651
Si	-0.098864801150544	10.790677046418589	10.96539669500022	14	-0.06469543761822603	0.3332268194651317	-1.3589448614376665
Si	1.5547643728602478	11.916426032169118	11.97552716329741	14	0.3367703168173598	1.307959585828598	1.3707040687298957
Si	2.697640824161844	13.522182802466975	10.70515346843448	14	0.6271661211962727	-0.36483470271837215	0.42372098497625554
Si	4.034688134922324	14.823171435753252	12.17634425938854	14	-1.0206951306190934	0.7343876408097479	-0.5733395170979086
Si	2.796684374952864	10.888940598778438	13.68637247222784	14	0.5121037587984739	-0.6613952463234041	-1.437293896748007
Si	4.14114167080944	12.359595140811072	14.989554851101776	14	-0.54228313593584	-0.6897617370995339	-1.6237584249916381
Si	-0.058694881945392	13.290247018965708	13.248208353519216	14	-1.4843014153162741	-3.1541718428931715	-6.609810926784346
Si	1.188571359394188	14.693350446865727	15.291072994650156	14	1.7174968111957247	3.336430557054105	4.216379011569248
Si	5.321880545957316	0.133217232056568	-0.09710980468041601	14	-0.14169747085134088	0.17193906873745457	-0.26174340669118273
Si	6.552344321092152	1.4827282677484201	1.3786472270894399	14	1.468307854672293	-0.3079911636373463	-0.6983625986164932
Si	8.217738471439729	2.687322094916184	0.051252396914664	14	-1.5722157337491616	1.6148667714629699	1.7132619436229088
Si	9.571588248404952	4.26171642829416	1.3610972623881599	14	-0.612412090427135	-1.1518477272209109	0.6334961824944773
Si	8.204283498502079	0.315363115701612	2.612718494968428	14	-0.7786880425864313	-1.27139306885492	-0.6958529427134966
Si	9.413459816452956	1.525644431429976	4.049816854493519	14	1.1417936769770038	0.8460921396594334	1.12633953422919
Si	5.280459379268832	2.7449769789533516	2.764671939340344	14	0.8794334621195176	1.7863127022000198	-0.0615399200588083
Si	6.965499740101452	4.120877961566388	4.227948996211512	14	-2.4037387051119756	0.2649290061828462	-1.35796912696867
Si	5.467756502553048	0.08048608811614799	5.759102166561612	14	-0.48704859456416283	-0.1858875722097899	-2.0661273797443953
Si	6.647796629106336	1.61256550660326	6.912037347631811	14	1.7100364919987832	0.6555845482998693	0.5771725209091854
Si	8.226773453267425	2.962385291674116	5.597967490656155	14	-0.051909073750597626	-1.6189417162848725	0.5954211980294685
Si	9.69646924722841	4.253445194930316	6.874142423850899	14	-1.1049301973388488	-0.822975845947046	1.2398144962023292
Si	8.590447721799503	0.520697702706588	7.927400305404756	14	-1.5738980079601343	-1.085420907280097	0.9276812818942244
Si	9.8519489345079	1.426357131129216	9.691951756314563	14	-1.052563209730733	1.5170328715944192	-2.075225750140804
Si	5.340844257815088	2.813616840896136	8.481735440455465	14	-0.28533561199832946	-0.7925972081473684	-0.9917326576297533
Si	6.943481034388272	4.058315587399788	9.482652177284484	14	0.5273046476722534	0.9413292231546345	0.4175945552194067
Si	5.596293744022608	0.01559996862336	10.91689054256196	14	-1.1550279273914021	-1.0139284956375278	0.2426820031792009
Si	6.84131748987258	1.224126287881596	12.325892708597689	14	-0.6909758130317079	2.26022474835195	0.3761941031333183
Si	8.070887516805035	2.514162443196888	10.79659203452161	14	1.0755805158882945	0.4640855387288563	0.6119001833578934
Si	9.45629473029793	3.89885465812788	12.206991697746515	14	-0.5548085326134734	0.3829499394725394	0.29792528630896653
Si	8.23458968754642	-0.028908691855164	13.498750349597303	14	1.0841682647681212	-0.7664089577984682	0.8749718230574647
Si	9.444026004974353	1.4099934140420038	15.029253521254763	14	0.3638743948812968	-1.2723667464396602	-1.9055538820746556
Si	5.4749552380740365	2.87957545823178	13.771083551846148	14	-1.0124801920106883	-2.0429912885210433	-2.48454725977157
Si	6.679354065634008	4.058478087072948	15.136503305540362	14	2.3317647254429423	0.711921065411762	0.24593599407238034
Si	5.4116616153782156	5.3633017126458	0.21685581383202	14	-0.4358810275878959	1.4854558416050205	-0.30776619192183335
Si	6.772141379008368	6.878221165647216	1.590936800105664	14	-1.1172357645116098	0.20352946847451797	-0.6555650078994363
Si	8.2809833442336	7.957348995168144	0.13146223558644	14	-0.6054809047050799	1.7209894006626139	-0.6163052581029032
Si	9.68928676167474	9.588016965361428	1.3071311209317238	14	-1.2688852127256474	0.4233666866631392	-0.4184797867811338
Si	8.058293792135135	5.487483962874672	2.7946043791364157	14	1.3511744669391148	-0.48293919693097026	-0.21245377504075197
Si	9.405903581651016	6.764536394304479	4.188315325927788	14	1.3347409901748564	0.6692242620232549	-1.2466127557793327
Si	5.2292394822888	8.27009586613188	2.88770044188978	14	1.2540908156029835	-1.7879502391784223	-0.5013321130597135
Si	6.72675522029478	9.608898173362487	3.9125533805752677	14	0.41367541937990504	0.5539281861518547	0.4672158594561366
Si	5.532236372862936	5.568116300696664	5.447525293244627	14	1.2629816978000556	-1.1990951299155481	1.5837648817367347
Si	6.880252411561716	7.066493286970392	6.833143756312632	14	-0.5560999988157838	-0.4896405258374041	-2.2925957356642104
Si	8.075486257555463	8.276335853581225	5.237478215718012	14	0.8274143450612176	0.3578814054905637	1.8591086642399046
Si	9.490500911498112	9.453125986671312	7.015062140415251	14	-1.0335509143303658	0.915242274355348	-3.061773516781946
Si	8.727678695783124	5.840855752128407	8.45263174899251	14	18.77252131730487	-9.274122671445772	15.28018201896337
Si	8.343545718400199	7.905739098972528	10.748037132181404	14	-0.5859729001989883	1.0555750025027544	0.9448722062857986
Si	5.4594690192218875	8.282429591324723	8.036973835016544	14	-0.2048026798290553	0.4615846245839483	0.7793686141646745
Si	6.921803577988728	9.398542346456868	9.488014666498763	14	-0.8779165099806303	-0.02062540687822789	0.6203717182772494
Si	5.604889976732771	5.493918949931808	10.845666935815931	14	-0.21207839366401035	-0.343441563791548	0.6732752955656802
Si	6.936201049030704	6.711707750560163	12.40026880900302	14	-0.04937910611557192	0.35712447208431203	-1.5540285060460302
Si	9.561919517851932	9.660101820375203	12.239686631986308	14	-1.0629916129092536	-2.315552106625685	0.0032113105448649507
Si	8.150024857633955	5.335433018698859	13.702703689380419	14	0.3070514246428322	-1.2872542175749135	0.10128355187659327
Si	9.604933181337383	6.64956787554378	14.925871229190372	14	-0.20534184061469038	0.10885571415496138	0.0539279056479779
Si	5.584122518502923	8.203113500855329	13.469500408428503	14	-0.16527656352135486	-0.560322782193595	0.9595737865064053
Si	6.7417051902255	9.544548302791128	14.97141988757712	14	1.8923350582921779	-0.6677546182222583	-0.2277999313651198
Si	5.365950457318307	10.92997176625134	-0.10242354399274799	14	0.46287146279668234	-1.0670963825528696	2.3173135708805184
Si	6.709514004972504	12.302379005891437	1.335601063669356	14	-0.6611273371490446	-0.540563066476661	0.7245678182605064
Si	8.017717623747084	13.59199266205651	0.04192491567528	14	0.9002784413920862	1.7159297225030945	-0.407301135070194
Si	9.57805573539672	14.962937404638167	1.381637221075584	14	-0.45377334951080645	0.2835124412158125	-0.3175410201279723
Si	8.167006073479175	10.973602928494799	2.616618487124268	14	-0.3456393446192106	-0.8889732912993951	-0.7571905167836093
Si	9.324669995038331	12.306376497851172	4.03129189175328	14	-0.10506590491306313	0.8793396167753323	1.0854432758963826
Si	5.423540341486212	13.652507540341295	2.881541704277016	14	1.0691995467047508	1.9372314422820722	-1.939314294701924
Si	6.855178711993128	15.291202994388684	4.043268117665172	14	-1.0160920807644322	-0.795452934826457	0.5366210477998099
Si	5.45690152438596	10.879109368552259	5.398596641656152	14	-0.8403279786421934	-0.40650872041052427	-0.06827595888706424
Si	6.701210271674028	12.03245079880536	6.851083720229496	14	0.5767937970955276	2.556085951309902	-0.5209591597421279
Si	7.94777776441902	13.823067197290031	5.465660256769284	14	0.32821830630148324	-1.8652754603502797	-0.21396789896378715
Si	9.440841011380416	14.83719515754696	6.895819880250444	14	-0.24202251466458297	0.9406303967286181	-0.7388263970344516
Si	8.113137431826637	10.837785701667672	8.167607322269868	14	-0.18638842352615476	-0.5817552590318174	0.010593468140074114
Si	9.528135835801967	11.895999823252907	9.528135835801967	14	0.7979952437670194	1.0684076462661454	0.9072715907523571
Si	5.489547708723803	13.815852211801726	7.892219126165616	14	2.757378815266423	-2.1801888108410608	3.1408301202763913
Si	7.031100858156144	15.351929122248576	9.349077445946964	14	0.3311874187251902	-1.838284768030961	-0.7934793543827113
Si	5.4239628406364275	10.795860785992392	10.776815824298039	14	1.0996674018590378	0.24691969896786894	0.34143661586289653
Si	6.856917458495939	12.143633075181432	12.210599190490667	14	-0.642677856703258	0.3129045459041493	-0.13493083586977517
Si	8.138016131787431	13.438950469874424	10.646117337175452	14	-0.45861834037609345	0.5591853251999614	0.3414723542268466
Si	9.477387187874099	14.65002803400127	12.15452055328315	14	-0.00384817333266563	1.101182040003137	0.23917604396464698
Si	8.302254551450243	10.9126655510598	13.681351232327195	14	-0.9920067374568813	0.307395952755732	0.2836569373348048
Si	9.568419504778332	12.391948825737227	15.030699768345887	14	-0.15390970690098021	-1.6394491094289056	0.45116367761085613
Si	5.3538767316025195	13.613588868619475	13.518412810049663	14	1.8141845123125533	-0.48733835813374354	0.09640950752118857
Si	6.754737664012932	15.070300938694979	14.834936412090036	14	-0.23405157395105988	-1.0466933762848347	0.45087802780978764
Si	10.965819194150436	0.199045849653684	-0.058938631455132	14	-0.9930187245108913	-0.9605965722027602	1.2369690539445213
Si	12.233007895419432	1.319594845863096	1.4738720355612	14	0.7005845478341651	0.08089777201420319	0.9809586978962047
Si	13.644561306323773	2.742214484509632	0.322269351810912	14	-1.3549732750496337	-1.6066955416450073	-2.778212224565051
Si	14.904616271941045	4.119025465292364	1.358871016865868	14	3.107939255468397	-0.17893761741889763	1.8215499577231815
Si	13.838813415619235	-0.34864304876478	2.585597299518024	14	-2.164504039946029	3.8925732362182033	1.7243675759427561
Si	15.023826032171218	1.205877574585728	3.946125813050124	14	-0.3091419903786446	0.10739121256460504	0.5448084755812894
Si	10.977064171533108	2.9046654077676837	2.798520621259572	14	-1.0940287107814208	-1.0532129280451343	-0.48370075832679804
Si	12.338015184215424	4.13537293241226	4.1214629603897635	14	0.13260501399716917	0.7934549288821698	-0.5515830809893476
Si	10.646718585966143	-0.116642265394248	5.310911818019016	14	1.1944843667449265	0.6806402267552445	0.3182424176593087
Si	12.359286391432068	1.223817538502592	6.619732935551603	14	-3.1025594746965193	1.0206231396701293	-1.151949285881057
Si	13.578813938563234	2.53158240815964	5.247016946532504	14	1.2103388305910878	1.006120048780238	0.5470998446426054
Si	14.955559919476704	3.9714107621938197	6.861207449867364	14	-0.7218995251592567	-1.2713295625535124	0.39982101836228706
Si	13.34024816839704	0.054729889920287995	8.121197415615372	14	0.5841749262486087	-1.441564502684773	2.6246437033400545
Si	14.909735011645584	1.144907697216096	9.461267220296628	14	-0.6323301862317902	0.7335988256975265	0.7790251144939028
Si	11.114018896072356	2.776810664925396	8.000573908228704	14	-0.938161107179148	-1.583182012160657	-0.6014890065850178
Si	12.15180680874138	4.008623187347459	9.456944728990571	14	2.1972696919249324	1.3189700872516001	1.1673548347383202
Si	10.834145708988888	-0.016396217021843996	11.010539104204067	14	0.3375190226865869	-1.4817300528855941	1.0354393911880146
Si	12.205496700753445	1.269804946006872	12.295992768736246	14	0.9627771266247777	0.36305009851565734	0.36329486774213543
Si	13.58724767160024	2.599084772390304	10.846723183691472	14	0.042759538358318666	0.6185794007585741	0.294078141418429
Si	14.991911096362594	4.106187991112724	12.3195064714425	14	-0.46802215808453507	-1.316258599580972	-1.0103878265011519
Si	13.65354753824952	-0.00251874493398	13.704263686242756	14	-0.924287422871629	-1.3144356859089872	-0.7611983557566561
Si	14.891697547924823	1.277507430514656	15.104084620744944	14	0.3758991973530974	1.142799750488778	0.4527886161731897
Si	10.842481942221996	2.5920485365424755	13.631301332993916	14	0.5609323912650022	1.2076612815106855	0.22409728259357456
Si	12.343540173102863	4.074533054781155	14.96438365172929	14	-0.7350550997508585	-1.1267722512545708	0.0636579966215463
Si	11.03730280037352	5.448110292068003	0.078942341221128	14	0.03069128420660762	0.42661270712982613	-0.6309883263652049
Si	12.363316383326435	6.973559723890188	1.2306262748079961	14	-0.4000398194250317	0.5305336988438273	0.35876689416282265
Si	13.662745019750377	8.259175888095527	-0.349959296117376	14	-0.2533978559325141	0.04289297872443436	1.4579118474208064
Si	14.727637877902486	9.763597862210807	1.43706585959046	14	1.0174827916321005	-2.0937832170100363	-1.0387746290093107
Si	13.650183795015108	5.504302679046732	2.49664497843024	14	-1.2162624001381768	0.8931158561912178	2.311337550784898
Si	14.714101655128259	6.69059904301668	4.272620156363196	14	1.5736090157221496	0.04024036936563759	-0.8945657024812491
Si	10.873405630024344	8.30539079514223	2.7094058004986277	14	-0.010295734144000968	-2.23334615622459	0.17724865833409237
Si	12.042509528573964	9.556150779454752	4.154417894106612	14	0.6464926056667617	0.7709230474090522	1.268458923463567
Si	10.879613117539055	5.456024026150896	5.476271485426632	14	0.3863988201489861	-0.21561366347921393	-2.0724499848371716
Si	12.187394237163419	6.537508100932644	6.869982432218004	14	-0.13887671120460643	0.5522050313662915	2.4556860883318437
Si	13.268049563612053	8.002085155189091	5.644361147343336	14	1.5560524801540505	2.0136714318922024	-1.5537708812929514
Si	14.940187450395769	9.441686009680847	6.6912490417093204	14	0.33091051068221033	-0.4239341296072959	0.1484093412895874
Si	13.839902163429407	5.496258945225311	8.302693300567775	14	-1.6252404100981714	-0.8489226695063845	-0.437533219866623
Si	15.072234684805583	6.928709814098028	9.630591879729348	14	0.2563052618285376	-0.9389028710640107	-0.0883555201058247
Si	10.57255373513592	7.9145465812578	8.15715859328568	14	3.057066594272351	-0.06990501121791008	-0.09513346795079908
Si	12.30788774481156	9.309573775401768	9.340367463465588	14	-0.9070041957990616	0.6885170650140501	-0.6010799437285823
Si	10.455667720231931	5.367884203428912	10.546927536678588	14	0.39946363472278656	-0.3508108658601564	0.0675128548280443
Si	12.07903945510033	6.6249329250927245	11.786475043543069	14	-0.934966508818864	-0.8883659962227761	1.1860657965951658
Si	13.44985419794346	8.074657509222348	10.835023207223951	14	1.9928035697822848	0.9471111247985833	0.04881886226631165
Si	14.915633749781291	9.476460939737088	12.245536620220069	14	-1.518890238077694	-1.028155706926567	1.0565677062668632
Si	13.370424357702852	5.354087981177628	13.346683155454174	14	0.8475206457753077	0.7485125221070454	0.6403926582947104
Si	14.958224914116528	6.585413004580212	14.802680226967775	14	-0.5036198825735813	0.6990678528058099	-0.5796868048017583
Si	10.670346038443608	7.827788005757676	13.194924710690051	14	0.1139693855262039	1.0073968596822236	0.9036687008672334
Si	11.952695959218431	9.301351291939872	14.601099382412794	14	1.3486912934209159	0.25967932334016786	0.10816331549224549
Si	11.154903813839411	10.842416942352731	-0.09418481056353599	14	-1.517288439463242	0.13426954758143306	-0.27623081383862114
Si	12.444436220167907	12.354460151139214	1.105014027455316	14	0.03864859806193391	-0.47764477685572115	1.7925643447859603
Si	13.957795676306988	14.027248036615571	0.452269090338912	14	-2.4595743709075037	-3.3438741640664658	-4.370013610200972
Si	16.097103873458387	16.129181308940172	0.40462418616839996	14	-0.8092183755999977	-0.5534707865154003	-0.9975438698743521
Si	13.532355282006792	10.947570480854568	2.898084171004704	14	-1.0008744797060718	0.8128636887229037	-0.02552181984991789
Si	15.01638354714049	12.363803882345916	4.103392996734372	14	-1.0543622121232403	-0.0585535812294563	-0.9746497196616256
Si	10.850346926402938	13.368458111657615	2.6322672056495757	14	0.9291249575314876	1.4485887624194174	-0.14938019065847533
Si	12.320058970331244	15.021616036616244	3.991755721273452	14	-1.7152337242929303	-1.1498947156197263	-0.17222883230703526
Si	10.601137427644764	11.05651026174103	5.508933919731791	14	1.2735211727284066	-1.3470301022735682	0.46831732097528805
Si	12.185834240301084	12.337283935686203	6.798141326713968	14	-0.85165806845649	-0.28178645821439713	0.3797944219131217
Si	13.472262902872224	13.56672396288013	5.308880572104516	14	0.7009056788886516	0.8206058010629336	1.5544028589806436
Si	14.745561591852036	15.03377101216861	6.963484744154267	14	0.6360868282150585	-1.464434998728554	-1.8116224058610257
Si	13.655806283706443	10.860486906008123	8.002328904698832	14	-1.287749412459574	-0.7228230661902539	-0.33910488044805426
Si	14.905087520993208	12.090853181339064	9.411363570669192	14	0.7801887967618018	0.9965290546044896	0.7377578456633981
Si	10.637082355347756	13.582453931242018	8.350159455097812	14	1.7852415797236463	-0.7631403116049639	-0.21548896487118677
Si	12.112936886921508	14.883410064593663	9.704837980396151	14	0.4570281117355819	-0.3806364589054702	-1.2129407891750776
Si	11.049912775010736	10.557831264747623	10.903289319918468	14	0.17476908436334157	1.2657075836604765	-1.4420625257852855
Si	12.19088798013636	12.065356982620258	12.275469060016139	14	-0.6184220491129812	0.694437035013691	-0.21367222185197016
Si	13.487164122900994	13.278027043544077	10.851289424507266	14	0.37642498839106764	1.4260005737397883	-0.33379580507248047
Si	14.906387518378487	14.810967710298936	12.08155820003431	14	-2.64605998221476	-1.4855082921535516	2.18881769740601
Si	13.515894065115683	10.879336868094683	13.603481388948923	14	1.1183999610005726	-0.8666432415939089	0.8518251903022996
Si	15.00638981724115	12.410636288150627	15.124218330249468	14	-1.2813725570445427	-0.500592663169639	-0.09464778615582309
Si	10.907693061061103	13.521711553414812	13.627677590282449	14	0.5084129371114013	0.5631389138507532	-0.37546159522760814
Si	12.194349223174667	14.893095045113999	15.141459545571742	14	1.6423058645501223	-0.20520068693261423	-1.1133503101518016
H	7.313767414621232	8.87162903125191	11.644255329593435	1	0.36031341401289174	-0.20627566606696812	-0.18585440495116
H	11.456408957413938	4.5513590957280075	11.495231754328595	1	0.19024071062733264	-0.36394921404611313	0.18125469753341508
H	0.8980268187743028	4.759816926451118	-0.4880775183164496	1	0.6113319690821408	-0.11447383639001696	1.113025579549867
H	17.03762435676403	16.9138402307344	-0.5127303437315532	1	0.4228691777836905	0.4206037768861081	-0.6557650398933438
H	2.3335651814370584	3.1659128823135525	13.77980165931118	1	0.8469665725788158	-0.9047092271902973	-0.9155181539561998
H	9.728600307602338	7.085569123602644	9.128534514530944	1	-0.2806513152155517	0.19018903141039764	0.32164398999786464
H	0.734076023532984	12.747771110062216	3.40294628056185	1	0.045041651440482104	-0.13528667684608361	0.04689516126577686
H	14.75285945217365	14.921369988243839	1.3878885835020491	1	79.42359098364808	-35.05428949792693	-202.87951644664295
H	0.9578396984710356	14.280718276804002	13.996173224117186	1	1.2755340910835506	0.47862333954056957	-4.562390652238816
H	14.670138993551554	-1.2904229045374127	1.6038327741676415	1	-76.86133643645407	36.02188307614794	203.63098188321018
H	0.1930284867565692	13.654129287079432	14.497011841766888	1	-1.1589946286793267	-0.5270562788983271	6.0420262827306175
H	7.95982386519037	6.131085043382362	7.8439957231586535	1	-19.267261630544787	7.823412747137234	-14.794856064963707
H	5.978988599298066	3.2431213520220634	10.514677851543254	1	-0.1161954485123881	-0.06496051857673331	0.07029659055816863
