224
config_type=divacancy dft_energy=-23039.820509055175 dft_virial="-60.86250031849756 15.530811513174347 -4.952366837153768 15.53081151317435 -63.71099771170533 -24.486046056412633 -4.952366837153769 -24.486046056412633 -57.73427496551419" pbc="T T T" Lattice="16.249967316 0.0 0.0 0.0 16.249967316 0.0 0.0 0.0 16.249967316" Properties=species:S:1:pos:R:3:Z:I:1:dft_force:R:3
Si	1.157501421885996	1.078770330239976	1.376924730553944	14	1.833381155964375	1.9184554314606264	0.40668741223027455
Si	2.546922377305944	2.61023224996908	-0.143275961825172	14	0.5355609810763128	-1.9449272747263389	1.883215861942677
Si	3.963497028110928	3.8395747773591116	1.239661256635692	14	0.4088923921528336	0.5554129994742402	1.1540658197806026
Si	2.622305975684868	-0.15924967969679998	2.7085933021328277	14	0.06393721865931437	0.31238338285575523	0.5589780941111575
Si	3.9799419950347197	1.357896018826908	3.973084508827368	14	0.32757450152931816	-0.6564204146394496	0.005263052590343117
Si	0.001657496666232	2.658835902211236	2.71463828997438	14	0.548237301636239	-0.19126221077102745	0.8700306728532041
Si	1.204155078050232	4.104709244086967	4.184399083804632	14	1.5888320161016822	-0.45952825454889384	-0.5294144966979669
Si	0.364129267616928	0.085409828212896	5.225436989936856	14	-0.8590744217524572	-0.22221806171507832	2.6235350427260067
Si	1.4470920894244321	1.4403808529229238	6.8361825002007235	14	-0.018495760341549237	0.06544208660319704	-0.4940358303821973
Si	2.812771842595704	2.759796949145544	5.427294083936208	14	-0.9924451109139665	0.09752999521970909	0.05317765711555869
Si	4.0725505587686035	4.098339256899096	6.829666263307008	14	-0.10367365138220293	0.9143115342294544	-0.7020462212086693
Si	2.8847429478382676	0.159542179108488	8.068580021446163	14	0.408189451958305	0.48000196621323293	0.6161653899734871
Si	4.3346787815429995	1.8266263260569278	9.300603793443337	14	-1.7510741611241984	-2.231760555573655	1.0528560586266977
Si	0.11903101058969999	2.720114528959872	8.282624590932516	14	-0.6629093702464393	-0.8126505440918633	0.2173892688133082
Si	1.30105363315554	4.276146399270767	9.469570953595104	14	0.26099392949035954	0.3559471629582162	0.230980645756675
Si	-0.022213705320972	-0.09307981278604799	10.966469192843077	14	0.017829329842566854	0.16762861066822632	0.006045954160328207
Si	1.3792159759455	1.3408985530143718	12.096768169442088	14	-0.8853806858355522	1.0387306631083362	0.3805009616550984
Si	2.560279850439696	2.7030845632127036	10.619451140809897	14	1.3099071981086101	0.5354568513108469	0.8001454591462592
Si	4.040749372731192	3.993608217547476	12.165131781940499	14	0.17452765757377967	-0.2167130681141093	-1.2309809496538968
Si	2.7467807253254275	0.090561067852068	13.404549289066452	14	0.281143167663296	0.07644204649438656	0.833946752348118
Si	4.0678543182142795	1.50824071643454	14.770505291682095	14	0.4066984679831512	-0.7176350898752591	0.1498792422011161
Si	-0.086222326578696	2.8384142910203516	13.428534240824868	14	1.1372893575666365	-1.2293981772188134	0.8485056362234564
Si	1.4821270189577278	4.044519365148504	14.894492542303176	14	-2.4520893690994883	1.4941821730616034	-1.363295428749889
Si	-0.012333725192844	5.394517899859836	0.11179977513407999	14	2.2323179712070633	0.2665531734135837	0.20736067251207066
Si	1.521598189568292	6.755923911627	1.610469260819496	14	-1.5533137387670288	0.6789312130489421	-0.9855118683076551
Si	2.7686369313654478	8.188911029421144	0.1267497450648	14	-0.44351103973596734	-0.7911473618573369	-0.5300588156911961
Si	4.101832999872036	9.651570587534303	1.264767456138912	14	0.17047816669454643	-0.4545865901235692	2.127422787687258
Si	2.7797519090095917	5.320613048506668	2.830955556022308	14	0.30647421149845894	-0.7776943103801941	-0.02895167434699543
Si	4.126370450519196	6.671472831485747	4.21881651457992	14	-0.240825665138054	0.6970621335455622	-0.5670814467486682
Si	-0.030972437704296	8.023388862340369	3.029042657604348	14	0.3344912890615805	0.6261410215051297	-0.3824362326295738
Si	1.493729495621352	9.5041996339455	4.298100105114684	14	0.8720165946024865	-1.134535446658226	-1.1613353629627894
Si	0.06109987710816	5.3815829258763	5.733670967712071	14	-0.801686579675156	-0.874718054962366	0.12672875278797074
Si	1.305392374428912	6.893171135577936	6.935843549749752	14	0.03167601754422433	0.14083846456387938	0.27451845769540245
Si	2.8040131102123795	8.031968845083215	5.630142425941835	14	0.11790034845017829	0.6913882183250595	-0.7282267582416091
Si	4.182952836713508	9.52475584260024	6.855828710685768	14	-0.8949341418736264	0.5361999007483697	-1.8629329262930927
Si	2.759780699178228	5.588493759710928	8.16531607687831	14	0.06726757138050218	-0.6959866401901443	0.22443538294317403
Si	4.19419781409618	6.844859982747468	9.49144340960244	14	0.958232183750352	-0.4287863195674793	-0.27499616906388596
Si	0.087327324356184	8.360348184604945	8.331179493272723	14	-0.07634177338690079	-0.27899346650512025	0.8013258535987392
Si	1.7639664520864318	9.640049360707259	9.602268186697561	14	-1.133771314157078	-0.684295824299431	0.0665021533266941
Si	-0.145989706366944	5.601233734086672	10.78640330501448	14	0.3933318056447654	-0.7693850122065397	0.5265780533087795
Si	1.285388664662916	6.892943636035512	12.146054320311515	14	1.3256405628941923	-1.366944084309711	-0.4517221216863923
Si	2.9582577999758515	8.032050094919796	10.938129249843971	14	-1.0832059000467897	1.2065958154660161	0.0807450483581864
Si	4.212917776444212	9.475550941567391	12.286242788346648	14	-0.14783084259255408	0.5759980399989418	-1.108247694533436
Si	2.7716594252862237	5.394891649108104	13.418589260827474	14	-0.5789697235279689	1.3915768159399218	1.3455463173933109
Si	4.101995499545196	6.655466613679487	15.140387047728888	14	0.23816894201074498	0.39329323906496316	-1.7152841179572054
Si	0.06329362269581999	8.321705762327495	13.322210704676278	14	-0.5314857791438782	0.02688476278012839	1.9827268938115603
Si	1.5524406275340599	9.530264581520363	14.807847716574264	14	-0.6175455593093426	0.0878173877623177	-0.23065925759165648
Si	0.162970922212164	10.853206920650555	-0.006922486076615999	14	-0.5398128179442417	-0.023035303894802683	-0.13169638537702885
Si	1.406158421755428	12.362487634993318	1.36060976336868	14	-1.5906382175890865	-1.8020411818854938	1.685654700247819
Si	2.584996050727332	13.475025397315944	-0.064853619558156	14	1.211451604973648	2.0065163028967623	-0.6912673763750126
Si	3.9504483043561796	14.894330042630015	1.271657442280896	14	0.19919869867326057	0.04679283127403497	-1.0329441334748108
Si	2.7495594697364636	10.93097926422493	2.826373065239196	14	-0.553551005001389	-0.30184082260102013	-1.0707236979385346
Si	4.026303151787268	12.364973879992668	4.0622805794248915	14	-0.04059235368396586	-1.1725821489647132	0.4998627263692488
Si	-0.132729733037088	13.64461005622572	2.646112177802808	14	1.3784348682065168	0.5182358449870271	0.20117639288551845
Si	1.465958301478308	14.703652926144072	4.26122892927468	14	-0.46005198870260805	-0.1240208646647908	-2.813651568966376
Si	-0.172509653026656	10.462915205654868	5.419104100408944	14	-5.305184264782256	-9.312812664303362	-6.2508131473637745
Si	1.2126863108911319	12.344726420716933	6.849539973334476	14	2.3961989387606417	-1.571234599958993	0.48892318745308283
Si	2.723478272194284	13.420474257036132	5.583911268927816	14	0.8871586051644346	0.9532720073667224	0.41274673613826757
Si	4.171837859069363	15.104149620614207	6.639509145775175	14	-0.11665721902788669	-1.8066362613136626	0.645627428726532
Si	2.9290403587416836	10.946319233371236	8.066256276119976	14	-1.6761534376477436	0.4360658900604146	0.41841088115855374
Si	4.050011854101312	12.25670034776616	9.59974944176358	14	0.4064439285564565	0.6497512245495175	-0.4197643109990797
Si	0.133444731598992	13.713656167351402	8.147311113092183	14	-2.8477328555375987	0.7861756154997667	0.05373275875417866
Si	1.367792248922352	15.11385085110186	9.449583493796423	14	1.1322453631495701	-0.6568407903592938	0.26012900966066177
Si	0.113246022225204	10.91310430017733	10.799289529096066	14	-0.44613408138358246	0.26990435208786473	-1.1554665579590193
Si	1.142161452739692	12.309723991118267	12.361805136366048	14	0.1496460429485786	0.3924627720465553	-0.3712781497611952
Si	2.5303961605455716	13.558062730300703	10.89389683880982	14	0.04814060468285659	0.5404535373900226	-0.6738211412251478
Si	3.9640170270650397	15.142012044460488	11.850223665323735	14	0.016235244544075045	-1.6918081266105292	1.3353855662786176
Si	2.797805622697668	11.003811617735243	13.304546990203788	14	-0.7460517172051317	-1.4665106520535096	0.8834495286295889
Si	3.9132196292352237	12.078616955950116	14.92941372206526	14	1.6498500017805007	0.8800695535757223	-0.34272859628627095
Si	-0.031784936070096	13.674136246838891	13.901197040145359	14	-1.0074711646259757	-0.4520234552299136	-1.941143121916145
Si	1.294488646359876	15.145830786779747	14.955267420065015	14	1.0498854035397986	0.28134654209411974	0.5975642143138118
Si	5.348579242257504	-0.027121195450403996	-0.16054967708207998	14	-0.41568602374026087	-0.5576989692143838	-0.17946726511484815
Si	6.68003656426128	1.092225303177624	1.3320910707291	14	0.726419271201545	1.2011522712821985	0.041740352209411975
Si	8.100819956601107	2.4731312757239876	-0.024326201072052	14	0.1859130261524594	-0.09978973968558724	0.9449436830136986
Si	9.154825336651498	4.131001691204256	1.3490722865743199	14	1.5955868239987754	-2.0572334122209393	-0.5572040314402553
Si	8.275019606228629	0.198217101320568	2.792508133352652	14	-0.3384052826904419	-1.0036792984998215	-0.9882868622796909
Si	9.623490644012255	1.3603335139243078	4.2148027726528685	14	-0.2479838794598783	1.942039152120217	-0.3223911532038996
Si	5.42497033861002	2.551992367108536	2.6399046902880956	14	-0.40687330314492126	0.3752808465236018	-0.43120521545267465
Si	6.829601263437744	3.7922223726002877	4.069024315861032	14	-0.06646924317859619	1.3196064358183368	0.28616865012205744
Si	5.611146214149432	-0.049903649627436	5.111459719182432	14	-3.3514779509402715	-6.506232920520053	-8.969495284898777
Si	6.663006598514112	1.49938448424732	7.060399549226892	14	4.039592380861186	4.181879920383502	7.794263354791119
Si	8.233760939213303	2.7337157516033637	5.640006156102648	14	0.2548165918481718	0.11622810154995399	0.0012577847226164403
Si	9.53271832658508	4.3534149938583475	7.252262913326904	14	2.521272928164565	-1.8823846235926731	-3.3310021823916767
Si	8.167493572498655	-0.017127465551064	8.163707330114027	14	-0.8726963948491336	0.38057938036736294	0.851432068298849
Si	9.63956186168778	1.1601664165258199	9.587740715917056	14	-0.7135092371680174	0.9464259252307642	0.053168658246938165
Si	5.675366084982264	3.183482346975612	8.176024805339555	14	0.04297319721042298	0.8188229966339429	-0.017974083072091192
Si	7.131964405286555	4.911195121980048	9.032755582173708	14	-2.0744086528700603	-0.7976262901535781	2.4625635379527075
Si	5.4194290997552645	0.24436700849800796	10.756600864956937	14	-0.11500939762820381	0.27110942915141817	-0.8430955164088009
Si	6.74121769120602	1.5290731745336519	12.081931949282579	14	-0.29251336672058686	2.2827378607562308	-0.8979737025831055
Si	8.165283576943681	2.9530253105000996	10.417659046679807	14	0.17426077684154828	-0.6677939561336567	1.6457172070888946
Si	9.41640106053715	3.888633428686116	12.435986237163588	14	0.4216677002675854	0.05863971325768127	-1.8627100114618362
Si	7.992172675126332	0.20346584076363597	13.292067015305099	14	1.1455621460447452	-1.0162800285633353	2.1586748299641894
Si	9.532360827304128	1.1411702047334158	14.953512423594887	14	0.38932525222437864	-0.13267803338826142	0.13100218694058888
Si	5.52344514054498	2.93701909269384	13.59727390143421	14	0.26905563022168383	-0.5148088187058018	-0.22610917250659043
Si	7.02867961302606	4.1127529779083885	15.072120935034372	14	0.14162753678663284	-0.5754156846439282	-1.8705030316872049
Si	5.5351451170125	5.162403366718092	0.050992397437608	14	-1.8828335385815709	1.0382660643769854	0.7237039268729366
Si	6.534225607534812	6.590710493925228	1.5502468819464	14	-0.046833968959157334	2.0054235831356992	-1.4105536300868706
Si	8.240065926531912	7.837992985232124	0.042282414956232	14	-1.1330231225089147	-0.2881496867712316	-0.2950536187768932
Si	9.34559995294134	9.400151093221151	1.2581537194413	14	-0.03372338871065825	0.16440804414420884	1.2497019388214907
Si	7.981772696044091	5.428837830831228	2.6542859113627557	14	0.6681683090682702	-0.36224225722406683	2.938278443155126
Si	9.53109332985348	6.767396388552096	3.985418234020212	14	-0.8696586339133788	-0.7541959504172329	0.8017115193967613
Si	5.386019166953568	8.177503552365312	2.84666927441688	14	-0.6682390144645742	-0.035057792371815104	-0.5194941439307075
Si	6.8201112825252	9.293600057530139	4.327333796316167	14	-0.6997114004674428	0.19821782199362406	-0.36026456301180887
Si	5.5415638541023196	5.369866699441464	5.4363778156658515	14	0.4336811898759772	-0.6487055560158133	0.7140545686064209
Si	6.738422696827668	6.568756788081312	7.231430455227792	14	0.6714315559406022	-1.5523521453772935	-2.1984840249676383
Si	8.112016184081831	7.785668090474604	5.722312240558187	14	0.44146829655910974	0.7640211722876467	-0.8142487431588675
Si	9.338498717224248	9.494157154144212	6.797475078054012	14	0.46623935365554436	-0.6425989237699296	0.37485301459832915
Si	9.294510055699837	6.336447255331776	9.38979986404086	14	1.1064309515142192	0.8505746046745797	0.9496048398485952
Si	8.291318323446577	7.932681544782455	10.823339480723748	14	-0.2603732646660758	0.0763158052231673	0.4549609430581828
Si	5.520763895937839	8.19583351549776	7.9442677714787635	14	-0.21340662667239885	0.15412336575308452	2.902651665175962
Si	6.764845143683483	9.255721383716542	9.658541823512868	14	0.512226400522245	1.1587434316895482	-1.1894277739117913
Si	5.550631335864647	5.361156716960088	10.869213138456816	14	0.31454362554574367	0.8117876811464219	-0.2798696991982267
Si	6.988087194670692	6.716891490133968	12.371327617213224	14	-1.0269670849370627	0.32093770736641997	-0.3289009347639826
Si	9.743577902477496	9.35608118186016	12.078210706767216	14	-1.9965928648031188	1.3801657363080406	-0.17124924118005885
Si	8.423690557202711	5.500223937250416	13.747569849139897	14	-0.29608566045240065	-0.13687459149180708	0.27304984233653384
Si	9.99879988914259	6.661332851880563	15.11320085240922	14	-2.154705814681477	0.7898705509553514	-0.8514881183948283
Si	5.481130225654116	8.168013571452768	13.633105079365992	14	0.23290666075199792	-1.417001962229802	0.829449889143179
Si	6.820615031511996	9.408487326454258	15.035818508050427	14	0.7699807373092179	-0.5335745451059665	0.1938276596594712
Si	5.55318258073326	10.920173035959792	0.05000114943133199	14	-0.5963997607143168	0.170522646816585	-0.9781201976227614
Si	6.812928796971528	12.315248980005707	1.348649787424104	14	-0.4483637439172148	0.8807185005585277	0.39325467248516094
Si	8.038826331290569	13.78614727154808	-0.17785589227362	14	1.2014510337203999	-1.103478551275093	0.7892781682895894
Si	9.543719554458011	15.146367035701175	1.2488099882346	14	-1.5742515349416548	-1.719459078776062	1.0663407346992784
Si	7.809636792265704	10.631134867310099	2.657227155446952	14	1.774228507195324	0.2937390126267015	0.1444349266857025
Si	9.5683870048437	11.861143643360087	3.7741036590429475	14	-0.7057946356549132	1.611831581632535	0.6211481920839342
Si	5.224754491309583	13.641051313383514	2.692034585437824	14	2.011454110664107	0.4109215084714944	-0.6854546214672218
Si	6.9138085940692555	14.905753769653163	3.89568591450126	14	0.9930704037278264	-1.4070967789839317	-0.31495628794962743
Si	5.305273079360364	10.878686869402044	5.30220183553764	14	1.2043183303734288	-0.41530010083170665	0.6470446219789976
Si	6.789837593415492	12.146655569102208	6.693605286970139	14	-0.4814379285345357	0.5445719338918359	0.807416030770574
Si	8.19697101320988	13.477560392217239	5.314909309978751	14	0.7982050459611434	-0.1217063556555935	-0.0627084874268156
Si	9.527323337436167	15.08630715650124	6.755192663097779	14	-0.450293615570518	-2.179470444014611	-0.5713751926333156
Si	8.0835462413442	10.895456835672155	8.270258365805038	14	0.12930371476609903	-0.3420074012439694	-0.11372693029451394
Si	9.558815774094576	12.375601358617331	9.554119533540252	14	-0.08846736318725115	-1.4608475354753514	-0.7047381684788644
Si	5.4343953196533	13.648948797499092	8.191202274812701	14	-0.07879666474657818	-0.18445340966221133	-0.7682655529501471
Si	6.753112667281331	14.943307444120439	9.635141870577828	14	0.32795939599574436	0.15804944357695064	-1.0827911807586497
Si	5.5424576023047	10.885186856328444	10.80996575762268	14	-0.30468472219563586	-0.9821308648116605	0.5503792894784543
Si	6.853049966274732	12.048847015827205	12.328817702714566	14	0.45636605211564374	0.5717153498671711	-0.18104232423397085
Si	8.127469902999348	13.540821514978427	10.845081936992555	14	-0.3663915069897218	0.138105893829626	1.6312747942845591
Si	9.395129853320507	15.005203569627083	12.244707871886952	14	0.07808241168864104	-0.9352187342507705	-0.3916968397716832
Si	8.316765772263432	10.69080474729445	13.793703506350019	14	-0.8064572655966907	-0.6511033688373833	-2.2267906089898086
Si	9.597149446993019	12.061846989680003	14.987864854500913	14	-0.5571754921712018	1.769679193441854	0.909511794817802
Si	5.170057101323928	13.45240544281207	13.27321705321854	14	0.5495485653495144	0.7544296638908342	0.8089990603161891
Si	6.649551625576464	14.896735037792784	14.587774409213676	14	-0.6367072359288103	0.22528513325148294	-0.29481373465052335
Si	11.190426242392187	-0.113083522552044	0.223404550660368	14	-0.44075790015915284	1.140251270895447	-2.0234640007250504
Si	12.322593965232539	1.489910753302092	1.334268566349444	14	-1.112067842818112	1.5851730761205798	0.6231737088551468
Si	13.790274763246343	2.7643306900267075	0.107623533533868	14	-0.41126346547907416	0.6262032422538772	0.006561203666485882
Si	15.006373567273837	4.222294007585544	1.6697816415228959	14	0.7527995831178604	-2.0776528735630233	-2.8511100023756137
Si	13.838602166044128	0.25986947731747195	2.4023139181608597	14	0.4918827867871053	-1.2373840303431933	1.8431007054061308
Si	15.083235912678516	1.302954879331512	4.236837728333364	14	-0.7424629683992691	0.2350113675670711	-2.6922216071326988
Si	10.790595796582007	2.927821611192984	2.709503300302524	14	-0.3162999475899368	-1.286548192054001	-0.22849130158570763
Si	12.191586728730947	4.143887915285844	4.078075547656043	14	0.19811703466507427	-0.669379042563528	-0.586681496825221
Si	10.939055497980984	0.00511873970454	5.419526599559159	14	1.3779322171164279	-0.47027393212392077	-0.553447646567519
Si	12.268920323187793	1.444800844032876	6.655694113221911	14	-0.2414589283784065	0.0038206625057400456	0.4621117011745786
Si	13.560207725986416	2.647737174534408	5.170869599689728	14	-0.0742306388085272	0.6174002918587542	1.6241584889794531
Si	14.87302633547874	3.739881227875452	6.886687398618851	14	-0.0371673842869966	1.5397084778549333	-0.9686711284606851
Si	13.754329835543352	0.382654230357168	8.155988595638927	14	-0.4304084299139607	-1.7344923315829675	-0.7286373637612368
Si	14.979967370385337	1.429363375082676	9.817109004582395	14	0.2884250521510194	0.5871373537984833	-1.171296853415171
Si	10.736353405681198	2.544029883123696	8.073438761673648	14	1.407153857522039	1.0799449671692458	0.7323466974066144
Si	12.414373780633307	4.136120430908796	9.290333814099624	14	-2.5467880631406508	-0.19013709508293064	-0.24860840094214223
Si	11.00472161590494	-0.17533714733963998	10.987106651334397	14	0.343144858237603	0.7879496781706689	-0.6865267723857235
Si	12.255286600609667	1.4575083184739879	12.242091627149074	14	-0.40582532061642884	-0.6565039755623545	0.6251161789245187
Si	13.423090501774007	2.854615508434404	10.76568459668658	14	1.0257380965940317	-0.9658506259244828	1.1899558789445497
Si	14.777931526745508	4.13431668453672	12.142349327763467	14	-0.12892961894201752	0.7558175465426501	0.4638657092239837
Si	13.576685192844838	-0.023659952412096	13.693262458369823	14	-0.018548210890080255	1.1734072166619487	-0.7573373268973896
Si	14.994836090479476	1.303913627403156	15.012288555376859	14	0.21011355497835316	0.6608972232228914	-1.219808982816789
Si	10.8748843770501	2.67011337952854	13.808588476411476	14	-0.8872005141811531	-1.4660457962116267	-1.9095298393417324
Si	12.162840536548945	3.9426320700771837	15.031691016352163	14	2.0021042861673886	0.3021735236294472	0.9373470952347891
Si	10.904719317042275	5.124768442414236	0.236940773434596	14	0.647276792789407	0.9644648001569228	0.5691141626147772
Si	12.259511592111828	6.795362582302932	1.358594767421496	14	1.0670886692369095	-1.5655072057478312	-0.17736975739467134
Si	13.683902477195806	8.08955872925112	-0.05654988625968	14	0.5421129287636463	-0.29397324032136696	0.6371067856955613
Si	14.968267393917815	9.531678328676856	1.380207223951776	14	0.5527724743104481	-0.8395484195091245	0.29245140308237133
Si	13.680018735007282	5.367559204082592	2.84447552882922	14	-1.991871029882667	3.416270319229067	1.8457103773060808
Si	14.84507639169522	6.7229852278774676	4.600983245917607	14	0.19300002085691556	-0.10091485537368404	-2.220995080487663
Si	10.820300736835655	8.05624629625332	2.540877389464392	14	0.0823756433522243	1.353500545922253	0.9979169372563057
Si	12.413366282659716	9.469115954510256	3.789849877372152	14	-1.9502296652280806	-0.40462975664256007	0.49670283793078684
Si	10.805204517199092	5.336018017522236	5.407355374039476	14	-0.5315027484389911	0.8388537068516205	0.5842512880766171
Si	12.078405706375007	6.773538876197543	6.745296433002336	14	0.6091277604911778	0.6310569748772528	-0.714230689320851
Si	13.542349011906133	8.417060570537785	5.424385339786644	14	0.533897733044709	-0.947571609761422	1.89920710859187
Si	14.853103875549325	9.750597888358007	7.225157967843816	14	-0.04497660247588236	-1.3710498823954556	-1.392276413697534
Si	13.656748781810771	5.505082677477899	7.935184039749119	14	-0.004620790481370127	-0.15176746194823282	-0.006038497954899779
Si	14.770960290766944	6.895137381623171	9.465882211014371	14	0.23798202265397023	0.5397410841058096	-0.14010569954763719
Si	10.603444923003636	7.902326605836167	8.118516171008231	14	0.13911736666257227	0.8341853509218277	0.21362414218248338
Si	12.132664347243132	9.33178748072274	9.340611212975327	14	-0.7096050137393727	-0.0017504085019568122	0.7775914661673883
Si	10.858699409603362	5.161135869267444	10.856131914767435	14	-0.6361099681629399	-0.3246354710378569	-0.4197643109990797
Si	12.01823207740386	6.560924303835	12.261234088647322	14	1.0180929149245714	0.3695416252279672	0.8071674048861156
Si	13.290702018050556	8.017376374433447	10.965039195719267	14	0.9606855324468373	0.5465673687308027	-1.0473091560090102
Si	14.886156309070067	9.54133080926256	11.913842287365874	14	-0.8093006509702425	-0.2651308379504778	1.0687933120641675
Si	13.52371029939468	5.369151700879559	13.818143457193283	14	0.005930254420921544	0.34069588042016186	-1.677166967364946
Si	15.155028268280603	6.717833988238295	14.859018863652347	14	-1.037301642771398	1.2700164990665126	-0.4107510441887686
Si	10.856424414179124	8.138406131003016	13.527057792661775	14	1.8054527815347985	-0.2900584753609095	1.840296400833445
Si	12.323958962487085	9.566599508438939	15.126460825739077	14	-0.8049832509166498	0.11569639696974737	-2.0301113364197616
Si	10.829286968761403	10.857220662577607	0.25614823480210797	14	0.30572884806614803	-0.7159042217737355	-1.1738795287092598
Si	12.186110489745456	12.238370384633711	1.406938420186596	14	1.3393468682453697	0.6431409127714168	-0.49225585416905876
Si	13.779224785471463	13.541747763115438	0.08279358347501999	14	-1.723231147391251	-0.04339151604601106	0.6207573840752716
Si	15.211139405422752	15.200755676307827	0.887069465813124	14	0.04410756887767231	-0.6339726083103008	0.993601851197501
Si	13.634063827437636	10.994874135711443	2.667253385280924	14	0.2602341678682558	-0.4004424545181669	-0.4983799699311195
Si	15.095878387250364	12.070540722194064	4.036475631327084	14	-1.227497359055628	1.251217605407718	0.5098702396068612
Si	10.864403148131279	13.636566322404299	2.52410742319428	14	-0.7082883507049248	0.47410667882466545	1.5906495304524952
Si	12.408978791484394	15.11385085110186	3.851096004186156	14	-0.5425947539006419	-1.4078686248010401	0.41549344795178167
Si	10.83799695124278	10.567256245790905	5.286016868090904	14	-0.31126726603627897	-0.011148826889226101	-0.6601405469271718
Si	11.921268522429287	12.130210602178416	6.588516748337567	14	-0.09276830816679485	1.3162352025225588	-0.36000873803245415
Si	13.513115320704648	13.459474178594531	5.428902830700492	14	0.8239513233055102	0.8946227810193565	-1.1130363781922117
Si	14.97206988626976	15.078929671339775	6.58968674598432	14	0.09296139817633797	-0.29238815389149564	0.891921320659477
Si	13.161238528443983	10.967314191143508	8.020626367896648	14	1.1897895284303361	-0.08638759609378337	1.6145677519142367
Si	14.807603967064523	12.205074201603226	9.305023784553287	14	0.1839906107045847	0.684885378749341	1.223765142572901
Si	10.872544381756596	13.633966327633738	8.109399939343955	14	-0.5463740216107276	0.01856903684317346	-0.7586974416117481
Si	12.345863918429052	14.968267393917815	9.2693876062293	14	0.17647218452740765	0.9802153913481502	0.6381254576234039
Si	10.975162925357136	10.880068116623905	10.7639783501184	14	-0.28274342361455623	0.16652792048067094	0.23018617421274923
Si	12.057849497720268	12.394435070736575	12.28058779972068	14	0.13890705024738415	-0.554420809931195	-0.054348281367822104
Si	13.4094730291632	13.70712368049037	10.883935608845112	14	1.035709614357162	-1.1065600210012907	-0.5186037701583402
Si	14.834237663495447	14.883881313645828	12.295391519945555	14	0.5481488556132258	-0.5169302377054559	0.4057199052983028
Si	13.570623955035972	10.90445931756522	13.446149205395411	14	-0.6643723291736036	-0.17947394998868055	0.17842159658114395
Si	14.799381483602629	12.184290493406063	14.929982470921319	14	1.7869153692870625	-1.2025818058402011	0.011333946472276764
Si	10.627901123814215	13.713119918429976	13.761999820116504	14	1.171742683077685	-0.5172621674022869	-0.5413217996566366
Si	12.359302641399383	14.803736474843314	15.009054811880976	14	-0.7858740248457132	-0.23236312908731863	-0.22286109515564734
H	8.672586431591688	5.288949987191442	8.209764612477766	1	2.0250655422289707	2.572211666767339	1.3386310725242405
H	0.2307381609100788	0.218675810171412	0.5661748612371456	1	0.728883932761439	-0.04085794886353716	0.9165661364846923
H	-1.083694070336724	9.43984976337414	4.605391862050438	1	-0.5601569459004454	-0.2915638575258562	-0.42531558449581136
H	14.200810687524303	14.478147254709745	1.8375918040017647	1	-0.9708995054416577	-0.7709798688366274	0.6808885955291708
H	16.02796188752554	0.445484728984482	15.827737915241444	1	-0.8833070893948528	0.8232013318836231	-1.7145618944727756
H	0.24819225080419438	11.39574782942331	5.983561340100788	1	4.886596234467144	10.474321833985792	6.392204142460954
H	2.049847252086625	14.181842100676336	14.005780204794405	1	0.4239582979973053	-0.332155439878226	-0.37794296897208307
H	5.547004343159717	0.6341598494970948	6.087998255043988	1	-4.2029390727292375	4.5427268387503235	8.360069790411528
H	6.535166480642408	0.9289472565831876	5.964079254285635	1	3.246136423536888	-1.51454969807622	-6.927752268010665
H	8.17627342983949	4.614041719652746	7.81996202149829	1	-2.578758729354564	-2.219019443159661	-1.397726642755184
