222
config_type=divacancy dft_energy=-23012.635836414785 dft_virial="-41.31845853093921 19.276359963724175 7.997893450787423 19.276359963724175 -26.46408756096377 -9.191191924732253 7.997893450787423 -9.191191924732253 -42.43193770896799" pbc="T T T" Lattice="16.3199774331 0.0 0.0 0.0 16.3199774331 0.0 0.0 0.0 16.3199774331" Properties=species:S:1:pos:R:3:Z:I:1:dft_force:R:3
Si	1.3910822364425777	1.4997406461921576	1.4116290880308509	14	-0.31487889767949095	-0.20554804326136622	-0.07272319975932438
Si	2.9026059063414333	2.61072310995044	0.0585071190976635	14	-1.5861819778482058	1.1788520463984262	-0.49164830198190773
Si	3.9555871703024788	4.092446501056456	1.4060476557487305	14	1.7922612114687144	1.0292175734237883	0.6179237689019365
Si	2.399689481763024	0.0949985886380751	2.9086606179691135	14	1.8732129766946408	-0.9407129292093951	-0.34481556247463513
Si	3.93569311781153	1.4577983041890907	4.171369911922927	14	0.08079981290150555	-0.44147215321709	-0.012474745902826464
Si	-0.0097430265275607	2.7333351004053204	2.8267180112775185	14	0.6825184191916126	0.9732430679409726	-0.7160680011826289
Si	1.21304760262489	4.231623268605932	4.211582336318085	14	-0.13857743454534116	0.7762866302174131	-0.29823073362100017
Si	0.0376175479832955	0.0597637573600122	5.408897480697467	14	-0.4295759060112968	1.1615953017106564	0.25467492394503166
Si	1.3750396986258404	1.4831105891878287	6.804500350889014	14	-0.7806405399665518	-0.5635132667853667	0.9178630020081749
Si	2.552754550108069	2.8789256190860057	5.47324715171618	14	1.358695721332144	0.19590202743176668	-0.069573852852675
Si	4.147738584599798	4.1525856178974285	6.687437152761388	14	-1.9242869554372544	0.47401000526462794	0.8961045090153578
Si	2.7980927708598613	0.1823594278374594	8.227977742536295	14	-1.4436468408835608	-1.5033877585498612	-1.2531888718566757
Si	3.987264246500126	1.503412641114605	9.510368929274428	14	1.1133233135459404	1.8528109988687338	0.4942124653176914
Si	-0.1251252669795777	2.721209357172527	8.304143077216573	14	0.24467743801816783	-0.4942888271456998	-0.9815950464629415
Si	1.1841449225908698	4.234462944679292	9.424884887479848	14	1.022458651758183	0.2959488776493687	-0.6010843146076266
Si	0.160914977490366	-0.0090739074528036	11.062235583387906	14	-0.5779225123310725	-0.6923079026980764	-1.2137558295615645
Si	1.5438698651712601	1.1647731093777802	12.501967672558553	14	-0.8915184284558096	2.1055907610822846	-1.7344429663608205
Si	2.483737365543489	2.881797935114231	10.734612036418422	14	1.4433483355558916	-0.880947586042553	2.03099296843404
Si	4.1625897640639185	4.105730962686999	12.325401836709844	14	-0.02204954211505791	-0.812264106962245	-2.798960530277582
Si	2.8650862782227366	-0.1926899735526117	13.69414202404651	14	2.6738356329883195	2.2612778730910827	-0.4344306670768004
Si	4.20939545934205	1.3773081754890413	15.033718411710224	14	0.22188844601303534	-0.7571959161047817	-1.766948936702389
Si	0.0910001941669656	2.636100674858911	13.759340333891744	14	-1.0881845883887244	-0.5177740744715285	-1.748533137736296
Si	1.4014617420900295	3.959422364999257	14.880832863116943	14	1.8380240579514984	0.8140805928709297	1.880416699580632
Si	0.2039181180265845	5.398746454734078	-0.008192628671416199	14	-0.6455027301185047	-0.7743747563013509	-0.38775456398430014
Si	1.308046191262965	6.825944801236107	1.3682179480588046	14	2.0789119438383	0.09865896756578613	0.23161853698660376
Si	2.828594808682325	8.321115853746997	0.1006126608750615	14	-0.9626287738478052	-0.7865018887648934	-0.5457723829658129
Si	4.065143178810879	9.866177077270873	1.2648798509524155	14	1.4411816651026026	-0.8303978556747176	0.2903551809148545
Si	2.7473866009752195	5.546148490909838	2.8923243205585805	14	-0.3473689271680742	0.026188764569964305	-0.698359770400641
Si	4.243797971771025	7.064591831240328	4.058598867860206	14	-0.727111155643197	-1.0935340301178245	0.5058456884492335
Si	-0.0185884542963009	8.074994274078415	2.695440112805662	14	-1.0499491669517382	0.36121767175398783	0.5838993037582888
Si	1.173079977891228	9.408564910046747	4.176086385401093	14	0.3507944107861075	1.5647299606095502	-1.2395046780112515
Si	-0.2730658624106292	5.633362450312324	5.520885165843398	14	1.590215527874454	-0.3736829045671297	0.7361357353169166
Si	1.2062584920127204	7.232965038417621	6.923489306353745	14	-0.5012284975153115	-1.9226566175537487	-0.7332368140684498
Si	2.629115724517544	8.245211638705648	5.422769461515602	14	1.5603405696069936	0.40968454970197116	0.9263522775542399
Si	4.0885460264499445	9.697624350341815	6.927879380283249	14	-1.882382566708417	-0.21243937685095915	-0.27080886693949285
Si	2.5744274801392257	5.6979895609474	8.020403949564695	14	0.8622965309396667	-0.9932814914746106	0.45956836379188815
Si	4.069402692920918	6.962804131990083	9.476456016168445	14	-0.1533211808931983	-0.3925193363635986	-0.9811631007691566
Si	-0.2236163307883362	8.205603053475514	8.446616480207535	14	1.176644238260015	2.3721115385688343	-0.9910281747720329
Si	1.5042939198959926	9.508818531418282	9.892452240938164	14	-1.3816567202831942	1.043644302485671	-2.029118118434588
Si	0.049188411983363406	5.473916270790937	10.916563464820054	14	-1.7873432012123356	-0.08488915591320106	0.05914930633213461
Si	1.4317026602735636	6.647942807373285	12.343027412337594	14	-0.23402843400317852	0.19819699604053087	0.5564306429599549
Si	2.696566191248546	7.993639186574412	11.024226355946215	14	1.008239668006168	0.6937037557763849	0.607934253401565
Si	3.8948605342739135	9.538863609872617	12.458148533150682	14	1.4566121536814713	-1.1759374414075061	-0.7203542908618478
Si	2.8757921834188505	5.296371236296243	13.643207374477804	14	-0.7691703249123072	1.495148651551447	1.3712694547897961
Si	4.1692319948791905	6.821995366697297	15.105314152709232	14	-0.3316221926348273	0.47352252369592784	-0.7695683320158662
Si	0.0977403448468359	8.131738835613303	13.675390369975878	14	0.1297801405819225	-0.9537206652450883	0.77970620029321
Si	1.3126810648539655	9.633568438916898	15.083886022339573	14	0.20956308132930948	-0.47949777245995195	-0.11331658188541831
Si	-0.1265451050162574	10.91148795183836	0.1545338663140239	14	-0.08291480413785934	-1.2050978895064979	-0.25880489042078547
Si	1.191505232413198	12.331652388066722	1.3150311416043317	14	0.2864427299491853	0.0477675373009031	1.1013069957216963
Si	2.5734156415383733	13.776362070354468	0.1929510931915413	14	-0.35575561561186525	0.37973605782235437	-1.8031835239792358
Si	3.9940207171574293	14.945574213594051	1.5079495948410069	14	-0.3599115502513526	1.5498484030165334	0.34746971449662395
Si	2.637667392692488	10.954213652758217	2.6691812691158043	14	-1.2303762256825976	0.27817199835533285	1.0509997205855508
Si	4.006603419758349	12.379959521268697	3.990870961512841	14	0.2147500292021762	-0.9596015544438627	0.7935996821116942
Si	-0.2050931564017677	13.499493653201926	2.8244168944594517	14	-0.24715135555721432	0.7137496355154513	0.17072499280528064
Si	1.1925333909914833	14.879543584899729	4.208824260131892	14	0.7507691812465395	-0.5981902784592679	-0.544523082890753
Si	-0.1696461654170745	10.748989936536985	5.591762827835352	14	0.30566174221729214	1.293875585105891	-0.7020775886935751
Si	1.2543861054629322	12.337576539874938	6.865406506669343	14	1.2686157608880961	-0.8271657191767594	-0.828844393840284
Si	2.86626131659792	13.798948919121877	5.5083024632424795	14	-2.0078543061053673	-1.6078653945656747	-0.7722618219492533
Si	4.053213275307283	14.95468076100172	6.97731259192811	14	0.25469652122972086	2.2146521636628576	-0.34027113382127344
Si	2.778688317691905	11.222008162457955	8.442454885962094	14	-1.107570465392109	-2.17100713663228	-1.0947689320030916
Si	4.209477059229215	12.351285320918743	9.764568897772392	14	-0.529400355618706	1.872935554430597	-0.9004946713495107
Si	-0.2083734718658208	13.562178686522463	8.05838053705152	14	0.5361605628369713	1.0319619712425143	0.8425039050746347
Si	1.4178306794554287	14.954468601295089	9.406688112641941	14	-1.5159110983432387	0.8919298053070335	-0.17917904420845956
Si	-0.1205883132531759	10.78686860415921	11.037527137554193	14	0.7608947082183466	0.4024327471464935	-0.6252002540684874
Si	1.3160266602277508	12.222993978317144	12.194939937109645	14	-0.786321397171419	1.3707860869896085	0.67493674382356
Si	2.6314331613130437	13.727761177558696	10.838766132396467	14	1.0066406976075681	-0.8062528627237389	1.3329175622818075
Si	4.173556788898962	14.957438837187913	12.29268028195648	14	-0.07740312566305792	-0.8099488266214517	-0.9613123679238894
Si	2.6283813255330544	10.983328492498867	13.626316197834546	14	-0.5924687977903423	0.10823967732025391	0.8560376892588302
Si	3.856834986854791	12.367246258848313	15.061478693323926	14	-0.23708290712351443	0.209867500199215	-0.6370422509520255
Si	-0.17439527885010658	13.64534529152154	13.884106561367794	14	1.4419918203889814	-0.9975618676115932	-0.5846423531958116
Si	1.3542480473760712	15.297416607074254	14.866650802727579	14	-2.2893499723080555	-3.5737502629776046	2.5609013744640072
Si	5.372667130795985	-0.091555073399691	0.0233538877067661	14	0.7540887353253826	-0.4101013258743671	0.18764466558557913
Si	6.644580892022066	1.3488134948908488	1.4196421969505026	14	1.508642326492648	-0.5794968001185994	-2.0276754712394527
Si	8.470084607756334	2.6457784214767393	0.28874936072383833	14	-2.596420423130257	-0.5267456893756531	-1.9197715802740107
Si	9.830844326128211	4.0085781370277545	1.3628486754833147	14	0.3200146805564868	1.2057262676467422	1.294657458233748
Si	8.011868601367185	0.0767691738453024	2.6660804734035155	14	-0.4372951355139773	-0.49323467396443915	2.1232449986525492
Si	9.582682749280492	1.3702579452379422	3.894256695108889	14	1.1867599950316055	-0.616235066927663	-1.4506775283815054
Si	5.4530593396314355	2.6253131697756316	2.706521377482737	14	-2.209640050951761	1.499315384833279	0.8004997574593756
Si	6.8348065489822805	3.889850301201952	4.038003056339634	14	0.4091001374627015	1.2006920434298922	0.6319733168133536
Si	5.387077670869412	0.13901356777514579	5.6005592956717924	14	-1.557065495650189	-0.9109171609857949	-0.7959201046631278
Si	6.77458583225414	1.3359043927412666	6.8601188339810175	14	0.7645299940305039	1.2463481890418897	-0.16690690140486075
Si	8.340324467185756	2.5164099603645553	5.319594564183544	14	-2.1819700726068594	0.9111930405866467	0.896091139267693
Si	9.414440101922665	3.8654519349394674	6.839686222234777	14	1.092519986179558	0.4698813243415341	-1.4140588179698286
Si	8.098217601965716	-0.0436396196561094	8.122534368341036	14	-0.5571770348343938	-1.3099434506936243	0.6489505823528234
Si	9.582960188896855	1.192827150585279	9.299612740703372	14	-0.6370227105515924	0.9822720184937365	-0.12883423093464
Si	5.514047095298929	2.936486179492549	8.096161284809146	14	-0.06503790884686976	-0.9703204925235601	0.6480324406429985
Si	6.983710023081885	4.100263770246911	9.535322174769638	14	-0.3427805326137379	0.1783501198532438	-0.0813893673514155
Si	5.298035873994419	0.1848074244524244	10.894319335578741	14	0.24106812036974395	-1.6218596637127087	-0.23350084319148412
Si	6.872930016266002	1.1719049395160448	12.203426325374856	14	0.26543808503623556	-0.1993246828339478	0.00836431982750573
Si	8.146002495889833	2.321190390309813	10.730776841721644	14	0.887790839962659	2.3068484008959196	0.17395455819791866
Si	9.61551854387589	3.78554932542701	12.19761641340867	14	-1.1108864199235038	1.3701484528702117	-0.42186104738766045
Si	8.208589609345772	-0.11355440297950979	13.603337669608742	14	-0.22612717024383144	0.17211776055720487	0.42624118241106473
Si	9.554171748704865	1.3524038899261308	14.92956431573218	14	-0.9111737572967457	-0.5160864009393833	1.0086947536478343
Si	5.544875532670056	2.5846927459446456	13.337011957877982	14	-0.22467835239592798	0.7561600177712939	2.6034649945969304
Si	6.831281433856731	3.9444406257156714	15.051980466457863	14	0.5237855758205667	0.37664301812221623	-0.06864028451092924
Si	5.583847638780299	5.563871986402185	0.0860552410047363	14	-0.5013477968021663	-1.395937153452361	0.554992880864928
Si	6.873321695724396	7.048565613401024	1.4336447375881025	14	-0.08164622077289829	-1.801398148444925	0.4031148613879288
Si	7.991223829914313	8.183897483489492	-0.1726490412647649	14	1.2464818865185374	0.7718990389885804	-0.32338102875215663
Si	9.30054297941706	9.360110897047875	1.443142964454167	14	0.08754639326157411	1.0095982400573342	-0.9104548762492324
Si	8.271486802372939	5.4371963215664625	2.849321180022362	14	0.047232490283780286	-0.26181694030333896	-0.8397582217032487
Si	9.711659530934282	6.762394809111615	4.199717712724222	14	-1.5041416066297288	0.47022045313326166	-1.047860658100182
Si	5.543749454227172	8.46737549150244	2.7032084220638177	14	-0.6630842054082093	0.6728189243713539	-0.3615061497709084
Si	6.832782871780576	9.879347299059384	4.078966199696715	14	-0.13403506277623553	-2.278691455203382	0.9238426216512434
Si	5.466572280946042	5.432463528110863	5.404670606542294	14	0.8389336682270772	0.49533578123206423	-1.2472678734149065
Si	6.900004858827514	6.727453737427348	6.735009886978874	14	0.15209604920814776	0.2731285181593304	0.10316920051838986
Si	8.193673149971918	8.146002495889833	5.302882907292049	14	-0.5418553040105674	1.0025338710796954	0.7548055594886399
Si	9.383383184867474	9.729252466607164	6.759081853692695	14	0.11883340257086003	-1.1464455778327478	-0.9920519889105157
Si	8.456685906283758	5.448114386469206	8.10745470919285	14	-1.7783044804593549	0.8806598793572283	1.193971688344089
Si	9.544086002651213	7.102813218388648	9.534114496439587	14	0.2612839501704723	-1.1796382904053275	-0.7411064532323589
Si	5.481031780951769	8.232482056307829	7.972896495256942	14	0.13602509829403017	-0.9586263341959307	0.788231214203225
Si	6.713418556834882	9.507561893155932	9.472767701268562	14	0.5881686241423947	0.15606403604873229	0.3648115627704908
Si	5.329255990823939	5.470276915823356	10.699099765523998	14	1.062969758514032	-0.6610486613262481	0.9792216591419128
Si	6.750530185517752	6.720126067559886	12.177640761030558	14	0.05329798484454162	0.4927163391318973	0.11391822053033296
Si	8.11029438526621	8.23600717143338	10.898546209733912	14	-0.7538326532354959	0.45566491169483936	0.6723394132291464
Si	8.147454973881379	5.365013061379861	13.562113406612731	14	0.2809999570969638	-0.8174852505358698	-0.1049892859745227
Si	9.511380767875279	6.906598129710487	14.784496036329353	14	0.34478805164770954	-0.6742386887291398	0.5362700919236096
Si	5.5579804745488355	8.23080109863222	13.669335658348198	14	-0.4652001128851405	0.08104432501745162	-0.0896403014343027
Si	6.915264037727463	9.888992405722346	14.853398981051901	14	-0.11804175924278644	-1.6637643095520782	-0.322848809950886
Si	5.466441721126577	11.193546121814629	-0.2210377743539064	14	0.2166004537010868	-0.9043130198604625	1.6962664232356661
Si	6.919947871250763	12.392640143734218	1.237086929383846	14	-0.1381524308359207	0.4712841194042069	-0.6365455134041729
Si	8.493161055846736	13.775350231753615	-0.0606776760962658	14	-1.7822035616773595	-1.0619456872650173	-0.055068962189059614
Si	9.43252263691854	15.177138373392307	1.4376431320592122	14	1.3253993932151624	0.7868554157464138	-1.1396838279512904
Si	8.096504004335241	11.029954668025233	2.6742404621200655	14	0.7456999899973356	-0.1601096702699853	-1.3311288443105804
Si	9.484403845178365	12.48130658112825	3.721118054521131	14	0.04075407620860317	-0.2349640592291804	2.4869561283460166
Si	5.445356310283012	13.568918837202332	2.614803104308715	14	0.3321366708093889	0.5227921007248615	0.8527402466857403
Si	6.538794798300713	14.989866632347484	4.223349040047351	14	0.5859939832626134	0.48730287688032553	-1.5448828273117312
Si	5.3334502250242455	10.884559989073745	5.473671471129441	14	0.19438404685075125	1.9097941489686436	-0.22693038354584572
Si	6.696739539898254	12.328551592354433	6.900135418646979	14	0.8981598506082842	-1.168308457701563	-0.9388198243621698
Si	7.989004312983411	13.661420469293144	5.361846985757839	14	0.3634293365503792	-1.2279994959246527	-0.2898224478925199
Si	9.325088225476442	14.929074716409186	6.685103395988454	14	1.1670473305420304	0.785365203102856	-0.24634094316030364
Si	8.180813007754637	10.903442202963843	8.267210968285466	14	-1.2602216162388766	1.0529925843191976	0.23456528079402544
Si	9.407699951242794	12.42371338076684	9.595901931001304	14	0.1960202982764935	-0.18392119086094066	-0.644481744195874
Si	5.408766920878002	13.679437724379286	8.175786454705241	14	0.26102272586994524	-0.765136260664995	1.526301706273553
Si	6.6659111025271285	14.875789990090114	9.695878112756473	14	0.1771118755310605	1.6153059162516512	-0.513736924897832
Si	5.289859565300435	10.797574509355323	10.89626141289328	14	1.0389476643973568	-1.1134845218495133	1.0852920949035578
Si	7.191903975195941	12.001140205091582	12.554730159599767	14	1.2238132222423876	-2.275463175363404	-0.9626537135694105
Si	7.996968461970764	13.555960775120452	11.086748189492422	14	1.0903484306261608	1.0561861542373534	-0.5019178108516432
Si	9.615077904485196	14.92899311652202	12.304055306227351	14	0.14824607610175802	-0.3782394174154961	-0.39674829039417814
Si	9.065698504154751	9.853969734150914	12.454101178747273	14	-0.21961121803098022	-0.5474880815459479	-0.01727139998809472
Si	9.76850201233377	12.229489329335518	15.07944698847777	14	-0.26136725398284505	0.2590802558005733	-0.05028130697241188
Si	5.424189299552282	13.402030747971454	13.664863984531527	14	-16.64676306320188	7.171757104877083	13.8513378027395
Si	6.835100308576076	14.842611475968623	14.953114043168142	14	-0.15459670624252378	0.46269637052438034	0.4811337667751623
Si	11.045899285977372	0.19340805255966811	-0.0321013956109077	14	-0.5428271818215833	-0.8841941207303039	0.035235712859969355
Si	13.2845105904757	0.5668907361161617	2.507238133047153	14	1.6496191165227512	-0.7578996276309061	0.6424364299136962
Si	13.315126868140196	2.415748339557194	0.1348519735297053	14	4.707605138057588	-3.6688335943746613	1.6376341661834133
Si	15.03848384512069	4.102581207042411	1.360302759003751	14	0.4421442401477766	-0.7123627813057635	-0.5746464099321399
Si	15.016207075924507	-0.9594025133596497	1.5298836445110935	14	-0.8512492627105865	-1.751671943111133	0.08975085896306906
Si	14.92935215602555	1.4437957635514909	4.027884670331112	14	-0.6655807486740731	-0.7943566155179458	0.8317847098844053
Si	11.42698707901769	2.1355996069406	2.168402761581131	14	-2.1917811533980123	1.9152253518469247	3.2661054272268824
Si	12.155674071405606	3.838752451858916	3.937178235757942	14	0.4307128487838663	-0.5126868854850835	0.20962015986741675
Si	10.841883248086189	0.1219428713801232	5.3725692109313865	14	-0.06746297538483344	-0.8267522854412795	0.8859800104856788
Si	12.29641755678866	1.2700859237535744	6.920045791115361	14	0.20568739716971826	0.14099093110936417	-1.4884272680235158
Si	13.646667209693621	2.72027911845884	5.551240323868965	14	-0.9678265203630164	-0.4038604819307717	-0.9047066560849772
Si	14.908005625543055	4.050748958714885	6.879751766833037	14	-0.35394812857180113	1.3035624815100806	0.3797178029745813
Si	13.606063105840068	-0.1721431219643388	8.158634158423054	14	-1.0856137401791084	0.15956768126849807	0.8935580863062833
Si	14.896124681971756	1.2011829790310262	9.531633859869755	14	0.5848423851897191	0.24494688985571936	1.194894972264554
Si	10.90685307824736	2.6424654660578195	8.051020227229191	14	0.22892838949013278	0.6382457853523867	1.3330075509680126
Si	12.089382323072353	4.1106595958717955	9.571438284829085	14	1.022651998878258	-0.7657024180564915	-0.2959370505648961
Si	10.814498325953448	0.0589967184206565	10.753412650421355	14	0.4712051864708784	-1.090796317172931	1.4675997722671243
Si	12.175519163964255	1.485264826208998	12.05483293084648	14	-0.2935497792751386	-2.012541173993465	1.8856810377236353
Si	13.61623045178089	2.6545096094034473	10.951471896549455	14	0.49104357801060894	1.4744152582497727	-2.141298528879033
Si	15.008357166779186	3.973783945140385	12.250150420765822	14	1.1633675646078345	-0.026333517799488643	-0.3156584568125599
Si	13.811890661226325	0.1808090299813149	13.481101038634822	14	-1.4693908042331394	-0.7560548595636999	-0.5667903976264275
Si	14.93135951324982	1.4239506709928411	15.041454081013512	14	0.518875278880148	-0.4086849039534976	0.45347792950952137
Si	10.960937483460654	2.5744438001166587	13.713171117733504	14	-0.25094656412028493	0.6045326810630092	-1.717930556663234
Si	12.289236766718096	4.000728227882433	14.84365595452434	14	-5.951992602182332	9.054109589653255	-3.7969785119729695
Si	11.095414097509398	5.561652469471283	0.09139187362536	14	-0.3573360740521602	-0.06027622179395553	-0.8018138493885033
Si	12.457740533714853	6.923685146082943	1.5860733268132565	14	-0.6791798389334004	-0.3294411239917457	-1.0968852087921055
Si	13.696492100796876	8.198454903359817	-0.1500621924973545	14	-0.7493594441995022	-0.9003465756830702	0.8028453768429467
Si	14.834892126642766	9.408434350227283	1.4524779915458998	14	0.6919921709647623	0.882511332298267	-0.2101212682943136
Si	13.689213390861713	5.215636307934696	2.795791654041794	14	-1.1422881005300682	1.6029088177294932	0.4345587081217438
Si	14.788168031251802	6.8998906189854825	4.0957757764528075	14	0.8800554124964615	-1.2486153897131962	-1.2596834838953694
Si	10.757427364869896	8.24238828260972	2.7810057544874054	14	1.1901733944546342	-1.3645506423671854	-0.3328203277140163
Si	12.095959273977893	9.359686577634614	4.243063572786535	14	0.696605248130172	0.24819471009613042	0.2627484517608286
Si	10.79945130676013	5.209924315833112	5.334184624008735	14	0.5995375376470254	-1.1145451027940745	1.1343649823755
Si	11.961629539726047	6.519651464771686	6.903301494269001	14	-0.08570188230489988	1.8516038649209243	-1.7495222419529572
Si	13.5851245747934	7.918812090043648	5.6207471077565385	14	-2.4999965174192758	0.8320775587803703	0.3497482280313392
Si	14.66397300298591	9.530328261675107	6.841089740294023	14	0.9455502067587216	-0.6927961555983726	1.4199091110152935
Si	13.395453797065914	5.5096733413468595	8.175198935517649	14	1.0880555189016532	-2.5804052652015868	0.44780684250487074
Si	14.800962893559351	6.718787829410371	9.42699016456872	14	0.10396212939912355	-0.3281429729156029	2.351169885736228
Si	10.796203631250943	8.30291907890909	7.931753832148096	14	0.3272731679857968	-0.1068276262784286	1.182269302479435
Si	11.985750466372169	9.458291881285405	9.723556794483011	14	-0.07390719375925257	0.6383820539343547	-0.31630946067962135
Si	10.798390508226978	5.544385933347063	10.80929225315229	14	-0.2337481835232824	-0.5307949231443544	1.183086913971242
Si	12.20597224185442	6.7613176906010315	12.364161783113458	14	-0.576992543536775	-1.5711950049370627	-0.7621962017314057
Si	13.406567701697854	7.943700055629125	10.941369830518367	14	1.5865622443250558	1.6285692201561668	-0.9949604232486674
Si	15.019944350756687	9.293623308985426	12.292859801708245	14	-1.5141424349935089	-0.10797896724079088	-0.3557065075002504
Si	13.71857303026386	5.409240200223562	13.479648560643277	14	-0.31123898387775734	-0.4489134462346625	1.2860841075437142
Si	15.016827235066966	6.598542235683291	15.053073904945881	14	0.18601098526515703	1.186037257326112	-0.9452509300994564
Si	10.813486487352595	8.239287486897432	13.273021326362796	14	-1.255903187743156	1.4346466867103824	2.124856053246154
Si	12.176302522881045	9.487210881296857	14.89971507700704	14	-0.17412270848585634	-0.5394171248354709	-0.22621715893003663
Si	10.893242217068156	10.684395465856774	0.1621226558204154	14	-0.39707507788036894	-0.3179901922274022	-0.18143158957944128
Si	12.10679573899347	12.292060122814023	1.318474656842716	14	1.1707072989652612	0.47031918357755537	0.7765650809235851
Si	13.8252893626989	13.710396721569877	0.0931381112107017	14	-1.108404531957965	-0.16925740588854013	-0.24612522742394324
Si	16.407256672412217	16.43568607310068	0.0562712821893288	14	-0.4787069004634744	0.9094403180899019	0.005562329249608354
Si	13.446519006454084	10.697337207961223	2.8569752494384857	14	-1.334993472717295	-0.08215787073160777	-1.3360319421561029
Si	14.586485750133551	12.088680564042729	4.124254137073567	14	2.5888508319572088	0.9257786639573149	0.7031888204129431
Si	10.870328968752082	13.958085019072037	2.6656071940579555	14	0.9109235887490952	-1.2131156243368475	-0.2079535693988968
Si	12.303239307355696	15.236477811339059	3.994575596390155	14	-0.2958768867004046	-0.09674040877589161	-0.080859719655465
Si	10.708761192164392	10.90531900036865	5.255620252645792	14	0.31083994833207035	1.1872253650945526	0.292203034308445
Si	12.202512406638602	12.0907858411316	6.792652047272583	14	-0.8043916395824838	1.4896017489337594	-1.1112072938674584
Si	13.56038348900482	13.752012664024281	5.351989719388246	14	-0.6583693124721218	-0.6175890109892531	0.6022328273541366
Si	14.948691329283772	15.113996380703643	6.66855493887129	14	0.008894224633988248	-1.3827502113758536	0.37475299860137534
Si	13.39001924458069	10.832156541536062	8.286174782062728	14	0.0249489775845889	-0.5146239562332829	0.532943852970934
Si	14.926284000268126	12.098374630637991	9.520536275215248	14	0.23697749180538835	0.16247097339600927	-0.4070633078280802
Si	10.797509229445591	13.61370085527876	7.945315733395002	14	-0.6335380915111957	-0.6469644034930089	0.5858206907640355
Si	11.975468880589315	14.864741365367905	9.463253154425066	14	2.1132426276255774	0.09341057027576784	-0.09551116332232883
Si	10.525716325274741	11.07362692763621	11.10884543893684	14	1.6292353935446175	-0.6985456613152877	-0.5784866128383132
Si	12.317437687722492	12.201582167924915	12.272916789284995	14	-0.3480577262833419	1.054115386012506	-0.5829253690630167
Si	13.676663328215659	13.61686693090078	10.691902655476	14	-1.249850034487931	0.027387670980749353	1.5301658204592037
Si	15.066896925831715	14.849057867054697	12.29769051502844	14	-0.7185424329427393	0.6358639133838017	-1.049966393357383
Si	13.602978630105213	10.740846267797867	13.52346770005115	14	-0.30012178158396907	-0.3602447655008438	-0.045036766340373825
Si	14.822162544244948	11.96807593081212	14.999887098491408	14	0.46348904229458193	2.10425918563698	0.45739603690689506
Si	11.081591076623562	13.678752285327096	13.80954058447596	14	-0.16969475090349734	-0.5430135869572941	-1.7012402264774924
Si	12.445631110459493	15.137660347981637	14.923901283562895	14	0.8759825245588149	0.05938430535839616	0.8394350337645059
H	6.204591036430204	13.160513033936748	13.009334554982969	1	15.330368452149468	-4.8709217479933935	-13.610351700629467
H	6.571356417275233	10.984219563266715	13.606580449124698	1	-0.08566742949360988	0.15021400011379935	0.27788506300160437
H	12.987434777265493	3.152618168630066	-0.9851570697468248	1	5.049795859110883	-4.631830036283247	0.9593339023800355
H	12.346823439088531	3.044418350246356	0.8911213597773027	1	-2.2837362209520444	1.5389489733433614	1.8776985270361712
H	10.725226417396648	13.04292596453352	16.058252323007633	1	0.09020491616260722	0.23354815152937483	0.04754925045922253
H	11.94756008718097	1.2198579292077225	0.9123389624380759	1	-0.4707092202546218	-1.2033698496208263	-1.5434448081061722
H	4.291223826191613	10.014165000636481	9.961644049261277	1	-0.2446180454852724	-0.2938454563869556	-0.14393176137454952
H	15.917877669114565	5.042959522708295	2.310734180768426	1	0.14968949462848913	0.2710883460877929	0.17729725222464315
