222
config_type=vacancy dft_energy=-23096.132237388505 dft_virial="43.666369358270956 -124.94852979092174 -96.45766488522094 -124.94852979092175 -37.705732102924166 97.3816045420854 -96.45766488522095 97.3816045420854 2.2567021707485786" pbc="T T T" Lattice="16.826584378293862 -0.4185681497696556 0.1279757768407404 -0.42499807831801323 16.111414733889102 0.4687114930826328 -0.900610803612234 0.1209567187133448 16.431177437117245" Properties=species:S:1:pos:R:3:Z:I:1:dft_force:R:3
Si	11.527808186872385	14.592566300352287	15.639091034873283	14	-0.825423538211827	0.14136168449652953	1.235465985774363
Si	1.294075300405396	1.151985662078274	1.1278582809756148	14	-0.21127826568838023	1.3093767790810635	0.36880988865385306
Si	2.9147455239284037	2.5694331124710708	-0.018347178318612	14	-0.6645271097138764	-0.585882140181187	0.07654437648612847
Si	3.781491476110165	3.970103835680234	1.5892157536844846	14	1.4429369587046679	0.1809507928845736	0.11240589638102184
Si	2.649303934342305	-0.021358472081180524	2.635233836767509	14	-0.11771111509861538	0.2720579099040208	1.5723368328097405
Si	3.8190257632043605	1.4255454572635162	4.433610789738908	14	0.19514457980445107	-0.38038037681558345	-2.1466929649512356
Si	-0.30747177698203826	2.420087080957569	2.5469738096907735	14	0.8467482857371352	0.7917428298494833	0.43585223120831024
Si	0.8773284026486523	3.9169071179204713	4.181535708687497	14	-0.34457156457975313	0.16511175567033337	-0.4229655942331961
Si	-0.11617466975892492	-0.06122066262626028	5.348813491410229	14	-0.10290849043892687	-0.05127452495758508	1.0227828681390536
Si	0.9780409457988827	1.4545205331879738	6.938308660837914	14	-0.9505039553790509	-0.03183259785822135	-0.343111690978973
Si	2.3631014183909076	2.784621948965228	5.631871738636932	14	-0.3795938756981501	0.2486132860422505	-0.3048814117526272
Si	3.740651330463882	4.188798834783351	6.8704560823790555	14	-0.5637850326177063	-0.5440831667704756	1.6841367196668033
Si	2.2362281554766525	0.02684915975781468	8.155903159292597	14	0.512142068267744	-1.0224725357269118	0.6426966257720952
Si	3.70812464479151	1.1873098716373922	9.513988230074157	14	-0.17058821000224877	1.062534727493863	0.9760376023134415
Si	-0.4844934328913765	2.737602675648521	8.461412293162754	14	-0.42943320966602855	-0.4088769655209127	-1.0288779304109967
Si	0.7364860358017219	4.078799926240114	9.813829937393967	14	0.6789800640500249	0.6592113494644702	0.8197609358547329
Si	-0.5697657313887053	0.0945805458461292	11.194000634479977	14	0.23339439943123003	0.4948107615256899	-0.7208194038142626
Si	0.8537093562113346	1.487636348439384	12.470918798316418	14	-0.40585771654346275	-0.15057112664276792	-0.19854049571130264
Si	2.335008353607638	2.7995218776327837	11.071562675682195	14	-0.8851734547467482	-1.357968098526542	-1.1151603682971862
Si	3.4886132804145826	4.059082600843396	12.521937419861109	14	0.720756668844451	0.49634005497011396	0.6146597506980085
Si	2.1665425424133007	-0.054915292903185	13.603540612745398	14	0.4313877639304051	-0.13103818241507095	0.32540371730751716
Si	3.479862181324815	1.2598973686843489	15.06590498547142	14	-1.1391950608299302	0.609702659640763	-0.13676094863665655
Si	-0.8123036461691753	2.4016877225905278	14.066692405829281	14	2.453954191788192	3.92898522976214	-3.9152930654902236
Si	0.44393606944303193	3.960590234592454	15.250735133144067	14	-0.38136922392171235	0.8137504629478227	0.5306116033350278
Si	-0.203917946033476	5.407787045499301	0.22381705998601092	14	0.09194812556966761	-1.1094388876282604	-0.783787572878413
Si	1.1236619951454954	6.7927145431292	1.5343593737392034	14	-0.020301190497357215	-0.18062451961944678	0.8989208977830481
Si	2.5714647679050673	8.075434791705481	0.16580294549708605	14	1.2185314005832075	-2.870135924634177	0.5571605797603448
Si	3.9162860070214283	9.312963751887441	1.47213550760121	14	-0.30861954177759043	0.009152106497599103	2.053373926024865
Si	2.3951298687621505	5.312516376432013	3.0303647286556643	14	-0.2507935833537361	0.20544982703813658	-0.7512744034419485
Si	3.8528115029485055	6.611057279046518	4.341464190667891	14	-0.49701882677463305	1.2383674781281497	-0.8240228000334103
Si	-0.5229400292193964	8.124911576980463	2.824039767484976	14	1.6105316307826683	-0.4304721933259004	0.46597915779714544
Si	0.9043475683707036	9.427620150559816	4.29327675755732	14	-0.5039412707385997	-0.3943720748572973	1.0398606638965413
Si	-0.5767612243329394	5.397941848619892	5.500307321046166	14	1.0289807746238024	-1.0303231487114517	1.4530840829611642
Si	0.8541554114640347	6.737725188221793	7.043666911525702	14	-0.17961998877086494	-0.5066746128044491	-0.06353406934511516
Si	2.391379638184732	8.040972394559127	5.72201698036659	14	-1.0848069273296457	-0.5604662498704592	-0.7421801468140528
Si	3.5858617416400693	9.28449027771885	7.211772512063143	14	0.0715425481963124	0.6313580513102421	0.7545222236823595
Si	2.250293203369343	5.366505894282424	8.527899774225615	14	0.009089371527787488	0.5660560899469932	-0.7529381656946164
Si	3.5038936184674596	6.774705693511693	10.048515596499547	14	-0.1300889303308723	-1.2147521328731217	-0.3935441789442096
Si	-0.6485020580134496	8.022330651450996	8.498325469357907	14	-0.14941464346976532	-0.7057802374651203	-0.15597687557837925
Si	0.7532173158464012	9.24558752677392	9.905330177155413	14	-0.690527155153342	0.43951657051058524	0.8868981521955036
Si	-0.8082487514380251	5.442880652908911	11.214340754003107	14	-0.3248244472788878	-1.0080548055336496	-0.3659729310436017
Si	0.4316316773779811	6.723570929278564	12.694437927058173	14	-0.48455616506681126	0.8676416017897226	-0.40210081744966236
Si	2.007753605361504	7.976607463208173	11.510105684635976	14	-0.21910728138823118	0.10100278717563312	-1.3297031664105583
Si	3.411275715733211	9.399855315113442	12.61689837509256	14	-0.9675673529467457	0.24041788783427848	0.9175961212759437
Si	1.7799270977832975	5.31388484028275	13.790489943675212	14	1.1670478447630943	-0.9072852176105537	0.8641047893113268
Si	3.233789489070117	6.60238360841571	15.207171525615257	14	-0.2142185817325016	0.2920364266836994	0.7362609481460078
Si	-0.9911667528198493	8.200592845931052	13.975897438335313	14	-0.5367884267561515	-1.078091200233419	-0.6470194251468602
Si	0.42890989872282553	9.365855805493474	15.291223484270295	14	-2.0105236276487455	1.702919158251549	0.05596962038270749
Si	-0.1254155880129781	10.760328885531157	0.32502278875526464	14	0.2623802694789834	-1.0228584586354659	-1.2190147683833952
Si	1.1458183169994305	11.907894392539276	1.756611032272342	14	-0.3168154542066265	1.291462602762932	1.1798167251145457
Si	2.435052655492503	13.382840889846182	0.5421422870412979	14	-0.42110334264981275	0.31948169042362007	-0.8097914749758587
Si	3.6944854534230958	14.78288040279209	1.907354142501848	14	0.6993681579072031	-0.8843671561183497	0.27829721118442413
Si	2.5174836661914997	10.60776284006137	3.13365934258945	14	0.1761623663363298	0.06894933137041104	-0.8729529911600844
Si	3.7254063401857476	12.065799635222517	4.514998199469323	14	-0.9798734343405704	-0.14442464226442192	0.250913653972187
Si	-0.3819512215913909	13.485859454491504	3.0164882022282664	14	-0.5320154268398286	-0.19717601011790006	-0.05736238813463171
Si	0.9656136781359184	14.647626350809178	4.564437953742193	14	-0.7145348510802245	0.9158349141316421	-0.893867647386829
Si	-0.6264753446669032	10.84743085217824	5.842796960206224	14	0.7776598575689042	0.47757947078058954	-1.242691048834511
Si	0.7068511347487418	12.110432092130434	7.298122076076426	14	0.12432322665044021	0.35714606936900134	0.2614616135480945
Si	2.298674207627312	13.413317404583502	5.917683745838796	14	-0.3802356235860591	-1.2732946583497016	0.3853786055579513
Si	3.4441912269277486	14.812089447320794	7.320236317246144	14	-0.05965478563807573	-0.7698552673695948	1.5192450506118746
Si	2.096355327594082	10.627008861794858	8.655368899628382	14	0.5004818485303406	0.5890330297510286	-0.866050601817615
Si	3.4140244260262658	12.047528202135496	10.053878358896162	14	-0.48483204466766316	0.8258979071433944	-0.9316209865762872
Si	-1.0370111334332177	13.530601321178388	8.54549118345569	14	1.0378523735309735	-0.564039314933869	0.5217240635748719
Si	0.2752632212823465	14.908255593348219	10.042806089264984	14	0.6433018639644581	-0.7416430429126739	0.11315820179769719
Si	-0.813194073447207	10.792263075169755	11.147991297584479	14	0.002232233638952562	-0.02287101026484522	-0.37967152307881863
Si	0.15038458279997724	12.12644295086132	12.794382918528285	14	1.458830246241163	0.2627533368609369	-0.41356177652475445
Si	1.7832514718364405	13.382657418062996	11.35056434495038	14	-0.5212221838163791	-0.054687667270081654	-0.05920587064917788
Si	3.2434613135305526	14.594209130264119	12.766966511147226	14	-1.5892325943105616	0.6183114915842147	-0.4573469287952802
Si	1.7690702812553114	10.621780757587736	14.005478476112497	14	0.05871993174366989	1.4300053273864508	-1.0326127179990439
Si	2.7876904724583316	12.118139590251621	15.498006283285264	14	0.6545077693917914	0.11624969883464324	-0.51502299177897
Si	-1.1918343868044041	13.73265088483263	14.069668351817107	14	-0.45544971017954294	-1.6158332499528136	0.0396798684058453
Si	0.20350723855551806	14.903261457745348	15.438687667585612	14	0.24905577326784795	0.1363940519074714	0.39968295000659515
Si	5.535022202297823	-0.15087440196426313	0.05480756635158948	14	1.5455675126584867	-0.24916838768087046	0.231745549589419
Si	6.932004974342208	1.2261873741717946	1.4510126873516445	14	-1.1609756653285006	-0.23008178733675122	0.5430084447466538
Si	8.4660209696982	2.4000095449039542	0.22929596507106434	14	-0.0382891575381772	-0.019503376516515267	-1.2587745981646974
Si	9.820286797580225	3.769831760127319	1.4218928538734805	14	-0.13332543770787467	0.9984733244475854	0.7423434120018821
Si	8.294801398528703	-0.13488037550706578	2.774184256052043	14	0.012830586879134959	0.14431279918299547	0.5976403190312882
Si	9.699239184588972	1.2768676670153805	4.1764624613982955	14	-0.5421345260483355	-0.26676606093409205	0.32010235524790376
Si	5.2832046550338205	2.569769757944807	2.831499831182966	14	-0.23204251225389616	-0.2368929024403555	0.05534844133735971
Si	6.5755630635231626	3.924234206656335	4.185624267966021	14	0.8568807546933068	0.47927485762869515	0.7276950536614026
Si	5.200975631619064	0.04886577374014908	5.65435628982776	14	1.7241634301803366	-0.06792705989512016	-0.7248061597236841
Si	6.726543508811653	1.286285324143145	7.001108190735997	14	-0.9197141978386817	0.6151084085763743	-0.35851261184666006
Si	8.141181652726123	2.6521721537785363	5.597390825989523	14	-0.390808008662508	-0.4660732602518628	-1.213852760232134
Si	9.345424791692436	3.8336748909939824	7.132167640116158	14	-0.07320682467004425	1.3325159556308002	0.5162208697476269
Si	8.03697809601325	-0.1828759206976073	8.222853527881844	14	0.4687621221956737	-0.0896194754812095	-0.4511125126149852
Si	9.220876065774329	0.9769283325081852	9.839936793882195	14	0.694869752039072	0.8104743605488901	-0.9427651854759371
Si	5.06813364445547	2.700765244684959	8.234626020098393	14	0.032051913142029986	-0.9120893279012505	-0.5604857902708924
Si	6.479982680620037	3.787241380801576	9.655010702249536	14	-0.40898443772329485	1.466537391548839	0.46929048433896414
Si	5.005463723064777	-0.20362843092606303	10.977229564259261	14	0.4917981974220725	0.3419438949425618	-1.197287642875484
Si	6.316164260190625	1.202129005391251	12.255320937571673	14	-0.5707283025347663	0.4092870568194763	1.2623358361436343
Si	7.7781835713060685	2.4011002762388585	10.976793608370775	14	0.13667584505055963	0.36707824922073334	0.25147364071091527
Si	9.046968380497049	3.808313704230081	12.360963653684767	14	-0.770711959662268	1.2352885795072726	0.17572553554243667
Si	7.564622415677424	-0.05921930528489976	13.79204692899124	14	0.984711997442557	-0.4028160989497276	-0.8783926786859217
Si	8.967642924293266	1.1617870950460976	15.210435303483129	14	-0.3775405909894799	0.259872670460243	0.53161999084159
Si	4.884740972955678	2.5680410834371723	13.814689703554723	14	0.6379462515825896	0.5677653607638277	-0.578816999871952
Si	6.239043831839814	3.9096069608225057	15.294122001799161	14	-0.7569292924830822	0.4555674668032057	-0.10474991606921691
Si	5.5459497143752925	5.186484727202099	0.35007426168332906	14	-1.3566856311928523	-1.242293298841484	-1.868181066472579
Si	6.790006230292994	6.572693160859563	1.524467046493471	14	0.8376923385785097	0.973113741343369	0.7250653271399551
Si	8.225622436903324	7.9728084190370625	0.24625784726525268	14	0.6644486910016119	-1.2880162931918056	0.1432743297441877
Si	9.474846460842873	9.051585473169336	1.9133481151617178	14	0.14747911538475783	0.5183772557796351	-0.8794792277942163
Si	8.210199024524108	5.13291264973912	2.811031786379817	14	-0.08140247998854826	-0.8788603627436568	0.20930082858665439
Si	9.45294262309424	6.373483201776285	4.296978174541047	14	-0.47022199579645374	0.2714202757846241	1.058973746625458
Si	5.300511598838588	7.9378966001832705	2.807564338000336	14	-0.5674845960628675	-0.7745794162848347	0.5445007142744677
Si	6.5233661828203955	9.132077405939613	4.380833195593946	14	-1.019402893085187	1.4741041545060347	-0.19515152178881548
Si	5.232049692072266	5.421584460240371	5.680550674139158	14	0.40541625775999335	-1.1520909537841972	-1.052430797806745
Si	6.412316940399101	6.71048047003234	7.0865807932901985	14	0.1873423035999297	0.004950920404477141	1.2439336640357386
Si	7.844635704594186	7.884137684482368	5.71805129668598	14	1.04859033779004	-0.8061430765265686	-0.20877298066442798
Si	9.021347976718369	9.2099569698337	7.207803461927795	14	-0.6333773974286865	1.5410968747278133	-0.6646937173386219
Si	7.783216421138421	5.393370203086557	8.480119682138264	14	0.18577161535985126	-1.3765674744124934	-0.8321192106865567
Si	9.11631061517719	6.7252592063293495	9.776908345061972	14	-0.4623875807754305	0.05408577151463499	0.45180362572504096
Si	4.958057307453273	7.919695862645733	8.637105882678204	14	-0.086988977628166	0.4511814182375651	-0.8710161775224169
Si	6.214137116465456	9.352999314851495	9.967929402996623	14	-0.018602975433399407	0.5860330640634797	-0.15073670582538545
Si	5.031871877251997	5.241230014141046	11.100148926084486	14	0.0916578477790229	0.30155800101580377	0.4305454698275246
Si	6.362284690092458	6.743044186706823	12.49240519567762	14	-0.7300774398510517	-0.330419943787126	-0.2438420858996517
Si	7.787634892981206	8.179692211694153	11.183231345775162	14	-0.5001288357698842	-1.397972697534322	0.1415455185269201
Si	9.062070296448844	9.13222216349332	12.7983805835289	14	-0.2847776821438574	1.8052460646670585	-0.35024059470014757
Si	7.595152793690542	5.30518928769615	13.868943488102017	14	0.10095959260625462	-0.9345895847789304	-0.3365160345011971
Si	8.926966051701745	6.524177498412099	15.32326203400575	14	-1.9430549958322072	1.2212937961391745	0.09713713032679047
Si	4.678774539214519	7.921904256953441	13.832225566281632	14	1.0552312457214503	0.09419707139320113	0.9368403303761879
Si	5.974839414369694	9.41545041668426	15.385822545617478	14	-0.9198910898847077	0.01868113703513191	-0.9866968907497115
Si	5.178241962777673	10.604226379359773	0.17056816217781914	14	1.677495040403797	0.8615673654708728	0.12818888349928284
Si	6.535507301830685	11.956421837578322	1.6817949421892533	14	-0.1929956499778713	0.18201728737137102	-0.0408517782107688
Si	8.033461834040077	13.290754886960437	0.3070173055924947	14	-0.10441181571961744	-0.6127591896453549	0.09197255107020902
Si	9.244988297830668	14.594520527327324	1.8396210731861649	14	-0.2626124402893928	-0.4580768655956703	0.27671623852306504
Si	7.882893779456914	10.49516502846089	3.006058925451925	14	-0.4334641885869567	-0.4520923608524936	-0.30451785746035825
Si	9.145857988406998	11.786617860625881	4.3580574460683374	14	-0.4546053591924063	-0.41844636241197186	2.125638954816139
Si	5.104147977235748	13.37185278158344	3.2926435340160136	14	0.719177753067348	0.26873115673028114	-1.4935458244948665
Si	6.378356145008614	14.765443850479935	4.669309751720431	14	-0.17290091923772197	0.21428285936550528	0.11227708400448244
Si	4.906405792417959	10.59254983110324	5.773378980294491	14	1.2321456603639236	-1.0660298880660724	0.09155268957142884
Si	6.332754149136335	11.826062610783529	7.1141284924060155	14	-0.21118827700217507	1.5402898047678186	0.2993324522506836
Si	7.788281252290779	13.254636194083302	5.826565598690042	14	-0.4853434375158406	-0.8192135475320733	-0.11718763805543327
Si	9.0569617013849	14.582761500929726	7.234958969066709	14	-0.06993252204483566	0.25765123546363505	0.6854021709186907
Si	7.6203187260796765	10.687605047067338	8.61708052667302	14	0.5562524653612685	-0.5574770828252551	0.2374852851061176
Si	8.889825639811821	11.981717378474844	10.198268969036269	14	-0.37064462941031073	0.4581308588073934	-0.6292307187683516
Si	5.000297898270298	13.334049178110256	8.58970283352144	14	-1.1152848097946813	-0.3772953075419378	-0.004810795164529071
Si	6.2442113398616605	14.708985038079671	10.052989614845497	14	-1.8225380334977146	0.3056051779002488	-0.477727823557562
Si	4.743499681222371	10.705317648667958	11.330796522732602	14	1.2094137468968984	0.17009121534386415	0.10352478438416635
Si	6.087279002597518	11.98783086027789	12.88092268723423	14	-1.4929151323598342	1.2712642564783805	-1.3796921387080692
Si	7.377474463918108	13.51959469741459	11.524532626412931	14	1.194042136629861	-2.199776776722609	0.7830758909257961
Si	8.877647489799418	14.617334991082414	12.916351256890207	14	-1.030860252612831	0.27265517766989117	0.78942754950869
Si	7.468230717182596	10.69482104279687	14.021295763695981	14	1.0238226231305216	-1.7988093024980678	0.5831138310829835
Si	8.768205729515214	11.914504426416084	15.486250623342402	14	-1.1556624761844148	0.6261852445166363	1.1198932589705146
Si	4.383400117331184	13.257324308191084	14.155189767965	14	0.9901946224272408	-0.5377307368559858	0.557787929458461
Si	5.647768137906747	14.76846019392461	15.45818785665177	14	-0.14247651576334572	-0.4843260511406581	0.813703668830996
Si	11.213975493664105	-0.2383534115419314	0.25963782161889	14	0.5033460598569854	-0.5334033094916446	-1.464746359582824
Si	12.601708931317592	1.1098696300865316	1.4871650447761537	14	-0.510908451935137	0.5221814632113262	-0.00871733258796206
Si	13.93355248742143	2.0978466670427323	-0.1979222901462378	14	0.0013526585089299044	0.15324507617572194	0.8212254374450892
Si	15.10413276224151	3.408755924362297	1.3892954726516238	14	0.5045349389570221	1.128006381808242	0.9012048106389355
Si	13.898378085098125	-0.3490104619863233	2.651047757896258	14	-0.21985727281011835	-0.33871304399726365	1.4569726226473563
Si	15.269289348429027	0.7643771133007495	4.219780317731276	14	-1.0553379465922366	0.7728585754940596	-0.03523185620198913
Si	11.197040543107814	2.5281267128436635	2.8347989568255785	14	-0.1477871338021116	-0.3652879885863142	0.5373273304312547
Si	12.422721265841636	3.7067797461239342	4.469333924184404	14	-0.7530649211868996	-0.32472134595554986	0.4173852672463466
Si	11.002846601583203	-0.13186403206239122	5.659596176626461	14	-0.6754021138865067	-0.03674135213544807	-0.9431655065742841
Si	12.186889328897987	1.0473848637063927	7.212250548635848	14	0.019719349363407707	-0.14269737371034644	0.9404655888775968
Si	13.654193973951084	2.1497826475033537	5.8238303542159375	14	0.3720836770579976	-0.2692803448266648	-1.5872502721087276
Si	14.887577145123986	3.5010523306691277	7.132780334878359	14	0.6156532257937136	1.8731764669990947	0.12506730453009107
Si	13.652170734653932	-0.46706866317080115	8.488308583286893	14	0.7081968193555276	1.7974923823530877	-0.8029135111339306
Si	14.91747631287385	1.079359450801838	9.97062088355914	14	-0.661237380456747	-0.8918555003632811	-0.33616327885127284
Si	10.610907108786066	2.46464042617916	8.53176951394621	14	0.4610773455042831	-0.8829329935707712	0.06447200856590517
Si	12.068189818086042	3.6738154213357053	9.915353796135904	14	-1.0287876846142596	1.2887092060755854	-0.3985416363549814
Si	10.696357829384473	-0.2766165360867652	11.089904804318701	14	0.7885207206622736	-0.0596645558382923	0.10631031988801479
Si	11.860341536146699	1.1291459499126548	12.661209335573062	14	-1.0263441061179908	0.04725254490527744	-0.14885877049954932
Si	13.301817057227403	2.2973831722355342	11.334162977469962	14	1.126358817519091	0.5271845770538024	-0.3038136317131697
Si	14.656616468185298	3.538460375710672	12.85506158194183	14	0.17335163400034392	0.44088645542516025	-0.6494974564544189
Si	13.333327073569093	0.07721973876556368	14.186568492571935	14	0.02151963730857539	-0.1532088235907078	-0.5274319173856006
Si	15.79960191352324	-0.11131014266343972	16.094400671646486	14	1.7502470365427072	-4.170921355287966	3.8081304241885796
Si	10.248552020220847	2.598192735292337	13.886211717677305	14	0.8518601573346536	-0.909738052085975	-0.4140315174667455
Si	11.73728414967724	3.8052704291475075	15.18226649346827	14	-1.2616277537384655	0.31715586855101413	0.6097705368212147
Si	11.19837197595644	5.149371246950073	0.0676573240840926	14	0.37638513625860537	-1.765685238437536	0.6961203376667922
Si	12.442165908404627	6.273285726200871	1.607633627552581	14	-0.3254633669509446	0.30716840993489886	0.9020355347678755
Si	13.645498421364485	7.739819453119114	0.33265790809959705	14	1.4071314889057536	-0.2812660664975991	-0.7342783688336416
Si	15.144865181336199	9.0697256145216	1.5495185194215355	14	-1.23392666501919	0.16973563147808768	1.0674717639296116
Si	13.714052905636082	4.907777622723432	3.0340341643193867	14	0.7223620670063514	-0.46089993923719286	-1.2538090224598952
Si	14.996158776222796	6.3140720085713555	4.29609279694512	14	-0.5352275087162895	1.1539634897888607	0.3246354710378569
Si	10.941420585217962	7.559756205354571	2.991953480102387	14	0.2700172236114192	0.6908660268345375	0.16112551398197578
Si	12.136855395363975	9.069254310858371	4.419959815778913	14	-0.7008136333181902	0.03667964560776451	0.09023576942644898
Si	10.81321925590982	5.085285731342319	5.735107439612814	14	-0.06888993883751561	-0.34507138745398985	-0.13738829833477267
Si	11.996056792428629	6.600360369118556	7.085072621567861	14	0.07658345728699471	-0.01489647000387394	0.01970932205265913
Si	13.566632486232352	7.817756246743735	5.727425189902159	14	0.38574884472405263	-0.8567349730216545	0.4145969035266461
Si	14.920255321259539	9.045761506473704	7.262213786620376	14	-1.2870611275653703	0.10033558534505468	0.3668044265041376
Si	13.277895029863723	5.016569657243327	8.320278727981043	14	0.29852769628547726	-0.8468107635964148	0.18622310145406926
Si	14.521895999278257	6.201778861124607	9.84652157934847	14	1.0731989010302414	0.8438133690141862	0.4228910321789118
Si	10.42503167691747	8.010692817423942	8.398266018426725	14	1.378248463070806	-1.6858279927463966	0.20869456195216343
Si	11.695533378024503	9.0392373171927	9.975507292610422	14	1.3268191575729482	0.9641670661608499	-0.08308783952590532
Si	10.394787447557027	5.27601390771482	11.040961602119593	14	0.9432827489768829	-1.2604221624538483	0.5839764369178932
Si	11.67841158923029	6.426908838458188	12.647011312718247	14	0.4546418688879524	0.04617987976571166	-0.057153871493167696
Si	13.19633761416907	7.639739803459507	11.27036866019699	14	-0.3954192860541936	0.18218158100132847	-0.15013609562259886
Si	14.608461016394731	9.054406562239246	12.544208201176115	14	-0.8372341676104593	-0.028989212484669593	0.958178190538629
Si	13.139488293019271	5.075447267372384	13.983379383989096	14	0.19062971886227104	-0.31778604646498243	-1.4561560395976771
Si	14.33394346483671	6.399798778458228	15.339617954347212	14	0.38879303342310795	1.2627323005840012	1.2216594073156997
Si	10.366625370451642	7.782193018898265	14.1393034680594	14	-0.14281924410252148	-0.46307997943814644	-1.6553423969654009
Si	11.490381626329784	9.227502931924821	15.36506161925218	14	-0.12316880036169371	0.7258515711468563	1.904570177179167
Si	10.871815767068309	10.46168058641574	0.5253554604934522	14	0.3883824279034803	-0.644586902403468	-0.2972051197087931
Si	12.33475412032705	11.719792050861917	1.9027303169200842	14	-0.5305295850753151	1.0472284233019575	-1.8471167719162018
Si	13.817611786266752	13.044993591768947	0.4620172978373924	14	-0.9853915405786722	-1.0491672938238812	-0.24891281981204777
Si	14.867088901592412	14.513784526588587	1.762180831635304	14	1.9960953559236698	0.049591993636080176	0.4503697202879944
Si	13.570276673485543	10.381380541565491	3.138414459905971	14	1.963011915327197	-0.34568562451497326	0.7919739722177646
Si	14.820187454191514	11.985194926218538	4.607324903868791	14	0.0035697226264935927	-1.112205139842208	-0.2855176462549959
Si	10.475498199885232	13.150274413997773	3.2628100121335293	14	1.2368291858151053	1.8731299299928001	-0.5626804857721708
Si	11.886091548432764	14.670812807812744	4.6234603214249566	14	-0.013111094469563113	-0.5819028404771939	-0.7248899777571209
Si	10.509911783437895	10.395586980557152	5.787863151801983	14	0.10854718151654362	0.20667084495467491	-0.4803716911582703
Si	11.827397410086892	11.738364781647933	7.1926880801570485	14	-0.5858433164908528	0.7562312373886619	0.7364396399657581
Si	13.15119513936844	13.220550839867531	5.92826451307832	14	0.6920489923923375	-0.4229704793333044	-0.32140693408734694
Si	14.575710461482325	14.493510052932837	7.267458723101183	14	0.19683919532096067	0.2641769578767029	0.36866487831379674
Si	13.189534009144866	10.39674672421417	8.554191785724397	14	0.4635610332435461	-0.4199152348813724	0.523009873345478
Si	14.434124108138437	11.7522429913027	10.12080011262014	14	0.10141904912696507	0.05940667397468145	-0.4328008434143585
Si	10.285646984971816	13.300956928042005	8.76258879978593	14	0.35742297741198126	-1.3530657720126158	-0.7490899923619507
Si	11.764826799110953	14.401984564760863	10.137795659361702	14	-1.2036056199786838	0.6270105693244038	0.4810422354257649
Si	10.398963534658723	10.5505196437073	11.27738098541491	14	-0.3028011304380954	-0.42855620564132607	1.0914645474456373
Si	11.648896197320486	11.816020476301984	12.846111862022559	14	-0.5066962100891385	-0.7801908536460579	1.461608839760647
Si	12.925149486346298	13.095116736353498	11.561499665883881	14	2.0257029192378355	0.6592807693081142	0.09882943184851194
Si	14.168212898116478	14.780156940909567	13.071142528941389	14	0.07592731120929293	-1.0825538677376	-0.4373072197089821
Si	13.12972220782619	10.309074143489104	14.21179670437371	14	0.1855309599018854	1.0176427143830138	-1.5125545203477853
Si	14.376451688805355	11.745410771413228	15.631083922280473	14	-0.09404691884250449	1.0564252670321272	-0.9404483624719517
Si	10.176469491384495	13.256627452060451	14.329179931383347	14	0.574752853692394	-0.29503973480816437	-1.4107189521589563
H	-1.59124909234585	1.364050428576161	14.87496135599573	1	108.60690495069373	61.850127258121084	-63.12657434870382
H	13.223860064874357	10.682634476647626	0.9526932248539306	1	-0.15089997101321484	0.20942886963159774	0.20004124988667307
H	9.478817194205588	14.012369608959872	4.1847624555532565	1	0.07296539788048233	0.14688878960325183	0.102771707635895
H	12.997331325597402	3.1589363679849174	0.7881005198349256	1	0.35796882307144867	-0.2827179696718867	-0.4325216213765905
H	15.017414571434486	0.8222346876443872	15.128775210918986	1	-111.15837319684864	-61.716639583667494	63.31418250459385
H	12.489876988169861	-0.8373231377772348	13.25251027791666	1	-0.5739480977271877	-0.5364824652230539	-0.5412117563489343
H	9.290563362065049	3.924234206656335	4.185624267966021	1	-0.20611162954754267	0.03477882744457903	-0.042840271065371326
